Generated by trjconv : CNT in water t= 108.00000
33518
    1C        C    1   2.838   2.764   4.743
    1C        C    2   2.893   2.716   4.864
    1C        C    3   2.836   2.765   4.982
    1C        C    4   2.842   2.765   4.256
    1C        C    5   2.894   2.717   4.378
    1C        C    6   2.844   2.766   4.501
    1C        C    7   3.011   2.637   4.627
    1C        C    8   2.895   2.717   4.623
    1C        C    9   3.076   2.600   4.747
    1C        C   10   3.006   2.632   4.865
    1C        C   11   3.180   2.490   4.974
    1C        C   12   3.059   2.560   4.973
    1C        C   13   2.843   2.764   3.769
    1C        C   14   2.897   2.717   3.891
    1C        C   15   2.848   2.770   4.013
    1C        C   16   3.015   2.640   4.136
    1C        C   17   2.896   2.717   4.135
    1C        C   18   3.077   2.614   4.260
    1C        C   19   3.013   2.641   4.383
    1C        C   20   3.206   2.554   4.502
    1C        C   21   3.072   2.601   4.505
    1C        C   22   3.275   2.531   4.622
    1C        C   23   3.207   2.545   4.745
    1C        C   24   3.413   2.479   4.862
    1C        C   25   3.271   2.498   4.863
    1C        C   26   3.491   2.482   4.979
    1C        C   27   2.847   2.763   3.280
    1C        C   28   2.897   2.714   3.403
    1C        C   29   2.845   2.764   3.525
    1C        C   30   3.017   2.640   3.647
    1C        C   31   2.900   2.719   3.648
    1C        C   32   3.077   2.605   3.769
    1C        C   33   3.012   2.635   3.891
    1C        C   34   3.205   2.550   4.015
    1C        C   35   3.072   2.599   4.013
    1C        C   36   3.274   2.534   4.137
    1C        C   37   3.206   2.556   4.259
    1C        C   38   3.414   2.511   4.378
    1C        C   39   3.275   2.535   4.380
    1C        C   40   3.485   2.500   4.499
    1C        C   41   3.414   2.502   4.621
    1C        C   42   3.628   2.487   4.744
    1C        C   43   3.486   2.483   4.740
    1C        C   44   3.706   2.485   4.861
    1C        C   45   3.630   2.477   4.978
    1C        C   46   2.834   2.744   2.794
    1C        C   47   2.893   2.703   2.916
    1C        C   48   2.840   2.756   3.036
    1C        C   49   3.014   2.633   3.159
    1C        C   50   2.897   2.713   3.158
    1C        C   51   3.076   2.600   3.282
    1C        C   52   3.010   2.629   3.403
    1C        C   53   3.204   2.542   3.525
    1C        C   54   3.074   2.597   3.525
    1C        C   55   3.273   2.525   3.647
    1C        C   56   3.208   2.552   3.769
    1C        C   57   3.415   2.518   3.892
    1C        C   58   3.275   2.537   3.893
    1C        C   59   3.486   2.506   4.013
    1C        C   60   3.412   2.505   4.133
    1C        C   61   3.623   2.509   4.259
    1C        C   62   3.483   2.496   4.255
    1C        C   63   3.696   2.512   4.380
    1C        C   64   3.627   2.500   4.502
    1C        C   65   3.835   2.547   4.621
    1C        C   66   3.699   2.510   4.623
    1C        C   67   3.904   2.569   4.742
    1C        C   68   3.841   2.528   4.861
    1C        C   69   4.052   2.582   4.975
    1C        C   70   3.925   2.523   4.973
    1C        C   71   2.820   2.727   2.309
    1C        C   72   2.883   2.689   2.430
    1C        C   73   2.830   2.745   2.548
    1C        C   74   2.998   2.615   2.672
    1C        C   75   2.882   2.696   2.670
    1C        C   76   3.069   2.591   2.791
    1C        C   77   3.011   2.626   2.915
    1C        C   78   3.203   2.538   3.036
    1C        C   79   3.073   2.593   3.038
    1C        C   80   3.271   2.522   3.159
    1C        C   81   3.205   2.544   3.282
    1C        C   82   3.412   2.496   3.402
    1C        C   83   3.273   2.518   3.403
    1C        C   84   3.484   2.496   3.524
    1C        C   85   3.413   2.502   3.646
    1C        C   86   3.625   2.505   3.767
    1C        C   87   3.483   2.507   3.769
    1C        C   88   3.696   2.509   3.889
    1C        C   89   3.627   2.510   4.013
    1C        C   90   3.830   2.554   4.135
    1C        C   91   3.694   2.518   4.137
    1C        C   92   3.899   2.572   4.257
    1C        C   93   3.834   2.542   4.379
    1C        C   94   4.027   2.635   4.498
    1C        C   95   3.904   2.564   4.499
    1C        C   96   4.091   2.672   4.618
    1C        C   97   4.031   2.633   4.741
    1C        C   98   4.198   2.761   4.862
    1C        C   99   4.102   2.654   4.862
    1C        C  100   4.216   2.837   4.979
    1C        C  101   2.820   2.725   2.066
    1C        C  102   2.988   2.593   2.190
    1C        C  103   2.869   2.673   2.187
    1C        C  104   3.061   2.569   2.310
    1C        C  105   3.001   2.611   2.430
    1C        C  106   3.202   2.543   2.549
    1C        C  107   3.066   2.583   2.552
    1C        C  108   3.272   2.525   2.670
    1C        C  109   3.200   2.538   2.791
    1C        C  110   3.409   2.498   2.913
    1C        C  111   3.268   2.514   2.913
    1C        C  112   3.480   2.496   3.035
    1C        C  113   3.411   2.502   3.158
    1C        C  114   3.624   2.509   3.278
    1C        C  115   3.483   2.496   3.280
    1C        C  116   3.693   2.519   3.401
    1C        C  117   3.625   2.505   3.524
    1C        C  118   3.834   2.546   3.646
    1C        C  119   3.696   2.515   3.646
    1C        C  120   3.898   2.576   3.769
    1C        C  121   3.830   2.553   3.890
    1C        C  122   4.020   2.648   4.011
    1C        C  123   3.895   2.581   4.012
    1C        C  124   4.080   2.681   4.134
    1C        C  125   4.023   2.640   4.257
    1C        C  126   4.199   2.763   4.376
    1C        C  127   4.086   2.679   4.378
    1C        C  128   4.249   2.818   4.497
    1C        C  129   4.195   2.767   4.617
    1C        C  130   4.323   2.935   4.739
    1C        C  131   4.245   2.816   4.740
    1C        C  132   4.357   3.002   4.859
    1C        C  133   4.283   2.958   4.970
    1C        C  134   3.171   2.462   2.080
    1C        C  135   3.039   2.506   2.089
    1C        C  136   3.257   2.473   2.191
    1C        C  137   3.192   2.513   2.309
    1C        C  138   3.405   2.484   2.424
    1C        C  139   3.264   2.502   2.430
    1C        C  140   3.478   2.483   2.545
    1C        C  141   3.410   2.495   2.668
    1C        C  142   3.620   2.495   2.792
    1C        C  143   3.479   2.488   2.791
    1C        C  144   3.692   2.504   2.913
    1C        C  145   3.622   2.498   3.036
    1C        C  146   3.833   2.542   3.156
    1C        C  147   3.694   2.513   3.156
    1C        C  148   3.901   2.566   3.278
    1C        C  149   3.831   2.548   3.400
    1C        C  150   4.025   2.632   3.521
    1C        C  151   3.898   2.570   3.522
    1C        C  152   4.083   2.674   3.643
    1C        C  153   4.024   2.640   3.766
    1C        C  154   4.197   2.763   3.886
    1C        C  155   4.083   2.680   3.888
    1C        C  156   4.246   2.811   4.009
    1C        C  157   4.193   2.765   4.132
    1C        C  158   4.331   2.926   4.253
    1C        C  159   4.249   2.812   4.253
    1C        C  160   4.374   2.988   4.373
    1C        C  161   4.335   2.929   4.495
    1C        C  162   4.442   3.112   4.616
    1C        C  163   4.367   2.992   4.618
    1C        C  164   4.469   3.182   4.735
    1C        C  165   4.432   3.121   4.857
    1C        C  166   4.515   3.319   4.975
    1C        C  167   4.480   3.185   4.973
    1C        C  168   3.475   2.435   2.074
    1C        C  169   3.397   2.451   2.189
    1C        C  170   3.619   2.471   2.305
    1C        C  171   3.477   2.464   2.305
    1C        C  172   3.691   2.488   2.426
    1C        C  173   3.619   2.488   2.548
    1C        C  174   3.828   2.533   2.667
    1C        C  175   3.690   2.500   2.669
    1C        C  176   3.894   2.565   2.788
    1C        C  177   3.826   2.548   2.910
    1C        C  178   4.023   2.629   3.032
    1C        C  179   3.895   2.569   3.032
    1C        C  180   4.086   2.667   3.152
    1C        C  181   4.026   2.630   3.275
    1C        C  182   4.195   2.755   3.397
    1C        C  183   4.085   2.667   3.398
    1C        C  184   4.249   2.804   3.518
    1C        C  185   4.195   2.760   3.641
    1C        C  186   4.340   2.917   3.766
    1C        C  187   4.249   2.809   3.763
    1C        C  188   4.379   2.980   3.886
    1C        C  189   4.333   2.922   4.007
    1C        C  190   4.446   3.101   4.125
    1C        C  191   4.373   2.980   4.129
    1C        C  192   4.475   3.167   4.247
    1C        C  193   4.446   3.110   4.373
    1C        C  194   4.515   3.311   4.491
    1C        C  195   4.474   3.176   4.494
    1C        C  196   4.522   3.383   4.613
    1C        C  197   4.511   3.318   4.738
    1C        C  198   4.552   3.534   4.850
    1C        C  199   4.533   3.392   4.857
    1C        C  200   4.584   3.620   4.960
    1C        C  201   3.614   2.417   2.071
    1C        C  202   3.828   2.506   2.185
    1C        C  203   3.691   2.465   2.182
    1C        C  204   3.901   2.532   2.304
    1C        C  205   3.828   2.520   2.424
    1C        C  206   4.019   2.620   2.544
    1C        C  207   3.895   2.552   2.545
    1C        C  208   4.084   2.655   2.664
    1C        C  209   4.024   2.622   2.787
    1C        C  210   4.195   2.749   2.907
    1C        C  211   4.085   2.659   2.909
    1C        C  212   4.251   2.795   3.028
    1C        C  213   4.201   2.749   3.151
    1C        C  214   4.339   2.908   3.271
    1C        C  215   4.249   2.799   3.274
    1C        C  216   4.382   2.966   3.393
    1C        C  217   4.341   2.911   3.516
    1C        C  218   4.439   3.097   3.638
    1C        C  219   4.377   2.970   3.640
    1C        C  220   4.472   3.166   3.756
    1C        C  221   4.449   3.102   3.880
    1C        C  222   4.502   3.305   4.003
    1C        C  223   4.473   3.167   4.004
    1C        C  224   4.515   3.377   4.125
    1C        C  225   4.510   3.304   4.245
    1C        C  226   4.518   3.518   4.368
    1C        C  227   4.522   3.376   4.366
    1C        C  228   4.515   3.593   4.487
    1C        C  229   4.528   3.524   4.610
    1C        C  230   4.501   3.741   4.726
    1C        C  231   4.537   3.603   4.727
    1C        C  232   4.492   3.816   4.845
    1C        C  233   4.544   3.754   4.959
    1C        C  234   4.020   2.610   2.063
    1C        C  235   3.900   2.540   2.070
    1C        C  236   4.088   2.641   2.181
    1C        C  237   4.026   2.599   2.300
    1C        C  238   4.198   2.730   2.419
    1C        C  239   4.084   2.646   2.421
    1C        C  240   4.253   2.780   2.540
    1C        C  241   4.195   2.743   2.663
    1C        C  242   4.338   2.903   2.783
    1C        C  243   4.245   2.797   2.784
    1C        C  244   4.382   2.961   2.903
    1C        C  245   4.338   2.907   3.026
    1C        C  246   4.448   3.088   3.148
    1C        C  247   4.380   2.964   3.148
    1C        C  248   4.465   3.158   3.270
    1C        C  249   4.439   3.095   3.394
    1C        C  250   4.501   3.299   3.514
    1C        C  251   4.466   3.162   3.515
    1C        C  252   4.510   3.372   3.635
    1C        C  253   4.506   3.303   3.758
    1C        C  254   4.519   3.514   3.879
    1C        C  255   4.517   3.373   3.880
    1C        C  256   4.513   3.585   4.001
    1C        C  257   4.519   3.518   4.125
    1C        C  258   4.486   3.728   4.241
    1C        C  259   4.511   3.589   4.247
    1C        C  260   4.467   3.798   4.362
    1C        C  261   4.479   3.730   4.486
    1C        C  262   4.421   3.937   4.603
    1C        C  263   4.473   3.806   4.604
    1C        C  264   4.396   4.010   4.722
    1C        C  265   4.432   3.944   4.841
    1C        C  266   4.319   4.128   4.954
    1C        C  267   4.392   4.010   4.958
    1C        C  268   4.258   2.776   2.061
    1C        C  269   4.199   2.729   2.179
    1C        C  270   4.346   2.887   2.299
    1C        C  271   4.256   2.777   2.299
    1C        C  272   4.380   2.950   2.421
    1C        C  273   4.345   2.886   2.542
    1C        C  274   4.452   3.079   2.659
    1C        C  275   4.384   2.955   2.660
    1C        C  276   4.476   3.149   2.779
    1C        C  277   4.447   3.087   2.903
    1C        C  278   4.508   3.289   3.023
    1C        C  279   4.475   3.152   3.025
    1C        C  280   4.515   3.361   3.144
    1C        C  281   4.504   3.294   3.267
    1C        C  282   4.515   3.505   3.387
    1C        C  283   4.516   3.364   3.389
    1C        C  284   4.511   3.578   3.507
    1C        C  285   4.517   3.513   3.633
    1C        C  286   4.487   3.722   3.751
    1C        C  287   4.515   3.583   3.755
    1C        C  288   4.469   3.791   3.873
    1C        C  289   4.482   3.723   3.996
    1C        C  290   4.423   3.928   4.116
    1C        C  291   4.466   3.794   4.117
    1C        C  292   4.397   3.998   4.236
    1C        C  293   4.419   3.930   4.358
    1C        C  294   4.323   4.122   4.476
    1C        C  295   4.391   3.998   4.479
    1C        C  296   4.278   4.185   4.594
    1C        C  297   4.323   4.132   4.717
    1C        C  298   4.203   4.315   4.832
    1C        C  299   4.283   4.196   4.837
    1C        C  300   4.168   4.397   4.945
    1C        C  301   4.346   2.884   2.060
    1C        C  302   4.468   3.065   2.177
    1C        C  303   4.397   2.941   2.178
    1C        C  304   4.481   3.140   2.296
    1C        C  305   4.446   3.075   2.416
    1C        C  306   4.509   3.281   2.535
    1C        C  307   4.477   3.143   2.536
    1C        C  308   4.519   3.356   2.654
    1C        C  309   4.507   3.287   2.777
    1C        C  310   4.521   3.498   2.899
    1C        C  311   4.518   3.357   2.899
    1C        C  312   4.517   3.572   3.019
    1C        C  313   4.511   3.503   3.142
    1C        C  314   4.479   3.713   3.262
    1C        C  315   4.507   3.574   3.264
    1C        C  316   4.466   3.784   3.384
    1C        C  317   4.488   3.718   3.507
    1C        C  318   4.419   3.920   3.626
    1C        C  319   4.465   3.787   3.628
    1C        C  320   4.387   3.983   3.749
    1C        C  321   4.417   3.922   3.873
    1C        C  322   4.313   4.109   3.992
    1C        C  323   4.386   3.989   3.994
    1C        C  324   4.276   4.172   4.112
    1C        C  325   4.325   4.120   4.234
    1C        C  326   4.184   4.282   4.349
    1C        C  327   4.278   4.177   4.355
    1C        C  328   4.134   4.341   4.468
    1C        C  329   4.186   4.293   4.590
    1C        C  330   4.025   4.435   4.712
    1C        C  331   4.139   4.350   4.710
    1C        C  332   3.969   4.484   4.832
    1C        C  333   4.051   4.473   4.945
    1C        C  334   4.552   3.263   2.060
    1C        C  335   4.534   3.125   2.065
    1C        C  336   4.539   3.346   2.173
    1C        C  337   4.515   3.279   2.295
    1C        C  338   4.527   3.494   2.410
    1C        C  339   4.524   3.353   2.414
    1C        C  340   4.518   3.567   2.531
    1C        C  341   4.517   3.497   2.653
    1C        C  342   4.491   3.707   2.772
    1C        C  343   4.513   3.567   2.776
    1C        C  344   4.475   3.777   2.893
    1C        C  345   4.496   3.712   3.016
    1C        C  346   4.420   3.911   3.136
    1C        C  347   4.472   3.780   3.138
    1C        C  348   4.390   3.977   3.257
    1C        C  349   4.421   3.918   3.381
    1C        C  350   4.318   4.103   3.502
    1C        C  351   4.392   3.983   3.503
    1C        C  352   4.272   4.161   3.622
    1C        C  353   4.314   4.104   3.745
    1C        C  354   4.176   4.266   3.865
    1C        C  355   4.270   4.160   3.867
    1C        C  356   4.121   4.316   3.985
    1C        C  357   4.175   4.271   4.107
    1C        C  358   4.009   4.405   4.229
    1C        C  359   4.125   4.324   4.228
    1C        C  360   3.949   4.446   4.351
    1C        C  361   4.014   4.415   4.472
    1C        C  362   3.826   4.517   4.594
    1C        C  363   3.955   4.461   4.592
    1C        C  364   3.760   4.547   4.715
    1C        C  365   3.836   4.533   4.833
    1C        C  366   3.630   4.597   4.947
    1C        C  367   3.766   4.570   4.948
    1C        C  368   4.506   3.561   2.052
    1C        C  369   4.531   3.487   2.168
    1C        C  370   4.497   3.702   2.286
    1C        C  371   4.526   3.563   2.287
    1C        C  372   4.483   3.775   2.406
    1C        C  373   4.500   3.707   2.528
    1C        C  374   4.419   3.904   2.650
    1C        C  375   4.481   3.777   2.649
    1C        C  376   4.384   3.970   2.770
    1C        C  377   4.417   3.906   2.892
    1C        C  378   4.311   4.091   3.013
    1C        C  379   4.390   3.973   3.013
    1C        C  380   4.269   4.152   3.134
    1C        C  381   4.315   4.097   3.255
    1C        C  382   4.173   4.254   3.379
    1C        C  383   4.273   4.154   3.377
    1C        C  384   4.119   4.305   3.499
    1C        C  385   4.173   4.261   3.622
    1C        C  386   4.002   4.389   3.739
    1C        C  387   4.119   4.310   3.743
    1C        C  388   3.943   4.428   3.861
    1C        C  389   4.005   4.397   3.984
    1C        C  390   3.816   4.490   4.106
    1C        C  391   3.947   4.437   4.107
    1C        C  392   3.749   4.515   4.228
    1C        C  393   3.820   4.502   4.350
    1C        C  394   3.615   4.551   4.473
    1C        C  395   3.754   4.527   4.472
    1C        C  396   3.544   4.566   4.595
    1C        C  397   3.620   4.566   4.714
    1C        C  398   3.409   4.551   4.836
    1C        C  399   3.549   4.574   4.835
    1C        C  400   3.342   4.515   4.954
    1C        C  401   4.503   3.700   2.049
    1C        C  402   4.454   3.912   2.165
    1C        C  403   4.492   3.776   2.166
    1C        C  404   4.408   3.971   2.285
    1C        C  405   4.430   3.906   2.408
    1C        C  406   4.323   4.092   2.524
    1C        C  407   4.394   3.970   2.528
    1C        C  408   4.278   4.150   2.645
    1C        C  409   4.313   4.092   2.769
    1C        C  410   4.169   4.247   2.888
    1C        C  411   4.268   4.147   2.891
    1C        C  412   4.118   4.296   3.011
    1C        C  413   4.170   4.253   3.135
    1C        C  414   4.000   4.379   3.252
    1C        C  415   4.117   4.300   3.257
    1C        C  416   3.942   4.418   3.374
    1C        C  417   4.004   4.386   3.497
    1C        C  418   3.808   4.476   3.616
    1C        C  419   3.940   4.424   3.617
    1C        C  420   3.742   4.501   3.739
    1C        C  421   3.813   4.482   3.860
    1C        C  422   3.610   4.537   3.986
    1C        C  423   3.747   4.503   3.983
    1C        C  424   3.540   4.544   4.109
    1C        C  425   3.611   4.544   4.231
    1C        C  426   3.400   4.551   4.353
    1C        C  427   3.541   4.554   4.353
    1C        C  428   3.329   4.545   4.476
    1C        C  429   3.403   4.555   4.596
    1C        C  430   3.193   4.518   4.720
    1C        C  431   3.332   4.547   4.717
    1C        C  432   3.125   4.492   4.842
    1C        C  433   3.204   4.497   4.957
    1C        C  434   4.387   4.118   2.055
    1C        C  435   4.449   3.992   2.051
    1C        C  436   4.305   4.161   2.164
    1C        C  437   4.327   4.088   2.284
    1C        C  438   4.180   4.250   2.403
    1C        C  439   4.276   4.147   2.402
    1C        C  440   4.124   4.298   2.524
    1C        C  441   4.175   4.246   2.645
    1C        C  442   4.003   4.376   2.764
    1C        C  443   4.114   4.289   2.765
    1C        C  444   3.945   4.419   2.885
    1C        C  445   4.005   4.380   3.007
    1C        C  446   3.811   4.470   3.128
    1C        C  447   3.941   4.415   3.128
    1C        C  448   3.746   4.497   3.251
    1C        C  449   3.815   4.480   3.373
    1C        C  450   3.605   4.528   3.496
    1C        C  451   3.743   4.500   3.494
    1C        C  452   3.537   4.543   3.619
    1C        C  453   3.606   4.536   3.742
    1C        C  454   3.397   4.549   3.861
    1C        C  455   3.539   4.550   3.865
    1C        C  456   3.329   4.527   3.983
    1C        C  457   3.399   4.533   4.106
    1C        C  458   3.195   4.501   4.235
    1C        C  459   3.333   4.533   4.230
    1C        C  460   3.126   4.479   4.356
    1C        C  461   3.193   4.509   4.476
    1C        C  462   2.996   4.433   4.599
    1C        C  463   3.125   4.492   4.599
    1C        C  464   2.934   4.395   4.720
    1C        C  465   2.992   4.439   4.842
    1C        C  466   2.804   4.333   4.960
    1C        C  467   2.906   4.429   4.956
    1C        C  468   4.128   4.289   2.043
    1C        C  469   4.191   4.248   2.161
    1C        C  470   4.008   4.371   2.280
    1C        C  471   4.128   4.295   2.280
    1C        C  472   3.940   4.399   2.400
    1C        C  473   4.004   4.371   2.523
    1C        C  474   3.811   4.468   2.642
    1C        C  475   3.941   4.414   2.642
    1C        C  476   3.746   4.496   2.765
    1C        C  477   3.816   4.478   2.886
    1C        C  478   3.606   4.523   3.008
    1C        C  479   3.745   4.498   3.007
    1C        C  480   3.536   4.531   3.131
    1C        C  481   3.608   4.524   3.253
    1C        C  482   3.394   4.531   3.375
    1C        C  483   3.535   4.534   3.373
    1C        C  484   3.322   4.534   3.497
    1C        C  485   3.395   4.545   3.617
    1C        C  486   3.191   4.497   3.745
    1C        C  487   3.326   4.539   3.740
    1C        C  488   3.127   4.468   3.868
    1C        C  489   3.193   4.492   3.991
    1C        C  490   3.001   4.409   4.114
    1C        C  491   3.126   4.475   4.115
    1C        C  492   2.941   4.376   4.238
    1C        C  493   2.999   4.418   4.360
    1C        C  494   2.826   4.295   4.481
    1C        C  495   2.933   4.387   4.482
    1C        C  496   2.772   4.250   4.604
    1C        C  497   2.821   4.309   4.723
    1C        C  498   2.666   4.164   4.844
    1C        C  499   2.756   4.273   4.843
    1C        C  500   2.597   4.115   4.955
    1C        C  501   4.005   4.355   2.040
    1C        C  502   3.818   4.462   2.154
    1C        C  503   3.946   4.404   2.157
    1C        C  504   3.746   4.484   2.274
    1C        C  505   3.811   4.457   2.396
    1C        C  506   3.604   4.503   2.517
    1C        C  507   3.744   4.479   2.518
    1C        C  508   3.536   4.518   2.639
    1C        C  509   3.606   4.517   2.762
    1C        C  510   3.396   4.530   2.887
    1C        C  511   3.537   4.525   2.885
    1C        C  512   3.322   4.529   3.007
    1C        C  513   3.395   4.533   3.128
    1C        C  514   3.189   4.490   3.253
    1C        C  515   3.327   4.520   3.251
    1C        C  516   3.124   4.467   3.376
    1C        C  517   3.186   4.496   3.499
    1C        C  518   2.998   4.408   3.624
    1C        C  519   3.124   4.473   3.623
    1C        C  520   2.941   4.369   3.747
    1C        C  521   3.003   4.402   3.870
    1C        C  522   2.834   4.277   3.994
    1C        C  523   2.941   4.369   3.993
    1C        C  524   2.784   4.230   4.118
    1C        C  525   2.835   4.283   4.238
    1C        C  526   2.689   4.131   4.361
    1C        C  527   2.778   4.240   4.360
    1C        C  528   2.646   4.078   4.485
    1C        C  529   2.684   4.140   4.606
    1C        C  530   2.582   3.956   4.731
    1C        C  531   2.640   4.086   4.729
    1C        C  532   2.541   3.897   4.854
    1C        C  533   2.527   3.993   4.958
    1C        C  534   3.617   4.557   2.037
    1C        C  535   3.750   4.513   2.043
    1C        C  536   3.535   4.532   2.152
    1C        C  537   3.606   4.511   2.273
    1C        C  538   3.393   4.514   2.398
    1C        C  539   3.534   4.517   2.395
    1C        C  540   3.324   4.511   2.521
    1C        C  541   3.395   4.515   2.644
    1C        C  542   3.185   4.488   2.765
    1C        C  543   3.324   4.516   2.766
    1C        C  544   3.119   4.464   2.887
    1C        C  545   3.186   4.491   3.008
    1C        C  546   2.998   4.397   3.136
    1C        C  547   3.121   4.466   3.131
    1C        C  548   2.937   4.361   3.258
    1C        C  549   2.999   4.399   3.379
    1C        C  550   2.829   4.277   3.505
    1C        C  551   2.941   4.363   3.503
    1C        C  552   2.780   4.228   3.629
    1C        C  553   2.830   4.282   3.749
    1C        C  554   2.697   4.118   3.873
    1C        C  555   2.781   4.231   3.872
    1C        C  556   2.658   4.060   3.996
    1C        C  557   2.694   4.121   4.118
    1C        C  558   2.590   3.939   4.247
    1C        C  559   2.654   4.065   4.241
    1C        C  560   2.564   3.877   4.371
    1C        C  561   2.582   3.952   4.490
    1C        C  562   2.529   3.746   4.616
    1C        C  563   2.562   3.884   4.612
    1C        C  564   2.516   3.676   4.737
    1C        C  565   2.520   3.755   4.856
    1C        C  566   2.535   3.541   4.976
    1C        C  567   2.524   3.680   4.974
    1C        C  568   3.331   4.469   2.040
    1C        C  569   3.395   4.512   2.157
    1C        C  570   3.181   4.473   2.278
    1C        C  571   3.321   4.500   2.278
    1C        C  572   3.116   4.457   2.402
    1C        C  573   3.186   4.480   2.523
    1C        C  574   2.991   4.396   2.648
    1C        C  575   3.118   4.459   2.644
    1C        C  576   2.936   4.352   2.770
    1C        C  577   2.997   4.392   2.891
    1C        C  578   2.827   4.270   3.014
    1C        C  579   2.939   4.356   3.014
    1C        C  580   2.776   4.223   3.137
    1C        C  581   2.829   4.270   3.259
    1C        C  582   2.696   4.111   3.382
    1C        C  583   2.781   4.224   3.384
    1C        C  584   2.657   4.057   3.507
    1C        C  585   2.697   4.114   3.630
    1C        C  586   2.590   3.931   3.754
    1C        C  587   2.657   4.056   3.752
    1C        C  588   2.566   3.871   3.879
    1C        C  589   2.598   3.932   4.003
    1C        C  590   2.528   3.735   4.127
    1C        C  591   2.566   3.871   4.126
    1C        C  592   2.520   3.667   4.251
    1C        C  593   2.529   3.740   4.372
    1C        C  594   2.511   3.533   4.496
    1C        C  595   2.514   3.674   4.495
    1C        C  596   2.516   3.461   4.617
    1C        C  597   2.514   3.534   4.738
    1C        C  598   2.531   3.322   4.858
    1C        C  599   2.523   3.463   4.860
    1C        C  600   2.533   3.248   4.976
    1C        C  601   3.196   4.439   2.039
    1C        C  602   2.983   4.393   2.159
    1C        C  603   3.117   4.442   2.155
    1C        C  604   2.924   4.356   2.283
    1C        C  605   2.988   4.398   2.402
    1C        C  606   2.819   4.273   2.528
    1C        C  607   2.929   4.361   2.525
    1C        C  608   2.770   4.220   2.649
    1C        C  609   2.823   4.267   2.771
    1C        C  610   2.686   4.109   2.893
    1C        C  611   2.770   4.221   2.894
    1C        C  612   2.652   4.049   3.017
    1C        C  613   2.690   4.110   3.138
    1C        C  614   2.590   3.926   3.266
    1C        C  615   2.652   4.052   3.261
    1C        C  616   2.563   3.863   3.390
    1C        C  617   2.592   3.932   3.510
    1C        C  618   2.530   3.729   3.638
    1C        C  619   2.565   3.865   3.631
    1C        C  620   2.515   3.662   3.762
    1C        C  621   2.527   3.735   3.882
    1C        C  622   2.511   3.524   4.008
    1C        C  623   2.519   3.665   4.004
    1C        C  624   2.510   3.454   4.130
    1C        C  625   2.512   3.526   4.251
    1C        C  626   2.543   3.320   4.378
    1C        C  627   2.516   3.459   4.375
    1C        C  628   2.554   3.248   4.499
    1C        C  629   2.533   3.321   4.619
    1C        C  630   2.596   3.114   4.743
    1C        C  631   2.549   3.248   4.739
    1C        C  632   2.620   3.048   4.867
    1C        C  633   2.566   3.112   4.983
    1C        C  634   2.785   4.302   2.052
    1C        C  635   2.890   4.395   2.050
    1C        C  636   2.755   4.224   2.165
    1C        C  637   2.815   4.265   2.286
    1C        C  638   2.678   4.108   2.410
    1C        C  639   2.765   4.219   2.410
    1C        C  640   2.642   4.046   2.532
    1C        C  641   2.684   4.107   2.652
    1C        C  642   2.583   3.919   2.777
    1C        C  643   2.646   4.045   2.773
    1C        C  644   2.558   3.854   2.900
    1C        C  645   2.588   3.923   3.020
    1C        C  646   2.527   3.723   3.147
    1C        C  647   2.564   3.859   3.144
    1C        C  648   2.510   3.656   3.270
    1C        C  649   2.525   3.727   3.391
    1C        C  650   2.508   3.519   3.518
    1C        C  651   2.518   3.660   3.515
    1C        C  652   2.510   3.450   3.642
    1C        C  653   2.508   3.521   3.764
    1C        C  654   2.532   3.312   3.888
    1C        C  655   2.509   3.451   3.887
    1C        C  656   2.552   3.247   4.011
    1C        C  657   2.535   3.315   4.134
    1C        C  658   2.604   3.116   4.258
    1C        C  659   2.555   3.248   4.257
    1C        C  660   2.636   3.050   4.378
    1C        C  661   2.601   3.115   4.499
    1C        C  662   2.709   2.934   4.624
    1C        C  663   2.629   3.050   4.622
    1C        C  664   2.747   2.874   4.746
    1C        C  665   2.701   2.930   4.868
    1C        C  666   2.739   2.865   4.987
    1C        C  667   2.677   4.022   2.054
    1C        C  668   2.688   4.099   2.170
    1C        C  669   2.583   3.912   2.289
    1C        C  670   2.645   4.040   2.291
    1C        C  671   2.560   3.848   2.413
    1C        C  672   2.588   3.916   2.533
    1C        C  673   2.515   3.718   2.658
    1C        C  674   2.553   3.854   2.655
    1C        C  675   2.507   3.650   2.781
    1C        C  676   2.515   3.720   2.904
    1C        C  677   2.503   3.510   3.030
    1C        C  678   2.508   3.651   3.027
    1C        C  679   2.506   3.441   3.153
    1C        C  680   2.507   3.515   3.274
    1C        C  681   2.532   3.306   3.399
    1C        C  682   2.513   3.446   3.397
    1C        C  683   2.549   3.240   3.523
    1C        C  684   2.530   3.310   3.644
    1C        C  685   2.602   3.111   3.770
    1C        C  686   2.550   3.242   3.766
    1C        C  687   2.635   3.048   3.892
    1C        C  688   2.605   3.116   4.012
    1C        C  689   2.715   2.936   4.136
    1C        C  690   2.636   3.053   4.135
    1C        C  691   2.754   2.876   4.258
    1C        C  692   2.713   2.932   4.381
    1C        C  693   2.756   2.877   4.504
    1C        C  694   2.624   3.892   2.056
    1C        C  695   2.520   3.703   2.175
    1C        C  696   2.568   3.835   2.171
    1C        C  697   2.501   3.637   2.299
    1C        C  698   2.520   3.713   2.416
    1C        C  699   2.488   3.505   2.543
    1C        C  700   2.494   3.646   2.538
    1C        C  701   2.505   3.437   2.666
    1C        C  702   2.501   3.509   2.787
    1C        C  703   2.529   3.298   2.912
    1C        C  704   2.506   3.437   2.909
    1C        C  705   2.552   3.231   3.034
    1C        C  706   2.537   3.303   3.155
    1C        C  707   2.600   3.103   3.279
    1C        C  708   2.552   3.236   3.278
    1C        C  709   2.633   3.043   3.403
    1C        C  710   2.603   3.109   3.524
    1C        C  711   2.706   2.927   3.647
    1C        C  712   2.632   3.047   3.647
    1C        C  713   2.756   2.875   3.768
    1C        C  714   2.715   2.932   3.891
    1C        C  715   2.752   2.874   4.015
    1C        C  716   2.448   3.498   2.062
    1C        C  717   2.482   3.633   2.059
    1C        C  718   2.470   3.423   2.182
    1C        C  719   2.481   3.496   2.304
    1C        C  720   2.510   3.287   2.424
    1C        C  721   2.481   3.426   2.426
    1C        C  722   2.536   3.224   2.548
    1C        C  723   2.529   3.297   2.668
    1C        C  724   2.604   3.099   2.789
    1C        C  725   2.551   3.230   2.790
    1C        C  726   2.630   3.034   2.913
    1C        C  727   2.597   3.097   3.035
    1C        C  728   2.706   2.918   3.158
    1C        C  729   2.628   3.035   3.158
    1C        C  730   2.749   2.865   3.281
    1C        C  731   2.708   2.923   3.403
    1C        C  732   2.747   2.866   3.526
    1C        C  733   2.491   3.196   2.074
    1C        C  734   2.487   3.281   2.186
    1C        C  735   2.582   3.083   2.303
    1C        C  736   2.524   3.213   2.305
    1C        C  737   2.613   3.021   2.426
    1C        C  738   2.592   3.094   2.546
    1C        C  739   2.698   2.909   2.669
    1C        C  740   2.627   3.031   2.667
    1C        C  741   2.742   2.851   2.791
    1C        C  742   2.699   2.911   2.911
    1C        C  743   2.745   2.860   3.035
    1C        C  744   2.544   3.067   2.075
    1C        C  745   2.682   2.890   2.185
    1C        C  746   2.610   3.011   2.185
    1C        C  747   2.729   2.835   2.306
    1C        C  748   2.684   2.899   2.424
    1C        C  749   2.736   2.851   2.547
    1C        C  750   2.733   2.834   2.067
    1C        C  751   3.676   2.328   1.971
    1C        O  752   3.661   2.204   1.985
    1C        O  753   3.677   2.365   1.835
    1C        C  754   4.639   3.048   1.994
    1C        O  755   4.618   3.022   1.872
    1C        O  756   4.766   3.092   2.032
    1C        C  757   4.434   4.223   1.962
    1C        O  758   4.552   4.264   1.977
    1C        O  759   4.408   4.215   1.825
    1C        C  760   3.594   4.679   1.956
    1C        O  761   3.566   4.794   2.000
    1C        O  762   3.641   4.686   1.825
    1C        C  763   2.896   4.475   1.926
    1C        O  764   2.900   4.420   1.813
    1C        O  765   2.876   4.614   1.927
    1C        C  766   2.343   3.455   1.967
    1C        O  767   2.365   3.453   1.843
    1C        O  768   2.205   3.456   1.989
    1C        C  769   4.719   3.598   5.015
    1C        O  770   4.737   3.607   5.140
    1C        O  771   4.833   3.615   4.935
    1C        C  772   4.275   4.452   5.031
    1C        O  773   4.269   4.467   5.156
    1C        O  774   4.356   4.554   4.978
    1C        C  775   4.127   2.528   5.091
    1C        O  776   4.188   2.418   5.096
    1C        O  777   4.087   2.571   5.219
    1C        C  778   2.878   4.553   5.033
    1C        O  779   2.814   4.651   4.987
    1C        O  780   2.911   4.563   5.168
    1C        C  781   2.503   3.038   5.094
    1C        O  782   2.408   2.956   5.081
    1C        O  783   2.520   3.071   5.228
    1C        C  784   2.410   3.982   5.049
    1C        O  785   2.293   4.009   5.009
    1C        O  786   2.411   3.988   5.189
    1C        C  787   2.947   2.411   2.021
    1C        O  788   2.895   2.435   1.909
    1C        O  789   2.907   2.294   2.084
    1C        C  790   3.180   2.372   5.063
    1C        O  791   3.229   2.261   5.029
    1C        O  792   3.145   2.380   5.198
    1C        H  793   4.262   3.033   5.043
    1C        H  794   4.217   2.785   5.072
    1C        H  795   4.480   3.137   5.069
    1C        H  796   4.468   3.375   5.053
    1C        H  797   4.562   3.812   5.048
    1C        H  798   4.430   3.979   5.053
    1C        H  799   4.322   4.185   5.045
    1C        H  800   4.055   4.562   5.004
    1C        H  801   3.818   4.586   5.040
    1C        H  802   3.591   4.655   5.029
    1C        H  803   3.399   4.477   5.036
    1C        H  804   3.165   4.467   5.052
    1C        H  805   3.912   2.437   5.035
    1C        H  806   3.671   2.505   5.072
    1C        H  807   3.027   2.587   5.072
    1C        H  808   3.446   2.500   5.074
    1C        H  809   2.834   2.700   5.067
    1C        H  810   2.701   2.902   5.080
    1C        H  811   2.492   3.292   5.065
    1C        H  812   2.604   3.509   5.051
    1C        H  813   2.484   3.728   5.060
    1C        H  814   2.607   4.163   5.050
    1C        H  815   2.749   4.317   5.050
    1C        H  816   2.701   2.882   1.977
    1C        H  817   2.882   2.715   1.980
    1C        H  818   3.206   2.406   1.997
    1C        H  819   3.432   2.477   1.985
    1C        H  820   3.873   2.497   1.976
    1C        H  821   4.067   2.626   1.968
    1C        H  822   4.283   2.702   1.988
    1C        H  823   4.387   2.905   1.963
    1C        H  824   4.556   3.309   1.964
    1C        H  825   4.482   3.515   1.958
    1C        H  826   4.519   3.750   1.956
    1C        H  827   3.799   4.518   1.948
    1C        H  828   3.943   4.351   1.952
    1C        H  829   4.146   4.222   1.961
    1C        H  830   4.500   3.963   1.961
    1C        H  831   2.605   3.845   1.962
    1C        H  832   2.663   4.076   1.963
    1C        H  833   2.722   4.288   1.967
    1C        H  834   3.390   4.429   1.960
    1C        H  835   3.162   4.373   1.962
    1C        H  836   2.525   3.013   1.984
    1C        H  837   2.438   3.230   1.988
    1C        H  838   2.437   3.688   1.979
    2V3OU   H29  839   2.796   3.555   1.505
    2V3OU   C27  840   2.778   3.502   1.602
    2V3OU   H27  841   2.722   3.567   1.674
    2V3OU   H28  842   2.729   3.402   1.587
    2V3OU   O11  843   2.902   3.482   1.672
    2V3OU   C15  844   2.915   3.397   1.779
    2V3OU   C13  845   3.047   3.369   1.820
    2V3OU   C14  846   3.073   3.262   1.907
    2V3OU   C16  847   2.971   3.184   1.960
    2V3OU    H6  848   2.987   3.106   2.035
    2V3OU   C12  849   3.211   3.223   1.944
    2V3OU    O2  850   3.236   3.123   2.014
    2V3OU   C10  851   3.324   3.306   1.897
    2V3OU    C8  852   3.454   3.270   1.931
    2V3OU   O10  853   3.488   3.156   1.995
    2V3OU   H26  854   3.401   3.113   1.995
    2V3OU    C6  855   3.565   3.349   1.886
    2V3OU    C5  856   3.537   3.465   1.815
    2V3OU    C4  857   3.702   3.291   1.885
    2V3OU    H4  858   3.723   3.230   1.978
    2V3OU    H5  859   3.710   3.224   1.794
    2V3OU    C2  860   3.811   3.398   1.876
    2V3OU    O6  861   3.804   3.479   1.993
    2V3OU   H21  862   3.761   3.562   1.966
    2V3OU    C3  863   3.779   3.496   1.763
    2V3OU    H2  864   3.855   3.579   1.766
    2V3OU    H3  865   3.781   3.445   1.663
    2V3OU   C25  866   3.946   3.326   1.868
    2V3OU    O7  867   3.996   3.295   1.760
    2V3OU   C26  868   4.022   3.284   1.992
    2V3OU   H22  869   4.073   3.375   2.035
    2V3OU   H23  870   4.111   3.223   1.964
    2V3OU    O8  871   3.947   3.210   2.085
    2V3OU   H24  872   3.935   3.253   2.171
    2V3OU    C1  873   3.644   3.564   1.780
    2V3OU    H1  874   3.621   3.619   1.684
    2V3OU    O3  875   3.660   3.652   1.891
    2V3OU   C19  876   3.625   3.791   1.889
    2V3OU    H9  877   3.524   3.811   1.842
    2V3OU    O4  878   3.715   3.850   1.798
    2V3OU   C20  879   3.846   3.874   1.851
    2V3OU   H10  880   3.890   3.770   1.860
    2V3OU   C24  881   3.614   3.855   2.027
    2V3OU   H16  882   3.545   3.792   2.088
    2V3OU   H17  883   3.561   3.952   2.010
    2V3OU   C23  884   3.754   3.874   2.087
    2V3OU   H15  885   3.801   3.771   2.104
    2V3OU    N1  886   3.738   3.952   2.208
    2V3OU   H19  887   3.809   3.921   2.271
    2V3OU   H20  888   3.644   3.932   2.237
    2V3OU   C21  889   3.846   3.948   1.985
    2V3OU   H11  890   3.952   3.932   2.018
    2V3OU    O5  891   3.820   4.088   1.989
    2V3OU   H18  892   3.781   4.104   2.076
    2V3OU   C22  893   3.910   3.947   1.734
    2V3OU   H12  894   3.859   4.046   1.720
    2V3OU   H13  895   3.895   3.889   1.639
    2V3OU   H14  896   4.020   3.959   1.751
    2V3OU   C11  897   3.157   3.464   1.798
    2V3OU    O1  898   3.133   3.584   1.771
    2V3OU    C9  899   3.297   3.423   1.821
    2V3OU    C7  900   3.403   3.504   1.783
    2V3OU    O9  901   3.386   3.616   1.705
    2V3OU   H25  902   3.290   3.631   1.703
    2V3OU   C17  903   2.812   3.311   1.824
    2V3OU    H7  904   2.712   3.335   1.789
    2V3OU   C18  905   2.842   3.210   1.915
    2V3OU    H8  906   2.759   3.146   1.947
    3SOL     OW  907   1.650   3.934   1.366
    3SOL    HW1  908   1.653   3.884   1.452
    3SOL    HW2  909   1.668   4.031   1.382
    4SOL     OW  910   6.253   0.764   1.919
    4SOL    HW1  911   6.157   0.754   1.894
    4SOL    HW2  912   6.262   0.756   2.019
    5SOL     OW  913   4.034   1.157   0.799
    5SOL    HW1  914   4.123   1.161   0.844
    5SOL    HW2  915   3.977   1.233   0.830
    6SOL     OW  916   3.165   2.127   2.285
    6SOL    HW1  917   3.084   2.079   2.318
    6SOL    HW2  918   3.138   2.201   2.225
    7SOL     OW  919   5.901   2.194   2.347
    7SOL    HW1  920   5.808   2.230   2.339
    7SOL    HW2  921   5.899   2.111   2.402
    8SOL     OW  922   2.504   6.842   4.239
    8SOL    HW1  923   2.444   6.832   4.318
    8SOL    HW2  924   2.455   6.813   4.157
    9SOL     OW  925   1.597   5.295   5.843
    9SOL    HW1  926   1.524   5.227   5.830
    9SOL    HW2  927   1.560   5.387   5.827
   10SOL     OW  928   0.874   4.809   5.920
   10SOL    HW1  929   0.854   4.790   6.016
   10SOL    HW2  930   0.823   4.890   5.891
   11SOL     OW  931   3.652   6.784   0.270
   11SOL    HW1  932   3.672   6.731   0.352
   11SOL    HW2  933   3.559   6.762   0.238
   12SOL     OW  934   5.027   5.406   3.219
   12SOL    HW1  935   5.117   5.384   3.181
   12SOL    HW2  936   4.956   5.378   3.155
   13SOL     OW  937   2.722   6.373   3.869
   13SOL    HW1  938   2.625   6.380   3.893
   13SOL    HW2  939   2.772   6.449   3.910
   14SOL     OW  940   3.628   6.048   6.954
   14SOL    HW1  941   3.662   6.021   0.023
   14SOL    HW2  942   3.624   6.148   6.949
   15SOL     OW  943   1.063   6.343   6.793
   15SOL    HW1  944   1.004   6.376   6.866
   15SOL    HW2  945   1.151   6.391   6.797
   16SOL     OW  946   6.557   2.466   5.916
   16SOL    HW1  947   6.565   2.562   5.940
   16SOL    HW2  948   6.573   2.454   5.818
   17SOL     OW  949   5.123   6.908   4.098
   17SOL    HW1  950   5.216   6.926   4.129
   17SOL    HW2  951   5.114   6.934   4.002
   18SOL     OW  952   2.205   1.909   5.508
   18SOL    HW1  953   2.256   1.974   5.565
   18SOL    HW2  954   2.123   1.954   5.473
   19SOL     OW  955   7.002   0.190   2.555
   19SOL    HW1  956   0.007   0.246   2.633
   19SOL    HW2  957   0.063   0.148   2.515
   20SOL     OW  958   3.380   1.381   4.389
   20SOL    HW1  959   3.456   1.370   4.325
   20SOL    HW2  960   3.340   1.472   4.379
   21SOL     OW  961   2.903   1.767   1.623
   21SOL    HW1  962   2.866   1.713   1.698
   21SOL    HW2  963   2.884   1.864   1.640
   22SOL     OW  964   2.459   6.488   6.191
   22SOL    HW1  965   2.462   6.395   6.229
   22SOL    HW2  966   2.415   6.549   6.257
   23SOL     OW  967   4.293   6.469   3.552
   23SOL    HW1  968   4.332   6.385   3.590
   23SOL    HW2  969   4.367   6.526   3.515
   24SOL     OW  970   5.136   1.002   4.806
   24SOL    HW1  971   5.097   0.940   4.873
   24SOL    HW2  972   5.210   1.055   4.849
   25SOL     OW  973   3.044   5.401   0.624
   25SOL    HW1  974   3.144   5.405   0.636
   25SOL    HW2  975   3.013   5.481   0.574
   26SOL     OW  976   6.358   1.499   1.599
   26SOL    HW1  977   6.448   1.491   1.642
   26SOL    HW2  978   6.368   1.545   1.511
   27SOL     OW  979   6.326   0.068   1.962
   27SOL    HW1  980   6.324   0.158   1.918
   27SOL    HW2  981   6.329   0.079   2.062
   28SOL     OW  982   4.426   0.497   6.682
   28SOL    HW1  983   4.379   0.585   6.679
   28SOL    HW2  984   4.477   0.483   6.597
   29SOL     OW  985   4.871   2.449   1.762
   29SOL    HW1  986   4.889   2.532   1.709
   29SOL    HW2  987   4.826   2.381   1.704
   30SOL     OW  988   3.217   0.178   5.288
   30SOL    HW1  989   3.298   0.120   5.290
   30SOL    HW2  990   3.244   0.274   5.293
   31SOL     OW  991   0.854   1.164   5.304
   31SOL    HW1  992   0.886   1.257   5.288
   31SOL    HW2  993   0.933   1.103   5.313
   32SOL     OW  994   0.857   2.000   2.198
   32SOL    HW1  995   0.800   2.060   2.255
   32SOL    HW2  996   0.891   1.924   2.254
   33SOL     OW  997   1.896   2.499   5.801
   33SOL    HW1  998   1.958   2.421   5.808
   33SOL    HW2  999   1.947   2.583   5.818
   34SOL     OW 1000   2.024   0.206   4.803
   34SOL    HW1 1001   1.956   0.140   4.772
   34SOL    HW2 1002   2.049   0.187   4.898
   35SOL     OW 1003   4.664   1.172   0.229
   35SOL    HW1 1004   4.611   1.122   0.160
   35SOL    HW2 1005   4.604   1.199   0.304
   36SOL     OW 1006   1.589   0.739   5.981
   36SOL    HW1 1007   1.533   0.814   5.946
   36SOL    HW2 1008   1.593   0.666   5.912
   37SOL     OW 1009   2.532   6.507   1.363
   37SOL    HW1 1010   2.444   6.554   1.355
   37SOL    HW2 1011   2.583   6.517   1.277
   38SOL     OW 1012   7.014   6.192   3.200
   38SOL    HW1 1013   0.003   6.233   3.291
   38SOL    HW2 1014   0.075   6.139   3.178
   39SOL     OW 1015   6.574   3.525   5.512
   39SOL    HW1 1016   6.673   3.531   5.504
   39SOL    HW2 1017   6.550   3.458   5.582
   40SOL     OW 1018   6.415   1.195   2.479
   40SOL    HW1 1019   6.368   1.280   2.456
   40SOL    HW2 1020   6.446   1.199   2.574
   41SOL     OW 1021   1.801   6.813   4.601
   41SOL    HW1 1022   1.838   6.749   4.669
   41SOL    HW2 1023   1.875   6.846   4.543
   42SOL     OW 1024   3.517   0.222   6.329
   42SOL    HW1 1025   3.507   0.213   6.230
   42SOL    HW2 1026   3.513   0.131   6.370
   43SOL     OW 1027   5.551   6.526   5.902
   43SOL    HW1 1028   5.649   6.540   5.908
   43SOL    HW2 1029   5.516   6.566   5.817
   44SOL     OW 1030   0.583   2.892   6.402
   44SOL    HW1 1031   0.637   2.861   6.481
   44SOL    HW2 1032   0.494   2.923   6.434
   45SOL     OW 1033   3.088   0.952   2.131
   45SOL    HW1 1034   3.054   1.036   2.090
   45SOL    HW2 1035   3.166   0.973   2.190
   46SOL     OW 1036   1.491   3.450   4.017
   46SOL    HW1 1037   1.445   3.483   4.099
   46SOL    HW2 1038   1.572   3.398   4.043
   47SOL     OW 1039   6.215   4.266   3.180
   47SOL    HW1 1040   6.136   4.327   3.165
   47SOL    HW2 1041   6.183   4.172   3.188
   48SOL     OW 1042   0.094   2.676   4.657
   48SOL    HW1 1043   0.028   2.617   4.704
   48SOL    HW2 1044   0.079   2.771   4.683
   49SOL     OW 1045   4.636   4.077   0.691
   49SOL    HW1 1046   4.664   4.171   0.671
   49SOL    HW2 1047   4.616   4.029   0.606
   50SOL     OW 1048   6.527   3.555   4.949
   50SOL    HW1 1049   6.444   3.611   4.948
   50SOL    HW2 1050   6.587   3.587   5.023
   51SOL     OW 1051   3.411   4.946   2.679
   51SOL    HW1 1052   3.312   4.930   2.682
   51SOL    HW2 1053   3.446   4.956   2.772
   52SOL     OW 1054   2.953   1.431   2.613
   52SOL    HW1 1055   3.015   1.429   2.692
   52SOL    HW2 1056   3.003   1.462   2.532
   53SOL     OW 1057   4.864   6.768   3.861
   53SOL    HW1 1058   4.822   6.857   3.872
   53SOL    HW2 1059   4.885   6.730   3.951
   54SOL     OW 1060   2.815   4.916   5.875
   54SOL    HW1 1061   2.878   4.925   5.798
   54SOL    HW2 1062   2.819   4.998   5.932
   55SOL     OW 1063   3.678   1.428   5.905
   55SOL    HW1 1064   3.720   1.364   5.969
   55SOL    HW2 1065   3.702   1.403   5.811
   56SOL     OW 1066   1.294   0.898   2.269
   56SOL    HW1 1067   1.226   0.937   2.208
   56SOL    HW2 1068   1.251   0.829   2.328
   57SOL     OW 1069   5.049   0.739   0.724
   57SOL    HW1 1070   5.067   0.698   0.814
   57SOL    HW2 1071   5.092   0.684   0.653
   58SOL     OW 1072   0.218   6.631   6.935
   58SOL    HW1 1073   0.246   6.661   0.006
   58SOL    HW2 1074   0.169   6.545   6.941
   59SOL     OW 1075   1.704   0.561   5.789
   59SOL    HW1 1076   1.712   0.591   5.693
   59SOL    HW2 1077   1.792   0.571   5.834
   60SOL     OW 1078   4.396   0.098   5.529
   60SOL    HW1 1079   4.318   0.038   5.513
   60SOL    HW2 1080   4.365   0.183   5.572
   61SOL     OW 1081   4.934   0.209   3.926
   61SOL    HW1 1082   5.030   0.186   3.906
   61SOL    HW2 1083   4.931   0.273   4.003
   62SOL     OW 1084   1.506   0.594   4.042
   62SOL    HW1 1085   1.427   0.622   4.096
   62SOL    HW2 1086   1.500   0.635   3.950
   63SOL     OW 1087   6.557   2.526   3.376
   63SOL    HW1 1088   6.581   2.471   3.456
   63SOL    HW2 1089   6.533   2.465   3.300
   64SOL     OW 1090   6.362   3.679   6.513
   64SOL    HW1 1091   6.375   3.615   6.588
   64SOL    HW2 1092   6.412   3.763   6.532
   65SOL     OW 1093   6.705   4.832   5.043
   65SOL    HW1 1094   6.709   4.829   4.943
   65SOL    HW2 1095   6.736   4.921   5.076
   66SOL     OW 1096   3.549   0.861   6.534
   66SOL    HW1 1097   3.596   0.812   6.460
   66SOL    HW2 1098   3.537   0.800   6.612
   67SOL     OW 1099   5.545   6.293   5.385
   67SOL    HW1 1100   5.610   6.241   5.439
   67SOL    HW2 1101   5.556   6.391   5.403
   68SOL     OW 1102   5.927   1.789   6.566
   68SOL    HW1 1103   5.887   1.698   6.560
   68SOL    HW2 1104   5.878   1.852   6.506
   69SOL     OW 1105   2.720   4.522   6.048
   69SOL    HW1 1106   2.653   4.497   5.979
   69SOL    HW2 1107   2.795   4.455   6.047
   70SOL     OW 1108   6.832   5.378   2.668
   70SOL    HW1 1109   6.913   5.337   2.710
   70SOL    HW2 1110   6.794   5.316   2.600
   71SOL     OW 1111   2.354   2.812   3.231
   71SOL    HW1 1112   2.444   2.783   3.198
   71SOL    HW2 1113   2.341   2.781   3.325
   72SOL     OW 1114   3.206   5.682   4.174
   72SOL    HW1 1115   3.200   5.673   4.074
   72SOL    HW2 1116   3.133   5.630   4.217
   73SOL     OW 1117   3.313   1.732   6.925
   73SOL    HW1 1118   3.253   1.765   6.997
   73SOL    HW2 1119   3.336   1.808   6.863
   74SOL     OW 1120   5.410   6.608   6.692
   74SOL    HW1 1121   5.477   6.595   6.765
   74SOL    HW2 1122   5.457   6.608   6.603
   75SOL     OW 1123   3.384   5.812   5.440
   75SOL    HW1 1124   3.425   5.731   5.482
   75SOL    HW2 1125   3.447   5.851   5.373
   76SOL     OW 1126   2.249   2.267   1.220
   76SOL    HW1 1127   2.170   2.215   1.186
   76SOL    HW2 1128   2.257   2.254   1.319
   77SOL     OW 1129   5.315   5.213   5.062
   77SOL    HW1 1130   5.237   5.154   5.082
   77SOL    HW2 1131   5.385   5.202   5.133
   78SOL     OW 1132   6.564   6.210   5.931
   78SOL    HW1 1133   6.468   6.220   5.958
   78SOL    HW2 1134   6.571   6.140   5.860
   79SOL     OW 1135   3.098   6.950   0.889
   79SOL    HW1 1136   3.181   6.944   0.945
   79SOL    HW2 1137   3.111   7.019   0.818
   80SOL     OW 1138   6.345   0.996   5.210
   80SOL    HW1 1139   6.363   0.936   5.133
   80SOL    HW2 1140   6.276   0.955   5.270
   81SOL     OW 1141   2.241   0.791   2.878
   81SOL    HW1 1142   2.277   0.744   2.798
   81SOL    HW2 1143   2.316   0.806   2.943
   82SOL     OW 1144   6.728   5.047   6.609
   82SOL    HW1 1145   6.728   4.997   6.523
   82SOL    HW2 1146   6.819   5.086   6.625
   83SOL     OW 1147   6.923   6.528   0.666
   83SOL    HW1 1148   6.930   6.535   0.765
   83SOL    HW2 1149   6.853   6.461   0.642
   84SOL     OW 1150   5.288   3.899   2.043
   84SOL    HW1 1151   5.260   3.974   2.104
   84SOL    HW2 1152   5.229   3.820   2.059
   85SOL     OW 1153   0.658   1.724   5.017
   85SOL    HW1 1154   0.709   1.771   5.088
   85SOL    HW2 1155   0.567   1.699   5.051
   86SOL     OW 1156   0.471   0.480   5.701
   86SOL    HW1 1157   0.562   0.506   5.732
   86SOL    HW2 1158   0.405   0.549   5.732
   87SOL     OW 1159   5.180   3.068   0.108
   87SOL    HW1 1160   5.182   2.969   0.121
   87SOL    HW2 1161   5.263   3.097   0.059
   88SOL     OW 1162   4.920   1.615   0.416
   88SOL    HW1 1163   4.882   1.548   0.352
   88SOL    HW2 1164   4.886   1.595   0.508
   89SOL     OW 1165   1.484   2.657   6.554
   89SOL    HW1 1166   1.555   2.726   6.568
   89SOL    HW2 1167   1.468   2.608   6.640
   90SOL     OW 1168   5.900   6.691   3.431
   90SOL    HW1 1169   5.867   6.778   3.470
   90SOL    HW2 1170   5.933   6.707   3.338
   91SOL     OW 1171   4.864   4.585   3.955
   91SOL    HW1 1172   4.894   4.601   4.049
   91SOL    HW2 1173   4.908   4.501   3.921
   92SOL     OW 1174   3.253   5.214   0.795
   92SOL    HW1 1175   3.321   5.155   0.838
   92SOL    HW2 1176   3.200   5.161   0.729
   93SOL     OW 1177   3.232   4.811   5.864
   93SOL    HW1 1178   3.135   4.825   5.843
   93SOL    HW2 1179   3.275   4.899   5.884
   94SOL     OW 1180   3.260   5.444   6.905
   94SOL    HW1 1181   3.215   5.454   6.993
   94SOL    HW2 1182   3.359   5.452   6.918
   95SOL     OW 1183   0.515   0.855   3.496
   95SOL    HW1 1184   0.474   0.771   3.461
   95SOL    HW2 1185   0.595   0.879   3.440
   96SOL     OW 1186   2.522   6.985   5.286
   96SOL    HW1 1187   2.497   6.928   5.365
   96SOL    HW2 1188   2.612   0.004   5.301
   97SOL     OW 1189   6.084   3.980   4.352
   97SOL    HW1 1190   5.989   3.988   4.324
   97SOL    HW2 1191   6.103   3.887   4.384
   98SOL     OW 1192   5.500   2.743   6.561
   98SOL    HW1 1193   5.436   2.685   6.612
   98SOL    HW2 1194   5.505   2.833   6.604
   99SOL     OW 1195   4.230   2.757   0.972
   99SOL    HW1 1196   4.175   2.762   1.056
   99SOL    HW2 1197   4.264   2.848   0.949
  100SOL     OW 1198   0.435   6.606   6.732
  100SOL    HW1 1199   0.398   6.644   6.817
  100SOL    HW2 1200   0.392   6.518   6.713
  101SOL     OW 1201   0.614   5.882   3.291
  101SOL    HW1 1202   0.547   5.921   3.354
  101SOL    HW2 1203   0.700   5.933   3.299
  102SOL     OW 1204   4.222   0.178   3.202
  102SOL    HW1 1205   4.210   0.103   3.137
  102SOL    HW2 1206   4.148   0.245   3.190
  103SOL     OW 1207   3.740   1.719   1.649
  103SOL    HW1 1208   3.812   1.774   1.691
  103SOL    HW2 1209   3.706   1.765   1.567
  104SOL     OW 1210   6.145   5.474   2.630
  104SOL    HW1 1211   6.094   5.528   2.696
  104SOL    HW2 1212   6.129   5.376   2.648
  105SOL     OW 1213   6.789   1.176   6.785
  105SOL    HW1 1214   6.864   1.188   6.850
  105SOL    HW2 1215   6.768   1.079   6.775
  106SOL     OW 1216   2.398   6.241   6.383
  106SOL    HW1 1217   2.323   6.278   6.439
  106SOL    HW2 1218   2.393   6.141   6.384
  107SOL     OW 1219   1.456   2.462   1.317
  107SOL    HW1 1220   1.371   2.427   1.356
  107SOL    HW2 1221   1.531   2.400   1.339
  108SOL     OW 1222   4.952   4.823   6.886
  108SOL    HW1 1223   4.958   4.724   6.876
  108SOL    HW2 1224   4.952   4.866   6.796
  109SOL     OW 1225   0.521   0.288   1.067
  109SOL    HW1 1226   0.602   0.306   1.011
  109SOL    HW2 1227   0.460   0.225   1.019
  110SOL     OW 1228   3.640   5.940   5.664
  110SOL    HW1 1229   3.596   5.857   5.697
  110SOL    HW2 1230   3.714   5.965   5.726
  111SOL     OW 1231   3.852   0.439   3.920
  111SOL    HW1 1232   3.903   0.525   3.930
  111SOL    HW2 1233   3.886   0.389   3.841
  112SOL     OW 1234   5.501   6.010   5.794
  112SOL    HW1 1235   5.500   6.071   5.873
  112SOL    HW2 1236   5.466   5.920   5.821
  113SOL     OW 1237   6.536   4.854   3.564
  113SOL    HW1 1238   6.605   4.895   3.624
  113SOL    HW2 1239   6.561   4.758   3.546
  114SOL     OW 1240   0.353   6.529   0.651
  114SOL    HW1 1241   0.367   6.607   0.590
  114SOL    HW2 1242   0.333   6.561   0.743
  115SOL     OW 1243   5.183   1.110   4.093
  115SOL    HW1 1244   5.085   1.132   4.093
  115SOL    HW2 1245   5.236   1.191   4.117
  116SOL     OW 1246   6.124   4.499   2.346
  116SOL    HW1 1247   6.087   4.520   2.437
  116SOL    HW2 1248   6.224   4.504   2.349
  117SOL     OW 1249   0.860   0.869   6.283
  117SOL    HW1 1250   0.945   0.908   6.319
  117SOL    HW2 1251   0.879   0.780   6.243
  118SOL     OW 1252   0.477   1.429   1.559
  118SOL    HW1 1253   0.541   1.423   1.483
  118SOL    HW2 1254   0.388   1.395   1.530
  119SOL     OW 1255   6.799   2.362   6.282
  119SOL    HW1 1256   6.736   2.321   6.216
  119SOL    HW2 1257   6.780   2.460   6.290
  120SOL     OW 1258   6.109   0.264   0.751
  120SOL    HW1 1259   6.157   0.215   0.678
  120SOL    HW2 1260   6.155   0.250   0.838
  121SOL     OW 1261   2.528   3.426   6.604
  121SOL    HW1 1262   2.497   3.459   6.693
  121SOL    HW2 1263   2.452   3.427   6.539
  122SOL     OW 1264   1.438   3.948   4.983
  122SOL    HW1 1265   1.486   3.973   4.899
  122SOL    HW2 1266   1.377   4.023   5.010
  123SOL     OW 1267   0.015   2.192   1.129
  123SOL    HW1 1268   0.010   2.108   1.183
  123SOL    HW2 1269   0.108   2.230   1.134
  124SOL     OW 1270   4.844   3.736   0.200
  124SOL    HW1 1271   4.752   3.703   0.219
  124SOL    HW2 1272   4.911   3.668   0.232
  125SOL     OW 1273   1.876   1.738   2.249
  125SOL    HW1 1274   1.891   1.743   2.348
  125SOL    HW2 1275   1.874   1.830   2.211
  126SOL     OW 1276   2.846   4.470   1.012
  126SOL    HW1 1277   2.871   4.567   1.019
  126SOL    HW2 1278   2.752   4.457   1.045
  127SOL     OW 1279   6.580   4.783   6.021
  127SOL    HW1 1280   6.661   4.803   5.967
  127SOL    HW2 1281   6.533   4.704   5.982
  128SOL     OW 1282   4.411   2.792   1.671
  128SOL    HW1 1283   4.451   2.787   1.580
  128SOL    HW2 1284   4.483   2.790   1.740
  129SOL     OW 1285   3.385   3.310   6.436
  129SOL    HW1 1286   3.419   3.317   6.530
  129SOL    HW2 1287   3.415   3.389   6.384
  130SOL     OW 1288   1.400   0.878   4.427
  130SOL    HW1 1289   1.441   0.831   4.504
  130SOL    HW2 1290   1.395   0.976   4.446
  131SOL     OW 1291   5.060   1.357   3.542
  131SOL    HW1 1292   4.962   1.341   3.546
  131SOL    HW2 1293   5.098   1.317   3.459
  132SOL     OW 1294   1.492   3.119   1.053
  132SOL    HW1 1295   1.542   3.035   1.073
  132SOL    HW2 1296   1.394   3.104   1.066
  133SOL     OW 1297   5.681   6.532   2.729
  133SOL    HW1 1298   5.641   6.602   2.670
  133SOL    HW2 1299   5.654   6.550   2.824
  134SOL     OW 1300   6.399   2.742   3.477
  134SOL    HW1 1301   6.312   2.710   3.515
  134SOL    HW2 1302   6.471   2.675   3.496
  135SOL     OW 1303   5.174   1.753   3.386
  135SOL    HW1 1304   5.226   1.721   3.465
  135SOL    HW2 1305   5.229   1.818   3.334
  136SOL     OW 1306   5.099   4.279   5.530
  136SOL    HW1 1307   5.117   4.244   5.437
  136SOL    HW2 1308   5.176   4.255   5.589
  137SOL     OW 1309   4.835   6.856   5.460
  137SOL    HW1 1310   4.900   6.846   5.535
  137SOL    HW2 1311   4.839   6.775   5.402
  138SOL     OW 1312   0.547   5.318   4.425
  138SOL    HW1 1313   0.540   5.287   4.520
  138SOL    HW2 1314   0.504   5.250   4.365
  139SOL     OW 1315   2.451   5.403   4.918
  139SOL    HW1 1316   2.364   5.391   4.871
  139SOL    HW2 1317   2.470   5.500   4.929
  140SOL     OW 1318   5.863   5.182   4.004
  140SOL    HW1 1319   5.784   5.242   3.993
  140SOL    HW2 1320   5.897   5.187   4.098
  141SOL     OW 1321   0.864   1.841   5.166
  141SOL    HW1 1322   0.945   1.786   5.146
  141SOL    HW2 1323   0.886   1.938   5.151
  142SOL     OW 1324   1.454   6.251   1.828
  142SOL    HW1 1325   1.548   6.241   1.861
  142SOL    HW2 1326   1.453   6.318   1.754
  143SOL     OW 1327   5.483   4.566   2.105
  143SOL    HW1 1328   5.557   4.526   2.160
  143SOL    HW2 1329   5.441   4.641   2.156
  144SOL     OW 1330   1.098   6.684   6.262
  144SOL    HW1 1331   1.086   6.631   6.346
  144SOL    HW2 1332   1.028   6.659   6.196
  145SOL     OW 1333   0.815   5.572   0.387
  145SOL    HW1 1334   0.905   5.568   0.343
  145SOL    HW2 1335   0.774   5.662   0.372
  146SOL     OW 1336   5.108   6.658   0.230
  146SOL    HW1 1337   5.200   6.619   0.238
  146SOL    HW2 1338   5.051   6.626   0.306
  147SOL     OW 1339   6.596   2.934   0.491
  147SOL    HW1 1340   6.530   2.876   0.442
  147SOL    HW2 1341   6.688   2.911   0.462
  148SOL     OW 1342   0.474   5.340   5.039
  148SOL    HW1 1343   0.425   5.427   5.028
  148SOL    HW2 1344   0.442   5.294   5.121
  149SOL     OW 1345   3.222   1.062   4.072
  149SOL    HW1 1346   3.151   0.996   4.096
  149SOL    HW2 1347   3.183   1.134   4.016
  150SOL     OW 1348   7.003   4.928   6.497
  150SOL    HW1 1349   6.972   4.989   6.424
  150SOL    HW2 1350   0.028   4.848   6.456
  151SOL     OW 1351   3.486   1.507   1.229
  151SOL    HW1 1352   3.470   1.417   1.269
  151SOL    HW2 1353   3.585   1.522   1.216
  152SOL     OW 1354   2.704   0.720   4.564
  152SOL    HW1 1355   2.781   0.778   4.591
  152SOL    HW2 1356   2.619   0.765   4.590
  153SOL     OW 1357   2.318   0.014   2.165
  153SOL    HW1 1358   2.356   0.005   2.073
  153SOL    HW2 1359   2.221   0.039   2.159
  154SOL     OW 1360   0.053   2.850   1.677
  154SOL    HW1 1361   0.105   2.845   1.762
  154SOL    HW2 1362   0.092   2.788   1.609
  155SOL     OW 1363   0.480   1.118   3.391
  155SOL    HW1 1364   0.435   1.140   3.304
  155SOL    HW2 1365   0.483   1.018   3.402
  156SOL     OW 1366   6.044   1.724   1.350
  156SOL    HW1 1367   6.004   1.669   1.423
  156SOL    HW2 1368   6.122   1.776   1.385
  157SOL     OW 1369   6.147   3.008   2.308
  157SOL    HW1 1370   6.084   2.991   2.232
  157SOL    HW2 1371   6.130   3.099   2.346
  158SOL     OW 1372   3.106   0.937   2.765
  158SOL    HW1 1373   3.161   0.854   2.769
  158SOL    HW2 1374   3.070   0.958   2.856
  159SOL     OW 1375   4.781   4.549   1.661
  159SOL    HW1 1376   4.792   4.634   1.611
  159SOL    HW2 1377   4.686   4.518   1.654
  160SOL     OW 1378   6.857   4.624   6.402
  160SOL    HW1 1379   6.809   4.631   6.489
  160SOL    HW2 1380   6.816   4.687   6.335
  161SOL     OW 1381   2.276   4.858   4.895
  161SOL    HW1 1382   2.312   4.847   4.803
  161SOL    HW2 1383   2.176   4.851   4.894
  162SOL     OW 1384   4.424   6.048   0.441
  162SOL    HW1 1385   4.360   6.055   0.365
  162SOL    HW2 1386   4.516   6.033   0.405
  163SOL     OW 1387   4.058   6.320   1.721
  163SOL    HW1 1388   4.000   6.365   1.653
  163SOL    HW2 1389   4.147   6.365   1.724
  164SOL     OW 1390   6.635   3.993   1.297
  164SOL    HW1 1391   6.679   4.058   1.360
  164SOL    HW2 1392   6.537   3.990   1.315
  165SOL     OW 1393   4.676   3.478   6.965
  165SOL    HW1 1394   4.623   3.419   6.903
  165SOL    HW2 1395   4.616   3.548   7.003
  166SOL     OW 1396   0.445   6.159   3.385
  166SOL    HW1 1397   0.529   6.203   3.416
  166SOL    HW2 1398   0.377   6.162   3.457
  167SOL     OW 1399   5.990   2.591   7.012
  167SOL    HW1 1400   6.006   2.585   0.090
  167SOL    HW2 1401   6.077   2.605   6.965
  168SOL     OW 1402   2.482   4.405   1.116
  168SOL    HW1 1403   2.482   4.331   1.049
  168SOL    HW2 1404   2.452   4.490   1.074
  169SOL     OW 1405   2.986   0.385   2.035
  169SOL    HW1 1406   3.057   0.412   1.970
  169SOL    HW2 1407   2.914   0.335   1.987
  170SOL     OW 1408   6.966   1.917   3.909
  170SOL    HW1 1409   0.015   1.864   3.861
  170SOL    HW2 1410   7.002   1.948   3.997
  171SOL     OW 1411   3.477   3.597   0.749
  171SOL    HW1 1412   3.421   3.631   0.674
  171SOL    HW2 1413   3.426   3.605   0.835
  172SOL     OW 1414   6.871   2.124   4.933
  172SOL    HW1 1415   6.874   2.035   4.978
  172SOL    HW2 1416   6.838   2.193   4.998
  173SOL     OW 1417   7.005   6.850   4.501
  173SOL    HW1 1418   6.910   6.884   4.502
  173SOL    HW2 1419   0.009   6.827   4.407
  174SOL     OW 1420   2.409   5.364   3.511
  174SOL    HW1 1421   2.347   5.290   3.488
  174SOL    HW2 1422   2.493   5.355   3.456
  175SOL     OW 1423   1.828   6.345   2.070
  175SOL    HW1 1424   1.868   6.414   2.009
  175SOL    HW2 1425   1.814   6.385   2.161
  176SOL     OW 1426   2.082   4.114   1.300
  176SOL    HW1 1427   2.128   4.200   1.278
  176SOL    HW2 1428   2.046   4.073   1.215
  177SOL     OW 1429   5.510   2.275   3.409
  177SOL    HW1 1430   5.588   2.213   3.408
  177SOL    HW2 1431   5.427   2.224   3.388
  178SOL     OW 1432   4.974   4.202   6.568
  178SOL    HW1 1433   4.977   4.220   6.469
  178SOL    HW2 1434   4.941   4.283   6.616
  179SOL     OW 1435   2.672   0.672   0.710
  179SOL    HW1 1436   2.689   0.578   0.742
  179SOL    HW2 1437   2.665   0.733   0.789
  180SOL     OW 1438   1.007   1.157   6.959
  180SOL    HW1 1439   0.982   1.252   6.936
  180SOL    HW2 1440   0.926   1.099   6.953
  181SOL     OW 1441   3.514   2.033   6.540
  181SOL    HW1 1442   3.536   2.117   6.490
  181SOL    HW2 1443   3.599   1.987   6.566
  182SOL     OW 1444   4.391   2.104   4.309
  182SOL    HW1 1445   4.490   2.092   4.320
  182SOL    HW2 1446   4.347   2.091   4.398
  183SOL     OW 1447   4.389   1.091   1.890
  183SOL    HW1 1448   4.435   1.038   1.961
  183SOL    HW2 1449   4.323   1.033   1.843
  184SOL     OW 1450   1.244   5.401   3.405
  184SOL    HW1 1451   1.275   5.494   3.385
  184SOL    HW2 1452   1.285   5.338   3.340
  185SOL     OW 1453   1.360   3.680   6.631
  185SOL    HW1 1454   1.321   3.646   6.716
  185SOL    HW2 1455   1.287   3.711   6.570
  186SOL     OW 1456   6.066   0.251   3.336
  186SOL    HW1 1457   6.074   0.240   3.237
  186SOL    HW2 1458   6.082   0.346   3.361
  187SOL     OW 1459   5.836   1.141   4.370
  187SOL    HW1 1460   5.747   1.186   4.366
  187SOL    HW2 1461   5.861   1.124   4.466
  188SOL     OW 1462   5.789   2.182   3.450
  188SOL    HW1 1463   5.827   2.270   3.480
  188SOL    HW2 1464   5.863   2.125   3.414
  189SOL     OW 1465   2.493   5.645   2.559
  189SOL    HW1 1466   2.395   5.624   2.549
  189SOL    HW2 1467   2.505   5.708   2.636
  190SOL     OW 1468   3.738   1.295   5.279
  190SOL    HW1 1469   3.742   1.196   5.273
  190SOL    HW2 1470   3.768   1.324   5.370
  191SOL     OW 1471   6.035   5.776   6.136
  191SOL    HW1 1472   6.085   5.833   6.070
  191SOL    HW2 1473   6.067   5.798   6.228
  192SOL     OW 1474   6.385   6.815   2.181
  192SOL    HW1 1475   6.471   6.803   2.132
  192SOL    HW2 1476   6.374   6.911   2.206
  193SOL     OW 1477   4.870   2.972   6.430
  193SOL    HW1 1478   4.793   2.910   6.442
  193SOL    HW2 1479   4.892   3.015   6.518
  194SOL     OW 1480   3.400   0.645   3.145
  194SOL    HW1 1481   3.435   0.735   3.169
  194SOL    HW2 1482   3.324   0.654   3.080
  195SOL     OW 1483   1.901   5.359   3.733
  195SOL    HW1 1484   1.945   5.273   3.708
  195SOL    HW2 1485   1.810   5.341   3.769
  196SOL     OW 1486   1.472   2.233   6.843
  196SOL    HW1 1487   1.405   2.254   6.914
  196SOL    HW2 1488   1.425   2.208   6.759
  197SOL     OW 1489   2.186   1.473   1.178
  197SOL    HW1 1490   2.135   1.525   1.247
  197SOL    HW2 1491   2.252   1.414   1.223
  198SOL     OW 1492   4.403   1.053   3.249
  198SOL    HW1 1493   4.351   1.138   3.258
  198SOL    HW2 1494   4.500   1.073   3.237
  199SOL     OW 1495   1.297   2.664   4.492
  199SOL    HW1 1496   1.338   2.592   4.436
  199SOL    HW2 1497   1.307   2.640   4.589
  200SOL     OW 1498   0.257   2.541   0.660
  200SOL    HW1 1499   0.272   2.445   0.685
  200SOL    HW2 1500   0.264   2.552   0.561
  201SOL     OW 1501   0.785   0.630   5.735
  201SOL    HW1 1502   0.874   0.593   5.708
  201SOL    HW2 1503   0.760   0.596   5.825
  202SOL     OW 1504   4.499   0.128   6.087
  202SOL    HW1 1505   4.419   0.180   6.116
  202SOL    HW2 1506   4.576   0.190   6.070
  203SOL     OW 1507   5.883   2.953   5.269
  203SOL    HW1 1508   5.888   3.003   5.182
  203SOL    HW2 1509   5.802   2.893   5.268
  204SOL     OW 1510   0.454   0.226   5.717
  204SOL    HW1 1511   0.430   0.323   5.713
  204SOL    HW2 1512   0.554   0.217   5.725
  205SOL     OW 1513   1.153   2.412   2.349
  205SOL    HW1 1514   1.136   2.385   2.254
  205SOL    HW2 1515   1.143   2.333   2.409
  206SOL     OW 1516   0.255   3.242   1.198
  206SOL    HW1 1517   0.259   3.294   1.112
  206SOL    HW2 1518   0.319   3.281   1.263
  207SOL     OW 1519   4.734   2.153   3.370
  207SOL    HW1 1520   4.780   2.130   3.456
  207SOL    HW2 1521   4.748   2.078   3.304
  208SOL     OW 1522   0.843   4.045   5.059
  208SOL    HW1 1523   0.772   4.094   5.008
  208SOL    HW2 1524   0.801   3.993   5.133
  209SOL     OW 1525   6.432   4.332   2.582
  209SOL    HW1 1526   6.358   4.400   2.578
  209SOL    HW2 1527   6.487   4.348   2.664
  210SOL     OW 1528   4.271   2.160   0.446
  210SOL    HW1 1529   4.257   2.219   0.526
  210SOL    HW2 1530   4.350   2.194   0.394
  211SOL     OW 1531   1.652   0.471   3.337
  211SOL    HW1 1532   1.722   0.532   3.373
  211SOL    HW2 1533   1.562   0.499   3.372
  212SOL     OW 1534   1.434   3.493   3.178
  212SOL    HW1 1535   1.425   3.544   3.092
  212SOL    HW2 1536   1.528   3.502   3.211
  213SOL     OW 1537   1.463   5.442   1.163
  213SOL    HW1 1538   1.531   5.497   1.210
  213SOL    HW2 1539   1.507   5.389   1.090
  214SOL     OW 1540   4.223   5.725   2.392
  214SOL    HW1 1541   4.256   5.634   2.417
  214SOL    HW2 1542   4.188   5.771   2.473
  215SOL     OW 1543   1.999   5.087   1.902
  215SOL    HW1 1544   1.985   5.074   2.000
  215SOL    HW2 1545   1.915   5.062   1.853
  216SOL     OW 1546   1.532   0.281   2.740
  216SOL    HW1 1547   1.626   0.296   2.711
  216SOL    HW2 1548   1.486   0.369   2.750
  217SOL     OW 1549   1.415   3.487   5.950
  217SOL    HW1 1550   1.367   3.569   5.982
  217SOL    HW2 1551   1.429   3.425   6.027
  218SOL     OW 1552   0.994   2.307   5.497
  218SOL    HW1 1553   0.961   2.377   5.435
  218SOL    HW2 1554   1.067   2.254   5.454
  219SOL     OW 1555   3.570   0.603   0.336
  219SOL    HW1 1556   3.631   0.677   0.367
  219SOL    HW2 1557   3.616   0.551   0.264
  220SOL     OW 1558   3.432   0.134   1.205
  220SOL    HW1 1559   3.458   0.197   1.131
  220SOL    HW2 1560   3.334   0.118   1.201
  221SOL     OW 1561   5.353   5.615   1.247
  221SOL    HW1 1562   5.448   5.617   1.276
  221SOL    HW2 1563   5.329   5.522   1.217
  222SOL     OW 1564   1.956   4.479   6.449
  222SOL    HW1 1565   2.013   4.514   6.524
  222SOL    HW2 1566   2.013   4.465   6.368
  223SOL     OW 1567   6.874   2.674   5.124
  223SOL    HW1 1568   6.853   2.691   5.028
  223SOL    HW2 1569   6.800   2.621   5.165
  224SOL     OW 1570   2.445   1.856   5.963
  224SOL    HW1 1571   2.441   1.955   5.953
  224SOL    HW2 1572   2.396   1.813   5.888
  225SOL     OW 1573   4.924   3.741   6.007
  225SOL    HW1 1574   5.016   3.758   5.971
  225SOL    HW2 1575   4.856   3.771   5.940
  226SOL     OW 1576   1.120   1.710   6.521
  226SOL    HW1 1577   1.063   1.772   6.575
  226SOL    HW2 1578   1.080   1.700   6.429
  227SOL     OW 1579   2.024   3.906   2.360
  227SOL    HW1 1580   1.952   3.967   2.327
  227SOL    HW2 1581   1.996   3.864   2.446
  228SOL     OW 1582   1.404   0.588   2.761
  228SOL    HW1 1583   1.382   0.679   2.727
  228SOL    HW2 1584   1.497   0.588   2.798
  229SOL     OW 1585   5.259   4.756   6.756
  229SOL    HW1 1586   5.330   4.746   6.686
  229SOL    HW2 1587   5.269   4.684   6.824
  230SOL     OW 1588   4.154   5.921   4.539
  230SOL    HW1 1589   4.166   5.830   4.501
  230SOL    HW2 1590   4.099   5.915   4.623
  231SOL     OW 1591   5.023   1.485   7.002
  231SOL    HW1 1592   5.053   1.404   0.032
  231SOL    HW2 1593   5.030   1.565   0.040
  232SOL     OW 1594   0.722   2.621   6.050
  232SOL    HW1 1595   0.659   2.547   6.026
  232SOL    HW2 1596   0.801   2.583   6.097
  233SOL     OW 1597   3.076   1.398   3.594
  233SOL    HW1 1598   3.140   1.387   3.670
  233SOL    HW2 1599   3.104   1.340   3.518
  234SOL     OW 1600   5.772   1.229   6.210
  234SOL    HW1 1601   5.861   1.217   6.253
  234SOL    HW2 1602   5.702   1.184   6.265
  235SOL     OW 1603   4.986   3.343   2.278
  235SOL    HW1 1604   4.955   3.248   2.284
  235SOL    HW2 1605   4.922   3.402   2.327
  236SOL     OW 1606   4.359   3.384   6.693
  236SOL    HW1 1607   4.390   3.479   6.679
  236SOL    HW2 1608   4.274   3.370   6.642
  237SOL     OW 1609   6.161   3.989   2.746
  237SOL    HW1 1610   6.220   4.067   2.768
  237SOL    HW2 1611   6.150   3.984   2.647
  238SOL     OW 1612   6.096   1.699   0.255
  238SOL    HW1 1613   6.039   1.766   0.207
  238SOL    HW2 1614   6.078   1.608   0.217
  239SOL     OW 1615   1.140   4.105   0.499
  239SOL    HW1 1616   1.227   4.150   0.476
  239SOL    HW2 1617   1.158   4.011   0.528
  240SOL     OW 1618   6.490   3.859   2.920
  240SOL    HW1 1619   6.395   3.827   2.914
  240SOL    HW2 1620   6.530   3.827   3.005
  241SOL     OW 1621   2.597   1.672   4.210
  241SOL    HW1 1622   2.540   1.616   4.149
  241SOL    HW2 1623   2.674   1.709   4.158
  242SOL     OW 1624   3.278   3.774   3.444
  242SOL    HW1 1625   3.202   3.721   3.480
  242SOL    HW2 1626   3.353   3.713   3.419
  243SOL     OW 1627   4.830   2.588   6.722
  243SOL    HW1 1628   4.755   2.647   6.754
  243SOL    HW2 1629   4.805   2.549   6.633
  244SOL     OW 1630   6.266   3.322   6.380
  244SOL    HW1 1631   6.190   3.377   6.416
  244SOL    HW2 1632   6.245   3.225   6.393
  245SOL     OW 1633   3.467   1.812   3.554
  245SOL    HW1 1634   3.391   1.819   3.619
  245SOL    HW2 1635   3.448   1.738   3.489
  246SOL     OW 1636   5.901   1.586   3.463
  246SOL    HW1 1637   5.836   1.646   3.509
  246SOL    HW2 1638   5.928   1.512   3.525
  247SOL     OW 1639   2.139   2.173   0.871
  247SOL    HW1 1640   2.124   2.181   0.772
  247SOL    HW2 1641   2.237   2.162   0.889
  248SOL     OW 1642   2.437   1.366   2.343
  248SOL    HW1 1643   2.470   1.395   2.253
  248SOL    HW2 1644   2.512   1.374   2.410
  249SOL     OW 1645   5.308   0.001   5.059
  249SOL    HW1 1646   5.391   0.021   5.111
  249SOL    HW2 1647   5.238   6.985   5.120
  250SOL     OW 1648   3.560   2.809   0.824
  250SOL    HW1 1649   3.577   2.793   0.727
  250SOL    HW2 1650   3.461   2.811   0.840
  251SOL     OW 1651   4.643   3.582   5.628
  251SOL    HW1 1652   4.673   3.570   5.533
  251SOL    HW2 1653   4.720   3.564   5.689
  252SOL     OW 1654   6.217   6.886   5.844
  252SOL    HW1 1655   6.263   6.970   5.815
  252SOL    HW2 1656   6.118   6.895   5.831
  253SOL     OW 1657   4.087   4.969   5.500
  253SOL    HW1 1658   4.105   4.985   5.403
  253SOL    HW2 1659   4.006   4.911   5.509
  254SOL     OW 1660   6.630   2.898   4.265
  254SOL    HW1 1661   6.678   2.818   4.300
  254SOL    HW2 1662   6.697   2.968   4.239
  255SOL     OW 1663   1.437   4.660   6.051
  255SOL    HW1 1664   1.507   4.590   6.039
  255SOL    HW2 1665   1.471   4.731   6.113
  256SOL     OW 1666   4.721   2.924   6.098
  256SOL    HW1 1667   4.668   3.005   6.073
  256SOL    HW2 1668   4.818   2.946   6.094
  257SOL     OW 1669   4.904   6.012   2.575
  257SOL    HW1 1670   4.935   6.071   2.650
  257SOL    HW2 1671   4.805   5.998   2.583
  258SOL     OW 1672   2.694   4.151   5.857
  258SOL    HW1 1673   2.657   4.227   5.804
  258SOL    HW2 1674   2.651   4.066   5.829
  259SOL     OW 1675   4.388   0.410   2.392
  259SOL    HW1 1676   4.449   0.470   2.342
  259SOL    HW2 1677   4.412   0.411   2.489
  260SOL     OW 1678   3.875   4.867   3.340
  260SOL    HW1 1679   3.881   4.836   3.245
  260SOL    HW2 1680   3.781   4.859   3.372
  261SOL     OW 1681   5.182   4.954   1.101
  261SOL    HW1 1682   5.109   4.933   1.166
  261SOL    HW2 1683   5.192   4.879   1.036
  262SOL     OW 1684   2.006   3.578   1.213
  262SOL    HW1 1685   2.019   3.654   1.276
  262SOL    HW2 1686   2.039   3.604   1.122
  263SOL     OW 1687   1.160   0.130   4.092
  263SOL    HW1 1688   1.088   0.164   4.031
  263SOL    HW2 1689   1.203   0.049   4.051
  264SOL     OW 1690   6.783   2.867   0.043
  264SOL    HW1 1691   6.767   2.802   0.118
  264SOL    HW2 1692   6.849   2.828   6.999
  265SOL     OW 1693   6.114   6.629   3.744
  265SOL    HW1 1694   6.094   6.719   3.704
  265SOL    HW2 1695   6.035   6.597   3.796
  266SOL     OW 1696   5.034   2.403   6.024
  266SOL    HW1 1697   4.976   2.446   5.955
  266SOL    HW2 1698   5.066   2.314   5.990
  267SOL     OW 1699   1.153   0.714   5.040
  267SOL    HW1 1700   1.250   0.735   5.051
  267SOL    HW2 1701   1.110   0.785   4.983
  268SOL     OW 1702   4.120   1.243   6.657
  268SOL    HW1 1703   4.162   1.231   6.568
  268SOL    HW2 1704   4.144   1.333   6.694
  269SOL     OW 1705   2.929   1.953   7.001
  269SOL    HW1 1706   2.885   2.038   0.011
  269SOL    HW2 1707   2.989   1.918   0.052
  270SOL     OW 1708   0.626   6.828   0.065
  270SOL    HW1 1709   0.695   6.813   7.015
  270SOL    HW2 1710   0.575   6.912   0.046
  271SOL     OW 1711   0.512   1.639   6.216
  271SOL    HW1 1712   0.493   1.719   6.159
  271SOL    HW2 1713   0.511   1.557   6.159
  272SOL     OW 1714   3.452   5.760   4.313
  272SOL    HW1 1715   3.536   5.753   4.260
  272SOL    HW2 1716   3.377   5.718   4.262
  273SOL     OW 1717   1.720   4.895   5.821
  273SOL    HW1 1718   1.694   4.826   5.754
  273SOL    HW2 1719   1.741   4.981   5.774
  274SOL     OW 1720   3.811   0.922   4.090
  274SOL    HW1 1721   3.860   0.998   4.132
  274SOL    HW2 1722   3.868   0.881   4.018
  275SOL     OW 1723   0.186   6.827   2.678
  275SOL    HW1 1724   0.218   6.910   2.723
  275SOL    HW2 1725   0.090   6.837   2.653
  276SOL     OW 1726   0.525   0.179   4.232
  276SOL    HW1 1727   0.614   0.142   4.206
  276SOL    HW2 1728   0.514   0.171   4.331
  277SOL     OW 1729   2.291   2.924   0.544
  277SOL    HW1 1730   2.303   2.880   0.633
  277SOL    HW2 1731   2.214   2.987   0.548
  278SOL     OW 1732   0.188   2.956   3.114
  278SOL    HW1 1733   0.219   2.875   3.164
  278SOL    HW2 1734   0.148   2.927   3.027
  279SOL     OW 1735   5.607   2.780   4.788
  279SOL    HW1 1736   5.540   2.794   4.861
  279SOL    HW2 1737   5.668   2.704   4.813
  280SOL     OW 1738   1.767   5.274   1.822
  280SOL    HW1 1739   1.689   5.322   1.782
  280SOL    HW2 1740   1.761   5.278   1.922
  281SOL     OW 1741   2.378   3.964   1.567
  281SOL    HW1 1742   2.369   3.885   1.628
  281SOL    HW2 1743   2.474   3.988   1.557
  282SOL     OW 1744   3.133   1.503   5.925
  282SOL    HW1 1745   3.046   1.552   5.919
  282SOL    HW2 1746   3.145   1.446   5.844
  283SOL     OW 1747   5.260   2.660   6.712
  283SOL    HW1 1748   5.239   2.563   6.697
  283SOL    HW2 1749   5.178   2.714   6.697
  284SOL     OW 1750   0.730   3.713   3.518
  284SOL    HW1 1751   0.649   3.745   3.470
  284SOL    HW2 1752   0.703   3.652   3.593
  285SOL     OW 1753   5.729   4.420   3.672
  285SOL    HW1 1754   5.653   4.376   3.623
  285SOL    HW2 1755   5.803   4.440   3.608
  286SOL     OW 1756   3.339   3.844   7.017
  286SOL    HW1 1757   3.432   3.864   0.028
  286SOL    HW2 1758   3.343   3.811   6.922
  287SOL     OW 1759   1.810   3.537   0.498
  287SOL    HW1 1760   1.763   3.449   0.493
  287SOL    HW2 1761   1.832   3.558   0.593
  288SOL     OW 1762   4.426   1.478   0.107
  288SOL    HW1 1763   4.471   1.416   0.172
  288SOL    HW2 1764   4.434   1.441   0.015
  289SOL     OW 1765   2.126   4.901   5.968
  289SOL    HW1 1766   2.132   4.976   5.903
  289SOL    HW2 1767   2.030   4.887   5.994
  290SOL     OW 1768   0.104   2.042   5.601
  290SOL    HW1 1769   0.155   1.968   5.644
  290SOL    HW2 1770   0.158   2.127   5.604
  291SOL     OW 1771   0.317   1.496   3.162
  291SOL    HW1 1772   0.292   1.427   3.095
  291SOL    HW2 1773   0.393   1.551   3.127
  292SOL     OW 1774   2.326   0.575   3.414
  292SOL    HW1 1775   2.299   0.671   3.405
  292SOL    HW2 1776   2.268   0.519   3.354
  293SOL     OW 1777   4.662   5.373   4.137
  293SOL    HW1 1778   4.646   5.277   4.113
  293SOL    HW2 1779   4.593   5.430   4.093
  294SOL     OW 1780   5.533   6.609   6.468
  294SOL    HW1 1781   5.494   6.636   6.380
  294SOL    HW2 1782   5.619   6.561   6.453
  295SOL     OW 1783   5.297   0.640   3.942
  295SOL    HW1 1784   5.287   0.670   3.847
  295SOL    HW2 1785   5.251   0.705   4.002
  296SOL     OW 1786   3.222   1.533   2.765
  296SOL    HW1 1787   3.246   1.629   2.780
  296SOL    HW2 1788   3.224   1.485   2.853
  297SOL     OW 1789   1.657   3.593   3.311
  297SOL    HW1 1790   1.727   3.664   3.317
  297SOL    HW2 1791   1.580   3.618   3.370
  298SOL     OW 1792   5.993   5.487   1.002
  298SOL    HW1 1793   5.913   5.539   0.975
  298SOL    HW2 1794   6.018   5.509   1.097
  299SOL     OW 1795   6.185   2.709   5.184
  299SOL    HW1 1796   6.145   2.711   5.092
  299SOL    HW2 1797   6.237   2.625   5.195
  300SOL     OW 1798   6.163   0.744   3.156
  300SOL    HW1 1799   6.133   0.808   3.086
  300SOL    HW2 1800   6.249   0.775   3.196
  301SOL     OW 1801   5.656   3.450   6.413
  301SOL    HW1 1802   5.690   3.455   6.506
  301SOL    HW2 1803   5.663   3.540   6.370
  302SOL     OW 1804   0.974   0.267   3.928
  302SOL    HW1 1805   0.991   0.227   3.838
  302SOL    HW2 1806   0.881   0.302   3.932
  303SOL     OW 1807   5.223   0.996   3.432
  303SOL    HW1 1808   5.272   0.959   3.353
  303SOL    HW2 1809   5.244   0.941   3.513
  304SOL     OW 1810   2.057   6.983   3.586
  304SOL    HW1 1811   2.134   6.944   3.535
  304SOL    HW2 1812   2.028   6.919   3.657
  305SOL     OW 1813   1.087   3.814   0.342
  305SOL    HW1 1814   1.048   3.806   0.433
  305SOL    HW2 1815   1.158   3.885   0.342
  306SOL     OW 1816   2.077   1.081   4.293
  306SOL    HW1 1817   2.100   1.169   4.333
  306SOL    HW2 1818   1.987   1.052   4.327
  307SOL     OW 1819   4.119   0.029   1.023
  307SOL    HW1 1820   4.212   0.066   1.030
  307SOL    HW2 1821   4.110   6.970   1.082
  308SOL     OW 1822   0.857   5.988   3.318
  308SOL    HW1 1823   0.932   6.003   3.252
  308SOL    HW2 1824   0.894   5.943   3.399
  309SOL     OW 1825   3.606   4.770   5.445
  309SOL    HW1 1826   3.696   4.766   5.403
  309SOL    HW2 1827   3.536   4.753   5.376
  310SOL     OW 1828   0.182   6.478   5.577
  310SOL    HW1 1829   0.200   6.409   5.647
  310SOL    HW2 1830   0.257   6.544   5.575
  311SOL     OW 1831   0.557   6.271   1.834
  311SOL    HW1 1832   0.567   6.187   1.887
  311SOL    HW2 1833   0.478   6.322   1.867
  312SOL     OW 1834   4.954   1.822   5.094
  312SOL    HW1 1835   4.919   1.739   5.138
  312SOL    HW2 1836   4.890   1.852   5.023
  313SOL     OW 1837   1.899   4.025   1.952
  313SOL    HW1 1838   1.982   4.080   1.946
  313SOL    HW2 1839   1.905   3.964   2.031
  314SOL     OW 1840   3.497   5.843   0.360
  314SOL    HW1 1841   3.428   5.819   0.292
  314SOL    HW2 1842   3.505   5.943   0.365
  315SOL     OW 1843   0.771   2.376   3.286
  315SOL    HW1 1844   0.803   2.459   3.331
  315SOL    HW2 1845   0.720   2.319   3.351
  316SOL     OW 1846   2.367   2.738   3.769
  316SOL    HW1 1847   2.398   2.762   3.861
  316SOL    HW2 1848   2.434   2.678   3.725
  317SOL     OW 1849   6.837   1.896   0.152
  317SOL    HW1 1850   6.753   1.894   0.099
  317SOL    HW2 1851   6.841   1.814   0.210
  318SOL     OW 1852   2.286   3.853   1.102
  318SOL    HW1 1853   2.233   3.937   1.096
  318SOL    HW2 1854   2.302   3.831   1.198
  319SOL     OW 1855   1.765   6.274   0.716
  319SOL    HW1 1856   1.696   6.206   0.738
  319SOL    HW2 1857   1.762   6.294   0.618
  320SOL     OW 1858   6.090   3.133   0.563
  320SOL    HW1 1859   6.106   3.229   0.584
  320SOL    HW2 1860   6.177   3.090   0.538
  321SOL     OW 1861   1.938   2.878   1.407
  321SOL    HW1 1862   1.962   2.885   1.310
  321SOL    HW2 1863   1.880   2.955   1.432
  322SOL     OW 1864   3.846   3.106   5.318
  322SOL    HW1 1865   3.857   3.165   5.238
  322SOL    HW2 1866   3.815   3.016   5.288
  323SOL     OW 1867   6.997   4.349   1.012
  323SOL    HW1 1868   0.015   4.268   1.056
  323SOL    HW2 1869   0.049   4.407   0.978
  324SOL     OW 1870   1.190   3.005   4.794
  324SOL    HW1 1871   1.215   3.009   4.697
  324SOL    HW2 1872   1.266   3.040   4.849
  325SOL     OW 1873   2.156   2.898   2.110
  325SOL    HW1 1874   2.250   2.888   2.077
  325SOL    HW2 1875   2.136   2.995   2.124
  326SOL     OW 1876   1.604   5.353   6.302
  326SOL    HW1 1877   1.691   5.378   6.345
  326SOL    HW2 1878   1.598   5.253   6.294
  327SOL     OW 1879   6.427   4.630   5.775
  327SOL    HW1 1880   6.371   4.558   5.737
  327SOL    HW2 1881   6.519   4.625   5.737
  328SOL     OW 1882   4.025   4.940   2.436
  328SOL    HW1 1883   3.944   4.998   2.448
  328SOL    HW2 1884   4.010   4.879   2.358
  329SOL     OW 1885   3.536   3.620   3.315
  329SOL    HW1 1886   3.538   3.540   3.376
  329SOL    HW2 1887   3.573   3.594   3.226
  330SOL     OW 1888   3.607   6.783   1.831
  330SOL    HW1 1889   3.599   6.717   1.757
  330SOL    HW2 1890   3.636   6.872   1.794
  331SOL     OW 1891   4.922   5.176   5.969
  331SOL    HW1 1892   4.844   5.225   5.930
  331SOL    HW2 1893   4.987   5.154   5.896
  332SOL     OW 1894   3.334   2.066   3.048
  332SOL    HW1 1895   3.244   2.045   3.086
  332SOL    HW2 1896   3.392   2.107   3.119
  333SOL     OW 1897   4.037   5.685   6.299
  333SOL    HW1 1898   3.990   5.772   6.287
  333SOL    HW2 1899   4.123   5.686   6.249
  334SOL     OW 1900   4.054   0.212   2.390
  334SOL    HW1 1901   4.001   0.128   2.379
  334SOL    HW2 1902   4.126   0.214   2.321
  335SOL     OW 1903   3.023   6.451   3.583
  335SOL    HW1 1904   3.077   6.488   3.659
  335SOL    HW2 1905   3.036   6.508   3.502
  336SOL     OW 1906   3.460   0.901   3.861
  336SOL    HW1 1907   3.399   0.876   3.936
  336SOL    HW2 1908   3.527   0.968   3.894
  337SOL     OW 1909   6.762   4.175   1.464
  337SOL    HW1 1910   6.742   4.170   1.562
  337SOL    HW2 1911   6.821   4.098   1.438
  338SOL     OW 1912   3.183   2.717   1.437
  338SOL    HW1 1913   3.216   2.683   1.349
  338SOL    HW2 1914   3.236   2.675   1.511
  339SOL     OW 1915   4.599   6.301   2.779
  339SOL    HW1 1916   4.519   6.250   2.748
  339SOL    HW2 1917   4.635   6.259   2.862
  340SOL     OW 1918   4.895   3.742   4.512
  340SOL    HW1 1919   4.885   3.663   4.573
  340SOL    HW2 1920   4.990   3.774   4.514
  341SOL     OW 1921   5.124   5.699   4.494
  341SOL    HW1 1922   5.219   5.689   4.521
  341SOL    HW2 1923   5.069   5.728   4.573
  342SOL     OW 1924   6.004   4.908   0.997
  342SOL    HW1 1925   5.977   4.964   1.075
  342SOL    HW2 1926   6.046   4.966   0.927
  343SOL     OW 1927   3.448   0.290   2.121
  343SOL    HW1 1928   3.457   0.387   2.101
  343SOL    HW2 1929   3.510   0.238   2.063
  344SOL     OW 1930   2.309   4.823   0.709
  344SOL    HW1 1931   2.358   4.736   0.715
  344SOL    HW2 1932   2.320   4.874   0.794
  345SOL     OW 1933   0.865   0.305   4.950
  345SOL    HW1 1934   0.781   0.311   4.895
  345SOL    HW2 1935   0.919   0.226   4.919
  346SOL     OW 1936   1.226   0.236   3.066
  346SOL    HW1 1937   1.235   0.182   2.983
  346SOL    HW2 1938   1.264   0.327   3.050
  347SOL     OW 1939   4.899   6.974   6.287
  347SOL    HW1 1940   4.825   0.008   6.325
  347SOL    HW2 1941   4.972   0.014   6.255
  348SOL     OW 1942   3.666   5.316   1.542
  348SOL    HW1 1943   3.765   5.310   1.531
  348SOL    HW2 1944   3.636   5.408   1.517
  349SOL     OW 1945   0.577   4.945   2.498
  349SOL    HW1 1946   0.493   4.903   2.533
  349SOL    HW2 1947   0.585   4.928   2.400
  350SOL     OW 1948   4.319   3.369   1.378
  350SOL    HW1 1949   4.396   3.389   1.439
  350SOL    HW2 1950   4.240   3.422   1.405
  351SOL     OW 1951   2.820   1.715   0.146
  351SOL    HW1 1952   2.728   1.677   0.138
  351SOL    HW2 1953   2.846   1.756   0.058
  352SOL     OW 1954   3.084   1.022   6.440
  352SOL    HW1 1955   3.007   1.086   6.434
  352SOL    HW2 1956   3.151   1.044   6.369
  353SOL     OW 1957   2.073   6.284   0.837
  353SOL    HW1 1958   1.979   6.295   0.804
  353SOL    HW2 1959   2.096   6.186   0.842
  354SOL     OW 1960   4.510   1.268   0.733
  354SOL    HW1 1961   4.546   1.188   0.686
  354SOL    HW2 1962   4.585   1.328   0.759
  355SOL     OW 1963   6.917   3.107   2.764
  355SOL    HW1 1964   6.878   3.112   2.857
  355SOL    HW2 1965   6.881   3.027   2.717
  356SOL     OW 1966   4.185   5.404   3.460
  356SOL    HW1 1967   4.196   5.306   3.442
  356SOL    HW2 1968   4.236   5.457   3.392
  357SOL     OW 1969   6.979   5.746   5.192
  357SOL    HW1 1970   0.024   5.671   5.200
  357SOL    HW2 1971   6.912   5.740   5.266
  358SOL     OW 1972   5.231   0.439   1.422
  358SOL    HW1 1973   5.180   0.521   1.395
  358SOL    HW2 1974   5.324   0.465   1.449
  359SOL     OW 1975   1.517   1.710   2.008
  359SOL    HW1 1976   1.498   1.805   2.035
  359SOL    HW2 1977   1.434   1.670   1.968
  360SOL     OW 1978   4.081   6.809   0.051
  360SOL    HW1 1979   3.991   6.767   0.048
  360SOL    HW2 1980   4.072   6.906   0.072
  361SOL     OW 1981   4.478   6.708   2.302
  361SOL    HW1 1982   4.523   6.784   2.255
  361SOL    HW2 1983   4.408   6.743   2.364
  362SOL     OW 1984   3.373   3.300   0.608
  362SOL    HW1 1985   3.388   3.300   0.707
  362SOL    HW2 1986   3.304   3.232   0.585
  363SOL     OW 1987   4.437   4.687   4.294
  363SOL    HW1 1988   4.361   4.733   4.341
  363SOL    HW2 1989   4.448   4.595   4.331
  364SOL     OW 1990   1.013   5.499   5.907
  364SOL    HW1 1991   0.975   5.444   5.832
  364SOL    HW2 1992   1.041   5.439   5.981
  365SOL     OW 1993   4.906   6.838   1.550
  365SOL    HW1 1994   4.863   6.754   1.583
  365SOL    HW2 1995   4.987   6.857   1.605
  366SOL     OW 1996   5.794   0.851   6.872
  366SOL    HW1 1997   5.762   0.893   6.787
  366SOL    HW2 1998   5.745   0.765   6.888
  367SOL     OW 1999   5.224   2.613   1.611
  367SOL    HW1 2000   5.149   2.619   1.546
  367SOL    HW2 2001   5.251   2.518   1.623
  368SOL     OW 2002   0.926   5.031   5.041
  368SOL    HW1 2003   0.918   5.022   4.942
  368SOL    HW2 2004   0.932   5.128   5.066
  369SOL     OW 2005   0.838   3.898   1.702
  369SOL    HW1 2006   0.937   3.909   1.712
  369SOL    HW2 2007   0.812   3.916   1.607
  370SOL     OW 2008   3.120   1.327   5.717
  370SOL    HW1 2009   3.060   1.290   5.647
  370SOL    HW2 2010   3.204   1.272   5.722
  371SOL     OW 2011   3.818   2.508   0.300
  371SOL    HW1 2012   3.760   2.581   0.263
  371SOL    HW2 2013   3.830   2.520   0.398
  372SOL     OW 2014   0.345   6.203   6.261
  372SOL    HW1 2015   0.444   6.210   6.278
  372SOL    HW2 2016   0.324   6.111   6.228
  373SOL     OW 2017   6.871   6.906   0.430
  373SOL    HW1 2018   6.796   6.889   0.365
  373SOL    HW2 2019   6.843   6.876   0.521
  374SOL     OW 2020   3.436   0.763   1.822
  374SOL    HW1 2021   3.372   0.706   1.874
  374SOL    HW2 2022   3.522   0.714   1.811
  375SOL     OW 2023   6.839   4.787   3.339
  375SOL    HW1 2024   6.862   4.811   3.244
  375SOL    HW2 2025   6.814   4.690   3.343
  376SOL     OW 2026   2.155   2.628   3.964
  376SOL    HW1 2027   2.228   2.694   3.950
  376SOL    HW2 2028   2.107   2.649   4.049
  377SOL     OW 2029   4.845   2.003   3.540
  377SOL    HW1 2030   4.827   1.926   3.601
  377SOL    HW2 2031   4.921   2.058   3.577
  378SOL     OW 2032   5.156   2.927   4.923
  378SOL    HW1 2033   5.068   2.963   4.950
  378SOL    HW2 2034   5.145   2.870   4.841
  379SOL     OW 2035   6.254   3.522   1.286
  379SOL    HW1 2036   6.353   3.508   1.281
  379SOL    HW2 2037   6.233   3.593   1.354
  380SOL     OW 2038   1.103   1.976   1.450
  380SOL    HW1 2039   1.073   1.968   1.355
  380SOL    HW2 2040   1.201   1.995   1.453
  381SOL     OW 2041   3.988   3.383   1.266
  381SOL    HW1 2042   3.996   3.356   1.362
  381SOL    HW2 2043   3.934   3.466   1.259
  382SOL     OW 2044   2.709   5.913   0.576
  382SOL    HW1 2045   2.774   5.985   0.596
  382SOL    HW2 2046   2.642   5.907   0.650
  383SOL     OW 2047   6.303   2.579   0.195
  383SOL    HW1 2048   6.225   2.590   0.257
  383SOL    HW2 2049   6.299   2.489   0.153
  384SOL     OW 2050   1.675   5.612   4.900
  384SOL    HW1 2051   1.761   5.563   4.916
  384SOL    HW2 2052   1.598   5.552   4.920
  385SOL     OW 2053   4.853   6.019   0.624
  385SOL    HW1 2054   4.876   5.970   0.708
  385SOL    HW2 2055   4.754   6.026   0.616
  386SOL     OW 2056   3.344   6.198   6.031
  386SOL    HW1 2057   3.270   6.252   5.991
  386SOL    HW2 2058   3.428   6.251   6.030
  387SOL     OW 2059   0.192   0.803   5.454
  387SOL    HW1 2060   0.273   0.745   5.444
  387SOL    HW2 2061   0.130   0.785   5.378
  388SOL     OW 2062   6.314   2.424   5.191
  388SOL    HW1 2063   6.244   2.363   5.154
  388SOL    HW2 2064   6.389   2.370   5.229
  389SOL     OW 2065   4.243   4.554   1.364
  389SOL    HW1 2066   4.313   4.619   1.392
  389SOL    HW2 2067   4.163   4.605   1.330
  390SOL     OW 2068   3.295   1.778   0.329
  390SOL    HW1 2069   3.262   1.684   0.330
  390SOL    HW2 2070   3.393   1.780   0.350
  391SOL     OW 2071   3.275   4.599   5.660
  391SOL    HW1 2072   3.182   4.563   5.672
  391SOL    HW2 2073   3.287   4.678   5.720
  392SOL     OW 2074   1.362   3.688   1.830
  392SOL    HW1 2075   1.294   3.671   1.901
  392SOL    HW2 2076   1.401   3.779   1.842
  393SOL     OW 2077   0.881   4.283   1.776
  393SOL    HW1 2078   0.955   4.348   1.794
  393SOL    HW2 2079   0.903   4.229   1.695
  394SOL     OW 2080   0.205   1.252   6.662
  394SOL    HW1 2081   0.115   1.296   6.652
  394SOL    HW2 2082   0.202   1.189   6.739
  395SOL     OW 2083   5.430   4.654   1.533
  395SOL    HW1 2084   5.528   4.640   1.548
  395SOL    HW2 2085   5.417   4.703   1.446
  396SOL     OW 2086   1.950   0.730   1.861
  396SOL    HW1 2087   1.951   0.830   1.848
  396SOL    HW2 2088   2.033   0.703   1.910
  397SOL     OW 2089   4.439   2.033   5.127
  397SOL    HW1 2090   4.399   2.081   5.049
  397SOL    HW2 2091   4.523   2.080   5.155
  398SOL     OW 2092   1.715   1.197   4.102
  398SOL    HW1 2093   1.615   1.190   4.099
  398SOL    HW2 2094   1.742   1.287   4.068
  399SOL     OW 2095   6.091   6.261   3.822
  399SOL    HW1 2096   6.160   6.328   3.850
  399SOL    HW2 2097   6.041   6.229   3.901
  400SOL     OW 2098   6.256   0.525   4.636
  400SOL    HW1 2099   6.182   0.592   4.627
  400SOL    HW2 2100   6.344   0.571   4.627
  401SOL     OW 2101   6.870   5.043   5.994
  401SOL    HW1 2102   6.912   5.115   5.938
  401SOL    HW2 2103   6.864   4.958   5.941
  402SOL     OW 2104   6.348   0.358   2.571
  402SOL    HW1 2105   6.286   0.288   2.606
  402SOL    HW2 2106   6.363   0.427   2.641
  403SOL     OW 2107   2.354   1.167   5.327
  403SOL    HW1 2108   2.323   1.242   5.386
  403SOL    HW2 2109   2.288   1.092   5.332
  404SOL     OW 2110   3.853   5.582   3.673
  404SOL    HW1 2111   3.804   5.536   3.599
  404SOL    HW2 2112   3.877   5.675   3.644
  405SOL     OW 2113   2.392   4.783   4.286
  405SOL    HW1 2114   2.461   4.710   4.294
  405SOL    HW2 2115   2.437   4.870   4.268
  406SOL     OW 2116   0.436   5.637   5.757
  406SOL    HW1 2117   0.378   5.587   5.821
  406SOL    HW2 2118   0.479   5.714   5.804
  407SOL     OW 2119   1.891   3.225   4.568
  407SOL    HW1 2120   1.943   3.215   4.483
  407SOL    HW2 2121   1.849   3.138   4.591
  408SOL     OW 2122   2.701   1.474   3.493
  408SOL    HW1 2123   2.729   1.378   3.498
  408SOL    HW2 2124   2.619   1.488   3.548
  409SOL     OW 2125   0.659   3.692   2.900
  409SOL    HW1 2126   0.710   3.760   2.847
  409SOL    HW2 2127   0.723   3.640   2.957
  410SOL     OW 2128   1.920   1.462   1.595
  410SOL    HW1 2129   1.901   1.375   1.551
  410SOL    HW2 2130   1.840   1.491   1.647
  411SOL     OW 2131   0.667   3.155   1.416
  411SOL    HW1 2132   0.592   3.221   1.427
  411SOL    HW2 2133   0.687   3.112   1.504
  412SOL     OW 2134   1.562   5.410   2.205
  412SOL    HW1 2135   1.494   5.479   2.182
  412SOL    HW2 2136   1.553   5.385   2.301
  413SOL     OW 2137   5.527   5.854   2.415
  413SOL    HW1 2138   5.490   5.947   2.424
  413SOL    HW2 2139   5.459   5.796   2.369
  414SOL     OW 2140   2.162   6.285   3.412
  414SOL    HW1 2141   2.258   6.311   3.404
  414SOL    HW2 2142   2.120   6.284   3.321
  415SOL     OW 2143   6.129   1.101   0.336
  415SOL    HW1 2144   6.035   1.134   0.326
  415SOL    HW2 2145   6.177   1.158   0.403
  416SOL     OW 2146   5.054   3.024   4.553
  416SOL    HW1 2147   5.062   2.962   4.631
  416SOL    HW2 2148   5.130   3.089   4.555
  417SOL     OW 2149   1.979   1.956   6.306
  417SOL    HW1 2150   1.982   1.916   6.214
  417SOL    HW2 2151   1.915   2.033   6.306
  418SOL     OW 2152   4.042   6.597   4.587
  418SOL    HW1 2153   4.108   6.544   4.641
  418SOL    HW2 2154   3.975   6.535   4.547
  419SOL     OW 2155   0.327   0.169   0.938
  419SOL    HW1 2156   0.338   0.112   0.857
  419SOL    HW2 2157   0.243   0.222   0.931
  420SOL     OW 2158   4.610   0.922   6.700
  420SOL    HW1 2159   4.698   0.878   6.686
  420SOL    HW2 2160   4.623   1.007   6.752
  421SOL     OW 2161   5.519   3.407   2.638
  421SOL    HW1 2162   5.450   3.453   2.581
  421SOL    HW2 2163   5.475   3.366   2.718
  422SOL     OW 2164   4.884   3.248   1.861
  422SOL    HW1 2165   4.981   3.225   1.869
  422SOL    HW2 2166   4.833   3.201   1.933
  423SOL     OW 2167   3.742   1.110   6.442
  423SOL    HW1 2168   3.753   1.203   6.477
  423SOL    HW2 2169   3.713   1.049   6.517
  424SOL     OW 2170   0.929   3.497   3.484
  424SOL    HW1 2171   1.003   3.527   3.545
  424SOL    HW2 2172   0.854   3.563   3.488
  425SOL     OW 2173   2.794   0.724   5.967
  425SOL    HW1 2174   2.848   0.758   5.890
  425SOL    HW2 2175   2.726   0.660   5.934
  426SOL     OW 2176   2.636   2.100   4.138
  426SOL    HW1 2177   2.662   2.056   4.224
  426SOL    HW2 2178   2.621   2.197   4.154
  427SOL     OW 2179   3.913   2.105   3.081
  427SOL    HW1 2180   3.825   2.099   3.128
  427SOL    HW2 2181   3.900   2.086   2.984
  428SOL     OW 2182   2.844   2.241   6.022
  428SOL    HW1 2183   2.746   2.255   6.014
  428SOL    HW2 2184   2.863   2.144   6.036
  429SOL     OW 2185   0.692   5.732   4.234
  429SOL    HW1 2186   0.790   5.719   4.217
  429SOL    HW2 2187   0.645   5.645   4.224
  430SOL     OW 2188   1.273   6.903   4.000
  430SOL    HW1 2189   1.355   6.857   3.966
  430SOL    HW2 2190   1.263   6.887   4.098
  431SOL     OW 2191   2.669   2.053   1.425
  431SOL    HW1 2192   2.647   1.994   1.502
  431SOL    HW2 2193   2.655   2.149   1.451
  432SOL     OW 2194   4.986   2.251   2.187
  432SOL    HW1 2195   5.061   2.316   2.172
  432SOL    HW2 2196   4.946   2.226   2.099
  433SOL     OW 2197   2.074   5.068   1.028
  433SOL    HW1 2198   2.034   5.139   1.086
  433SOL    HW2 2199   2.157   5.103   0.984
  434SOL     OW 2200   4.419   5.937   3.833
  434SOL    HW1 2201   4.387   5.865   3.895
  434SOL    HW2 2202   4.473   5.896   3.759
  435SOL     OW 2203   3.418   1.567   6.027
  435SOL    HW1 2204   3.323   1.567   5.995
  435SOL    HW2 2205   3.480   1.564   5.948
  436SOL     OW 2206   4.610   0.154   2.738
  436SOL    HW1 2207   4.527   0.105   2.763
  436SOL    HW2 2208   4.652   0.111   2.658
  437SOL     OW 2209   6.499   0.882   4.977
  437SOL    HW1 2210   6.521   0.950   4.908
  437SOL    HW2 2211   6.582   0.858   5.028
  438SOL     OW 2212   0.220   4.528   2.767
  438SOL    HW1 2213   0.136   4.488   2.802
  438SOL    HW2 2214   0.236   4.497   2.674
  439SOL     OW 2215   0.079   0.405   4.552
  439SOL    HW1 2216   0.032   0.492   4.534
  439SOL    HW2 2217   0.134   0.414   4.635
  440SOL     OW 2218   4.036   1.082   0.522
  440SOL    HW1 2219   4.041   1.114   0.617
  440SOL    HW2 2220   4.125   1.094   0.479
  441SOL     OW 2221   0.237   3.936   2.503
  441SOL    HW1 2222   0.195   3.875   2.436
  441SOL    HW2 2223   0.314   3.889   2.547
  442SOL     OW 2224   5.400   3.189   5.588
  442SOL    HW1 2225   5.441   3.156   5.502
  442SOL    HW2 2226   5.471   3.233   5.643
  443SOL     OW 2227   4.900   3.458   2.050
  443SOL    HW1 2228   4.891   3.394   1.974
  443SOL    HW2 2229   4.945   3.413   2.127
  444SOL     OW 2230   3.938   0.950   1.775
  444SOL    HW1 2231   3.903   1.008   1.849
  444SOL    HW2 2232   4.038   0.943   1.783
  445SOL     OW 2233   1.707   5.907   2.392
  445SOL    HW1 2234   1.691   5.846   2.470
  445SOL    HW2 2235   1.622   5.920   2.342
  446SOL     OW 2236   5.308   6.977   1.490
  446SOL    HW1 2237   5.233   0.012   1.523
  446SOL    HW2 2238   5.341   7.014   1.403
  447SOL     OW 2239   5.882   4.736   1.283
  447SOL    HW1 2240   5.887   4.833   1.308
  447SOL    HW2 2241   5.973   4.705   1.256
  448SOL     OW 2242   2.334   0.244   3.261
  448SOL    HW1 2243   2.421   0.195   3.272
  448SOL    HW2 2244   2.264   0.181   3.227
  449SOL     OW 2245   1.806   4.198   4.700
  449SOL    HW1 2246   1.830   4.227   4.607
  449SOL    HW2 2247   1.835   4.268   4.765
  450SOL     OW 2248   0.648   4.772   3.592
  450SOL    HW1 2249   0.595   4.688   3.593
  450SOL    HW2 2250   0.744   4.751   3.572
  451SOL     OW 2251   0.748   1.920   1.947
  451SOL    HW1 2252   0.726   1.823   1.947
  451SOL    HW2 2253   0.784   1.946   2.037
  452SOL     OW 2254   4.559   5.583   2.073
  452SOL    HW1 2255   4.521   5.512   2.015
  452SOL    HW2 2256   4.647   5.614   2.036
  453SOL     OW 2257   3.306   0.555   6.050
  453SOL    HW1 2258   3.209   0.578   6.044
  453SOL    HW2 2259   3.334   0.552   6.146
  454SOL     OW 2260   6.628   3.214   6.324
  454SOL    HW1 2261   6.576   3.228   6.239
  454SOL    HW2 2262   6.593   3.133   6.371
  455SOL     OW 2263   6.102   4.710   6.136
  455SOL    HW1 2264   6.152   4.705   6.050
  455SOL    HW2 2265   6.147   4.776   6.197
  456SOL     OW 2266   2.703   0.843   2.713
  456SOL    HW1 2267   2.690   0.896   2.630
  456SOL    HW2 2268   2.666   0.894   2.791
  457SOL     OW 2269   2.755   6.897   0.342
  457SOL    HW1 2270   2.831   6.962   0.345
  457SOL    HW2 2271   2.724   6.887   0.247
  458SOL     OW 2272   3.395   1.616   3.398
  458SOL    HW1 2273   3.434   1.642   3.309
  458SOL    HW2 2274   3.296   1.609   3.390
  459SOL     OW 2275   3.763   6.653   3.609
  459SOL    HW1 2276   3.763   6.722   3.681
  459SOL    HW2 2277   3.835   6.586   3.627
  460SOL     OW 2278   1.012   1.460   6.087
  460SOL    HW1 2279   1.100   1.437   6.044
  460SOL    HW2 2280   0.938   1.412   6.038
  461SOL     OW 2281   0.853   4.872   5.256
  461SOL    HW1 2282   0.922   4.833   5.318
  461SOL    HW2 2283   0.898   4.905   5.173
  462SOL     OW 2284   3.665   4.166   4.555
  462SOL    HW1 2285   3.695   4.187   4.462
  462SOL    HW2 2286   3.572   4.130   4.553
  463SOL     OW 2287   5.377   6.518   3.443
  463SOL    HW1 2288   5.457   6.479   3.489
  463SOL    HW2 2289   5.313   6.445   3.419
  464SOL     OW 2290   3.939   4.715   6.546
  464SOL    HW1 2291   3.933   4.632   6.489
  464SOL    HW2 2292   3.852   4.728   6.594
  465SOL     OW 2293   0.724   3.666   1.336
  465SOL    HW1 2294   0.807   3.610   1.346
  465SOL    HW2 2295   0.702   3.676   1.239
  466SOL     OW 2296   4.006   5.644   4.643
  466SOL    HW1 2297   3.930   5.640   4.578
  466SOL    HW2 2298   4.025   5.739   4.667
  467SOL     OW 2299   5.818   0.037   1.673
  467SOL    HW1 2300   5.895   0.079   1.721
  467SOL    HW2 2301   5.732   0.080   1.703
  468SOL     OW 2302   3.065   6.667   6.512
  468SOL    HW1 2303   3.087   6.626   6.601
  468SOL    HW2 2304   3.118   6.621   6.441
  469SOL     OW 2305   3.471   4.980   5.034
  469SOL    HW1 2306   3.512   4.956   4.946
  469SOL    HW2 2307   3.373   4.996   5.022
  470SOL     OW 2308   2.345   4.366   2.620
  470SOL    HW1 2309   2.341   4.279   2.669
  470SOL    HW2 2310   2.277   4.367   2.546
  471SOL     OW 2311   1.559   2.054   4.206
  471SOL    HW1 2312   1.559   2.026   4.111
  471SOL    HW2 2313   1.607   2.142   4.215
  472SOL     OW 2314   5.699   3.725   6.308
  472SOL    HW1 2315   5.662   3.788   6.375
  472SOL    HW2 2316   5.776   3.768   6.260
  473SOL     OW 2317   6.116   2.735   2.063
  473SOL    HW1 2318   6.105   2.815   2.123
  473SOL    HW2 2319   6.213   2.716   2.050
  474SOL     OW 2320   4.491   6.527   3.900
  474SOL    HW1 2321   4.531   6.562   3.985
  474SOL    HW2 2322   4.447   6.602   3.851
  475SOL     OW 2323   5.728   1.625   0.230
  475SOL    HW1 2324   5.727   1.697   0.299
  475SOL    HW2 2325   5.728   1.667   0.139
  476SOL     OW 2326   1.168   4.565   1.327
  476SOL    HW1 2327   1.210   4.624   1.396
  476SOL    HW2 2328   1.098   4.508   1.369
  477SOL     OW 2329   0.906   4.598   3.647
  477SOL    HW1 2330   0.934   4.594   3.743
  477SOL    HW2 2331   0.944   4.519   3.599
  478SOL     OW 2332   4.978   5.660   2.211
  478SOL    HW1 2333   4.976   5.760   2.216
  478SOL    HW2 2334   5.061   5.626   2.253
  479SOL     OW 2335   3.003   3.951   3.748
  479SOL    HW1 2336   2.923   3.904   3.710
  479SOL    HW2 2337   3.077   3.951   3.681
  480SOL     OW 2338   1.137   0.691   3.071
  480SOL    HW1 2339   1.044   0.697   3.108
  480SOL    HW2 2340   1.190   0.624   3.124
  481SOL     OW 2341   0.158   6.978   0.789
  481SOL    HW1 2342   0.128   6.949   0.699
  481SOL    HW2 2343   0.258   6.985   0.791
  482SOL     OW 2344   3.955   5.034   1.573
  482SOL    HW1 2345   3.866   4.995   1.596
  482SOL    HW2 2346   3.995   4.982   1.497
  483SOL     OW 2347   5.726   2.018   4.288
  483SOL    HW1 2348   5.717   2.073   4.371
  483SOL    HW2 2349   5.751   2.078   4.211
  484SOL     OW 2350   2.408   4.459   4.004
  484SOL    HW1 2351   2.371   4.376   4.045
  484SOL    HW2 2352   2.425   4.443   3.907
  485SOL     OW 2353   5.524   3.424   1.321
  485SOL    HW1 2354   5.493   3.330   1.312
  485SOL    HW2 2355   5.551   3.459   1.232
  486SOL     OW 2356   5.992   6.139   6.145
  486SOL    HW1 2357   5.900   6.123   6.180
  486SOL    HW2 2358   6.058   6.090   6.202
  487SOL     OW 2359   6.944   6.880   5.826
  487SOL    HW1 2360   6.938   6.980   5.819
  487SOL    HW2 2361   6.868   6.839   5.775
  488SOL     OW 2362   1.994   5.567   3.188
  488SOL    HW1 2363   2.079   5.617   3.169
  488SOL    HW2 2364   1.956   5.598   3.275
  489SOL     OW 2365   1.315   5.760   6.251
  489SOL    HW1 2366   1.355   5.852   6.249
  489SOL    HW2 2367   1.225   5.762   6.207
  490SOL     OW 2368   0.768   4.150   4.372
  490SOL    HW1 2369   0.823   4.082   4.420
  490SOL    HW2 2370   0.723   4.108   4.293
  491SOL     OW 2371   0.415   2.757   0.731
  491SOL    HW1 2372   0.471   2.732   0.810
  491SOL    HW2 2373   0.374   2.675   0.691
  492SOL     OW 2374   1.193   2.494   5.593
  492SOL    HW1 2375   1.110   2.447   5.622
  492SOL    HW2 2376   1.220   2.560   5.664
  493SOL     OW 2377   2.241   5.652   4.381
  493SOL    HW1 2378   2.207   5.675   4.289
  493SOL    HW2 2379   2.171   5.673   4.448
  494SOL     OW 2380   2.479   6.735   4.640
  494SOL    HW1 2381   2.419   6.741   4.561
  494SOL    HW2 2382   2.557   6.677   4.619
  495SOL     OW 2383   3.652   3.940   6.140
  495SOL    HW1 2384   3.750   3.953   6.125
  495SOL    HW2 2385   3.606   3.926   6.053
  496SOL     OW 2386   4.985   1.453   3.154
  496SOL    HW1 2387   5.004   1.406   3.240
  496SOL    HW2 2388   5.071   1.491   3.117
  497SOL     OW 2389   4.665   1.614   0.221
  497SOL    HW1 2390   4.620   1.630   0.133
  497SOL    HW2 2391   4.713   1.526   0.219
  498SOL     OW 2392   0.488   6.890   1.664
  498SOL    HW1 2393   0.415   6.822   1.658
  498SOL    HW2 2394   0.456   6.969   1.718
  499SOL     OW 2395   2.718   5.777   0.317
  499SOL    HW1 2396   2.715   5.824   0.406
  499SOL    HW2 2397   2.662   5.695   0.322
  500SOL     OW 2398   5.566   2.385   0.282
  500SOL    HW1 2399   5.523   2.297   0.264
  500SOL    HW2 2400   5.601   2.423   0.197
  501SOL     OW 2401   1.234   1.393   4.610
  501SOL    HW1 2402   1.196   1.321   4.668
  501SOL    HW2 2403   1.174   1.473   4.612
  502SOL     OW 2404   2.337   4.834   6.808
  502SOL    HW1 2405   2.331   4.931   6.788
  502SOL    HW2 2406   2.374   4.821   6.900
  503SOL     OW 2407   4.377   4.795   0.670
  503SOL    HW1 2408   4.279   4.778   0.658
  503SOL    HW2 2409   4.411   4.743   0.748
  504SOL     OW 2410   6.163   6.175   2.116
  504SOL    HW1 2411   6.093   6.138   2.054
  504SOL    HW2 2412   6.135   6.267   2.145
  505SOL     OW 2413   4.761   5.973   5.178
  505SOL    HW1 2414   4.693   5.983   5.106
  505SOL    HW2 2415   4.851   5.955   5.138
  506SOL     OW 2416   4.208   5.347   2.049
  506SOL    HW1 2417   4.153   5.431   2.048
  506SOL    HW2 2418   4.258   5.340   1.962
  507SOL     OW 2419   2.562   0.961   1.205
  507SOL    HW1 2420   2.623   1.040   1.200
  507SOL    HW2 2421   2.487   0.981   1.269
  508SOL     OW 2422   7.001   3.798   3.347
  508SOL    HW1 2423   7.000   3.698   3.339
  508SOL    HW2 2424   6.987   3.824   3.442
  509SOL     OW 2425   4.698   0.306   6.006
  509SOL    HW1 2426   4.759   0.384   5.993
  509SOL    HW2 2427   4.638   0.297   5.926
  510SOL     OW 2428   6.432   3.842   6.915
  510SOL    HW1 2429   6.449   3.774   6.986
  510SOL    HW2 2430   6.463   3.932   6.946
  511SOL     OW 2431   0.657   2.305   0.654
  511SOL    HW1 2432   0.603   2.300   0.570
  511SOL    HW2 2433   0.734   2.242   0.649
  512SOL     OW 2434   0.189   1.968   4.535
  512SOL    HW1 2435   0.121   1.993   4.604
  512SOL    HW2 2436   0.277   1.951   4.579
  513SOL     OW 2437   5.098   1.008   3.087
  513SOL    HW1 2438   5.042   1.047   3.013
  513SOL    HW2 2439   5.187   0.982   3.051
  514SOL     OW 2440   6.095   0.315   4.711
  514SOL    HW1 2441   6.152   0.390   4.677
  514SOL    HW2 2442   6.047   0.274   4.634
  515SOL     OW 2443   4.029   0.158   5.569
  515SOL    HW1 2444   3.953   0.180   5.630
  515SOL    HW2 2445   4.022   0.213   5.485
  516SOL     OW 2446   2.416   5.746   2.799
  516SOL    HW1 2447   2.459   5.773   2.885
  516SOL    HW2 2448   2.338   5.807   2.780
  517SOL     OW 2449   3.567   5.854   1.524
  517SOL    HW1 2450   3.584   5.757   1.503
  517SOL    HW2 2451   3.485   5.884   1.474
  518SOL     OW 2452   2.116   3.805   4.085
  518SOL    HW1 2453   2.089   3.710   4.092
  518SOL    HW2 2454   2.095   3.840   3.994
  519SOL     OW 2455   0.167   6.972   1.814
  519SOL    HW1 2456   0.109   6.913   1.871
  519SOL    HW2 2457   0.219   0.013   1.873
  520SOL     OW 2458   1.713   4.180   0.828
  520SOL    HW1 2459   1.654   4.180   0.908
  520SOL    HW2 2460   1.775   4.102   0.832
  521SOL     OW 2461   6.547   6.335   4.986
  521SOL    HW1 2462   6.515   6.242   5.005
  521SOL    HW2 2463   6.569   6.344   4.889
  522SOL     OW 2464   3.894   4.251   1.488
  522SOL    HW1 2465   3.994   4.261   1.492
  522SOL    HW2 2466   3.855   4.330   1.440
  523SOL     OW 2467   0.908   6.835   0.912
  523SOL    HW1 2468   0.928   6.781   0.830
  523SOL    HW2 2469   0.989   6.836   0.971
  524SOL     OW 2470   0.051   2.438   1.341
  524SOL    HW1 2471   0.129   2.386   1.306
  524SOL    HW2 2472   6.996   2.433   1.276
  525SOL     OW 2473   0.735   3.574   5.238
  525SOL    HW1 2474   0.801   3.630   5.287
  525SOL    HW2 2475   0.733   3.482   5.278
  526SOL     OW 2476   3.242   0.115   3.803
  526SOL    HW1 2477   3.199   0.030   3.772
  526SOL    HW2 2478   3.314   0.094   3.869
  527SOL     OW 2479   0.273   0.844   0.445
  527SOL    HW1 2480   0.263   0.898   0.528
  527SOL    HW2 2481   0.324   0.761   0.465
  528SOL     OW 2482   6.944   3.307   4.399
  528SOL    HW1 2483   6.909   3.232   4.455
  528SOL    HW2 2484   6.954   3.277   4.305
  529SOL     OW 2485   1.750   0.642   0.316
  529SOL    HW1 2486   1.711   0.733   0.323
  529SOL    HW2 2487   1.850   0.647   0.324
  530SOL     OW 2488   3.649   3.990   1.188
  530SOL    HW1 2489   3.674   4.042   1.106
  530SOL    HW2 2490   3.730   3.976   1.244
  531SOL     OW 2491   1.024   0.253   0.751
  531SOL    HW1 2492   1.119   0.282   0.744
  531SOL    HW2 2493   0.989   0.231   0.660
  532SOL     OW 2494   1.125   2.111   6.550
  532SOL    HW1 2495   1.068   2.122   6.632
  532SOL    HW2 2496   1.067   2.105   6.469
  533SOL     OW 2497   3.684   0.065   4.617
  533SOL    HW1 2498   3.765   0.076   4.560
  533SOL    HW2 2499   3.639   0.154   4.629
  534SOL     OW 2500   1.907   5.045   1.484
  534SOL    HW1 2501   1.857   4.992   1.552
  534SOL    HW2 2502   1.892   5.143   1.499
  535SOL     OW 2503   5.116   3.334   3.955
  535SOL    HW1 2504   5.031   3.339   4.006
  535SOL    HW2 2505   5.125   3.243   3.914
  536SOL     OW 2506   6.629   0.118   1.974
  536SOL    HW1 2507   6.616   0.217   1.983
  536SOL    HW2 2508   6.541   0.072   1.972
  537SOL     OW 2509   3.721   2.178   4.088
  537SOL    HW1 2510   3.640   2.178   4.146
  537SOL    HW2 2511   3.803   2.169   4.145
  538SOL     OW 2512   3.432   4.786   5.233
  538SOL    HW1 2513   3.429   4.849   5.156
  538SOL    HW2 2514   3.343   4.743   5.245
  539SOL     OW 2515   1.103   6.800   0.352
  539SOL    HW1 2516   1.126   6.872   0.287
  539SOL    HW2 2517   1.027   6.830   0.410
  540SOL     OW 2518   0.711   0.024   4.107
  540SOL    HW1 2519   0.648   0.085   4.058
  540SOL    HW2 2520   0.716   6.957   4.059
  541SOL     OW 2521   4.442   6.169   3.972
  541SOL    HW1 2522   4.428   6.084   3.922
  541SOL    HW2 2523   4.379   6.238   3.939
  542SOL     OW 2524   3.613   0.333   5.604
  542SOL    HW1 2525   3.604   0.366   5.510
  542SOL    HW2 2526   3.559   0.391   5.665
  543SOL     OW 2527   6.410   2.212   4.245
  543SOL    HW1 2528   6.506   2.228   4.223
  543SOL    HW2 2529   6.353   2.280   4.197
  544SOL     OW 2530   1.753   3.753   1.160
  544SOL    HW1 2531   1.850   3.729   1.152
  544SOL    HW2 2532   1.745   3.836   1.215
  545SOL     OW 2533   5.449   0.440   1.082
  545SOL    HW1 2534   5.532   0.437   1.137
  545SOL    HW2 2535   5.388   0.512   1.115
  546SOL     OW 2536   0.032   4.339   2.832
  546SOL    HW1 2537   0.032   4.250   2.878
  546SOL    HW2 2538   6.993   4.334   2.751
  547SOL     OW 2539   5.432   0.692   6.233
  547SOL    HW1 2540   5.431   0.763   6.163
  547SOL    HW2 2541   5.525   0.660   6.247
  548SOL     OW 2542   3.693   2.075   6.935
  548SOL    HW1 2543   3.680   2.171   6.910
  548SOL    HW2 2544   3.748   2.069   7.019
  549SOL     OW 2545   5.823   1.525   1.961
  549SOL    HW1 2546   5.755   1.531   1.887
  549SOL    HW2 2547   5.890   1.598   1.949
  550SOL     OW 2548   7.016   5.596   3.127
  550SOL    HW1 2549   0.049   5.534   3.184
  550SOL    HW2 2550   6.979   5.669   3.184
  551SOL     OW 2551   6.277   1.094   0.765
  551SOL    HW1 2552   6.342   1.165   0.793
  551SOL    HW2 2553   6.204   1.088   0.833
  552SOL     OW 2554   6.823   5.198   5.674
  552SOL    HW1 2555   6.748   5.214   5.739
  552SOL    HW2 2556   6.905   5.244   5.707
  553SOL     OW 2557   2.541   1.232   0.191
  553SOL    HW1 2558   2.446   1.214   0.217
  553SOL    HW2 2559   2.588   1.276   0.267
  554SOL     OW 2560   5.273   6.306   1.391
  554SOL    HW1 2561   5.288   6.352   1.303
  554SOL    HW2 2562   5.321   6.218   1.391
  555SOL     OW 2563   1.263   4.029   5.797
  555SOL    HW1 2564   1.303   4.053   5.885
  555SOL    HW2 2565   1.313   4.075   5.724
  556SOL     OW 2566   5.410   0.240   4.478
  556SOL    HW1 2567   5.467   0.258   4.398
  556SOL    HW2 2568   5.317   0.271   4.461
  557SOL     OW 2569   6.746   4.256   6.666
  557SOL    HW1 2570   6.827   4.314   6.655
  557SOL    HW2 2571   6.664   4.307   6.639
  558SOL     OW 2572   3.089   3.943   2.290
  558SOL    HW1 2573   3.057   4.025   2.243
  558SOL    HW2 2574   3.183   3.923   2.262
  559SOL     OW 2575   6.416   6.605   5.345
  559SOL    HW1 2576   6.390   6.530   5.405
  559SOL    HW2 2577   6.478   6.572   5.274
  560SOL     OW 2578   6.292   3.008   3.947
  560SOL    HW1 2579   6.343   3.041   4.027
  560SOL    HW2 2580   6.202   2.976   3.975
  561SOL     OW 2581   0.769   3.064   0.282
  561SOL    HW1 2582   0.839   3.000   0.253
  561SOL    HW2 2583   0.721   3.100   0.202
  562SOL     OW 2584   4.302   6.825   5.193
  562SOL    HW1 2585   4.315   6.762   5.116
  562SOL    HW2 2586   4.390   6.863   5.221
  563SOL     OW 2587   1.678   1.321   4.377
  563SOL    HW1 2588   1.750   1.390   4.385
  563SOL    HW2 2589   1.697   1.263   4.298
  564SOL     OW 2590   6.927   1.533   5.578
  564SOL    HW1 2591   6.968   1.491   5.497
  564SOL    HW2 2592   6.893   1.624   5.554
  565SOL     OW 2593   3.362   3.472   3.714
  565SOL    HW1 2594   3.436   3.408   3.698
  565SOL    HW2 2595   3.398   3.565   3.721
  566SOL     OW 2596   3.342   0.221   3.334
  566SOL    HW1 2597   3.270   0.181   3.391
  566SOL    HW2 2598   3.396   0.147   3.292
  567SOL     OW 2599   2.304   2.756   5.767
  567SOL    HW1 2600   2.328   2.711   5.853
  567SOL    HW2 2601   2.349   2.845   5.762
  568SOL     OW 2602   6.844   6.602   0.149
  568SOL    HW1 2603   6.848   6.672   0.078
  568SOL    HW2 2604   6.933   6.596   0.195
  569SOL     OW 2605   6.304   2.288   0.510
  569SOL    HW1 2606   6.364   2.352   0.558
  569SOL    HW2 2607   6.209   2.308   0.532
  570SOL     OW 2608   2.530   0.206   6.059
  570SOL    HW1 2609   2.489   0.192   5.969
  570SOL    HW2 2610   2.503   0.295   6.094
  571SOL     OW 2611   1.959   5.032   2.190
  571SOL    HW1 2612   1.900   4.958   2.155
  571SOL    HW2 2613   1.913   5.077   2.266
  572SOL     OW 2614   2.958   0.156   4.047
  572SOL    HW1 2615   2.939   0.167   3.949
  572SOL    HW2 2616   2.876   0.181   4.100
  573SOL     OW 2617   6.950   1.161   5.114
  573SOL    HW1 2618   0.016   1.111   5.110
  573SOL    HW2 2619   6.929   1.198   5.024
  574SOL     OW 2620   2.262   2.410   5.761
  574SOL    HW1 2621   2.236   2.452   5.674
  574SOL    HW2 2622   2.350   2.445   5.791
  575SOL     OW 2623   3.902   2.641   0.009
  575SOL    HW1 2624   3.863   2.587   6.954
  575SOL    HW2 2625   3.854   2.728   0.015
  576SOL     OW 2626   2.219   2.953   3.057
  576SOL    HW1 2627   2.234   2.929   2.962
  576SOL    HW2 2628   2.268   2.888   3.116
  577SOL     OW 2629   0.939   1.523   1.911
  577SOL    HW1 2630   0.999   1.477   1.976
  577SOL    HW2 2631   0.970   1.503   1.818
  578SOL     OW 2632   2.238   6.262   6.749
  578SOL    HW1 2633   2.319   6.204   6.761
  578SOL    HW2 2634   2.217   6.269   6.651
  579SOL     OW 2635   2.249   4.453   1.806
  579SOL    HW1 2636   2.318   4.434   1.875
  579SOL    HW2 2637   2.274   4.535   1.755
  580SOL     OW 2638   4.412   5.691   4.657
  580SOL    HW1 2639   4.437   5.744   4.576
  580SOL    HW2 2640   4.384   5.599   4.629
  581SOL     OW 2641   1.693   2.724   4.349
  581SOL    HW1 2642   1.642   2.671   4.417
  581SOL    HW2 2643   1.791   2.713   4.364
  582SOL     OW 2644   5.495   5.533   3.939
  582SOL    HW1 2645   5.477   5.606   4.005
  582SOL    HW2 2646   5.417   5.525   3.876
  583SOL     OW 2647   4.557   5.682   5.749
  583SOL    HW1 2648   4.584   5.767   5.705
  583SOL    HW2 2649   4.594   5.605   5.698
  584SOL     OW 2650   4.893   0.865   5.135
  584SOL    HW1 2651   4.853   0.955   5.118
  584SOL    HW2 2652   4.828   0.794   5.110
  585SOL     OW 2653   3.171   0.805   1.892
  585SOL    HW1 2654   3.217   0.845   1.812
  585SOL    HW2 2655   3.180   0.867   1.970
  586SOL     OW 2656   4.768   6.916   0.596
  586SOL    HW1 2657   4.740   6.977   0.522
  586SOL    HW2 2658   4.750   6.821   0.568
  587SOL     OW 2659   4.863   1.813   1.638
  587SOL    HW1 2660   4.800   1.852   1.705
  587SOL    HW2 2661   4.822   1.817   1.547
  588SOL     OW 2662   1.691   5.310   2.694
  588SOL    HW1 2663   1.643   5.226   2.720
  588SOL    HW2 2664   1.786   5.306   2.726
  589SOL     OW 2665   2.786   6.056   1.120
  589SOL    HW1 2666   2.827   5.966   1.105
  589SOL    HW2 2667   2.849   6.127   1.088
  590SOL     OW 2668   4.775   2.020   0.518
  590SOL    HW1 2669   4.694   1.978   0.560
  590SOL    HW2 2670   4.781   2.115   0.546
  591SOL     OW 2671   3.314   5.834   4.594
  591SOL    HW1 2672   3.258   5.756   4.621
  591SOL    HW2 2673   3.374   5.808   4.518
  592SOL     OW 2674   3.891   1.921   4.234
  592SOL    HW1 2675   3.937   2.009   4.245
  592SOL    HW2 2676   3.921   1.878   4.149
  593SOL     OW 2677   2.752   1.380   6.479
  593SOL    HW1 2678   2.782   1.400   6.386
  593SOL    HW2 2679   2.675   1.439   6.502
  594SOL     OW 2680   4.823   1.059   1.857
  594SOL    HW1 2681   4.730   1.084   1.831
  594SOL    HW2 2682   4.835   0.960   1.846
  595SOL     OW 2683   5.649   5.695   2.613
  595SOL    HW1 2684   5.740   5.708   2.651
  595SOL    HW2 2685   5.634   5.759   2.537
  596SOL     OW 2686   6.406   5.030   4.255
  596SOL    HW1 2687   6.363   4.979   4.181
  596SOL    HW2 2688   6.454   4.967   4.316
  597SOL     OW 2689   2.596   0.597   6.499
  597SOL    HW1 2690   2.544   0.677   6.527
  597SOL    HW2 2691   2.633   0.551   6.579
  598SOL     OW 2692   2.926   3.381   4.435
  598SOL    HW1 2693   2.993   3.455   4.428
  598SOL    HW2 2694   2.937   3.319   4.357
  599SOL     OW 2695   1.250   4.812   1.485
  599SOL    HW1 2696   1.344   4.836   1.511
  599SOL    HW2 2697   1.206   4.891   1.442
  600SOL     OW 2698   6.973   4.028   4.941
  600SOL    HW1 2699   0.035   4.004   4.890
  600SOL    HW2 2700   6.906   4.069   4.879
  601SOL     OW 2701   2.127   6.654   4.690
  601SOL    HW1 2702   2.163   6.744   4.717
  601SOL    HW2 2703   2.041   6.637   4.738
  602SOL     OW 2704   2.073   6.546   3.699
  602SOL    HW1 2705   2.049   6.510   3.789
  602SOL    HW2 2706   2.169   6.526   3.680
  603SOL     OW 2707   1.656   1.290   5.500
  603SOL    HW1 2708   1.709   1.214   5.461
  603SOL    HW2 2709   1.567   1.257   5.530
  604SOL     OW 2710   6.551   2.502   1.759
  604SOL    HW1 2711   6.618   2.451   1.704
  604SOL    HW2 2712   6.503   2.567   1.700
  605SOL     OW 2713   6.598   6.093   2.289
  605SOL    HW1 2714   6.659   6.014   2.290
  605SOL    HW2 2715   6.627   6.158   2.359
  606SOL     OW 2716   3.541   6.425   4.574
  606SOL    HW1 2717   3.597   6.396   4.651
  606SOL    HW2 2718   3.506   6.517   4.590
  607SOL     OW 2719   0.908   4.317   5.982
  607SOL    HW1 2720   0.900   4.239   5.919
  607SOL    HW2 2721   0.897   4.402   5.931
  608SOL     OW 2722   2.534   1.333   5.610
  608SOL    HW1 2723   2.612   1.361   5.554
  608SOL    HW2 2724   2.542   1.236   5.633
  609SOL     OW 2725   3.260   2.856   1.962
  609SOL    HW1 2726   3.281   2.830   2.056
  609SOL    HW2 2727   3.218   2.947   1.962
  610SOL     OW 2728   5.031   3.705   0.971
  610SOL    HW1 2729   4.983   3.793   0.965
  610SOL    HW2 2730   4.978   3.642   1.028
  611SOL     OW 2731   3.488   0.434   2.646
  611SOL    HW1 2732   3.403   0.450   2.696
  611SOL    HW2 2733   3.468   0.418   2.550
  612SOL     OW 2734   4.134   4.649   5.562
  612SOL    HW1 2735   4.045   4.694   5.575
  612SOL    HW2 2736   4.191   4.664   5.643
  613SOL     OW 2737   4.612   4.981   5.880
  613SOL    HW1 2738   4.579   5.007   5.971
  613SOL    HW2 2739   4.540   4.998   5.812
  614SOL     OW 2740   4.108   5.150   5.709
  614SOL    HW1 2741   4.109   5.079   5.639
  614SOL    HW2 2742   4.090   5.239   5.667
  615SOL     OW 2743   0.582   4.865   2.224
  615SOL    HW1 2744   0.507   4.892   2.165
  615SOL    HW2 2745   0.568   4.771   2.256
  616SOL     OW 2746   6.018   3.298   3.240
  616SOL    HW1 2747   6.040   3.263   3.331
  616SOL    HW2 2748   6.052   3.235   3.171
  617SOL     OW 2749   3.294   5.227   6.291
  617SOL    HW1 2750   3.225   5.269   6.232
  617SOL    HW2 2751   3.326   5.294   6.358
  618SOL     OW 2752   1.563   0.817   2.294
  618SOL    HW1 2753   1.577   0.787   2.388
  618SOL    HW2 2754   1.465   0.826   2.276
  619SOL     OW 2755   0.726   1.048   6.877
  619SOL    HW1 2756   0.652   1.005   6.929
  619SOL    HW2 2757   0.746   0.993   6.796
  620SOL     OW 2758   4.344   3.788   0.859
  620SOL    HW1 2759   4.398   3.831   0.931
  620SOL    HW2 2760   4.259   3.752   0.898
  621SOL     OW 2761   0.161   4.748   1.877
  621SOL    HW1 2762   0.120   4.705   1.958
  621SOL    HW2 2763   0.123   4.840   1.866
  622SOL     OW 2764   1.261   0.650   6.959
  622SOL    HW1 2765   1.355   0.664   6.927
  622SOL    HW2 2766   1.197   0.699   6.899
  623SOL     OW 2767   0.953   4.499   6.533
  623SOL    HW1 2768   0.899   4.504   6.449
  623SOL    HW2 2769   0.975   4.592   6.563
  624SOL     OW 2770   0.677   2.611   2.134
  624SOL    HW1 2771   0.583   2.600   2.103
  624SOL    HW2 2772   0.708   2.704   2.113
  625SOL     OW 2773   2.349   1.375   1.930
  625SOL    HW1 2774   2.278   1.398   1.997
  625SOL    HW2 2775   2.359   1.450   1.864
  626SOL     OW 2776   2.729   6.618   4.534
  626SOL    HW1 2777   2.756   6.681   4.462
  626SOL    HW2 2778   2.750   6.524   4.506
  627SOL     OW 2779   5.195   0.728   0.397
  627SOL    HW1 2780   5.119   0.674   0.434
  627SOL    HW2 2781   5.211   0.808   0.454
  628SOL     OW 2782   5.014   3.998   3.703
  628SOL    HW1 2783   4.957   4.079   3.714
  628SOL    HW2 2784   5.078   3.991   3.780
  629SOL     OW 2785   1.209   6.496   0.986
  629SOL    HW1 2786   1.129   6.514   1.043
  629SOL    HW2 2787   1.246   6.582   0.950
  630SOL     OW 2788   3.884   1.970   1.119
  630SOL    HW1 2789   3.982   1.957   1.100
  630SOL    HW2 2790   3.870   2.060   1.160
  631SOL     OW 2791   2.312   6.651   5.213
  631SOL    HW1 2792   2.369   6.728   5.187
  631SOL    HW2 2793   2.223   6.658   5.167
  632SOL     OW 2794   2.088   1.260   1.039
  632SOL    HW1 2795   2.104   1.302   0.949
  632SOL    HW2 2796   2.076   1.332   1.107
  633SOL     OW 2797   2.523   6.790   6.183
  633SOL    HW1 2798   2.562   6.698   6.176
  633SOL    HW2 2799   2.562   6.835   6.264
  634SOL     OW 2800   3.760   5.967   0.187
  634SOL    HW1 2801   3.745   5.870   0.166
  634SOL    HW2 2802   3.727   5.986   0.279
  635SOL     OW 2803   2.642   0.587   2.677
  635SOL    HW1 2804   2.678   0.680   2.681
  635SOL    HW2 2805   2.695   0.533   2.612
  636SOL     OW 2806   5.204   5.289   6.929
  636SOL    HW1 2807   5.227   5.386   6.917
  636SOL    HW2 2808   5.279   5.243   6.977
  637SOL     OW 2809   4.625   4.668   0.832
  637SOL    HW1 2810   4.577   4.622   0.757
  637SOL    HW2 2811   4.723   4.649   0.825
  638SOL     OW 2812   5.139   1.079   2.744
  638SOL    HW1 2813   5.215   1.143   2.736
  638SOL    HW2 2814   5.061   1.124   2.787
  639SOL     OW 2815   4.334   4.622   1.832
  639SOL    HW1 2816   4.408   4.599   1.895
  639SOL    HW2 2817   4.259   4.663   1.883
  640SOL     OW 2818   2.654   4.457   5.349
  640SOL    HW1 2819   2.751   4.436   5.356
  640SOL    HW2 2820   2.627   4.459   5.253
  641SOL     OW 2821   6.814   5.964   4.688
  641SOL    HW1 2822   6.845   6.059   4.683
  641SOL    HW2 2823   6.767   5.949   4.775
  642SOL     OW 2824   1.393   5.420   5.152
  642SOL    HW1 2825   1.293   5.428   5.159
  642SOL    HW2 2826   1.436   5.502   5.190
  643SOL     OW 2827   5.430   5.843   5.153
  643SOL    HW1 2828   5.423   5.935   5.114
  643SOL    HW2 2829   5.357   5.830   5.221
  644SOL     OW 2830   1.508   6.514   2.130
  644SOL    HW1 2831   1.582   6.511   2.198
  644SOL    HW2 2832   1.545   6.546   2.042
  645SOL     OW 2833   5.896   2.704   3.677
  645SOL    HW1 2834   5.954   2.784   3.660
  645SOL    HW2 2835   5.802   2.734   3.696
  646SOL     OW 2836   1.744   1.986   4.667
  646SOL    HW1 2837   1.716   1.954   4.757
  646SOL    HW2 2838   1.843   1.986   4.661
  647SOL     OW 2839   5.768   3.541   0.340
  647SOL    HW1 2840   5.763   3.445   0.367
  647SOL    HW2 2841   5.734   3.598   0.414
  648SOL     OW 2842   5.955   3.031   1.765
  648SOL    HW1 2843   5.898   2.952   1.740
  648SOL    HW2 2844   6.050   3.001   1.777
  649SOL     OW 2845   4.068   4.699   1.220
  649SOL    HW1 2846   4.130   4.728   1.147
  649SOL    HW2 2847   4.008   4.775   1.245
  650SOL     OW 2848   5.111   4.468   0.768
  650SOL    HW1 2849   5.147   4.461   0.862
  650SOL    HW2 2850   5.176   4.519   0.712
  651SOL     OW 2851   1.025   5.776   6.609
  651SOL    HW1 2852   0.986   5.850   6.554
  651SOL    HW2 2853   1.106   5.740   6.562
  652SOL     OW 2854   4.271   1.380   2.805
  652SOL    HW1 2855   4.208   1.457   2.807
  652SOL    HW2 2856   4.224   1.298   2.772
  653SOL     OW 2857   3.752   4.846   3.707
  653SOL    HW1 2858   3.804   4.770   3.670
  653SOL    HW2 2859   3.772   4.857   3.804
  654SOL     OW 2860   6.266   4.582   0.630
  654SOL    HW1 2861   6.172   4.586   0.597
  654SOL    HW2 2862   6.271   4.524   0.712
  655SOL     OW 2863   0.705   0.919   0.622
  655SOL    HW1 2864   0.670   1.009   0.595
  655SOL    HW2 2865   0.687   0.852   0.549
  656SOL     OW 2866   2.649   6.567   2.378
  656SOL    HW1 2867   2.603   6.581   2.465
  656SOL    HW2 2868   2.700   6.481   2.380
  657SOL     OW 2869   3.160   1.875   6.615
  657SOL    HW1 2870   3.101   1.795   6.605
  657SOL    HW2 2871   3.121   1.937   6.683
  658SOL     OW 2872   3.605   4.720   5.960
  658SOL    HW1 2873   3.617   4.621   5.959
  658SOL    HW2 2874   3.517   4.744   5.919
  659SOL     OW 2875   2.861   0.263   6.830
  659SOL    HW1 2876   2.797   0.339   6.833
  659SOL    HW2 2877   2.813   0.178   6.850
  660SOL     OW 2878   3.735   5.266   3.259
  660SOL    HW1 2879   3.692   5.331   3.196
  660SOL    HW2 2880   3.777   5.316   3.336
  661SOL     OW 2881   5.250   5.375   3.048
  661SOL    HW1 2882   5.346   5.363   3.024
  661SOL    HW2 2883   5.207   5.439   2.983
  662SOL     OW 2884   3.110   1.376   0.115
  662SOL    HW1 2885   3.013   1.391   0.136
  662SOL    HW2 2886   3.164   1.451   0.154
  663SOL     OW 2887   2.312   4.408   4.997
  663SOL    HW1 2888   2.391   4.435   5.052
  663SOL    HW2 2889   2.255   4.345   5.050
  664SOL     OW 2890   6.401   1.035   6.958
  664SOL    HW1 2891   6.393   0.949   6.907
  664SOL    HW2 2892   6.483   1.031   7.016
  665SOL     OW 2893   2.442   5.434   3.164
  665SOL    HW1 2894   2.483   5.381   3.090
  665SOL    HW2 2895   2.500   5.427   3.246
  666SOL     OW 2896   4.171   1.071   2.181
  666SOL    HW1 2897   4.262   1.112   2.194
  666SOL    HW2 2898   4.160   1.045   2.085
  667SOL     OW 2899   1.142   6.881   2.686
  667SOL    HW1 2900   1.046   6.884   2.711
  667SOL    HW2 2901   1.153   6.914   2.592
  668SOL     OW 2902   5.346   3.672   0.150
  668SOL    HW1 2903   5.271   3.634   0.095
  668SOL    HW2 2904   5.424   3.692   0.090
  669SOL     OW 2905   5.137   1.779   2.913
  669SOL    HW1 2906   5.095   1.863   2.947
  669SOL    HW2 2907   5.065   1.717   2.879
  670SOL     OW 2908   2.444   2.019   3.099
  670SOL    HW1 2909   2.433   1.949   3.169
  670SOL    HW2 2910   2.447   2.109   3.142
  671SOL     OW 2911   3.354   6.189   2.010
  671SOL    HW1 2912   3.358   6.266   1.947
  671SOL    HW2 2913   3.262   6.151   2.011
  672SOL     OW 2914   1.375   6.748   2.768
  672SOL    HW1 2915   1.276   6.746   2.783
  672SOL    HW2 2916   1.406   6.843   2.763
  673SOL     OW 2917   5.686   6.818   0.233
  673SOL    HW1 2918   5.733   6.734   0.205
  673SOL    HW2 2919   5.646   6.862   0.153
  674SOL     OW 2920   7.021   1.241   4.234
  674SOL    HW1 2921   0.013   1.186   4.152
  674SOL    HW2 2922   0.028   1.188   4.315
  675SOL     OW 2923   6.073   2.941   2.672
  675SOL    HW1 2924   6.105   2.862   2.620
  675SOL    HW2 2925   6.060   2.916   2.767
  676SOL     OW 2926   1.719   5.905   6.064
  676SOL    HW1 2927   1.786   5.954   6.119
  676SOL    HW2 2928   1.690   5.963   5.987
  677SOL     OW 2929   4.708   1.443   0.860
  677SOL    HW1 2930   4.774   1.423   0.932
  677SOL    HW2 2931   4.744   1.516   0.801
  678SOL     OW 2932   2.121   5.011   4.427
  678SOL    HW1 2933   2.067   4.999   4.510
  678SOL    HW2 2934   2.180   5.092   4.437
  679SOL     OW 2935   5.445   1.753   5.569
  679SOL    HW1 2936   5.475   1.750   5.664
  679SOL    HW2 2937   5.346   1.761   5.565
  680SOL     OW 2938   4.664   0.232   4.268
  680SOL    HW1 2939   4.601   0.283   4.209
  680SOL    HW2 2940   4.627   0.142   4.287
  681SOL     OW 2941   4.525   4.973   2.306
  681SOL    HW1 2942   4.515   4.897   2.241
  681SOL    HW2 2943   4.471   4.954   2.388
  682SOL     OW 2944   0.852   0.952   3.534
  682SOL    HW1 2945   0.889   0.887   3.600
  682SOL    HW2 2946   0.875   1.045   3.562
  683SOL     OW 2947   4.312   3.584   1.113
  683SOL    HW1 2948   4.397   3.621   1.077
  683SOL    HW2 2949   4.332   3.505   1.172
  684SOL     OW 2950   6.611   1.310   6.074
  684SOL    HW1 2951   6.566   1.396   6.049
  684SOL    HW2 2952   6.553   1.259   6.137
  685SOL     OW 2953   3.799   0.482   3.199
  685SOL    HW1 2954   3.816   0.580   3.206
  685SOL    HW2 2955   3.701   0.464   3.207
  686SOL     OW 2956   4.588   0.319   5.182
  686SOL    HW1 2957   4.516   0.384   5.207
  686SOL    HW2 2958   4.551   0.226   5.182
  687SOL     OW 2959   1.189   2.144   4.141
  687SOL    HW1 2960   1.199   2.218   4.208
  687SOL    HW2 2961   1.095   2.141   4.108
  688SOL     OW 2962   6.618   1.312   6.602
  688SOL    HW1 2963   6.674   1.256   6.664
  688SOL    HW2 2964   6.581   1.390   6.652
  689SOL     OW 2965   1.128   4.880   5.908
  689SOL    HW1 2966   1.183   4.821   5.848
  689SOL    HW2 2967   1.033   4.850   5.904
  690SOL     OW 2968   5.778   3.331   2.553
  690SOL    HW1 2969   5.787   3.236   2.582
  690SOL    HW2 2970   5.684   3.361   2.564
  691SOL     OW 2971   5.164   1.401   0.582
  691SOL    HW1 2972   5.199   1.494   0.598
  691SOL    HW2 2973   5.100   1.403   0.506
  692SOL     OW 2974   2.677   1.018   5.051
  692SOL    HW1 2975   2.589   1.007   5.004
  692SOL    HW2 2976   2.676   0.969   5.138
  693SOL     OW 2977   5.281   6.008   3.984
  693SOL    HW1 2978   5.263   5.994   3.887
  693SOL    HW2 2979   5.257   6.101   4.010
  694SOL     OW 2980   4.572   5.766   5.278
  694SOL    HW1 2981   4.620   5.689   5.237
  694SOL    HW2 2982   4.629   5.847   5.274
  695SOL     OW 2983   3.209   0.252   4.117
  695SOL    HW1 2984   3.126   0.212   4.078
  695SOL    HW2 2985   3.214   0.349   4.093
  696SOL     OW 2986   4.709   4.687   3.060
  696SOL    HW1 2987   4.675   4.726   2.975
  696SOL    HW2 2988   4.755   4.757   3.113
  697SOL     OW 2989   0.246   5.405   2.009
  697SOL    HW1 2990   0.326   5.351   2.033
  697SOL    HW2 2991   0.260   5.449   1.920
  698SOL     OW 2992   5.922   6.750   0.491
  698SOL    HW1 2993   5.843   6.809   0.476
  698SOL    HW2 2994   5.902   6.687   0.565
  699SOL     OW 2995   2.462   2.386   1.088
  699SOL    HW1 2996   2.398   2.355   1.158
  699SOL    HW2 2997   2.544   2.424   1.132
  700SOL     OW 2998   3.670   0.226   3.074
  700SOL    HW1 2999   3.617   0.278   3.140
  700SOL    HW2 3000   3.736   0.168   3.122
  701SOL     OW 3001   6.020   5.228   1.131
  701SOL    HW1 3002   5.980   5.307   1.085
  701SOL    HW2 3003   6.115   5.218   1.104
  702SOL     OW 3004   3.371   0.793   4.373
  702SOL    HW1 3005   3.287   0.813   4.423
  702SOL    HW2 3006   3.446   0.845   4.412
  703SOL     OW 3007   2.789   2.286   6.292
  703SOL    HW1 3008   2.844   2.305   6.210
  703SOL    HW2 3009   2.727   2.363   6.308
  704SOL     OW 3010   1.333   2.670   5.763
  704SOL    HW1 3011   1.332   2.696   5.667
  704SOL    HW2 3012   1.393   2.732   5.814
  705SOL     OW 3013   6.949   6.548   4.813
  705SOL    HW1 3014   6.960   6.456   4.850
  705SOL    HW2 3015   7.006   6.612   4.864
  706SOL     OW 3016   4.507   0.858   4.993
  706SOL    HW1 3017   4.471   0.950   4.976
  706SOL    HW2 3018   4.517   0.845   5.092
  707SOL     OW 3019   3.685   5.197   3.914
  707SOL    HW1 3020   3.670   5.125   3.982
  707SOL    HW2 3021   3.746   5.163   3.843
  708SOL     OW 3022   3.565   0.306   3.599
  708SOL    HW1 3023   3.582   0.270   3.690
  708SOL    HW2 3024   3.467   0.316   3.584
  709SOL     OW 3025   2.396   0.018   1.691
  709SOL    HW1 3026   2.409   6.944   1.661
  709SOL    HW2 3027   2.331   0.063   1.630
  710SOL     OW 3028   4.602   2.772   1.864
  710SOL    HW1 3029   4.655   2.736   1.941
  710SOL    HW2 3030   4.598   2.871   1.870
  711SOL     OW 3031   0.067   2.094   5.979
  711SOL    HW1 3032   0.057   2.085   5.880
  711SOL    HW2 3033   7.001   2.126   6.018
  712SOL     OW 3034   5.288   4.192   0.596
  712SOL    HW1 3035   5.307   4.103   0.556
  712SOL    HW2 3036   5.190   4.205   0.605
  713SOL     OW 3037   3.914   2.767   5.312
  713SOL    HW1 3038   3.931   2.838   5.244
  713SOL    HW2 3039   3.972   2.688   5.294
  714SOL     OW 3040   5.231   5.141   3.694
  714SOL    HW1 3041   5.151   5.201   3.692
  714SOL    HW2 3042   5.242   5.098   3.605
  715SOL     OW 3043   6.516   5.195   5.367
  715SOL    HW1 3044   6.515   5.191   5.267
  715SOL    HW2 3045   6.507   5.103   5.405
  716SOL     OW 3046   2.398   1.788   2.504
  716SOL    HW1 3047   2.491   1.753   2.520
  716SOL    HW2 3048   2.338   1.712   2.479
  717SOL     OW 3049   5.241   4.939   4.400
  717SOL    HW1 3050   5.325   4.981   4.365
  717SOL    HW2 3051   5.207   4.873   4.334
  718SOL     OW 3052   5.803   1.722   4.693
  718SOL    HW1 3053   5.777   1.626   4.702
  718SOL    HW2 3054   5.850   1.736   4.607
  719SOL     OW 3055   5.468   0.237   3.437
  719SOL    HW1 3056   5.474   0.176   3.517
  719SOL    HW2 3057   5.451   0.182   3.355
  720SOL     OW 3058   2.492   1.426   6.886
  720SOL    HW1 3059   2.528   1.333   6.896
  720SOL    HW2 3060   2.459   1.439   6.792
  721SOL     OW 3061   0.213   1.879   3.427
  721SOL    HW1 3062   0.114   1.888   3.442
  721SOL    HW2 3063   0.242   1.788   3.455
  722SOL     OW 3064   4.216   6.652   0.257
  722SOL    HW1 3065   4.159   6.725   0.220
  722SOL    HW2 3066   4.172   6.564   0.241
  723SOL     OW 3067   2.459   5.649   3.533
  723SOL    HW1 3068   2.430   5.553   3.526
  723SOL    HW2 3069   2.552   5.658   3.496
  724SOL     OW 3070   1.025   1.334   3.850
  724SOL    HW1 3071   1.015   1.384   3.937
  724SOL    HW2 3072   1.118   1.346   3.816
  725SOL     OW 3073   1.122   3.982   2.550
  725SOL    HW1 3074   1.089   4.076   2.543
  725SOL    HW2 3075   1.194   3.977   2.619
  726SOL     OW 3076   1.919   4.320   0.684
  726SOL    HW1 3077   1.953   4.232   0.652
  726SOL    HW2 3078   1.830   4.307   0.728
  727SOL     OW 3079   4.468   5.357   5.297
  727SOL    HW1 3080   4.415   5.287   5.346
  727SOL    HW2 3081   4.412   5.395   5.224
  728SOL     OW 3082   6.385   3.480   4.010
  728SOL    HW1 3083   6.463   3.525   4.053
  728SOL    HW2 3084   6.380   3.507   3.914
  729SOL     OW 3085   0.193   4.107   1.535
  729SOL    HW1 3086   0.124   4.061   1.592
  729SOL    HW2 3087   0.280   4.060   1.543
  730SOL     OW 3088   5.336   0.616   3.215
  730SOL    HW1 3089   5.272   0.549   3.252
  730SOL    HW2 3090   5.401   0.570   3.154
  731SOL     OW 3091   4.391   4.575   6.396
  731SOL    HW1 3092   4.421   4.669   6.381
  731SOL    HW2 3093   4.326   4.549   6.325
  732SOL     OW 3094   4.742   1.444   4.423
  732SOL    HW1 3095   4.747   1.356   4.374
  732SOL    HW2 3096   4.735   1.518   4.357
  733SOL     OW 3097   6.042   6.701   3.181
  733SOL    HW1 3098   5.990   6.691   3.097
  733SOL    HW2 3099   6.096   6.618   3.198
  734SOL     OW 3100   5.911   6.396   2.742
  734SOL    HW1 3101   5.966   6.447   2.807
  734SOL    HW2 3102   5.826   6.446   2.723
  735SOL     OW 3103   5.041   0.733   2.390
  735SOL    HW1 3104   5.026   0.832   2.388
  735SOL    HW2 3105   4.982   0.693   2.461
  736SOL     OW 3106   1.383   1.704   4.541
  736SOL    HW1 3107   1.285   1.722   4.540
  736SOL    HW2 3108   1.406   1.637   4.470
  737SOL     OW 3109   5.456   0.776   6.493
  737SOL    HW1 3110   5.422   0.775   6.399
  737SOL    HW2 3111   5.379   0.772   6.557
  738SOL     OW 3112   2.528   4.218   1.331
  738SOL    HW1 3113   2.542   4.272   1.248
  738SOL    HW2 3114   2.575   4.130   1.322
  739SOL     OW 3115   2.907   6.655   4.738
  739SOL    HW1 3116   2.830   6.653   4.675
  739SOL    HW2 3117   2.874   6.680   4.829
  740SOL     OW 3118   5.383   3.277   2.837
  740SOL    HW1 3119   5.424   3.229   2.914
  740SOL    HW2 3120   5.289   3.302   2.859
  741SOL     OW 3121   2.625   0.555   2.991
  741SOL    HW1 3122   2.553   0.514   2.934
  741SOL    HW2 3123   2.706   0.572   2.935
  742SOL     OW 3124   1.779   6.685   1.498
  742SOL    HW1 3125   1.733   6.746   1.434
  742SOL    HW2 3126   1.758   6.713   1.592
  743SOL     OW 3127   0.761   6.441   3.239
  743SOL    HW1 3128   0.781   6.447   3.141
  743SOL    HW2 3129   0.684   6.501   3.261
  744SOL     OW 3130   4.900   2.354   0.134
  744SOL    HW1 3131   4.832   2.284   0.156
  744SOL    HW2 3132   4.958   2.322   0.059
  745SOL     OW 3133   2.982   6.477   5.109
  745SOL    HW1 3134   2.929   6.551   5.067
  745SOL    HW2 3135   3.051   6.517   5.170
  746SOL     OW 3136   6.725   4.374   5.620
  746SOL    HW1 3137   6.756   4.403   5.711
  746SOL    HW2 3138   6.777   4.293   5.592
  747SOL     OW 3139   5.203   6.016   3.076
  747SOL    HW1 3140   5.105   6.026   3.055
  747SOL    HW2 3141   5.256   6.019   2.991
  748SOL     OW 3142   5.755   5.539   2.326
  748SOL    HW1 3143   5.812   5.457   2.324
  748SOL    HW2 3144   5.694   5.536   2.405
  749SOL     OW 3145   4.925   3.503   3.786
  749SOL    HW1 3146   4.867   3.421   3.789
  749SOL    HW2 3147   5.021   3.475   3.782
  750SOL     OW 3148   2.087   2.087   1.668
  750SOL    HW1 3149   2.042   2.161   1.618
  750SOL    HW2 3150   2.056   1.999   1.633
  751SOL     OW 3151   4.645   0.389   0.362
  751SOL    HW1 3152   4.594   0.464   0.320
  751SOL    HW2 3153   4.646   0.401   0.462
  752SOL     OW 3154   3.596   2.503   5.425
  752SOL    HW1 3155   3.634   2.595   5.433
  752SOL    HW2 3156   3.499   2.509   5.401
  753SOL     OW 3157   3.848   3.722   4.702
  753SOL    HW1 3158   3.792   3.670   4.637
  753SOL    HW2 3159   3.944   3.694   4.693
  754SOL     OW 3160   5.894   0.441   6.975
  754SOL    HW1 3161   5.835   0.362   6.958
  754SOL    HW2 3162   5.958   0.451   6.899
  755SOL     OW 3163   4.021   4.520   5.293
  755SOL    HW1 3164   4.101   4.489   5.241
  755SOL    HW2 3165   4.050   4.554   5.382
  756SOL     OW 3166   2.096   5.253   6.042
  756SOL    HW1 3167   1.998   5.270   6.032
  756SOL    HW2 3168   2.128   5.200   5.964
  757SOL     OW 3169   2.724   6.801   2.727
  757SOL    HW1 3170   2.810   6.814   2.677
  757SOL    HW2 3171   2.724   6.860   2.808
  758SOL     OW 3172   3.345   1.600   4.010
  758SOL    HW1 3173   3.375   1.647   3.926
  758SOL    HW2 3174   3.305   1.667   4.072
  759SOL     OW 3175   0.610   2.629   4.425
  759SOL    HW1 3176   0.693   2.672   4.387
  759SOL    HW2 3177   0.531   2.654   4.368
  760SOL     OW 3178   6.633   5.647   3.471
  760SOL    HW1 3179   6.546   5.597   3.471
  760SOL    HW2 3180   6.623   5.730   3.526
  761SOL     OW 3181   4.222   3.243   6.244
  761SOL    HW1 3182   4.211   3.251   6.145
  761SOL    HW2 3183   4.314   3.209   6.264
  762SOL     OW 3184   3.391   5.406   4.563
  762SOL    HW1 3185   3.431   5.407   4.471
  762SOL    HW2 3186   3.408   5.318   4.606
  763SOL     OW 3187   5.878   0.572   0.214
  763SOL    HW1 3188   5.856   0.493   0.271
  763SOL    HW2 3189   5.895   0.542   0.120
  764SOL     OW 3190   5.810   0.217   5.268
  764SOL    HW1 3191   5.874   0.141   5.253
  764SOL    HW2 3192   5.824   0.286   5.197
  765SOL     OW 3193   6.587   6.597   1.191
  765SOL    HW1 3194   6.581   6.497   1.189
  765SOL    HW2 3195   6.549   6.634   1.106
  766SOL     OW 3196   2.225   2.027   5.171
  766SOL    HW1 3197   2.245   2.116   5.212
  766SOL    HW2 3198   2.156   1.980   5.225
  767SOL     OW 3199   6.971   6.203   4.649
  767SOL    HW1 3200   0.015   6.200   4.724
  767SOL    HW2 3201   7.020   6.198   4.562
  768SOL     OW 3202   2.170   5.649   2.175
  768SOL    HW1 3203   2.089   5.613   2.130
  768SOL    HW2 3204   2.228   5.574   2.205
  769SOL     OW 3205   2.796   2.282   4.841
  769SOL    HW1 3206   2.824   2.288   4.936
  769SOL    HW2 3207   2.745   2.197   4.827
  770SOL     OW 3208   1.933   4.674   5.155
  770SOL    HW1 3209   1.928   4.716   5.245
  770SOL    HW2 3210   1.860   4.709   5.097
  771SOL     OW 3211   1.099   5.887   2.959
  771SOL    HW1 3212   1.112   5.954   3.032
  771SOL    HW2 3213   1.155   5.806   2.979
  772SOL     OW 3214   5.824   4.482   0.667
  772SOL    HW1 3215   5.732   4.444   0.657
  772SOL    HW2 3216   5.821   4.559   0.732
  773SOL     OW 3217   0.295   3.570   3.321
  773SOL    HW1 3218   0.208   3.521   3.315
  773SOL    HW2 3219   0.335   3.579   3.230
  774SOL     OW 3220   1.991   0.683   2.845
  774SOL    HW1 3221   1.951   0.643   2.928
  774SOL    HW2 3222   2.082   0.718   2.865
  775SOL     OW 3223   2.181   4.841   2.845
  775SOL    HW1 3224   2.150   4.856   2.751
  775SOL    HW2 3225   2.216   4.927   2.883
  776SOL     OW 3226   2.389   5.113   6.780
  776SOL    HW1 3227   2.443   5.089   6.861
  776SOL    HW2 3228   2.450   5.138   6.705
  777SOL     OW 3229   2.276   3.748   0.125
  777SOL    HW1 3230   2.258   3.660   0.169
  777SOL    HW2 3231   2.196   3.807   0.134
  778SOL     OW 3232   2.812   6.828   1.517
  778SOL    HW1 3233   2.876   6.889   1.564
  778SOL    HW2 3234   2.763   6.880   1.446
  779SOL     OW 3235   7.017   2.198   3.449
  779SOL    HW1 3236   6.954   2.140   3.501
  779SOL    HW2 3237   6.993   2.195   3.352
  780SOL     OW 3238   0.935   1.798   4.113
  780SOL    HW1 3239   0.917   1.703   4.088
  780SOL    HW2 3240   1.014   1.832   4.062
  781SOL     OW 3241   0.528   4.337   0.304
  781SOL    HW1 3242   0.503   4.356   0.209
  781SOL    HW2 3243   0.533   4.238   0.317
  782SOL     OW 3244   1.949   3.332   5.174
  782SOL    HW1 3245   2.047   3.349   5.185
  782SOL    HW2 3246   1.910   3.399   5.111
  783SOL     OW 3247   6.316   5.118   6.123
  783SOL    HW1 3248   6.269   5.195   6.165
  783SOL    HW2 3249   6.414   5.138   6.117
  784SOL     OW 3250   3.252   6.026   0.586
  784SOL    HW1 3251   3.246   5.927   0.598
  784SOL    HW2 3252   3.164   6.068   0.611
  785SOL     OW 3253   1.506   6.332   4.732
  785SOL    HW1 3254   1.537   6.426   4.741
  785SOL    HW2 3255   1.406   6.329   4.735
  786SOL     OW 3256   6.515   0.976   3.366
  786SOL    HW1 3257   6.486   1.049   3.428
  786SOL    HW2 3258   6.468   0.986   3.279
  787SOL     OW 3259   2.746   0.048   0.790
  787SOL    HW1 3260   2.744   0.037   0.889
  787SOL    HW2 3261   2.767   0.143   0.767
  788SOL     OW 3262   3.058   2.580   1.071
  788SOL    HW1 3263   3.014   2.654   1.123
  788SOL    HW2 3264   2.995   2.503   1.062
  789SOL     OW 3265   4.217   5.019   1.706
  789SOL    HW1 3266   4.153   4.942   1.710
  789SOL    HW2 3267   4.292   4.997   1.644
  790SOL     OW 3268   0.697   2.366   2.560
  790SOL    HW1 3269   0.728   2.456   2.528
  790SOL    HW2 3270   0.601   2.354   2.538
  791SOL     OW 3271   2.979   5.273   4.721
  791SOL    HW1 3272   3.049   5.290   4.789
  791SOL    HW2 3273   2.906   5.217   4.761
  792SOL     OW 3274   1.414   0.573   0.830
  792SOL    HW1 3275   1.513   0.587   0.825
  792SOL    HW2 3276   1.367   0.654   0.796
  793SOL     OW 3277   2.975   5.939   4.167
  793SOL    HW1 3278   3.061   5.920   4.215
  793SOL    HW2 3279   2.961   5.872   4.095
  794SOL     OW 3280   3.375   3.198   3.249
  794SOL    HW1 3281   3.333   3.129   3.308
  794SOL    HW2 3282   3.413   3.153   3.168
  795SOL     OW 3283   3.836   0.305   6.363
  795SOL    HW1 3284   3.877   0.388   6.324
  795SOL    HW2 3285   3.741   0.298   6.333
  796SOL     OW 3286   1.235   2.847   6.675
  796SOL    HW1 3287   1.283   2.825   6.760
  796SOL    HW2 3288   1.145   2.887   6.697
  797SOL     OW 3289   5.139   7.019   0.758
  797SOL    HW1 3290   5.230   6.991   0.787
  797SOL    HW2 3291   5.124   6.991   0.663
  798SOL     OW 3292   3.922   6.180   1.106
  798SOL    HW1 3293   4.005   6.233   1.090
  798SOL    HW2 3294   3.886   6.201   1.197
  799SOL     OW 3295   1.607   2.522   5.417
  799SOL    HW1 3296   1.549   2.457   5.466
  799SOL    HW2 3297   1.703   2.501   5.436
  800SOL     OW 3298   5.716   2.857   2.090
  800SOL    HW1 3299   5.786   2.787   2.082
  800SOL    HW2 3300   5.650   2.847   2.015
  801SOL     OW 3301   2.043   5.438   5.608
  801SOL    HW1 3302   2.002   5.524   5.639
  801SOL    HW2 3303   2.048   5.437   5.508
  802SOL     OW 3304   5.490   3.072   6.326
  802SOL    HW1 3305   5.495   2.973   6.312
  802SOL    HW2 3306   5.428   3.112   6.258
  803SOL     OW 3307   2.694   1.461   5.391
  803SOL    HW1 3308   2.619   1.527   5.401
  803SOL    HW2 3309   2.674   1.399   5.315
  804SOL     OW 3310   6.011   0.873   2.475
  804SOL    HW1 3311   6.032   0.970   2.481
  804SOL    HW2 3312   5.928   0.860   2.420
  805SOL     OW 3313   3.863   0.313   3.464
  805SOL    HW1 3314   3.780   0.267   3.432
  805SOL    HW2 3315   3.865   0.406   3.425
  806SOL     OW 3316   2.239   6.146   5.896
  806SOL    HW1 3317   2.234   6.192   5.807
  806SOL    HW2 3318   2.160   6.086   5.907
  807SOL     OW 3319   0.615   6.267   6.262
  807SOL    HW1 3320   0.601   6.316   6.176
  807SOL    HW2 3321   0.689   6.310   6.313
  808SOL     OW 3322   5.439   3.075   0.034
  808SOL    HW1 3323   5.444   3.138   6.977
  808SOL    HW2 3324   5.431   2.981   7.020
  809SOL     OW 3325   2.277   4.588   0.323
  809SOL    HW1 3326   2.265   4.498   0.364
  809SOL    HW2 3327   2.350   4.584   0.254
  810SOL     OW 3328   3.723   3.037   0.197
  810SOL    HW1 3329   3.705   2.977   0.120
  810SOL    HW2 3330   3.745   2.982   0.278
  811SOL     OW 3331   5.465   5.074   4.298
  811SOL    HW1 3332   5.438   5.166   4.269
  811SOL    HW2 3333   5.503   5.024   4.220
  812SOL     OW 3334   0.436   2.971   2.225
  812SOL    HW1 3335   0.488   2.983   2.309
  812SOL    HW2 3336   0.436   3.057   2.173
  813SOL     OW 3337   0.979   2.013   4.644
  813SOL    HW1 3338   0.915   1.970   4.707
  813SOL    HW2 3339   0.941   2.099   4.611
  814SOL     OW 3340   0.669   5.010   3.141
  814SOL    HW1 3341   0.747   5.036   3.084
  814SOL    HW2 3342   0.593   5.073   3.125
  815SOL     OW 3343   4.825   1.684   4.279
  815SOL    HW1 3344   4.899   1.734   4.323
  815SOL    HW2 3345   4.774   1.746   4.219
  816SOL     OW 3346   5.496   4.731   6.611
  816SOL    HW1 3347   5.444   4.790   6.550
  816SOL    HW2 3348   5.545   4.662   6.557
  817SOL     OW 3349   0.997   4.460   0.073
  817SOL    HW1 3350   0.972   4.539   0.019
  817SOL    HW2 3351   0.998   4.485   0.170
  818SOL     OW 3352   6.073   2.691   4.923
  818SOL    HW1 3353   5.992   2.701   4.981
  818SOL    HW2 3354   6.053   2.722   4.830
  819SOL     OW 3355   5.114   2.367   1.887
  819SOL    HW1 3356   5.038   2.402   1.833
  819SOL    HW2 3357   5.165   2.300   1.834
  820SOL     OW 3358   2.228   1.969   4.754
  820SOL    HW1 3359   2.273   1.953   4.842
  820SOL    HW2 3360   2.136   2.005   4.770
  821SOL     OW 3361   5.847   3.679   5.551
  821SOL    HW1 3362   5.757   3.659   5.512
  821SOL    HW2 3363   5.889   3.594   5.582
  822SOL     OW 3364   0.734   4.143   3.148
  822SOL    HW1 3365   0.704   4.049   3.133
  822SOL    HW2 3366   0.754   4.157   3.245
  823SOL     OW 3367   1.080   3.814   5.820
  823SOL    HW1 3368   1.059   3.746   5.750
  823SOL    HW2 3369   1.129   3.891   5.778
  824SOL     OW 3370   5.712   1.424   5.541
  824SOL    HW1 3371   5.733   1.424   5.638
  824SOL    HW2 3372   5.743   1.510   5.500
  825SOL     OW 3373   6.015   5.830   0.944
  825SOL    HW1 3374   5.942   5.762   0.955
  825SOL    HW2 3375   6.012   5.894   1.021
  826SOL     OW 3376   3.431   1.762   6.482
  826SOL    HW1 3377   3.343   1.779   6.437
  826SOL    HW2 3378   3.459   1.844   6.533
  827SOL     OW 3379   3.952   3.972   4.682
  827SOL    HW1 3380   3.886   4.036   4.722
  827SOL    HW2 3381   3.917   3.879   4.691
  828SOL     OW 3382   6.292   5.925   5.310
  828SOL    HW1 3383   6.337   5.857   5.252
  828SOL    HW2 3384   6.206   5.887   5.346
  829SOL     OW 3385   3.334   3.168   2.669
  829SOL    HW1 3386   3.239   3.199   2.678
  829SOL    HW2 3387   3.335   3.071   2.646
  830SOL     OW 3388   6.507   4.314   0.285
  830SOL    HW1 3389   6.427   4.374   0.283
  830SOL    HW2 3390   6.578   4.351   0.225
  831SOL     OW 3391   4.620   6.719   1.177
  831SOL    HW1 3392   4.654   6.654   1.246
  831SOL    HW2 3393   4.688   6.791   1.163
  832SOL     OW 3394   3.099   2.020   4.707
  832SOL    HW1 3395   3.062   2.101   4.662
  832SOL    HW2 3396   3.069   1.938   4.658
  833SOL     OW 3397   2.559   2.614   6.929
  833SOL    HW1 3398   2.494   2.685   6.904
  833SOL    HW2 3399   2.534   2.577   7.019
  834SOL     OW 3400   5.488   3.539   6.890
  834SOL    HW1 3401   5.531   3.621   6.851
  834SOL    HW2 3402   5.544   3.505   6.966
  835SOL     OW 3403   0.505   6.631   4.376
  835SOL    HW1 3404   0.477   6.675   4.290
  835SOL    HW2 3405   0.597   6.594   4.365
  836SOL     OW 3406   3.801   1.226   4.755
  836SOL    HW1 3407   3.765   1.209   4.663
  836SOL    HW2 3408   3.757   1.307   4.793
  837SOL     OW 3409   1.783   0.919   0.662
  837SOL    HW1 3410   1.738   0.832   0.644
  837SOL    HW2 3411   1.715   0.986   0.691
  838SOL     OW 3412   1.776   5.179   3.230
  838SOL    HW1 3413   1.792   5.212   3.323
  838SOL    HW2 3414   1.861   5.142   3.193
  839SOL     OW 3415   0.953   2.014   0.497
  839SOL    HW1 3416   0.953   2.080   0.573
  839SOL    HW2 3417   0.966   2.063   0.411
  840SOL     OW 3418   5.393   5.373   6.648
  840SOL    HW1 3419   5.296   5.389   6.628
  840SOL    HW2 3420   5.430   5.308   6.581
  841SOL     OW 3421   3.734   4.456   6.811
  841SOL    HW1 3422   3.721   4.465   6.712
  841SOL    HW2 3423   3.774   4.366   6.831
  842SOL     OW 3424   3.373   6.545   6.345
  842SOL    HW1 3425   3.418   6.582   6.426
  842SOL    HW2 3426   3.344   6.451   6.363
  843SOL     OW 3427   1.325   1.084   2.506
  843SOL    HW1 3428   1.273   1.169   2.508
  843SOL    HW2 3429   1.376   1.078   2.420
  844SOL     OW 3430   6.171   0.301   1.587
  844SOL    HW1 3431   6.197   0.371   1.654
  844SOL    HW2 3432   6.077   0.319   1.556
  845SOL     OW 3433   3.952   1.247   2.664
  845SOL    HW1 3434   3.997   1.233   2.575
  845SOL    HW2 3435   3.853   1.241   2.652
  846SOL     OW 3436   2.682   1.899   0.497
  846SOL    HW1 3437   2.707   1.952   0.578
  846SOL    HW2 3438   2.763   1.849   0.465
  847SOL     OW 3439   2.435   4.316   1.564
  847SOL    HW1 3440   2.464   4.288   1.472
  847SOL    HW2 3441   2.426   4.235   1.622
  848SOL     OW 3442   0.089   5.679   0.283
  848SOL    HW1 3443   0.124   5.630   0.362
  848SOL    HW2 3444   0.111   5.628   0.200
  849SOL     OW 3445   6.113   3.579   6.469
  849SOL    HW1 3446   6.195   3.633   6.488
  849SOL    HW2 3447   6.062   3.565   6.554
  850SOL     OW 3448   0.771   0.725   5.129
  850SOL    HW1 3449   0.794   0.756   5.037
  850SOL    HW2 3450   0.700   0.784   5.167
  851SOL     OW 3451   6.741   3.503   5.879
  851SOL    HW1 3452   6.646   3.481   5.900
  851SOL    HW2 3453   6.798   3.422   5.892
  852SOL     OW 3454   0.483   4.296   2.314
  852SOL    HW1 3455   0.540   4.376   2.332
  852SOL    HW2 3456   0.516   4.218   2.367
  853SOL     OW 3457   2.735   3.231   6.918
  853SOL    HW1 3458   2.752   3.193   7.009
  853SOL    HW2 3459   2.822   3.244   6.871
  854SOL     OW 3460   5.554   6.911   6.560
  854SOL    HW1 3461   5.572   6.896   6.463
  854SOL    HW2 3462   5.455   6.918   6.575
  855SOL     OW 3463   5.809   1.338   0.007
  855SOL    HW1 3464   5.864   1.281   6.966
  855SOL    HW2 3465   5.869   1.395   0.062
  856SOL     OW 3466   2.252   6.018   0.726
  856SOL    HW1 3467   2.256   5.931   0.676
  856SOL    HW2 3468   2.193   6.009   0.806
  857SOL     OW 3469   5.931   5.236   5.778
  857SOL    HW1 3470   5.849   5.280   5.743
  857SOL    HW2 3471   5.943   5.147   5.734
  858SOL     OW 3472   4.020   3.183   0.267
  858SOL    HW1 3473   3.959   3.119   0.220
  858SOL    HW2 3474   3.967   3.263   0.298
  859SOL     OW 3475   4.430   6.283   5.639
  859SOL    HW1 3476   4.354   6.224   5.665
  859SOL    HW2 3477   4.404   6.337   5.559
  860SOL     OW 3478   5.126   3.193   5.713
  860SOL    HW1 3479   5.092   3.100   5.698
  860SOL    HW2 3480   5.225   3.194   5.704
  861SOL     OW 3481   2.565   5.939   2.628
  861SOL    HW1 3482   2.507   6.001   2.575
  861SOL    HW2 3483   2.588   5.983   2.715
  862SOL     OW 3484   0.831   4.244   3.396
  862SOL    HW1 3485   0.927   4.273   3.394
  862SOL    HW2 3486   0.807   4.218   3.490
  863SOL     OW 3487   0.189   0.527   0.357
  863SOL    HW1 3488   0.278   0.542   0.402
  863SOL    HW2 3489   0.116   0.539   0.424
  864SOL     OW 3490   5.877   0.241   4.868
  864SOL    HW1 3491   5.816   0.219   4.791
  864SOL    HW2 3492   5.970   0.254   4.833
  865SOL     OW 3493   2.137   6.378   4.262
  865SOL    HW1 3494   2.050   6.342   4.229
  865SOL    HW2 3495   2.212   6.322   4.227
  866SOL     OW 3496   3.653   6.403   2.347
  866SOL    HW1 3497   3.560   6.431   2.324
  866SOL    HW2 3498   3.653   6.309   2.379
  867SOL     OW 3499   5.928   2.062   6.823
  867SOL    HW1 3500   6.018   2.022   6.810
  867SOL    HW2 3501   5.937   2.161   6.834
  868SOL     OW 3502   0.159   1.878   2.534
  868SOL    HW1 3503   0.197   1.928   2.456
  868SOL    HW2 3504   0.209   1.903   2.617
  869SOL     OW 3505   6.629   3.817   3.167
  869SOL    HW1 3506   6.721   3.777   3.174
  869SOL    HW2 3507   6.614   3.880   3.243
  870SOL     OW 3508   3.503   5.165   1.925
  870SOL    HW1 3509   3.478   5.081   1.973
  870SOL    HW2 3510   3.426   5.229   1.926
  871SOL     OW 3511   4.650   1.285   3.431
  871SOL    HW1 3512   4.557   1.301   3.465
  871SOL    HW2 3513   4.704   1.369   3.439
  872SOL     OW 3514   0.084   3.401   5.241
  872SOL    HW1 3515   0.064   3.495   5.215
  872SOL    HW2 3516   0.168   3.370   5.196
  873SOL     OW 3517   4.964   6.720   6.308
  873SOL    HW1 3518   5.021   6.687   6.384
  873SOL    HW2 3519   4.964   6.820   6.306
  874SOL     OW 3520   4.926   4.417   0.378
  874SOL    HW1 3521   4.951   4.390   0.285
  874SOL    HW2 3522   4.945   4.342   0.441
  875SOL     OW 3523   5.045   5.392   0.531
  875SOL    HW1 3524   5.123   5.430   0.581
  875SOL    HW2 3525   4.980   5.465   0.510
  876SOL     OW 3526   6.864   6.391   1.349
  876SOL    HW1 3527   6.912   6.454   1.410
  876SOL    HW2 3528   6.825   6.442   1.272
  877SOL     OW 3529   2.997   3.628   6.663
  877SOL    HW1 3530   2.966   3.578   6.744
  877SOL    HW2 3531   2.922   3.638   6.598
  878SOL     OW 3532   3.873   6.649   4.275
  878SOL    HW1 3533   3.856   6.668   4.372
  878SOL    HW2 3534   3.816   6.573   4.245
  879SOL     OW 3535   5.566   0.667   0.675
  879SOL    HW1 3536   5.508   0.629   0.603
  879SOL    HW2 3537   5.661   0.671   0.643
  880SOL     OW 3538   2.951   3.509   2.713
  880SOL    HW1 3539   2.987   3.598   2.686
  880SOL    HW2 3540   2.920   3.513   2.808
  881SOL     OW 3541   4.323   1.910   6.778
  881SOL    HW1 3542   4.399   1.852   6.748
  881SOL    HW2 3543   4.289   1.963   6.701
  882SOL     OW 3544   1.138   3.316   4.116
  882SOL    HW1 3545   1.080   3.268   4.182
  882SOL    HW2 3546   1.224   3.266   4.106
  883SOL     OW 3547   2.977   0.160   2.717
  883SOL    HW1 3548   3.049   0.204   2.663
  883SOL    HW2 3549   2.953   0.072   2.675
  884SOL     OW 3550   4.904   3.024   5.014
  884SOL    HW1 3551   4.901   3.117   5.049
  884SOL    HW2 3552   4.883   2.960   5.088
  885SOL     OW 3553   3.752   1.882   6.146
  885SOL    HW1 3554   3.707   1.825   6.215
  885SOL    HW2 3555   3.683   1.929   6.091
  886SOL     OW 3556   3.323   0.218   6.730
  886SOL    HW1 3557   3.409   0.248   6.770
  886SOL    HW2 3558   3.247   0.267   6.774
  887SOL     OW 3559   4.609   1.175   4.236
  887SOL    HW1 3560   4.562   1.158   4.149
  887SOL    HW2 3561   4.576   1.110   4.305
  888SOL     OW 3562   6.930   0.162   3.327
  888SOL    HW1 3563   6.965   0.180   3.235
  888SOL    HW2 3564   6.844   0.212   3.339
  889SOL     OW 3565   0.862   3.864   6.987
  889SOL    HW1 3566   0.874   3.806   0.046
  889SOL    HW2 3567   0.795   3.935   7.006
  890SOL     OW 3568   2.630   5.558   3.821
  890SOL    HW1 3569   2.568   5.484   3.794
  890SOL    HW2 3570   2.583   5.646   3.809
  891SOL     OW 3571   5.739   5.769   0.691
  891SOL    HW1 3572   5.768   5.838   0.625
  891SOL    HW2 3573   5.758   5.677   0.655
  892SOL     OW 3574   2.951   4.347   6.107
  892SOL    HW1 3575   2.992   4.266   6.065
  892SOL    HW2 3576   2.969   4.347   6.205
  893SOL     OW 3577   2.742   6.960   2.971
  893SOL    HW1 3578   2.813   6.998   3.030
  893SOL    HW2 3579   2.657   6.949   3.023
  894SOL     OW 3580   1.310   4.055   1.346
  894SOL    HW1 3581   1.328   3.980   1.284
  894SOL    HW2 3582   1.213   4.057   1.370
  895SOL     OW 3583   0.228   6.183   3.584
  895SOL    HW1 3584   0.192   6.117   3.650
  895SOL    HW2 3585   0.238   6.272   3.627
  896SOL     OW 3586   6.463   6.059   5.474
  896SOL    HW1 3587   6.451   6.158   5.464
  896SOL    HW2 3588   6.422   6.013   5.395
  897SOL     OW 3589   5.201   0.578   6.393
  897SOL    HW1 3590   5.285   0.595   6.341
  897SOL    HW2 3591   5.224   0.557   6.488
  898SOL     OW 3592   3.618   6.099   2.974
  898SOL    HW1 3593   3.596   6.071   2.881
  898SOL    HW2 3594   3.559   6.051   3.039
  899SOL     OW 3595   0.290   4.837   6.528
  899SOL    HW1 3596   0.257   4.818   6.436
  899SOL    HW2 3597   0.390   4.840   6.528
  900SOL     OW 3598   5.621   6.325   0.695
  900SOL    HW1 3599   5.645   6.311   0.599
  900SOL    HW2 3600   5.603   6.237   0.739
  901SOL     OW 3601   1.385   1.162   2.075
  901SOL    HW1 3602   1.459   1.095   2.073
  901SOL    HW2 3603   1.301   1.119   2.110
  902SOL     OW 3604   6.321   4.074   1.328
  902SOL    HW1 3605   6.272   4.138   1.269
  902SOL    HW2 3606   6.293   3.981   1.308
  903SOL     OW 3607   6.680   2.137   0.265
  903SOL    HW1 3608   6.744   2.083   0.211
  903SOL    HW2 3609   6.586   2.114   0.238
  904SOL     OW 3610   3.467   1.848   2.933
  904SOL    HW1 3611   3.374   1.821   2.906
  904SOL    HW2 3612   3.473   1.948   2.934
  905SOL     OW 3613   6.082   2.773   6.633
  905SOL    HW1 3614   6.059   2.820   6.719
  905SOL    HW2 3615   6.074   2.674   6.646
  906SOL     OW 3616   6.756   3.078   6.069
  906SOL    HW1 3617   6.822   3.064   6.144
  906SOL    HW2 3618   6.676   3.126   6.104
  907SOL     OW 3619   4.928   3.488   6.821
  907SOL    HW1 3620   4.997   3.456   6.886
  907SOL    HW2 3621   4.840   3.499   6.867
  908SOL     OW 3622   2.923   4.825   2.323
  908SOL    HW1 3623   2.832   4.832   2.364
  908SOL    HW2 3624   2.915   4.817   2.224
  909SOL     OW 3625   5.347   5.145   6.058
  909SOL    HW1 3626   5.299   5.231   6.075
  909SOL    HW2 3627   5.441   5.165   6.031
  910SOL     OW 3628   2.648   3.079   1.547
  910SOL    HW1 3629   2.580   3.133   1.596
  910SOL    HW2 3630   2.703   3.027   1.612
  911SOL     OW 3631   1.331   5.229   6.154
  911SOL    HW1 3632   1.420   5.187   6.172
  911SOL    HW2 3633   1.335   5.326   6.175
  912SOL     OW 3634   4.560   2.387   3.395
  912SOL    HW1 3635   4.566   2.385   3.494
  912SOL    HW2 3636   4.576   2.295   3.359
  913SOL     OW 3637   5.401   0.251   2.971
  913SOL    HW1 3638   5.373   0.187   3.043
  913SOL    HW2 3639   5.323   0.269   2.910
  914SOL     OW 3640   2.801   0.071   0.107
  914SOL    HW1 3641   2.756   7.003   0.099
  914SOL    HW2 3642   2.775   0.129   0.029
  915SOL     OW 3643   6.061   6.099   0.772
  915SOL    HW1 3644   6.084   6.079   0.676
  915SOL    HW2 3645   6.032   6.015   0.817
  916SOL     OW 3646   0.754   2.332   2.104
  916SOL    HW1 3647   0.706   2.417   2.128
  916SOL    HW2 3648   0.851   2.340   2.129
  917SOL     OW 3649   0.034   0.211   0.730
  917SOL    HW1 3650   7.006   0.168   0.654
  917SOL    HW2 3651   0.094   0.144   0.773
  918SOL     OW 3652   1.656   5.465   0.559
  918SOL    HW1 3653   1.656   5.522   0.641
  918SOL    HW2 3654   1.679   5.522   0.480
  919SOL     OW 3655   5.656   1.527   4.201
  919SOL    HW1 3656   5.725   1.531   4.273
  919SOL    HW2 3657   5.596   1.607   4.208
  920SOL     OW 3658   2.757   4.774   2.093
  920SOL    HW1 3659   2.749   4.860   2.044
  920SOL    HW2 3660   2.804   4.706   2.036
  921SOL     OW 3661   4.723   5.811   4.774
  921SOL    HW1 3662   4.668   5.762   4.706
  921SOL    HW2 3663   4.800   5.753   4.802
  922SOL     OW 3664   4.041   3.439   3.472
  922SOL    HW1 3665   4.093   3.503   3.416
  922SOL    HW2 3666   4.022   3.481   3.561
  923SOL     OW 3667   2.420   3.215   5.621
  923SOL    HW1 3668   2.322   3.229   5.634
  923SOL    HW2 3669   2.444   3.120   5.639
  924SOL     OW 3670   0.030   3.546   2.494
  924SOL    HW1 3671   6.999   3.466   2.466
  924SOL    HW2 3672   0.106   3.518   2.553
  925SOL     OW 3673   6.012   1.957   0.042
  925SOL    HW1 3674   5.980   2.006   6.982
  925SOL    HW2 3675   5.963   1.871   0.051
  926SOL     OW 3676   0.787   0.919   1.898
  926SOL    HW1 3677   0.707   0.908   1.839
  926SOL    HW2 3678   0.759   0.907   1.994
  927SOL     OW 3679   5.358   4.106   3.603
  927SOL    HW1 3680   5.360   4.074   3.698
  927SOL    HW2 3681   5.379   4.029   3.543
  928SOL     OW 3682   2.940   5.563   6.968
  928SOL    HW1 3683   3.027   5.577   6.919
  928SOL    HW2 3684   2.868   5.614   6.923
  929SOL     OW 3685   6.693   1.489   5.105
  929SOL    HW1 3686   6.649   1.560   5.160
  929SOL    HW2 3687   6.633   1.410   5.097
  930SOL     OW 3688   5.533   5.655   6.126
  930SOL    HW1 3689   5.570   5.595   6.055
  930SOL    HW2 3690   5.497   5.599   6.201
  931SOL     OW 3691   6.596   2.635   2.889
  931SOL    HW1 3692   6.539   2.676   2.819
  931SOL    HW2 3693   6.539   2.598   2.962
  932SOL     OW 3694   3.567   0.481   3.887
  932SOL    HW1 3695   3.663   0.482   3.916
  932SOL    HW2 3696   3.527   0.393   3.910
  933SOL     OW 3697   1.188   5.027   2.238
  933SOL    HW1 3698   1.098   4.985   2.229
  933SOL    HW2 3699   1.233   5.028   2.149
  934SOL     OW 3700   1.677   4.595   6.241
  934SOL    HW1 3701   1.615   4.569   6.315
  934SOL    HW2 3702   1.743   4.521   6.225
  935SOL     OW 3703   5.543   3.065   3.579
  935SOL    HW1 3704   5.597   3.144   3.611
  935SOL    HW2 3705   5.496   3.089   3.494
  936SOL     OW 3706   1.586   0.213   6.553
  936SOL    HW1 3707   1.578   0.222   6.652
  936SOL    HW2 3708   1.651   0.141   6.531
  937SOL     OW 3709   5.330   1.490   5.764
  937SOL    HW1 3710   5.238   1.518   5.738
  937SOL    HW2 3711   5.361   1.418   5.702
  938SOL     OW 3712   5.688   5.375   4.270
  938SOL    HW1 3713   5.698   5.329   4.182
  938SOL    HW2 3714   5.657   5.469   4.255
  939SOL     OW 3715   0.458   0.167   5.210
  939SOL    HW1 3716   0.388   0.137   5.275
  939SOL    HW2 3717   0.536   0.204   5.260
  940SOL     OW 3718   2.081   4.764   0.530
  940SOL    HW1 3719   2.159   4.790   0.588
  940SOL    HW2 3720   2.012   4.718   0.586
  941SOL     OW 3721   3.394   0.554   6.593
  941SOL    HW1 3722   3.327   0.546   6.519
  941SOL    HW2 3723   3.359   0.614   6.664
  942SOL     OW 3724   0.419   5.179   0.393
  942SOL    HW1 3725   0.384   5.269   0.365
  942SOL    HW2 3726   0.404   5.167   0.491
  943SOL     OW 3727   2.936   5.257   3.058
  943SOL    HW1 3728   3.025   5.299   3.042
  943SOL    HW2 3729   2.868   5.328   3.073
  944SOL     OW 3730   0.515   6.913   4.638
  944SOL    HW1 3731   0.422   6.890   4.609
  944SOL    HW2 3732   0.577   6.839   4.614
  945SOL     OW 3733   0.756   5.531   6.385
  945SOL    HW1 3734   0.735   5.460   6.452
  945SOL    HW2 3735   0.690   5.526   6.310
  946SOL     OW 3736   4.969   3.104   3.304
  946SOL    HW1 3737   5.025   3.169   3.355
  946SOL    HW2 3738   4.950   3.140   3.213
  947SOL     OW 3739   4.079   3.723   3.932
  947SOL    HW1 3740   4.056   3.790   4.002
  947SOL    HW2 3741   4.135   3.650   3.973
  948SOL     OW 3742   4.172   0.728   2.723
  948SOL    HW1 3743   4.213   0.713   2.813
  948SOL    HW2 3744   4.108   0.804   2.728
  949SOL     OW 3745   2.765   6.478   6.469
  949SOL    HW1 3746   2.833   6.439   6.530
  949SOL    HW2 3747   2.718   6.405   6.420
  950SOL     OW 3748   0.126   6.515   2.173
  950SOL    HW1 3749   0.121   6.452   2.251
  950SOL    HW2 3750   0.222   6.537   2.155
  951SOL     OW 3751   2.049   6.711   3.364
  951SOL    HW1 3752   2.017   6.696   3.271
  951SOL    HW2 3753   1.977   6.686   3.429
  952SOL     OW 3754   3.715   1.222   2.241
  952SOL    HW1 3755   3.691   1.276   2.322
  952SOL    HW2 3756   3.671   1.261   2.161
  953SOL     OW 3757   6.226   4.809   5.347
  953SOL    HW1 3758   6.147   4.795   5.406
  953SOL    HW2 3759   6.287   4.730   5.352
  954SOL     OW 3760   4.688   6.004   2.326
  954SOL    HW1 3761   4.696   6.098   2.359
  954SOL    HW2 3762   4.687   5.941   2.403
  955SOL     OW 3763   1.588   4.050   7.011
  955SOL    HW1 3764   1.516   4.116   0.012
  955SOL    HW2 3765   1.572   4.014   6.919
  956SOL     OW 3766   6.084   0.788   1.215
  956SOL    HW1 3767   6.065   0.886   1.222
  956SOL    HW2 3768   6.074   0.759   1.120
  957SOL     OW 3769   6.006   2.028   3.350
  957SOL    HW1 3770   6.029   1.935   3.378
  957SOL    HW2 3771   6.010   2.035   3.251
  958SOL     OW 3772   5.126   0.154   1.838
  958SOL    HW1 3773   5.076   0.206   1.768
  958SOL    HW2 3774   5.082   0.167   1.927
  959SOL     OW 3775   4.030   6.395   4.093
  959SOL    HW1 3776   4.082   6.310   4.101
  959SOL    HW2 3777   4.075   6.456   4.028
  960SOL     OW 3778   0.780   0.204   0.112
  960SOL    HW1 3779   0.736   0.292   0.127
  960SOL    HW2 3780   0.879   0.216   0.105
  961SOL     OW 3781   3.318   0.090   2.827
  961SOL    HW1 3782   3.300   0.156   2.753
  961SOL    HW2 3783   3.238   0.085   2.887
  962SOL     OW 3784   6.508   0.329   4.755
  962SOL    HW1 3785   6.482   0.234   4.776
  962SOL    HW2 3786   6.483   0.388   4.832
  963SOL     OW 3787   5.364   2.990   0.928
  963SOL    HW1 3788   5.376   3.015   0.832
  963SOL    HW2 3789   5.300   3.053   0.971
  964SOL     OW 3790   4.601   4.302   5.209
  964SOL    HW1 3791   4.563   4.218   5.248
  964SOL    HW2 3792   4.700   4.305   5.226
  965SOL     OW 3793   5.958   2.579   3.907
  965SOL    HW1 3794   5.933   2.640   3.832
  965SOL    HW2 3795   5.972   2.632   3.990
  966SOL     OW 3796   5.015   1.829   4.614
  966SOL    HW1 3797   5.051   1.792   4.700
  966SOL    HW2 3798   5.026   1.762   4.542
  967SOL     OW 3799   5.289   3.922   5.912
  967SOL    HW1 3800   5.213   3.985   5.897
  967SOL    HW2 3801   5.322   3.932   6.006
  968SOL     OW 3802   3.668   0.628   1.863
  968SOL    HW1 3803   3.685   0.596   1.769
  968SOL    HW2 3804   3.729   0.705   1.883
  969SOL     OW 3805   3.546   4.060   5.903
  969SOL    HW1 3806   3.459   4.048   5.856
  969SOL    HW2 3807   3.535   4.126   5.977
  970SOL     OW 3808   6.083   0.591   5.882
  970SOL    HW1 3809   6.101   0.510   5.825
  970SOL    HW2 3810   5.984   0.604   5.891
  971SOL     OW 3811   5.561   4.310   2.779
  971SOL    HW1 3812   5.522   4.341   2.865
  971SOL    HW2 3813   5.559   4.210   2.775
  972SOL     OW 3814   0.296   3.029   0.757
  972SOL    HW1 3815   0.391   3.039   0.785
  972SOL    HW2 3816   0.281   2.939   0.717
  973SOL     OW 3817   0.035   3.405   6.307
  973SOL    HW1 3818   6.965   3.438   6.279
  973SOL    HW2 3819   0.031   3.375   6.403
  974SOL     OW 3820   0.306   5.691   3.784
  974SOL    HW1 3821   0.380   5.671   3.848
  974SOL    HW2 3822   0.325   5.648   3.696
  975SOL     OW 3823   2.680   6.830   2.240
  975SOL    HW1 3824   2.680   6.735   2.271
  975SOL    HW2 3825   2.591   6.852   2.199
  976SOL     OW 3826   6.502   3.537   2.634
  976SOL    HW1 3827   6.474   3.448   2.598
  976SOL    HW2 3828   6.426   3.602   2.628
  977SOL     OW 3829   0.378   1.083   2.478
  977SOL    HW1 3830   0.461   1.038   2.511
  977SOL    HW2 3831   0.343   1.145   2.549
  978SOL     OW 3832   5.366   3.148   1.798
  978SOL    HW1 3833   5.458   3.109   1.798
  978SOL    HW2 3834   5.370   3.244   1.826
  979SOL     OW 3835   0.212   4.258   6.833
  979SOL    HW1 3836   0.185   4.162   6.832
  979SOL    HW2 3837   0.312   4.264   6.832
  980SOL     OW 3838   3.572   1.692   4.609
  980SOL    HW1 3839   3.660   1.721   4.647
  980SOL    HW2 3840   3.498   1.734   4.662
  981SOL     OW 3841   6.748   6.041   5.385
  981SOL    HW1 3842   6.795   6.077   5.466
  981SOL    HW2 3843   6.649   6.045   5.399
  982SOL     OW 3844   6.596   1.082   4.801
  982SOL    HW1 3845   6.550   1.171   4.802
  982SOL    HW2 3846   6.695   1.096   4.804
  983SOL     OW 3847   0.103   4.939   4.134
  983SOL    HW1 3848   0.020   4.884   4.130
  983SOL    HW2 3849   0.135   4.957   4.041
  984SOL     OW 3850   1.207   2.322   3.132
  984SOL    HW1 3851   1.184   2.363   3.220
  984SOL    HW2 3852   1.203   2.222   3.140
  985SOL     OW 3853   6.529   4.492   4.816
  985SOL    HW1 3854   6.612   4.465   4.766
  985SOL    HW2 3855   6.553   4.519   4.909
  986SOL     OW 3856   5.084   5.203   1.307
  986SOL    HW1 3857   5.037   5.291   1.304
  986SOL    HW2 3858   5.173   5.214   1.351
  987SOL     OW 3859   5.141   4.896   3.928
  987SOL    HW1 3860   5.125   4.805   3.967
  987SOL    HW2 3861   5.182   4.886   3.837
  988SOL     OW 3862   2.982   4.476   1.376
  988SOL    HW1 3863   2.927   4.414   1.320
  988SOL    HW2 3864   2.925   4.553   1.406
  989SOL     OW 3865   0.538   1.303   0.850
  989SOL    HW1 3866   0.451   1.351   0.839
  989SOL    HW2 3867   0.605   1.341   0.786
  990SOL     OW 3868   3.887   0.085   3.872
  990SOL    HW1 3869   3.949   0.063   3.948
  990SOL    HW2 3870   3.911   0.175   3.835
  991SOL     OW 3871   6.961   4.827   3.569
  991SOL    HW1 3872   0.031   4.784   3.569
  991SOL    HW2 3873   6.917   4.813   3.481
  992SOL     OW 3874   0.447   2.653   1.201
  992SOL    HW1 3875   0.363   2.632   1.152
  992SOL    HW2 3876   0.482   2.571   1.246
  993SOL     OW 3877   1.349   5.060   0.334
  993SOL    HW1 3878   1.387   5.137   0.384
  993SOL    HW2 3879   1.422   5.001   0.301
  994SOL     OW 3880   3.116   6.209   6.676
  994SOL    HW1 3881   3.118   6.203   6.776
  994SOL    HW2 3882   3.194   6.159   6.638
  995SOL     OW 3883   6.056   3.447   5.913
  995SOL    HW1 3884   6.095   3.533   5.880
  995SOL    HW2 3885   5.958   3.458   5.927
  996SOL     OW 3886   3.832   6.106   5.861
  996SOL    HW1 3887   3.897   6.116   5.936
  996SOL    HW2 3888   3.796   6.196   5.836
  997SOL     OW 3889   1.258   5.380   3.681
  997SOL    HW1 3890   1.213   5.292   3.694
  997SOL    HW2 3891   1.266   5.400   3.583
  998SOL     OW 3892   6.492   0.521   6.803
  998SOL    HW1 3893   6.518   0.579   6.726
  998SOL    HW2 3894   6.477   0.578   6.884
  999SOL     OW 3895   4.864   4.061   2.269
  999SOL    HW1 3896   4.779   4.100   2.235
  999SOL    HW2 3897   4.879   3.972   2.226
 1000SOL     OW 3898   4.212   1.642   1.253
 1000SOL    HW1 3899   4.151   1.577   1.297
 1000SOL    HW2 3900   4.169   1.732   1.249
 1001SOL     OW 3901   3.168   6.319   2.434
 1001SOL    HW1 3902   3.238   6.289   2.369
 1001SOL    HW2 3903   3.087   6.349   2.383
 1002SOL     OW 3904   5.408   2.106   1.233
 1002SOL    HW1 3905   5.473   2.167   1.188
 1002SOL    HW2 3906   5.336   2.160   1.277
 1003SOL     OW 3907   0.331   0.140   3.059
 1003SOL    HW1 3908   0.419   0.096   3.040
 1003SOL    HW2 3909   0.291   0.101   3.142
 1004SOL     OW 3910   5.408   1.634   3.796
 1004SOL    HW1 3911   5.428   1.706   3.863
 1004SOL    HW2 3912   5.472   1.558   3.809
 1005SOL     OW 3913   1.265   4.112   2.773
 1005SOL    HW1 3914   1.307   4.202   2.772
 1005SOL    HW2 3915   1.295   4.062   2.854
 1006SOL     OW 3916   2.991   3.412   1.138
 1006SOL    HW1 3917   3.010   3.455   1.226
 1006SOL    HW2 3918   3.078   3.391   1.092
 1007SOL     OW 3919   5.042   1.200   7.010
 1007SOL    HW1 3920   5.101   1.138   0.040
 1007SOL    HW2 3921   5.061   1.192   6.913
 1008SOL     OW 3922   0.136   4.975   4.776
 1008SOL    HW1 3923   0.106   4.976   4.872
 1008SOL    HW2 3924   0.210   5.041   4.764
 1009SOL     OW 3925   6.662   5.723   6.493
 1009SOL    HW1 3926   6.563   5.708   6.499
 1009SOL    HW2 3927   6.707   5.639   6.464
 1010SOL     OW 3928   2.873   3.132   1.177
 1010SOL    HW1 3929   2.873   3.231   1.164
 1010SOL    HW2 3930   2.864   3.111   1.274
 1011SOL     OW 3931   6.433   5.225   2.106
 1011SOL    HW1 3932   6.413   5.320   2.128
 1011SOL    HW2 3933   6.387   5.165   2.171
 1012SOL     OW 3934   4.687   0.549   2.773
 1012SOL    HW1 3935   4.725   0.476   2.830
 1012SOL    HW2 3936   4.601   0.519   2.732
 1013SOL     OW 3937   6.700   6.953   6.662
 1013SOL    HW1 3938   6.792   6.955   6.623
 1013SOL    HW2 3939   6.705   6.934   6.760
 1014SOL     OW 3940   1.118   4.979   4.476
 1014SOL    HW1 3941   1.184   5.054   4.478
 1014SOL    HW2 3942   1.164   4.895   4.446
 1015SOL     OW 3943   3.369   6.334   6.787
 1015SOL    HW1 3944   3.465   6.352   6.808
 1015SOL    HW2 3945   3.362   6.296   6.694
 1016SOL     OW 3946   6.202   4.007   1.820
 1016SOL    HW1 3947   6.273   4.003   1.749
 1016SOL    HW2 3948   6.159   3.918   1.830
 1017SOL     OW 3949   2.053   1.833   2.450
 1017SOL    HW1 3950   2.116   1.873   2.383
 1017SOL    HW2 3951   2.096   1.754   2.494
 1018SOL     OW 3952   0.254   5.909   3.374
 1018SOL    HW1 3953   0.188   5.838   3.401
 1018SOL    HW2 3954   0.316   5.927   3.451
 1019SOL     OW 3955   6.621   4.756   0.929
 1019SOL    HW1 3956   6.684   4.783   0.856
 1019SOL    HW2 3957   6.544   4.820   0.931
 1020SOL     OW 3958   6.524   0.700   0.677
 1020SOL    HW1 3959   6.490   0.622   0.729
 1020SOL    HW2 3960   6.585   0.755   0.734
 1021SOL     OW 3961   6.787   6.049   1.274
 1021SOL    HW1 3962   6.808   5.970   1.332
 1021SOL    HW2 3963   6.854   6.121   1.291
 1022SOL     OW 3964   2.140   6.299   6.495
 1022SOL    HW1 3965   2.128   6.396   6.516
 1022SOL    HW2 3966   2.057   6.265   6.450
 1023SOL     OW 3967   0.731   1.687   3.230
 1023SOL    HW1 3968   0.823   1.663   3.200
 1023SOL    HW2 3969   0.702   1.625   3.303
 1024SOL     OW 3970   1.746   1.895   4.926
 1024SOL    HW1 3971   1.824   1.896   4.989
 1024SOL    HW2 3972   1.749   1.812   4.870
 1025SOL     OW 3973   4.654   3.622   0.539
 1025SOL    HW1 3974   4.649   3.603   0.441
 1025SOL    HW2 3975   4.588   3.565   0.588
 1026SOL     OW 3976   3.547   2.577   1.028
 1026SOL    HW1 3977   3.584   2.632   0.953
 1026SOL    HW2 3978   3.619   2.517   1.064
 1027SOL     OW 3979   0.319   6.574   0.917
 1027SOL    HW1 3980   0.406   6.580   0.966
 1027SOL    HW2 3981   0.243   6.587   0.981
 1028SOL     OW 3982   1.605   6.319   2.469
 1028SOL    HW1 3983   1.539   6.266   2.416
 1028SOL    HW2 3984   1.619   6.274   2.558
 1029SOL     OW 3985   0.891   1.328   6.328
 1029SOL    HW1 3986   0.929   1.365   6.244
 1029SOL    HW2 3987   0.795   1.304   6.314
 1030SOL     OW 3988   3.605   3.248   1.566
 1030SOL    HW1 3989   3.534   3.193   1.610
 1030SOL    HW2 3990   3.564   3.330   1.527
 1031SOL     OW 3991   3.522   3.669   1.273
 1031SOL    HW1 3992   3.532   3.738   1.344
 1031SOL    HW2 3993   3.515   3.714   1.184
 1032SOL     OW 3994   2.207   2.201   6.088
 1032SOL    HW1 3995   2.223   2.237   6.179
 1032SOL    HW2 3996   2.295   2.177   6.045
 1033SOL     OW 3997   1.011   6.341   1.804
 1033SOL    HW1 3998   0.920   6.371   1.775
 1033SOL    HW2 3999   1.064   6.311   1.725
 1034SOL     OW 4000   3.105   6.887   4.390
 1034SOL    HW1 4001   3.178   6.819   4.401
 1034SOL    HW2 4002   3.053   6.894   4.474
 1035SOL     OW 4003   1.199   2.106   5.737
 1035SOL    HW1 4004   1.236   2.172   5.803
 1035SOL    HW2 4005   1.257   2.104   5.656
 1036SOL     OW 4006   4.580   1.702   1.012
 1036SOL    HW1 4007   4.570   1.789   1.060
 1036SOL    HW2 4008   4.676   1.675   1.012
 1037SOL     OW 4009   1.519   2.812   2.550
 1037SOL    HW1 4010   1.495   2.850   2.640
 1037SOL    HW2 4011   1.491   2.716   2.546
 1038SOL     OW 4012   3.322   6.306   0.023
 1038SOL    HW1 4013   3.353   6.290   6.950
 1038SOL    HW2 4014   3.296   6.402   0.033
 1039SOL     OW 4015   3.510   2.951   3.769
 1039SOL    HW1 4016   3.555   3.021   3.825
 1039SOL    HW2 4017   3.428   2.991   3.727
 1040SOL     OW 4018   4.147   0.655   2.994
 1040SOL    HW1 4019   4.143   0.726   3.064
 1040SOL    HW2 4020   4.055   0.620   2.976
 1041SOL     OW 4021   6.873   6.087   6.228
 1041SOL    HW1 4022   6.931   6.106   6.307
 1041SOL    HW2 4023   6.803   6.159   6.221
 1042SOL     OW 4024   5.374   4.610   2.847
 1042SOL    HW1 4025   5.430   4.575   2.772
 1042SOL    HW2 4026   5.277   4.598   2.825
 1043SOL     OW 4027   3.091   2.194   4.006
 1043SOL    HW1 4028   3.125   2.192   3.912
 1043SOL    HW2 4029   3.165   2.222   4.068
 1044SOL     OW 4030   5.379   4.799   1.776
 1044SOL    HW1 4031   5.334   4.807   1.687
 1044SOL    HW2 4032   5.435   4.716   1.777
 1045SOL     OW 4033   2.339   0.431   3.642
 1045SOL    HW1 4034   2.341   0.481   3.556
 1045SOL    HW2 4035   2.289   0.345   3.630
 1046SOL     OW 4036   2.724   1.222   1.092
 1046SOL    HW1 4037   2.739   1.307   1.040
 1046SOL    HW2 4038   2.740   1.143   1.033
 1047SOL     OW 4039   3.506   6.693   2.948
 1047SOL    HW1 4040   3.518   6.700   2.849
 1047SOL    HW2 4041   3.420   6.736   2.975
 1048SOL     OW 4042   1.655   6.576   1.915
 1048SOL    HW1 4043   1.610   6.537   1.834
 1048SOL    HW2 4044   1.707   6.657   1.888
 1049SOL     OW 4045   4.175   5.859   5.562
 1049SOL    HW1 4046   4.214   5.844   5.471
 1049SOL    HW2 4047   4.088   5.809   5.570
 1050SOL     OW 4048   3.380   5.162   3.193
 1050SOL    HW1 4049   3.403   5.252   3.157
 1050SOL    HW2 4050   3.461   5.103   3.191
 1051SOL     OW 4051   0.536   0.091   0.071
 1051SOL    HW1 4052   0.618   0.147   0.084
 1051SOL    HW2 4053   0.476   0.100   0.150
 1052SOL     OW 4054   3.673   1.040   6.709
 1052SOL    HW1 4055   3.618   0.963   6.677
 1052SOL    HW2 4056   3.688   1.031   6.807
 1053SOL     OW 4057   5.981   2.838   2.903
 1053SOL    HW1 4058   5.890   2.846   2.862
 1053SOL    HW2 4059   6.001   2.742   2.922
 1054SOL     OW 4060   3.194   4.594   6.441
 1054SOL    HW1 4061   3.198   4.611   6.539
 1054SOL    HW2 4062   3.101   4.611   6.407
 1055SOL     OW 4063   4.970   6.433   6.696
 1055SOL    HW1 4064   5.020   6.519   6.703
 1055SOL    HW2 4065   5.023   6.367   6.643
 1056SOL     OW 4066   2.717   3.981   6.262
 1056SOL    HW1 4067   2.650   4.052   6.238
 1056SOL    HW2 4068   2.793   4.022   6.310
 1057SOL     OW 4069   2.757   1.733   1.153
 1057SOL    HW1 4070   2.748   1.692   1.244
 1057SOL    HW2 4071   2.851   1.725   1.121
 1058SOL     OW 4072   2.442   2.601   2.728
 1058SOL    HW1 4073   2.505   2.530   2.696
 1058SOL    HW2 4074   2.377   2.623   2.655
 1059SOL     OW 4075   2.863   6.168   1.484
 1059SOL    HW1 4076   2.947   6.118   1.505
 1059SOL    HW2 4077   2.871   6.211   1.393
 1060SOL     OW 4078   6.081   6.499   5.302
 1060SOL    HW1 4079   6.140   6.547   5.367
 1060SOL    HW2 4080   6.053   6.411   5.342
 1061SOL     OW 4081   6.683   4.068   6.854
 1061SOL    HW1 4082   6.600   4.094   6.904
 1061SOL    HW2 4083   6.716   4.146   6.801
 1062SOL     OW 4084   3.652   6.602   5.357
 1062SOL    HW1 4085   3.659   6.584   5.455
 1062SOL    HW2 4086   3.604   6.526   5.312
 1063SOL     OW 4087   2.605   5.904   5.897
 1063SOL    HW1 4088   2.585   5.887   5.993
 1063SOL    HW2 4089   2.671   5.836   5.864
 1064SOL     OW 4090   1.396   3.989   0.246
 1064SOL    HW1 4091   1.376   3.969   0.342
 1064SOL    HW2 4092   1.342   4.068   0.216
 1065SOL     OW 4093   4.373   0.677   4.146
 1065SOL    HW1 4094   4.467   0.703   4.127
 1065SOL    HW2 4095   4.325   0.753   4.189
 1066SOL     OW 4096   4.780   0.142   1.963
 1066SOL    HW1 4097   4.714   0.173   2.032
 1066SOL    HW2 4098   4.865   0.114   2.009
 1067SOL     OW 4099   2.259   0.756   0.273
 1067SOL    HW1 4100   2.223   0.796   0.358
 1067SOL    HW2 4101   2.305   0.828   0.220
 1068SOL     OW 4102   5.858   3.279   1.147
 1068SOL    HW1 4103   5.785   3.233   1.197
 1068SOL    HW2 4104   5.881   3.227   1.065
 1069SOL     OW 4105   6.658   4.072   1.717
 1069SOL    HW1 4106   6.616   4.133   1.785
 1069SOL    HW2 4107   6.689   3.989   1.763
 1070SOL     OW 4108   1.245   6.976   1.874
 1070SOL    HW1 4109   1.153   7.005   1.901
 1070SOL    HW2 4110   1.296   0.035   1.841
 1071SOL     OW 4111   6.898   3.294   5.948
 1071SOL    HW1 4112   6.937   3.227   5.885
 1071SOL    HW2 4113   6.832   3.249   6.007
 1072SOL     OW 4114   2.566   1.430   2.098
 1072SOL    HW1 4115   2.513   1.414   2.015
 1072SOL    HW2 4116   2.654   1.384   2.090
 1073SOL     OW 4117   4.919   1.652   3.350
 1073SOL    HW1 4118   5.002   1.704   3.369
 1073SOL    HW2 4119   4.936   1.588   3.274
 1074SOL     OW 4120   2.810   4.692   1.666
 1074SOL    HW1 4121   2.837   4.665   1.758
 1074SOL    HW2 4122   2.844   4.784   1.646
 1075SOL     OW 4123   5.806   3.594   5.117
 1075SOL    HW1 4124   5.722   3.629   5.076
 1075SOL    HW2 4125   5.786   3.510   5.167
 1076SOL     OW 4126   2.062   3.952   4.919
 1076SOL    HW1 4127   2.149   3.997   4.939
 1076SOL    HW2 4128   1.991   3.989   4.979
 1077SOL     OW 4129   0.337   0.004   0.278
 1077SOL    HW1 4130   0.365   6.930   0.295
 1077SOL    HW2 4131   0.271   0.032   0.348
 1078SOL     OW 4132   0.099   6.470   3.819
 1078SOL    HW1 4133   0.063   6.379   3.841
 1078SOL    HW2 4134   0.033   6.540   3.846
 1079SOL     OW 4135   1.074   6.435   2.701
 1079SOL    HW1 4136   1.045   6.344   2.730
 1079SOL    HW2 4137   1.174   6.436   2.689
 1080SOL     OW 4138   2.022   5.087   6.480
 1080SOL    HW1 4139   2.004   5.005   6.535
 1080SOL    HW2 4140   2.121   5.096   6.466
 1081SOL     OW 4141   6.566   5.706   4.330
 1081SOL    HW1 4142   6.618   5.790   4.341
 1081SOL    HW2 4143   6.628   5.631   4.306
 1082SOL     OW 4144   5.381   0.196   5.938
 1082SOL    HW1 4145   5.441   0.172   5.862
 1082SOL    HW2 4146   5.288   0.212   5.904
 1083SOL     OW 4147   5.242   4.208   1.038
 1083SOL    HW1 4148   5.157   4.234   1.083
 1083SOL    HW2 4149   5.317   4.211   1.104
 1084SOL     OW 4150   6.904   0.208   6.242
 1084SOL    HW1 4151   6.847   0.285   6.212
 1084SOL    HW2 4152   6.974   0.190   6.173
 1085SOL     OW 4153   1.700   3.677   4.195
 1085SOL    HW1 4154   1.610   3.645   4.225
 1085SOL    HW2 4155   1.768   3.657   4.265
 1086SOL     OW 4156   6.218   5.429   0.575
 1086SOL    HW1 4157   6.310   5.422   0.615
 1086SOL    HW2 4158   6.225   5.419   0.475
 1087SOL     OW 4159   2.764   0.134   5.307
 1087SOL    HW1 4160   2.711   0.203   5.257
 1087SOL    HW2 4161   2.835   0.180   5.361
 1088SOL     OW 4162   6.817   4.509   3.342
 1088SOL    HW1 4163   6.832   4.488   3.438
 1088SOL    HW2 4164   6.751   4.445   3.303
 1089SOL     OW 4165   6.361   4.522   4.231
 1089SOL    HW1 4166   6.459   4.506   4.229
 1089SOL    HW2 4167   6.328   4.516   4.325
 1090SOL     OW 4168   5.027   1.517   5.036
 1090SOL    HW1 4169   5.055   1.445   4.972
 1090SOL    HW2 4170   5.050   1.490   5.129
 1091SOL     OW 4171   2.409   2.522   3.389
 1091SOL    HW1 4172   2.379   2.497   3.297
 1091SOL    HW2 4173   2.477   2.455   3.421
 1092SOL     OW 4174   0.914   5.513   0.680
 1092SOL    HW1 4175   0.972   5.505   0.599
 1092SOL    HW2 4176   0.854   5.591   0.671
 1093SOL     OW 4177   2.055   6.861   2.029
 1093SOL    HW1 4178   2.114   6.789   1.990
 1093SOL    HW2 4179   2.059   6.942   1.970
 1094SOL     OW 4180   0.949   0.241   2.986
 1094SOL    HW1 4181   0.939   0.285   2.896
 1094SOL    HW2 4182   1.043   0.252   3.018
 1095SOL     OW 4183   6.378   3.458   0.332
 1095SOL    HW1 4184   6.283   3.449   0.361
 1095SOL    HW2 4185   6.418   3.367   0.318
 1096SOL     OW 4186   2.901   5.409   1.646
 1096SOL    HW1 4187   2.855   5.349   1.581
 1096SOL    HW2 4188   2.860   5.399   1.736
 1097SOL     OW 4189   3.471   5.157   4.654
 1097SOL    HW1 4190   3.470   5.057   4.662
 1097SOL    HW2 4191   3.493   5.197   4.744
 1098SOL     OW 4192   6.126   5.051   0.809
 1098SOL    HW1 4193   6.144   5.025   0.714
 1098SOL    HW2 4194   6.146   5.148   0.821
 1099SOL     OW 4195   4.852   0.565   6.128
 1099SOL    HW1 4196   4.836   0.558   6.030
 1099SOL    HW2 4197   4.867   0.661   6.153
 1100SOL     OW 4198   3.238   1.924   4.049
 1100SOL    HW1 4199   3.192   2.004   4.089
 1100SOL    HW2 4200   3.290   1.877   4.120
 1101SOL     OW 4201   6.506   3.199   6.085
 1101SOL    HW1 4202   6.498   3.144   6.002
 1101SOL    HW2 4203   6.417   3.237   6.108
 1102SOL     OW 4204   3.120   1.139   4.475
 1102SOL    HW1 4205   3.097   1.043   4.492
 1102SOL    HW2 4206   3.136   1.152   4.377
 1103SOL     OW 4207   2.855   6.835   6.548
 1103SOL    HW1 4208   2.929   6.767   6.550
 1103SOL    HW2 4209   2.890   6.923   6.580
 1104SOL     OW 4210   7.008   3.344   3.743
 1104SOL    HW1 4211   6.965   3.341   3.834
 1104SOL    HW2 4212   0.060   3.275   3.739
 1105SOL     OW 4213   5.354   0.842   5.450
 1105SOL    HW1 4214   5.446   0.881   5.455
 1105SOL    HW2 4215   5.303   0.888   5.377
 1106SOL     OW 4216   0.313   1.911   0.615
 1106SOL    HW1 4217   0.367   1.995   0.614
 1106SOL    HW2 4218   0.259   1.907   0.699
 1107SOL     OW 4219   1.280   0.773   0.742
 1107SOL    HW1 4220   1.207   0.821   0.790
 1107SOL    HW2 4221   1.246   0.737   0.656
 1108SOL     OW 4222   2.414   6.508   4.388
 1108SOL    HW1 4223   2.400   6.443   4.462
 1108SOL    HW2 4224   2.461   6.463   4.312
 1109SOL     OW 4225   5.088   1.537   4.614
 1109SOL    HW1 4226   5.125   1.587   4.536
 1109SOL    HW2 4227   5.114   1.582   4.699
 1110SOL     OW 4228   3.539   0.810   2.753
 1110SOL    HW1 4229   3.598   0.739   2.717
 1110SOL    HW2 4230   3.545   0.892   2.695
 1111SOL     OW 4231   5.160   3.928   6.701
 1111SOL    HW1 4232   5.159   3.888   6.609
 1111SOL    HW2 4233   5.250   3.914   6.743
 1112SOL     OW 4234   5.047   0.214   2.354
 1112SOL    HW1 4235   5.018   0.193   2.448
 1112SOL    HW2 4236   5.147   0.215   2.350
 1113SOL     OW 4237   5.344   4.452   2.351
 1113SOL    HW1 4238   5.282   4.522   2.316
 1113SOL    HW2 4239   5.360   4.383   2.281
 1114SOL     OW 4240   4.025   3.452   5.296
 1114SOL    HW1 4241   4.027   3.546   5.333
 1114SOL    HW2 4242   4.117   3.425   5.269
 1115SOL     OW 4243   3.018   4.577   5.807
 1115SOL    HW1 4244   2.990   4.482   5.808
 1115SOL    HW2 4245   2.983   4.624   5.888
 1116SOL     OW 4246   4.667   6.998   6.573
 1116SOL    HW1 4247   4.752   6.991   6.624
 1116SOL    HW2 4248   4.604   0.038   6.621
 1117SOL     OW 4249   1.498   3.235   2.016
 1117SOL    HW1 4250   1.483   3.318   1.962
 1117SOL    HW2 4251   1.512   3.157   1.954
 1118SOL     OW 4252   3.237   4.720   6.782
 1118SOL    HW1 4253   3.260   4.630   6.820
 1118SOL    HW2 4254   3.138   4.730   6.779
 1119SOL     OW 4255   3.857   4.903   3.972
 1119SOL    HW1 4256   3.770   4.913   4.020
 1119SOL    HW2 4257   3.927   4.955   4.021
 1120SOL     OW 4258   6.766   5.206   1.263
 1120SOL    HW1 4259   6.776   5.171   1.356
 1120SOL    HW2 4260   6.852   5.192   1.213
 1121SOL     OW 4261   6.596   5.119   4.853
 1121SOL    HW1 4262   6.695   5.101   4.857
 1121SOL    HW2 4263   6.570   5.138   4.758
 1122SOL     OW 4264   5.368   2.851   1.948
 1122SOL    HW1 4265   5.374   2.931   2.008
 1122SOL    HW2 4266   5.275   2.842   1.913
 1123SOL     OW 4267   4.363   1.714   3.421
 1123SOL    HW1 4268   4.359   1.758   3.331
 1123SOL    HW2 4269   4.381   1.783   3.491
 1124SOL     OW 4270   2.244   2.928   4.883
 1124SOL    HW1 4271   2.315   2.952   4.950
 1124SOL    HW2 4272   2.165   2.889   4.931
 1125SOL     OW 4273   1.029   3.811   3.374
 1125SOL    HW1 4274   0.937   3.822   3.413
 1125SOL    HW2 4275   1.056   3.715   3.380
 1126SOL     OW 4276   3.657   5.117   5.193
 1126SOL    HW1 4277   3.601   5.063   5.130
 1126SOL    HW2 4278   3.628   5.213   5.191
 1127SOL     OW 4279   5.650   6.544   2.985
 1127SOL    HW1 4280   5.561   6.515   3.022
 1127SOL    HW2 4281   5.723   6.488   3.025
 1128SOL     OW 4282   6.038   1.573   3.088
 1128SOL    HW1 4283   5.951   1.544   3.129
 1128SOL    HW2 4284   6.022   1.606   2.995
 1129SOL     OW 4285   1.711   0.536   0.876
 1129SOL    HW1 4286   1.653   0.457   0.895
 1129SOL    HW2 4287   1.804   0.517   0.906
 1130SOL     OW 4288   2.162   4.624   2.280
 1130SOL    HW1 4289   2.144   4.693   2.211
 1130SOL    HW2 4290   2.249   4.579   2.260
 1131SOL     OW 4291   1.468   6.009   3.680
 1131SOL    HW1 4292   1.466   6.109   3.674
 1131SOL    HW2 4293   1.556   5.979   3.716
 1132SOL     OW 4294   3.671   1.286   2.629
 1132SOL    HW1 4295   3.667   1.275   2.728
 1132SOL    HW2 4296   3.649   1.380   2.604
 1133SOL     OW 4297   1.452   6.759   5.069
 1133SOL    HW1 4298   1.367   6.748   5.122
 1133SOL    HW2 4299   1.429   6.784   4.975
 1134SOL     OW 4300   3.942   6.950   1.542
 1134SOL    HW1 4301   3.906   6.999   1.462
 1134SOL    HW2 4302   3.935   6.852   1.526
 1135SOL     OW 4303   2.168   5.940   3.808
 1135SOL    HW1 4304   2.233   5.870   3.840
 1135SOL    HW2 4305   2.217   6.008   3.754
 1136SOL     OW 4306   2.606   5.987   1.843
 1136SOL    HW1 4307   2.528   6.048   1.832
 1136SOL    HW2 4308   2.595   5.934   1.927
 1137SOL     OW 4309   0.262   5.713   5.551
 1137SOL    HW1 4310   0.207   5.631   5.536
 1137SOL    HW2 4311   0.329   5.696   5.623
 1138SOL     OW 4312   2.349   2.757   4.657
 1138SOL    HW1 4313   2.390   2.831   4.603
 1138SOL    HW2 4314   2.314   2.795   4.743
 1139SOL     OW 4315   2.865   5.328   4.280
 1139SOL    HW1 4316   2.877   5.363   4.372
 1139SOL    HW2 4317   2.768   5.328   4.257
 1140SOL     OW 4318   1.272   1.605   1.820
 1140SOL    HW1 4319   1.180   1.609   1.782
 1140SOL    HW2 4320   1.278   1.529   1.885
 1141SOL     OW 4321   6.274   4.576   6.507
 1141SOL    HW1 4322   6.222   4.661   6.512
 1141SOL    HW2 4323   6.275   4.543   6.413
 1142SOL     OW 4324   2.667   0.023   2.566
 1142SOL    HW1 4325   2.696   6.962   2.615
 1142SOL    HW2 4326   2.618   0.084   2.628
 1143SOL     OW 4327   1.139   3.950   1.905
 1143SOL    HW1 4328   1.219   4.010   1.917
 1143SOL    HW2 4329   1.158   3.861   1.948
 1144SOL     OW 4330   5.320   4.316   2.034
 1144SOL    HW1 4331   5.357   4.269   1.954
 1144SOL    HW2 4332   5.394   4.365   2.081
 1145SOL     OW 4333   6.796   1.440   0.888
 1145SOL    HW1 4334   6.773   1.386   0.807
 1145SOL    HW2 4335   6.793   1.381   0.969
 1146SOL     OW 4336   0.997   1.337   1.395
 1146SOL    HW1 4337   0.899   1.322   1.411
 1146SOL    HW2 4338   1.039   1.251   1.367
 1147SOL     OW 4339   3.156   6.487   1.196
 1147SOL    HW1 4340   3.084   6.556   1.184
 1147SOL    HW2 4341   3.169   6.437   1.110
 1148SOL     OW 4342   4.383   5.441   2.916
 1148SOL    HW1 4343   4.329   5.435   3.000
 1148SOL    HW2 4344   4.344   5.380   2.847
 1149SOL     OW 4345   4.861   2.710   1.708
 1149SOL    HW1 4346   4.859   2.793   1.653
 1149SOL    HW2 4347   4.774   2.697   1.755
 1150SOL     OW 4348   2.131   4.245   6.887
 1150SOL    HW1 4349   2.076   4.166   6.860
 1150SOL    HW2 4350   2.084   4.329   6.862
 1151SOL     OW 4351   6.381   5.525   4.162
 1151SOL    HW1 4352   6.440   5.605   4.151
 1151SOL    HW2 4353   6.348   5.495   4.073
 1152SOL     OW 4354   4.186   0.017   6.295
 1152SOL    HW1 4355   4.205   6.959   6.236
 1152SOL    HW2 4356   4.093   0.011   6.330
 1153SOL     OW 4357   6.042   0.646   0.957
 1153SOL    HW1 4358   5.947   0.654   0.928
 1153SOL    HW2 4359   6.073   0.552   0.945
 1154SOL     OW 4360   2.264   2.572   1.602
 1154SOL    HW1 4361   2.338   2.547   1.664
 1154SOL    HW2 4362   2.180   2.589   1.654
 1155SOL     OW 4363   2.883   5.916   4.911
 1155SOL    HW1 4364   2.905   5.973   4.990
 1155SOL    HW2 4365   2.842   5.830   4.941
 1156SOL     OW 4366   3.317   2.172   4.177
 1156SOL    HW1 4367   3.407   2.179   4.221
 1156SOL    HW2 4368   3.248   2.150   4.246
 1157SOL     OW 4369   3.736   1.059   5.711
 1157SOL    HW1 4370   3.754   1.016   5.622
 1157SOL    HW2 4371   3.698   1.150   5.696
 1158SOL     OW 4372   5.812   6.064   3.128
 1158SOL    HW1 4373   5.874   6.035   3.201
 1158SOL    HW2 4374   5.725   6.016   3.136
 1159SOL     OW 4375   6.403   6.423   2.435
 1159SOL    HW1 4376   6.309   6.420   2.469
 1159SOL    HW2 4377   6.403   6.404   2.337
 1160SOL     OW 4378   4.939   1.062   0.848
 1160SOL    HW1 4379   4.920   1.013   0.763
 1160SOL    HW2 4380   5.012   1.128   0.833
 1161SOL     OW 4381   0.394   5.624   6.631
 1161SOL    HW1 4382   0.464   5.648   6.565
 1161SOL    HW2 4383   0.429   5.637   6.724
 1162SOL     OW 4384   2.469   2.211   5.050
 1162SOL    HW1 4385   2.412   2.289   5.024
 1162SOL    HW2 4386   2.475   2.207   5.150
 1163SOL     OW 4387   6.367   3.853   1.674
 1163SOL    HW1 4388   6.455   3.871   1.629
 1163SOL    HW2 4389   6.374   3.767   1.725
 1164SOL     OW 4390   4.803   1.938   4.529
 1164SOL    HW1 4391   4.722   1.936   4.587
 1164SOL    HW2 4392   4.879   1.892   4.575
 1165SOL     OW 4393   4.021   6.400   2.983
 1165SOL    HW1 4394   3.973   6.312   2.986
 1165SOL    HW2 4395   3.981   6.457   2.911
 1166SOL     OW 4396   2.055   5.854   6.692
 1166SOL    HW1 4397   2.036   5.809   6.605
 1166SOL    HW2 4398   2.061   5.786   6.765
 1167SOL     OW 4399   5.543   4.522   2.549
 1167SOL    HW1 4400   5.491   4.487   2.471
 1167SOL    HW2 4401   5.565   4.446   2.611
 1168SOL     OW 4402   6.067   2.061   3.088
 1168SOL    HW1 4403   6.123   1.978   3.092
 1168SOL    HW2 4404   6.109   2.127   3.027
 1169SOL     OW 4405   5.505   0.516   5.393
 1169SOL    HW1 4406   5.435   0.561   5.448
 1169SOL    HW2 4407   5.515   0.421   5.422
 1170SOL     OW 4408   4.844   6.818   3.570
 1170SOL    HW1 4409   4.831   6.771   3.658
 1170SOL    HW2 4410   4.814   6.758   3.496
 1171SOL     OW 4411   1.026   0.209   1.245
 1171SOL    HW1 4412   1.088   0.141   1.284
 1171SOL    HW2 4413   1.066   0.300   1.255
 1172SOL     OW 4414   6.997   3.702   6.423
 1172SOL    HW1 4415   6.984   3.669   6.330
 1172SOL    HW2 4416   6.930   3.659   6.484
 1173SOL     OW 4417   2.825   1.453   1.014
 1173SOL    HW1 4418   2.824   1.551   1.032
 1173SOL    HW2 4419   2.852   1.437   0.919
 1174SOL     OW 4420   3.812   3.143   1.204
 1174SOL    HW1 4421   3.836   3.189   1.289
 1174SOL    HW2 4422   3.806   3.045   1.219
 1175SOL     OW 4423   3.729   3.249   4.662
 1175SOL    HW1 4424   3.645   3.197   4.680
 1175SOL    HW2 4425   3.797   3.190   4.621
 1176SOL     OW 4426   5.316   4.021   6.393
 1176SOL    HW1 4427   5.277   4.089   6.455
 1176SOL    HW2 4428   5.336   4.064   6.305
 1177SOL     OW 4429   6.325   2.521   4.870
 1177SOL    HW1 4430   6.228   2.548   4.868
 1177SOL    HW2 4431   6.376   2.583   4.929
 1178SOL     OW 4432   3.223   4.745   0.128
 1178SOL    HW1 4433   3.222   4.682   0.050
 1178SOL    HW2 4434   3.224   4.840   0.094
 1179SOL     OW 4435   2.140   5.437   0.904
 1179SOL    HW1 4436   2.057   5.389   0.876
 1179SOL    HW2 4437   2.193   5.379   0.966
 1180SOL     OW 4438   3.174   5.762   0.657
 1180SOL    HW1 4439   3.079   5.732   0.661
 1180SOL    HW2 4440   3.234   5.690   0.693
 1181SOL     OW 4441   0.553   5.704   0.139
 1181SOL    HW1 4442   0.512   5.795   0.133
 1181SOL    HW2 4443   0.520   5.658   0.221
 1182SOL     OW 4444   4.038   5.466   3.059
 1182SOL    HW1 4445   4.037   5.385   3.117
 1182SOL    HW2 4446   4.076   5.543   3.110
 1183SOL     OW 4447   2.119   3.869   6.084
 1183SOL    HW1 4448   2.096   3.811   6.005
 1183SOL    HW2 4449   2.047   3.863   6.152
 1184SOL     OW 4450   1.874   6.980   5.027
 1184SOL    HW1 4451   1.953   0.021   5.030
 1184SOL    HW2 4452   1.892   6.901   5.086
 1185SOL     OW 4453   0.004   1.232   6.934
 1185SOL    HW1 4454   6.985   1.245   0.004
 1185SOL    HW2 4455   0.098   1.268   6.934
 1186SOL     OW 4456   4.856   6.315   4.571
 1186SOL    HW1 4457   4.948   6.349   4.592
 1186SOL    HW2 4458   4.861   6.217   4.551
 1187SOL     OW 4459   6.492   0.343   5.739
 1187SOL    HW1 4460   6.401   0.369   5.705
 1187SOL    HW2 4461   6.556   0.339   5.663
 1188SOL     OW 4462   2.787   6.306   5.179
 1188SOL    HW1 4463   2.740   6.306   5.091
 1188SOL    HW2 4464   2.878   6.346   5.169
 1189SOL     OW 4465   6.264   3.554   3.410
 1189SOL    HW1 4466   6.337   3.602   3.458
 1189SOL    HW2 4467   6.275   3.455   3.424
 1190SOL     OW 4468   1.993   6.288   2.521
 1190SOL    HW1 4469   2.081   6.299   2.474
 1190SOL    HW2 4470   1.928   6.246   2.458
 1191SOL     OW 4471   4.665   5.169   2.707
 1191SOL    HW1 4472   4.722   5.116   2.769
 1191SOL    HW2 4473   4.570   5.136   2.713
 1192SOL     OW 4474   4.278   5.903   2.965
 1192SOL    HW1 4475   4.297   5.942   2.875
 1192SOL    HW2 4476   4.214   5.961   3.015
 1193SOL     OW 4477   6.182   4.954   3.693
 1193SOL    HW1 4478   6.178   5.016   3.771
 1193SOL    HW2 4479   6.095   4.956   3.644
 1194SOL     OW 4480   4.490   0.779   1.240
 1194SOL    HW1 4481   4.566   0.769   1.303
 1194SOL    HW2 4482   4.480   0.695   1.186
 1195SOL     OW 4483   6.011   2.991   2.091
 1195SOL    HW1 4484   5.917   2.957   2.101
 1195SOL    HW2 4485   6.014   3.059   2.018
 1196SOL     OW 4486   6.410   6.613   3.820
 1196SOL    HW1 4487   6.463   6.696   3.803
 1196SOL    HW2 4488   6.318   6.624   3.781
 1197SOL     OW 4489   3.521   0.058   0.439
 1197SOL    HW1 4490   3.499   0.151   0.411
 1197SOL    HW2 4491   3.595   0.022   0.382
 1198SOL     OW 4492   1.215   2.259   0.628
 1198SOL    HW1 4493   1.289   2.250   0.561
 1198SOL    HW2 4494   1.238   2.205   0.710
 1199SOL     OW 4495   4.803   5.052   1.986
 1199SOL    HW1 4496   4.874   5.032   2.053
 1199SOL    HW2 4497   4.730   5.105   2.029
 1200SOL     OW 4498   3.102   3.505   2.128
 1200SOL    HW1 4499   3.132   3.426   2.182
 1200SOL    HW2 4500   3.047   3.565   2.186
 1201SOL     OW 4501   1.583   2.196   4.710
 1201SOL    HW1 4502   1.490   2.161   4.696
 1201SOL    HW2 4503   1.649   2.123   4.692
 1202SOL     OW 4504   6.923   5.676   6.296
 1202SOL    HW1 4505   6.841   5.685   6.241
 1202SOL    HW2 4506   6.963   5.766   6.311
 1203SOL     OW 4507   4.932   6.082   5.739
 1203SOL    HW1 4508   4.874   6.035   5.805
 1203SOL    HW2 4509   4.884   6.161   5.701
 1204SOL     OW 4510   2.028   0.742   2.197
 1204SOL    HW1 4511   1.977   0.657   2.209
 1204SOL    HW2 4512   2.048   0.783   2.286
 1205SOL     OW 4513   5.003   3.914   1.546
 1205SOL    HW1 4514   4.999   3.973   1.626
 1205SOL    HW2 4515   4.910   3.894   1.515
 1206SOL     OW 4516   3.226   3.460   4.570
 1206SOL    HW1 4517   3.305   3.489   4.625
 1206SOL    HW2 4518   3.142   3.475   4.621
 1207SOL     OW 4519   2.188   5.977   1.856
 1207SOL    HW1 4520   2.187   5.989   1.956
 1207SOL    HW2 4521   2.276   6.010   1.820
 1208SOL     OW 4522   3.564   3.330   6.931
 1208SOL    HW1 4523   3.524   3.373   7.012
 1208SOL    HW2 4524   3.662   3.320   6.944
 1209SOL     OW 4525   3.814   6.975   5.553
 1209SOL    HW1 4526   3.848   6.895   5.505
 1209SOL    HW2 4527   3.814   0.033   5.492
 1210SOL     OW 4528   3.165   0.737   3.262
 1210SOL    HW1 4529   3.236   0.666   3.258
 1210SOL    HW2 4530   3.186   0.800   3.336
 1211SOL     OW 4531   0.636   3.925   1.019
 1211SOL    HW1 4532   0.707   3.854   1.012
 1211SOL    HW2 4533   0.679   4.015   1.016
 1212SOL     OW 4534   0.815   6.861   6.865
 1212SOL    HW1 4535   0.756   6.942   6.860
 1212SOL    HW2 4536   0.904   6.887   6.902
 1213SOL     OW 4537   5.649   2.816   0.841
 1213SOL    HW1 4538   5.651   2.903   0.891
 1213SOL    HW2 4539   5.569   2.814   0.781
 1214SOL     OW 4540   6.632   1.968   0.960
 1214SOL    HW1 4541   6.705   1.906   0.990
 1214SOL    HW2 4542   6.661   2.016   0.878
 1215SOL     OW 4543   0.850   4.845   4.451
 1215SOL    HW1 4544   0.928   4.908   4.458
 1215SOL    HW2 4545   0.816   4.825   4.543
 1216SOL     OW 4546   4.587   0.409   6.432
 1216SOL    HW1 4547   4.610   0.331   6.489
 1216SOL    HW2 4548   4.501   0.391   6.384
 1217SOL     OW 4549   2.577   4.312   0.706
 1217SOL    HW1 4550   2.545   4.278   0.794
 1217SOL    HW2 4551   2.658   4.369   0.719
 1218SOL     OW 4552   1.552   3.919   3.609
 1218SOL    HW1 4553   1.556   3.969   3.522
 1218SOL    HW2 4554   1.472   3.948   3.661
 1219SOL     OW 4555   3.989   6.028   2.449
 1219SOL    HW1 4556   4.028   5.975   2.374
 1219SOL    HW2 4557   3.982   6.124   2.422
 1220SOL     OW 4558   1.267   4.590   2.823
 1220SOL    HW1 4559   1.268   4.541   2.910
 1220SOL    HW2 4560   1.188   4.650   2.820
 1221SOL     OW 4561   5.780   3.437   5.970
 1221SOL    HW1 4562   5.714   3.415   5.898
 1221SOL    HW2 4563   5.740   3.418   6.060
 1222SOL     OW 4564   6.797   6.399   6.781
 1222SOL    HW1 4565   6.847   6.391   6.868
 1222SOL    HW2 4566   6.818   6.486   6.738
 1223SOL     OW 4567   3.256   6.303   0.308
 1223SOL    HW1 4568   3.253   6.312   0.209
 1223SOL    HW2 4569   3.177   6.249   0.339
 1224SOL     OW 4570   2.362   0.155   1.050
 1224SOL    HW1 4571   2.268   0.123   1.042
 1224SOL    HW2 4572   2.362   0.254   1.063
 1225SOL     OW 4573   3.527   4.101   6.316
 1225SOL    HW1 4574   3.586   4.050   6.254
 1225SOL    HW2 4575   3.457   4.040   6.353
 1226SOL     OW 4576   1.849   4.908   1.222
 1226SOL    HW1 4577   1.758   4.870   1.235
 1226SOL    HW2 4578   1.879   4.954   1.307
 1227SOL     OW 4579   0.029   3.979   6.502
 1227SOL    HW1 4580   7.015   3.890   6.472
 1227SOL    HW2 4581   0.021   3.985   6.601
 1228SOL     OW 4582   4.179   2.126   5.993
 1228SOL    HW1 4583   4.140   2.171   5.912
 1228SOL    HW2 4584   4.175   2.189   6.070
 1229SOL     OW 4585   3.678   4.487   6.537
 1229SOL    HW1 4586   3.653   4.583   6.548
 1229SOL    HW2 4587   3.764   4.481   6.487
 1230SOL     OW 4588   4.188   6.834   3.357
 1230SOL    HW1 4589   4.274   6.881   3.338
 1230SOL    HW2 4590   4.149   6.799   3.272
 1231SOL     OW 4591   1.994   3.079   5.055
 1231SOL    HW1 4592   1.919   3.050   4.996
 1231SOL    HW2 4593   1.968   3.162   5.104
 1232SOL     OW 4594   1.302   2.765   5.177
 1232SOL    HW1 4595   1.397   2.738   5.157
 1232SOL    HW2 4596   1.251   2.684   5.206
 1233SOL     OW 4597   1.003   3.412   5.465
 1233SOL    HW1 4598   0.948   3.333   5.493
 1233SOL    HW2 4599   0.997   3.422   5.365
 1234SOL     OW 4600   5.591   4.134   4.585
 1234SOL    HW1 4601   5.619   4.180   4.501
 1234SOL    HW2 4602   5.491   4.126   4.587
 1235SOL     OW 4603   6.234   5.321   3.422
 1235SOL    HW1 4604   6.203   5.282   3.335
 1235SOL    HW2 4605   6.277   5.410   3.405
 1236SOL     OW 4606   5.695   0.597   6.873
 1236SOL    HW1 4607   5.707   0.556   6.782
 1236SOL    HW2 4608   5.751   0.547   6.939
 1237SOL     OW 4609   2.971   4.708   6.778
 1237SOL    HW1 4610   2.975   4.608   6.777
 1237SOL    HW2 4611   2.946   4.742   6.687
 1238SOL     OW 4612   1.767   1.501   1.003
 1238SOL    HW1 4613   1.798   1.586   1.046
 1238SOL    HW2 4614   1.732   1.439   1.073
 1239SOL     OW 4615   6.882   5.939   6.519
 1239SOL    HW1 4616   6.857   5.959   6.614
 1239SOL    HW2 4617   6.822   5.869   6.483
 1240SOL     OW 4618   5.032   6.056   2.006
 1240SOL    HW1 4619   4.978   5.995   1.947
 1240SOL    HW2 4620   5.129   6.041   1.989
 1241SOL     OW 4621   6.543   3.830   4.370
 1241SOL    HW1 4622   6.589   3.773   4.302
 1241SOL    HW2 4623   6.608   3.898   4.405
 1242SOL     OW 4624   2.412   3.610   0.650
 1242SOL    HW1 4625   2.471   3.654   0.582
 1242SOL    HW2 4626   2.320   3.599   0.613
 1243SOL     OW 4627   1.758   5.257   5.482
 1243SOL    HW1 4628   1.678   5.317   5.479
 1243SOL    HW2 4629   1.841   5.313   5.491
 1244SOL     OW 4630   0.678   0.903   3.792
 1244SOL    HW1 4631   0.671   0.874   3.696
 1244SOL    HW2 4632   0.722   0.992   3.797
 1245SOL     OW 4633   3.479   3.691   0.340
 1245SOL    HW1 4634   3.509   3.612   0.394
 1245SOL    HW2 4635   3.528   3.772   0.371
 1246SOL     OW 4636   2.104   6.253   2.249
 1246SOL    HW1 4637   2.037   6.237   2.177
 1246SOL    HW2 4638   2.146   6.343   2.236
 1247SOL     OW 4639   2.029   6.323   6.029
 1247SOL    HW1 4640   2.104   6.265   5.995
 1247SOL    HW2 4641   1.958   6.266   6.070
 1248SOL     OW 4642   2.150   5.469   3.804
 1248SOL    HW1 4643   2.131   5.494   3.899
 1248SOL    HW2 4644   2.067   5.479   3.750
 1249SOL     OW 4645   5.726   2.905   3.438
 1249SOL    HW1 4646   5.656   2.963   3.480
 1249SOL    HW2 4647   5.718   2.812   3.473
 1250SOL     OW 4648   1.237   3.970   3.970
 1250SOL    HW1 4649   1.198   4.042   4.027
 1250SOL    HW2 4650   1.330   3.949   4.000
 1251SOL     OW 4651   3.964   0.387   4.874
 1251SOL    HW1 4652   4.030   0.319   4.843
 1251SOL    HW2 4653   3.976   0.404   4.972
 1252SOL     OW 4654   3.348   4.200   5.510
 1252SOL    HW1 4655   3.367   4.221   5.606
 1252SOL    HW2 4656   3.390   4.113   5.485
 1253SOL     OW 4657   4.006   5.223   3.176
 1253SOL    HW1 4658   3.906   5.232   3.183
 1253SOL    HW2 4659   4.028   5.141   3.123
 1254SOL     OW 4660   6.469   1.994   2.975
 1254SOL    HW1 4661   6.469   2.092   2.952
 1254SOL    HW2 4662   6.486   1.941   2.892
 1255SOL     OW 4663   0.031   6.744   6.483
 1255SOL    HW1 4664   0.014   6.826   6.537
 1255SOL    HW2 4665   6.965   6.705   6.453
 1256SOL     OW 4666   5.195   0.390   3.313
 1256SOL    HW1 4667   5.107   0.408   3.358
 1256SOL    HW2 4668   5.203   0.293   3.293
 1257SOL     OW 4669   6.694   0.989   3.754
 1257SOL    HW1 4670   6.669   1.075   3.800
 1257SOL    HW2 4671   6.653   0.912   3.803
 1258SOL     OW 4672   0.057   6.997   3.440
 1258SOL    HW1 4673   7.011   0.003   3.370
 1258SOL    HW2 4674   0.116   6.925   3.404
 1259SOL     OW 4675   3.854   2.006   4.925
 1259SOL    HW1 4676   3.924   2.061   4.881
 1259SOL    HW2 4677   3.764   2.049   4.910
 1260SOL     OW 4678   0.869   0.746   0.207
 1260SOL    HW1 4679   0.912   0.836   0.212
 1260SOL    HW2 4680   0.813   0.741   0.124
 1261SOL     OW 4681   6.604   5.134   0.459
 1261SOL    HW1 4682   6.660   5.137   0.376
 1261SOL    HW2 4683   6.658   5.097   0.534
 1262SOL     OW 4684   5.329   5.712   0.927
 1262SOL    HW1 4685   5.272   5.634   0.901
 1262SOL    HW2 4686   5.367   5.696   1.019
 1263SOL     OW 4687   1.428   2.253   3.665
 1263SOL    HW1 4688   1.404   2.223   3.758
 1263SOL    HW2 4689   1.514   2.304   3.667
 1264SOL     OW 4690   0.916   2.706   5.195
 1264SOL    HW1 4691   0.959   2.777   5.139
 1264SOL    HW2 4692   0.828   2.681   5.155
 1265SOL     OW 4693   5.907   6.667   4.534
 1265SOL    HW1 4694   5.893   6.618   4.619
 1265SOL    HW2 4695   5.878   6.610   4.457
 1266SOL     OW 4696   2.238   0.606   4.756
 1266SOL    HW1 4697   2.186   0.627   4.673
 1266SOL    HW2 4698   2.271   0.512   4.751
 1267SOL     OW 4699   4.368   0.114   2.476
 1267SOL    HW1 4700   4.338   0.202   2.439
 1267SOL    HW2 4701   4.294   0.048   2.468
 1268SOL     OW 4702   4.260   2.676   5.394
 1268SOL    HW1 4703   4.265   2.773   5.374
 1268SOL    HW2 4704   4.217   2.628   5.318
 1269SOL     OW 4705   6.100   2.674   4.639
 1269SOL    HW1 4706   6.192   2.640   4.620
 1269SOL    HW2 4707   6.032   2.608   4.606
 1270SOL     OW 4708   7.006   5.090   3.596
 1270SOL    HW1 4709   6.926   5.149   3.582
 1270SOL    HW2 4710   6.977   4.994   3.591
 1271SOL     OW 4711   1.537   1.322   1.424
 1271SOL    HW1 4712   1.597   1.397   1.398
 1271SOL    HW2 4713   1.442   1.353   1.422
 1272SOL     OW 4714   6.692   4.368   0.085
 1272SOL    HW1 4715   6.755   4.298   0.051
 1272SOL    HW2 4716   6.646   4.411   0.007
 1273SOL     OW 4717   1.239   4.743   5.098
 1273SOL    HW1 4718   1.220   4.657   5.050
 1273SOL    HW2 4719   1.225   4.819   5.035
 1274SOL     OW 4720   0.824   5.394   2.764
 1274SOL    HW1 4721   0.736   5.439   2.747
 1274SOL    HW2 4722   0.896   5.442   2.714
 1275SOL     OW 4723   3.070   0.909   2.481
 1275SOL    HW1 4724   2.974   0.888   2.462
 1275SOL    HW2 4725   3.087   0.901   2.579
 1276SOL     OW 4726   5.271   4.776   3.695
 1276SOL    HW1 4727   5.224   4.698   3.654
 1276SOL    HW2 4728   5.300   4.839   3.623
 1277SOL     OW 4729   0.385   6.200   0.828
 1277SOL    HW1 4730   0.453   6.141   0.783
 1277SOL    HW2 4731   0.424   6.291   0.841
 1278SOL     OW 4732   1.195   5.800   2.620
 1278SOL    HW1 4733   1.171   5.850   2.703
 1278SOL    HW2 4734   1.167   5.854   2.540
 1279SOL     OW 4735   2.147   2.230   0.029
 1279SOL    HW1 4736   2.218   2.169   0.065
 1279SOL    HW2 4737   2.064   2.219   0.084
 1280SOL     OW 4738   2.641   1.678   3.320
 1280SOL    HW1 4739   2.581   1.734   3.378
 1280SOL    HW2 4740   2.664   1.594   3.368
 1281SOL     OW 4741   4.584   5.788   4.085
 1281SOL    HW1 4742   4.611   5.786   3.989
 1281SOL    HW2 4743   4.632   5.862   4.132
 1282SOL     OW 4744   0.254   2.355   1.172
 1282SOL    HW1 4745   0.242   2.421   1.097
 1282SOL    HW2 4746   0.351   2.338   1.186
 1283SOL     OW 4747   6.688   3.681   5.122
 1283SOL    HW1 4748   6.636   3.670   5.207
 1283SOL    HW2 4749   6.780   3.714   5.144
 1284SOL     OW 4750   3.954   1.912   1.709
 1284SOL    HW1 4751   3.952   1.940   1.613
 1284SOL    HW2 4752   4.009   1.977   1.762
 1285SOL     OW 4753   4.004   0.955   5.364
 1285SOL    HW1 4754   3.915   1.000   5.355
 1285SOL    HW2 4755   4.030   0.952   5.460
 1286SOL     OW 4756   4.462   2.249   2.042
 1286SOL    HW1 4757   4.536   2.292   2.093
 1286SOL    HW2 4758   4.475   2.263   1.944
 1287SOL     OW 4759   6.662   4.844   4.747
 1287SOL    HW1 4760   6.565   4.855   4.727
 1287SOL    HW2 4761   6.697   4.763   4.700
 1288SOL     OW 4762   4.685   4.149   6.875
 1288SOL    HW1 4763   4.593   4.184   6.857
 1288SOL    HW2 4764   4.720   4.103   6.793
 1289SOL     OW 4765   0.276   0.539   1.858
 1289SOL    HW1 4766   0.198   0.497   1.905
 1289SOL    HW2 4767   0.346   0.469   1.842
 1290SOL     OW 4768   1.522   6.833   6.389
 1290SOL    HW1 4769   1.601   6.825   6.449
 1290SOL    HW2 4770   1.438   6.817   6.442
 1291SOL     OW 4771   6.681   5.273   3.069
 1291SOL    HW1 4772   6.656   5.337   2.996
 1291SOL    HW2 4773   6.637   5.301   3.154
 1292SOL     OW 4774   1.054   6.343   2.198
 1292SOL    HW1 4775   1.150   6.330   2.177
 1292SOL    HW2 4776   1.042   6.355   2.296
 1293SOL     OW 4777   3.055   1.053   6.956
 1293SOL    HW1 4778   3.017   0.963   6.980
 1293SOL    HW2 4779   3.088   1.052   6.862
 1294SOL     OW 4780   2.360   3.527   5.307
 1294SOL    HW1 4781   2.410   3.609   5.280
 1294SOL    HW2 4782   2.425   3.456   5.333
 1295SOL     OW 4783   6.191   4.452   0.888
 1295SOL    HW1 4784   6.257   4.381   0.863
 1295SOL    HW2 4785   6.239   4.525   0.938
 1296SOL     OW 4786   5.326   6.912   5.737
 1296SOL    HW1 4787   5.303   6.880   5.645
 1296SOL    HW2 4788   5.372   6.838   5.787
 1297SOL     OW 4789   0.297   0.067   2.011
 1297SOL    HW1 4790   0.252   0.086   2.099
 1297SOL    HW2 4791   0.396   0.068   2.023
 1298SOL     OW 4792   5.331   6.125   2.583
 1298SOL    HW1 4793   5.387   6.209   2.587
 1298SOL    HW2 4794   5.288   6.118   2.493
 1299SOL     OW 4795   1.572   3.472   4.930
 1299SOL    HW1 4796   1.596   3.474   5.027
 1299SOL    HW2 4797   1.559   3.565   4.897
 1300SOL     OW 4798   1.212   4.286   1.831
 1300SOL    HW1 4799   1.229   4.380   1.861
 1300SOL    HW2 4800   1.226   4.279   1.732
 1301SOL     OW 4801   0.751   0.469   1.436
 1301SOL    HW1 4802   0.705   0.393   1.392
 1301SOL    HW2 4803   0.707   0.555   1.410
 1302SOL     OW 4804   5.464   6.561   5.387
 1302SOL    HW1 4805   5.421   6.500   5.321
 1302SOL    HW2 4806   5.437   6.655   5.368
 1303SOL     OW 4807   4.284   6.325   1.484
 1303SOL    HW1 4808   4.382   6.311   1.465
 1303SOL    HW2 4809   4.275   6.386   1.563
 1304SOL     OW 4810   0.561   1.153   0.541
 1304SOL    HW1 4811   0.466   1.151   0.573
 1304SOL    HW2 4812   0.599   1.244   0.556
 1305SOL     OW 4813   5.603   3.889   6.493
 1305SOL    HW1 4814   5.639   3.937   6.573
 1305SOL    HW2 4815   5.553   3.954   6.436
 1306SOL     OW 4816   2.354   5.332   4.042
 1306SOL    HW1 4817   2.382   5.379   3.958
 1306SOL    HW2 4818   2.329   5.238   4.021
 1307SOL     OW 4819   2.877   2.217   3.655
 1307SOL    HW1 4820   2.809   2.269   3.706
 1307SOL    HW2 4821   2.962   2.213   3.707
 1308SOL     OW 4822   6.891   5.328   6.091
 1308SOL    HW1 4823   6.922   5.233   6.092
 1308SOL    HW2 4824   6.967   5.388   6.116
 1309SOL     OW 4825   5.230   4.210   6.596
 1309SOL    HW1 4826   5.131   4.193   6.597
 1309SOL    HW2 4827   5.264   4.214   6.690
 1310SOL     OW 4828   1.360   4.281   3.396
 1310SOL    HW1 4829   1.370   4.363   3.452
 1310SOL    HW2 4830   1.419   4.289   3.316
 1311SOL     OW 4831   0.034   6.114   0.458
 1311SOL    HW1 4832   0.074   6.196   0.500
 1311SOL    HW2 4833   0.013   6.047   0.528
 1312SOL     OW 4834   2.523   0.381   6.343
 1312SOL    HW1 4835   2.565   0.459   6.389
 1312SOL    HW2 4836   2.430   0.406   6.315
 1313SOL     OW 4837   6.510   5.684   2.775
 1313SOL    HW1 4838   6.414   5.706   2.791
 1313SOL    HW2 4839   6.520   5.645   2.683
 1314SOL     OW 4840   2.858   1.675   4.965
 1314SOL    HW1 4841   2.760   1.685   4.945
 1314SOL    HW2 4842   2.911   1.699   4.884
 1315SOL     OW 4843   6.248   1.315   3.821
 1315SOL    HW1 4844   6.304   1.288   3.900
 1315SOL    HW2 4845   6.153   1.324   3.849
 1316SOL     OW 4846   4.132   0.707   4.877
 1316SOL    HW1 4847   4.231   0.710   4.866
 1316SOL    HW2 4848   4.089   0.755   4.800
 1317SOL     OW 4849   2.790   3.387   5.804
 1317SOL    HW1 4850   2.756   3.421   5.892
 1317SOL    HW2 4851   2.839   3.461   5.757
 1318SOL     OW 4852   1.695   2.801   6.666
 1318SOL    HW1 4853   1.739   2.889   6.649
 1318SOL    HW2 4854   1.687   2.786   6.765
 1319SOL     OW 4855   0.076   6.625   1.077
 1319SOL    HW1 4856   0.002   6.586   1.022
 1319SOL    HW2 4857   0.114   6.555   1.138
 1320SOL     OW 4858   3.098   2.679   5.611
 1320SOL    HW1 4859   3.072   2.771   5.580
 1320SOL    HW2 4860   3.086   2.614   5.536
 1321SOL     OW 4861   5.646   2.491   6.804
 1321SOL    HW1 4862   5.580   2.540   6.861
 1321SOL    HW2 4863   5.642   2.526   6.710
 1322SOL     OW 4864   3.359   1.190   0.485
 1322SOL    HW1 4865   3.263   1.213   0.502
 1322SOL    HW2 4866   3.409   1.273   0.459
 1323SOL     OW 4867   4.076   0.057   0.185
 1323SOL    HW1 4868   3.986   0.019   0.207
 1323SOL    HW2 4869   4.065   0.147   0.144
 1324SOL     OW 4870   1.015   3.850   6.739
 1324SOL    HW1 4871   0.984   3.877   6.831
 1324SOL    HW2 4872   0.976   3.912   6.671
 1325SOL     OW 4873   2.735   4.861   6.379
 1325SOL    HW1 4874   2.785   4.947   6.386
 1325SOL    HW2 4875   2.715   4.842   6.283
 1326SOL     OW 4876   4.999   3.232   3.656
 1326SOL    HW1 4877   4.925   3.165   3.659
 1326SOL    HW2 4878   5.085   3.188   3.681
 1327SOL     OW 4879   6.320   5.924   1.456
 1327SOL    HW1 4880   6.235   5.975   1.444
 1327SOL    HW2 4881   6.384   5.948   1.384
 1328SOL     OW 4882   1.544   3.311   5.670
 1328SOL    HW1 4883   1.591   3.397   5.648
 1328SOL    HW2 4884   1.450   3.316   5.637
 1329SOL     OW 4885   0.872   3.176   3.053
 1329SOL    HW1 4886   0.935   3.241   3.094
 1329SOL    HW2 4887   0.780   3.215   3.051
 1330SOL     OW 4888   6.325   3.102   1.143
 1330SOL    HW1 4889   6.252   3.169   1.143
 1330SOL    HW2 4890   6.400   3.135   1.200
 1331SOL     OW 4891   4.742   1.796   3.018
 1331SOL    HW1 4892   4.713   1.773   3.111
 1331SOL    HW2 4893   4.732   1.895   3.003
 1332SOL     OW 4894   1.524   6.187   0.367
 1332SOL    HW1 4895   1.548   6.092   0.346
 1332SOL    HW2 4896   1.426   6.193   0.385
 1333SOL     OW 4897   3.385   4.124   3.174
 1333SOL    HW1 4898   3.299   4.119   3.123
 1333SOL    HW2 4899   3.433   4.036   3.167
 1334SOL     OW 4900   0.051   3.111   2.288
 1334SOL    HW1 4901   6.972   3.098   2.291
 1334SOL    HW2 4902   0.083   3.143   2.377
 1335SOL     OW 4903   1.108   3.784   2.350
 1335SOL    HW1 4904   1.197   3.740   2.335
 1335SOL    HW2 4905   1.120   3.862   2.412
 1336SOL     OW 4906   3.304   0.462   5.279
 1336SOL    HW1 4907   3.230   0.502   5.225
 1336SOL    HW2 4908   3.299   0.495   5.373
 1337SOL     OW 4909   0.008   1.418   3.548
 1337SOL    HW1 4910   0.017   1.469   3.634
 1337SOL    HW2 4911   0.029   1.322   3.564
 1338SOL     OW 4912   6.375   4.558   5.345
 1338SOL    HW1 4913   6.467   4.586   5.314
 1338SOL    HW2 4914   6.383   4.501   5.426
 1339SOL     OW 4915   0.136   0.909   6.543
 1339SOL    HW1 4916   0.055   0.858   6.516
 1339SOL    HW2 4917   0.143   0.911   6.643
 1340SOL     OW 4918   4.563   2.040   1.612
 1340SOL    HW1 4919   4.495   1.967   1.603
 1340SOL    HW2 4920   4.630   2.032   1.539
 1341SOL     OW 4921   4.745   0.193   6.897
 1341SOL    HW1 4922   4.708   0.224   6.984
 1341SOL    HW2 4923   4.716   0.099   6.879
 1342SOL     OW 4924   2.482   6.170   0.755
 1342SOL    HW1 4925   2.439   6.256   0.726
 1342SOL    HW2 4926   2.415   6.096   0.753
 1343SOL     OW 4927   5.578   5.947   3.166
 1343SOL    HW1 4928   5.523   5.872   3.130
 1343SOL    HW2 4929   5.540   5.978   3.253
 1344SOL     OW 4930   0.245   0.295   5.009
 1344SOL    HW1 4931   0.289   0.346   4.935
 1344SOL    HW2 4932   0.310   0.233   5.051
 1345SOL     OW 4933   0.354   6.031   1.570
 1345SOL    HW1 4934   0.305   5.984   1.644
 1345SOL    HW2 4935   0.440   6.068   1.605
 1346SOL     OW 4936   2.781   5.182   5.983
 1346SOL    HW1 4937   2.806   5.187   6.080
 1346SOL    HW2 4938   2.834   5.249   5.932
 1347SOL     OW 4939   1.600   0.155   6.817
 1347SOL    HW1 4940   1.566   0.191   6.904
 1347SOL    HW2 4941   1.653   0.072   6.834
 1348SOL     OW 4942   0.230   6.396   5.213
 1348SOL    HW1 4943   0.161   6.327   5.189
 1348SOL    HW2 4944   0.225   6.416   5.311
 1349SOL     OW 4945   4.874   3.351   4.129
 1349SOL    HW1 4946   4.892   3.366   4.226
 1349SOL    HW2 4947   4.824   3.430   4.092
 1350SOL     OW 4948   3.190   3.747   0.439
 1350SOL    HW1 4949   3.209   3.674   0.505
 1350SOL    HW2 4950   3.271   3.761   0.381
 1351SOL     OW 4951   6.764   2.463   5.362
 1351SOL    HW1 4952   6.679   2.459   5.414
 1351SOL    HW2 4953   6.828   2.526   5.407
 1352SOL     OW 4954   0.256   0.393   2.361
 1352SOL    HW1 4955   0.306   0.430   2.438
 1352SOL    HW2 4956   0.280   0.443   2.278
 1353SOL     OW 4957   0.624   1.080   0.970
 1353SOL    HW1 4958   0.721   1.073   0.992
 1353SOL    HW2 4959   0.604   1.169   0.931
 1354SOL     OW 4960   5.502   5.000   2.176
 1354SOL    HW1 4961   5.452   4.933   2.119
 1354SOL    HW2 4962   5.591   4.963   2.200
 1355SOL     OW 4963   6.214   3.692   5.208
 1355SOL    HW1 4964   6.153   3.735   5.275
 1355SOL    HW2 4965   6.163   3.669   5.126
 1356SOL     OW 4966   3.463   3.005   1.306
 1356SOL    HW1 4967   3.393   3.047   1.365
 1356SOL    HW2 4968   3.498   2.922   1.350
 1357SOL     OW 4969   6.793   3.748   5.427
 1357SOL    HW1 4970   6.834   3.833   5.395
 1357SOL    HW2 4971   6.769   3.756   5.524
 1358SOL     OW 4972   1.719   6.797   6.587
 1358SOL    HW1 4973   1.657   6.821   6.661
 1358SOL    HW2 4974   1.812   6.788   6.623
 1359SOL     OW 4975   6.449   4.304   1.824
 1359SOL    HW1 4976   6.436   4.395   1.787
 1359SOL    HW2 4977   6.382   4.287   1.897
 1360SOL     OW 4978   2.321   2.059   0.134
 1360SOL    HW1 4979   2.358   2.023   0.048
 1360SOL    HW2 4980   2.390   2.053   0.206
 1361SOL     OW 4981   6.578   5.215   4.603
 1361SOL    HW1 4982   6.651   5.159   4.566
 1361SOL    HW2 4983   6.527   5.257   4.529
 1362SOL     OW 4984   3.338   2.893   2.858
 1362SOL    HW1 4985   3.342   2.863   2.763
 1362SOL    HW2 4986   3.255   2.947   2.872
 1363SOL     OW 4987   0.677   6.456   5.255
 1363SOL    HW1 4988   0.603   6.433   5.192
 1363SOL    HW2 4989   0.760   6.406   5.230
 1364SOL     OW 4990   3.877   3.750   0.964
 1364SOL    HW1 4991   3.781   3.737   0.988
 1364SOL    HW2 4992   3.895   3.708   0.875
 1365SOL     OW 4993   0.187   3.720   6.898
 1365SOL    HW1 4994   0.181   3.646   6.831
 1365SOL    HW2 4995   0.107   3.719   6.957
 1366SOL     OW 4996   2.439   6.856   5.054
 1366SOL    HW1 4997   2.462   6.921   5.127
 1366SOL    HW2 4998   2.347   6.875   5.021
 1367SOL     OW 4999   1.818   1.107   2.652
 1367SOL    HW1 5000   1.776   1.156   2.729
 1367SOL    HW2 5001   1.916   1.123   2.653
 1368SOL     OW 5002   5.913   6.552   3.921
 1368SOL    HW1 5003   5.977   6.586   3.990
 1368SOL    HW2 5004   5.887   6.458   3.944
 1369SOL     OW 5005   0.709   0.479   3.025
 1369SOL    HW1 5006   0.618   0.444   3.048
 1369SOL    HW2 5007   0.776   0.405   3.028
 1370SOL     OW 5008   2.535   1.141   1.531
 1370SOL    HW1 5009   2.468   1.144   1.604
 1370SOL    HW2 5010   2.616   1.091   1.562
 1371SOL     OW 5011   4.228   1.019   6.184
 1371SOL    HW1 5012   4.246   0.922   6.200
 1371SOL    HW2 5013   4.232   1.039   6.086
 1372SOL     OW 5014   3.555   1.958   2.039
 1372SOL    HW1 5015   3.591   2.048   2.015
 1372SOL    HW2 5016   3.525   1.911   1.956
 1373SOL     OW 5017   1.172   5.767   1.131
 1373SOL    HW1 5018   1.144   5.761   1.227
 1373SOL    HW2 5019   1.108   5.715   1.074
 1374SOL     OW 5020   4.955   2.928   0.363
 1374SOL    HW1 5021   4.998   2.881   0.439
 1374SOL    HW2 5022   4.888   2.868   0.319
 1375SOL     OW 5023   0.598   4.141   5.624
 1375SOL    HW1 5024   0.499   4.150   5.637
 1375SOL    HW2 5025   0.624   4.178   5.535
 1376SOL     OW 5026   5.116   2.013   2.278
 1376SOL    HW1 5027   5.118   2.079   2.203
 1376SOL    HW2 5028   5.072   1.929   2.248
 1377SOL     OW 5029   0.543   5.509   4.772
 1377SOL    HW1 5030   0.559   5.419   4.731
 1377SOL    HW2 5031   0.611   5.525   4.844
 1378SOL     OW 5032   1.271   2.084   0.818
 1378SOL    HW1 5033   1.314   2.129   0.895
 1378SOL    HW2 5034   1.205   2.016   0.851
 1379SOL     OW 5035   4.010   6.230   1.991
 1379SOL    HW1 5036   3.941   6.286   2.037
 1379SOL    HW2 5037   4.051   6.283   1.917
 1380SOL     OW 5038   6.143   6.758   2.303
 1380SOL    HW1 5039   6.225   6.777   2.249
 1380SOL    HW2 5040   6.148   6.665   2.337
 1381SOL     OW 5041   6.051   1.357   1.576
 1381SOL    HW1 5042   6.034   1.266   1.540
 1381SOL    HW2 5043   6.124   1.353   1.645
 1382SOL     OW 5044   6.340   5.246   6.438
 1382SOL    HW1 5045   6.246   5.220   6.415
 1382SOL    HW2 5046   6.386   5.168   6.480
 1383SOL     OW 5047   2.690   6.811   0.720
 1383SOL    HW1 5048   2.636   6.815   0.636
 1383SOL    HW2 5049   2.730   6.900   0.739
 1384SOL     OW 5050   3.537   2.129   2.787
 1384SOL    HW1 5051   3.483   2.178   2.856
 1384SOL    HW2 5052   3.481   2.111   2.707
 1385SOL     OW 5053   5.833   3.076   2.645
 1385SOL    HW1 5054   5.921   3.035   2.668
 1385SOL    HW2 5055   5.761   3.007   2.654
 1386SOL     OW 5056   2.208   2.438   4.188
 1386SOL    HW1 5057   2.222   2.476   4.097
 1386SOL    HW2 5058   2.115   2.403   4.195
 1387SOL     OW 5059   2.209   0.483   5.082
 1387SOL    HW1 5060   2.128   0.434   5.049
 1387SOL    HW2 5061   2.242   0.546   5.012
 1388SOL     OW 5062   6.607   0.751   4.708
 1388SOL    HW1 5063   6.518   0.794   4.693
 1388SOL    HW2 5064   6.672   0.785   4.641
 1389SOL     OW 5065   0.032   0.465   4.994
 1389SOL    HW1 5066   6.986   0.414   4.939
 1389SOL    HW2 5067   0.115   0.410   5.004
 1390SOL     OW 5068   4.760   2.568   2.878
 1390SOL    HW1 5069   4.740   2.661   2.847
 1390SOL    HW2 5070   4.748   2.504   2.803
 1391SOL     OW 5071   5.954   1.302   4.573
 1391SOL    HW1 5072   5.931   1.333   4.480
 1391SOL    HW2 5073   5.872   1.269   4.618
 1392SOL     OW 5074   4.537   4.820   6.295
 1392SOL    HW1 5075   4.492   4.801   6.208
 1392SOL    HW2 5076   4.492   4.898   6.339
 1393SOL     OW 5077   5.903   0.618   6.520
 1393SOL    HW1 5078   5.992   0.643   6.482
 1393SOL    HW2 5079   5.917   0.564   6.603
 1394SOL     OW 5080   4.513   0.022   4.333
 1394SOL    HW1 5081   4.465   6.999   4.409
 1394SOL    HW2 5082   4.470   7.017   4.247
 1395SOL     OW 5083   1.106   5.502   2.339
 1395SOL    HW1 5084   1.060   5.515   2.426
 1395SOL    HW2 5085   1.153   5.414   2.339
 1396SOL     OW 5086   1.833   1.678   3.865
 1396SOL    HW1 5087   1.905   1.663   3.798
 1396SOL    HW2 5088   1.776   1.596   3.872
 1397SOL     OW 5089   0.773   5.881   4.455
 1397SOL    HW1 5090   0.719   5.824   4.393
 1397SOL    HW2 5091   0.714   5.917   4.527
 1398SOL     OW 5092   0.706   6.345   0.552
 1398SOL    HW1 5093   0.670   6.350   0.646
 1398SOL    HW2 5094   0.790   6.398   0.545
 1399SOL     OW 5095   3.944   0.397   0.178
 1399SOL    HW1 5096   3.937   0.313   0.124
 1399SOL    HW2 5097   3.950   0.374   0.275
 1400SOL     OW 5098   0.179   1.090   5.144
 1400SOL    HW1 5099   0.220   1.000   5.127
 1400SOL    HW2 5100   0.177   1.107   5.242
 1401SOL     OW 5101   5.673   0.259   2.467
 1401SOL    HW1 5102   5.726   0.174   2.476
 1401SOL    HW2 5103   5.577   0.241   2.490
 1402SOL     OW 5104   6.719   4.808   2.582
 1402SOL    HW1 5105   6.740   4.740   2.653
 1402SOL    HW2 5106   6.726   4.900   2.621
 1403SOL     OW 5107   3.261   3.478   6.710
 1403SOL    HW1 5108   3.180   3.491   6.652
 1403SOL    HW2 5109   3.238   3.417   6.786
 1404SOL     OW 5110   3.820   6.989   0.197
 1404SOL    HW1 5111   3.752   6.921   0.224
 1404SOL    HW2 5112   3.794   0.009   0.110
 1405SOL     OW 5113   0.747   3.922   1.452
 1405SOL    HW1 5114   0.746   3.989   1.378
 1405SOL    HW2 5115   0.740   3.830   1.414
 1406SOL     OW 5116   2.092   3.345   0.722
 1406SOL    HW1 5117   2.007   3.339   0.774
 1406SOL    HW2 5118   2.076   3.401   0.640
 1407SOL     OW 5119   0.178   2.966   1.142
 1407SOL    HW1 5120   0.229   2.919   1.213
 1407SOL    HW2 5121   0.190   3.065   1.152
 1408SOL     OW 5122   5.688   6.728   1.109
 1408SOL    HW1 5123   5.677   6.683   1.020
 1408SOL    HW2 5124   5.741   6.669   1.170
 1409SOL     OW 5125   6.614   1.021   5.650
 1409SOL    HW1 5126   6.648   0.928   5.665
 1409SOL    HW2 5127   6.611   1.040   5.552
 1410SOL     OW 5128   3.911   0.539   6.268
 1410SOL    HW1 5129   3.883   0.585   6.184
 1410SOL    HW2 5130   3.912   0.604   6.344
 1411SOL     OW 5131   3.551   5.323   6.920
 1411SOL    HW1 5132   3.634   5.274   6.891
 1411SOL    HW2 5133   3.480   5.257   6.943
 1412SOL     OW 5134   2.499   2.952   0.045
 1412SOL    HW1 5135   2.416   2.898   0.037
 1412SOL    HW2 5136   2.491   3.014   0.123
 1413SOL     OW 5137   1.398   1.665   4.818
 1413SOL    HW1 5138   1.492   1.665   4.853
 1413SOL    HW2 5139   1.400   1.663   4.718
 1414SOL     OW 5140   0.882   4.421   2.393
 1414SOL    HW1 5141   0.795   4.451   2.432
 1414SOL    HW2 5142   0.926   4.357   2.456
 1415SOL     OW 5143   2.494   1.484   4.938
 1415SOL    HW1 5144   2.549   1.451   4.862
 1415SOL    HW2 5145   2.518   1.434   5.021
 1416SOL     OW 5146   4.706   0.500   4.700
 1416SOL    HW1 5147   4.701   0.416   4.645
 1416SOL    HW2 5148   4.674   0.577   4.646
 1417SOL     OW 5149   3.582   3.399   5.832
 1417SOL    HW1 5150   3.675   3.432   5.817
 1417SOL    HW2 5151   3.557   3.411   5.929
 1418SOL     OW 5152   3.933   4.283   5.573
 1418SOL    HW1 5153   3.914   4.305   5.478
 1418SOL    HW2 5154   3.854   4.234   5.612
 1419SOL     OW 5155   1.485   5.911   2.232
 1419SOL    HW1 5156   1.432   5.827   2.239
 1419SOL    HW2 5157   1.461   5.958   2.147
 1420SOL     OW 5158   2.480   6.924   3.087
 1420SOL    HW1 5159   2.503   6.977   3.169
 1420SOL    HW2 5160   2.405   6.862   3.108
 1421SOL     OW 5161   1.288   4.669   5.801
 1421SOL    HW1 5162   1.345   4.675   5.883
 1421SOL    HW2 5163   1.235   4.584   5.803
 1422SOL     OW 5164   1.909   3.058   6.266
 1422SOL    HW1 5165   1.840   3.066   6.194
 1422SOL    HW2 5166   1.936   3.149   6.297
 1423SOL     OW 5167   4.243   0.883   4.301
 1423SOL    HW1 5168   4.270   0.917   4.391
 1423SOL    HW2 5169   4.168   0.818   4.311
 1424SOL     OW 5170   5.912   2.938   0.512
 1424SOL    HW1 5171   5.985   3.006   0.517
 1424SOL    HW2 5172   5.920   2.876   0.590
 1425SOL     OW 5173   5.400   6.937   3.472
 1425SOL    HW1 5174   5.488   6.961   3.511
 1425SOL    HW2 5175   5.413   6.875   3.395
 1426SOL     OW 5176   3.461   1.512   6.982
 1426SOL    HW1 5177   3.513   1.507   6.897
 1426SOL    HW2 5178   3.395   1.587   6.977
 1427SOL     OW 5179   1.814   0.402   3.710
 1427SOL    HW1 5180   1.780   0.451   3.790
 1427SOL    HW2 5181   1.742   0.345   3.672
 1428SOL     OW 5182   0.537   2.630   3.837
 1428SOL    HW1 5183   0.510   2.581   3.754
 1428SOL    HW2 5184   0.457   2.644   3.895
 1429SOL     OW 5185   6.585   1.231   1.770
 1429SOL    HW1 5186   6.514   1.178   1.815
 1429SOL    HW2 5187   6.663   1.172   1.750
 1430SOL     OW 5188   2.160   3.325   4.207
 1430SOL    HW1 5189   2.159   3.357   4.301
 1430SOL    HW2 5190   2.199   3.233   4.203
 1431SOL     OW 5191   2.623   1.176   6.857
 1431SOL    HW1 5192   2.709   1.176   6.806
 1431SOL    HW2 5193   2.641   1.153   6.952
 1432SOL     OW 5194   3.586   0.693   2.277
 1432SOL    HW1 5195   3.655   0.746   2.226
 1432SOL    HW2 5196   3.520   0.756   2.318
 1433SOL     OW 5197   2.494   0.335   4.145
 1433SOL    HW1 5198   2.489   0.245   4.188
 1433SOL    HW2 5199   2.431   0.338   4.067
 1434SOL     OW 5200   6.578   3.877   0.217
 1434SOL    HW1 5201   6.525   3.802   0.178
 1434SOL    HW2 5202   6.597   3.859   0.313
 1435SOL     OW 5203   1.674   0.368   4.016
 1435SOL    HW1 5204   1.739   0.375   4.091
 1435SOL    HW2 5205   1.616   0.450   4.013
 1436SOL     OW 5206   5.120   1.262   0.319
 1436SOL    HW1 5207   5.140   1.168   0.295
 1436SOL    HW2 5208   5.152   1.323   0.247
 1437SOL     OW 5209   4.057   0.584   6.580
 1437SOL    HW1 5210   3.986   0.649   6.551
 1437SOL    HW2 5211   4.146   0.615   6.545
 1438SOL     OW 5212   2.111   0.429   2.207
 1438SOL    HW1 5213   2.013   0.444   2.220
 1438SOL    HW2 5214   2.162   0.489   2.269
 1439SOL     OW 5215   0.365   4.553   6.728
 1439SOL    HW1 5216   0.342   4.594   6.640
 1439SOL    HW2 5217   0.284   4.551   6.786
 1440SOL     OW 5218   3.374   2.915   2.584
 1440SOL    HW1 5219   3.460   2.865   2.592
 1440SOL    HW2 5220   3.354   2.933   2.488
 1441SOL     OW 5221   6.405   3.090   4.208
 1441SOL    HW1 5222   6.449   3.017   4.261
 1441SOL    HW2 5223   6.427   3.179   4.250
 1442SOL     OW 5224   5.505   6.676   6.956
 1442SOL    HW1 5225   5.600   6.646   6.952
 1442SOL    HW2 5226   5.501   6.775   6.962
 1443SOL     OW 5227   1.092   2.452   3.341
 1443SOL    HW1 5228   0.999   2.489   3.350
 1443SOL    HW2 5229   1.142   2.469   3.426
 1444SOL     OW 5230   5.659   0.773   4.996
 1444SOL    HW1 5231   5.574   0.719   4.995
 1444SOL    HW2 5232   5.737   0.711   5.006
 1445SOL     OW 5233   5.963   2.357   0.845
 1445SOL    HW1 5234   5.911   2.432   0.887
 1445SOL    HW2 5235   5.919   2.270   0.865
 1446SOL     OW 5236   4.031   0.450   0.828
 1446SOL    HW1 5237   4.011   0.357   0.859
 1446SOL    HW2 5238   4.056   0.506   0.907
 1447SOL     OW 5239   5.308   1.349   5.340
 1447SOL    HW1 5240   5.338   1.433   5.293
 1447SOL    HW2 5241   5.358   1.339   5.426
 1448SOL     OW 5242   5.570   0.157   6.675
 1448SOL    HW1 5243   5.600   0.080   6.619
 1448SOL    HW2 5244   5.578   0.241   6.622
 1449SOL     OW 5245   4.742   5.377   0.785
 1449SOL    HW1 5246   4.796   5.294   0.797
 1449SOL    HW2 5247   4.647   5.359   0.812
 1450SOL     OW 5248   5.432   1.857   3.982
 1450SOL    HW1 5249   5.363   1.921   3.949
 1450SOL    HW2 5250   5.512   1.860   3.922
 1451SOL     OW 5251   1.692   6.874   2.652
 1451SOL    HW1 5252   1.663   6.815   2.577
 1451SOL    HW2 5253   1.769   6.832   2.701
 1452SOL     OW 5254   4.683   0.637   4.934
 1452SOL    HW1 5255   4.633   0.723   4.927
 1452SOL    HW2 5256   4.674   0.585   4.849
 1453SOL     OW 5257   4.783   4.452   4.530
 1453SOL    HW1 5258   4.821   4.359   4.530
 1453SOL    HW2 5259   4.744   4.472   4.440
 1454SOL     OW 5260   4.395   3.911   1.263
 1454SOL    HW1 5261   4.475   3.883   1.210
 1454SOL    HW2 5262   4.312   3.878   1.217
 1455SOL     OW 5263   2.342   2.313   1.479
 1455SOL    HW1 5264   2.309   2.402   1.512
 1455SOL    HW2 5265   2.440   2.307   1.492
 1456SOL     OW 5266   6.686   5.168   4.182
 1456SOL    HW1 5267   6.693   5.147   4.280
 1456SOL    HW2 5268   6.602   5.128   4.146
 1457SOL     OW 5269   1.848   0.593   3.508
 1457SOL    HW1 5270   1.824   0.670   3.566
 1457SOL    HW2 5271   1.863   0.512   3.564
 1458SOL     OW 5272   6.865   5.252   0.028
 1458SOL    HW1 5273   6.886   5.162   0.068
 1458SOL    HW2 5274   6.773   5.280   0.056
 1459SOL     OW 5275   2.549   6.644   0.859
 1459SOL    HW1 5276   2.619   6.707   0.824
 1459SOL    HW2 5277   2.471   6.644   0.797
 1460SOL     OW 5278   0.575   6.433   0.798
 1460SOL    HW1 5279   0.509   6.463   0.730
 1460SOL    HW2 5280   0.566   6.489   0.881
 1461SOL     OW 5281   4.416   4.736   1.443
 1461SOL    HW1 5282   4.468   4.788   1.375
 1461SOL    HW2 5283   4.425   4.781   1.532
 1462SOL     OW 5284   5.114   0.207   5.365
 1462SOL    HW1 5285   5.038   0.157   5.407
 1462SOL    HW2 5286   5.096   0.305   5.371
 1463SOL     OW 5287   0.501   1.303   5.101
 1463SOL    HW1 5288   0.483   1.217   5.053
 1463SOL    HW2 5289   0.582   1.347   5.063
 1464SOL     OW 5290   0.100   0.131   1.622
 1464SOL    HW1 5291   0.176   0.156   1.562
 1464SOL    HW2 5292   0.128   0.055   1.681
 1465SOL     OW 5293   0.499   6.843   4.902
 1465SOL    HW1 5294   0.402   6.845   4.926
 1465SOL    HW2 5295   0.514   6.894   4.818
 1466SOL     OW 5296   5.382   5.318   4.207
 1466SOL    HW1 5297   5.334   5.295   4.122
 1466SOL    HW2 5298   5.458   5.379   4.187
 1467SOL     OW 5299   6.294   3.691   2.620
 1467SOL    HW1 5300   6.306   3.784   2.656
 1467SOL    HW2 5301   6.202   3.681   2.583
 1468SOL     OW 5302   5.345   6.028   2.844
 1468SOL    HW1 5303   5.324   6.058   2.751
 1468SOL    HW2 5304   5.431   6.068   2.873
 1469SOL     OW 5305   0.551   0.885   2.814
 1469SOL    HW1 5306   0.614   0.808   2.823
 1469SOL    HW2 5307   0.593   0.967   2.854
 1470SOL     OW 5308   0.063   0.730   3.155
 1470SOL    HW1 5309   7.003   0.750   3.099
 1470SOL    HW2 5310   0.035   0.696   3.244
 1471SOL     OW 5311   5.993   0.685   0.420
 1471SOL    HW1 5312   6.088   0.709   0.398
 1471SOL    HW2 5313   5.955   0.630   0.346
 1472SOL     OW 5314   4.221   5.857   4.979
 1472SOL    HW1 5315   4.198   5.829   5.073
 1472SOL    HW2 5316   4.320   5.854   4.967
 1473SOL     OW 5317   5.954   4.219   3.519
 1473SOL    HW1 5318   5.921   4.307   3.484
 1473SOL    HW2 5319   6.007   4.234   3.602
 1474SOL     OW 5320   4.680   5.007   3.564
 1474SOL    HW1 5321   4.649   5.081   3.505
 1474SOL    HW2 5322   4.768   5.031   3.605
 1475SOL     OW 5323   6.794   0.630   3.196
 1475SOL    HW1 5324   6.842   0.656   3.280
 1475SOL    HW2 5325   6.759   0.713   3.151
 1476SOL     OW 5326   6.211   1.944   1.442
 1476SOL    HW1 5327   6.181   2.038   1.461
 1476SOL    HW2 5328   6.231   1.934   1.345
 1477SOL     OW 5329   3.218   6.340   3.041
 1477SOL    HW1 5330   3.291   6.399   3.077
 1477SOL    HW2 5331   3.130   6.387   3.050
 1478SOL     OW 5332   6.637   4.752   1.984
 1478SOL    HW1 5333   6.709   4.686   2.005
 1478SOL    HW2 5334   6.623   4.812   2.063
 1479SOL     OW 5335   1.396   5.514   0.827
 1479SOL    HW1 5336   1.333   5.588   0.806
 1479SOL    HW2 5337   1.490   5.543   0.807
 1480SOL     OW 5338   2.617   0.977   0.104
 1480SOL    HW1 5339   2.688   0.920   0.144
 1480SOL    HW2 5340   2.613   1.065   0.152
 1481SOL     OW 5341   0.150   2.622   5.937
 1481SOL    HW1 5342   0.203   2.539   5.947
 1481SOL    HW2 5343   0.209   2.697   5.907
 1482SOL     OW 5344   5.910   0.827   6.220
 1482SOL    HW1 5345   5.880   0.886   6.146
 1482SOL    HW2 5346   5.938   0.882   6.298
 1483SOL     OW 5347   6.336   2.840   6.542
 1483SOL    HW1 5348   6.248   2.843   6.590
 1483SOL    HW2 5349   6.397   2.776   6.588
 1484SOL     OW 5350   6.773   6.709   2.912
 1484SOL    HW1 5351   6.697   6.763   2.948
 1484SOL    HW2 5352   6.753   6.682   2.818
 1485SOL     OW 5353   5.724   2.936   4.576
 1485SOL    HW1 5354   5.673   2.965   4.495
 1485SOL    HW2 5355   5.662   2.888   4.639
 1486SOL     OW 5356   4.809   2.034   2.326
 1486SOL    HW1 5357   4.820   2.125   2.286
 1486SOL    HW2 5358   4.889   2.012   2.381
 1487SOL     OW 5359   6.515   1.272   5.158
 1487SOL    HW1 5360   6.521   1.195   5.095
 1487SOL    HW2 5361   6.431   1.264   5.213
 1488SOL     OW 5362   4.196   1.936   2.979
 1488SOL    HW1 5363   4.135   1.895   2.911
 1488SOL    HW2 5364   4.202   2.034   2.964
 1489SOL     OW 5365   4.034   4.880   4.623
 1489SOL    HW1 5366   4.060   4.846   4.713
 1489SOL    HW2 5367   4.030   4.980   4.624
 1490SOL     OW 5368   2.236   2.564   0.679
 1490SOL    HW1 5369   2.314   2.565   0.616
 1490SOL    HW2 5370   2.266   2.596   0.769
 1491SOL     OW 5371   0.158   2.328   5.612
 1491SOL    HW1 5372   0.245   2.347   5.658
 1491SOL    HW2 5373   0.163   2.361   5.517
 1492SOL     OW 5374   5.253   2.565   1.996
 1492SOL    HW1 5375   5.213   2.485   1.951
 1492SOL    HW2 5376   5.232   2.647   1.943
 1493SOL     OW 5377   5.405   0.618   4.956
 1493SOL    HW1 5378   5.339   0.632   4.882
 1493SOL    HW2 5379   5.359   0.632   5.044
 1494SOL     OW 5380   5.162   2.011   4.291
 1494SOL    HW1 5381   5.259   2.014   4.270
 1494SOL    HW2 5382   5.121   2.101   4.272
 1495SOL     OW 5383   2.084   2.478   2.557
 1495SOL    HW1 5384   2.140   2.442   2.631
 1495SOL    HW2 5385   2.088   2.578   2.557
 1496SOL     OW 5386   0.905   1.355   3.223
 1496SOL    HW1 5387   0.847   1.407   3.285
 1496SOL    HW2 5388   0.941   1.274   3.269
 1497SOL     OW 5389   4.890   4.514   5.959
 1497SOL    HW1 5390   4.856   4.544   6.048
 1497SOL    HW2 5391   4.905   4.594   5.901
 1498SOL     OW 5392   1.786   5.726   0.021
 1498SOL    HW1 5393   1.866   5.754   6.989
 1498SOL    HW2 5394   1.816   5.685   0.107
 1499SOL     OW 5395   0.617   4.892   4.946
 1499SOL    HW1 5396   0.623   4.865   4.850
 1499SOL    HW2 5397   0.646   4.987   4.956
 1500SOL     OW 5398   4.204   6.649   5.393
 1500SOL    HW1 5399   4.230   6.732   5.344
 1500SOL    HW2 5400   4.276   6.580   5.383
 1501SOL     OW 5401   4.284   0.395   6.407
 1501SOL    HW1 5402   4.271   0.488   6.441
 1501SOL    HW2 5403   4.235   0.331   6.465
 1502SOL     OW 5404   6.592   6.523   0.104
 1502SOL    HW1 5405   6.685   6.554   0.124
 1502SOL    HW2 5406   6.546   6.497   0.189
 1503SOL     OW 5407   3.267   3.550   5.249
 1503SOL    HW1 5408   3.326   3.540   5.169
 1503SOL    HW2 5409   3.252   3.647   5.267
 1504SOL     OW 5410   2.525   6.311   4.221
 1504SOL    HW1 5411   2.503   6.227   4.269
 1504SOL    HW2 5412   2.612   6.300   4.173
 1505SOL     OW 5413   4.999   4.886   1.468
 1505SOL    HW1 5414   4.911   4.870   1.513
 1505SOL    HW2 5415   5.025   4.804   1.417
 1506SOL     OW 5416   0.869   6.478   2.980
 1506SOL    HW1 5417   0.802   6.418   2.936
 1506SOL    HW2 5418   0.854   6.572   2.950
 1507SOL     OW 5419   1.972   0.617   6.330
 1507SOL    HW1 5420   1.944   0.671   6.250
 1507SOL    HW2 5421   2.019   0.676   6.395
 1508SOL     OW 5422   4.616   0.057   0.432
 1508SOL    HW1 5423   4.635   7.008   0.362
 1508SOL    HW2 5424   4.521   0.049   0.462
 1509SOL     OW 5425   5.230   1.657   0.637
 1509SOL    HW1 5426   5.247   1.713   0.556
 1509SOL    HW2 5427   5.156   1.698   0.690
 1510SOL     OW 5428   0.306   2.055   3.790
 1510SOL    HW1 5429   0.272   1.970   3.750
 1510SOL    HW2 5430   0.366   2.035   3.866
 1511SOL     OW 5431   1.427   2.507   0.580
 1511SOL    HW1 5432   1.444   2.603   0.556
 1511SOL    HW2 5433   1.395   2.502   0.675
 1512SOL     OW 5434   5.827   0.371   2.200
 1512SOL    HW1 5435   5.909   0.319   2.226
 1512SOL    HW2 5436   5.752   0.346   2.262
 1513SOL     OW 5437   3.993   1.272   2.944
 1513SOL    HW1 5438   3.986   1.262   2.844
 1513SOL    HW2 5439   3.940   1.352   2.972
 1514SOL     OW 5440   5.296   1.349   5.994
 1514SOL    HW1 5441   5.244   1.408   6.055
 1514SOL    HW2 5442   5.333   1.403   5.919
 1515SOL     OW 5443   6.461   5.158   5.085
 1515SOL    HW1 5444   6.514   5.134   5.003
 1515SOL    HW2 5445   6.391   5.089   5.101
 1516SOL     OW 5446   0.890   1.164   1.045
 1516SOL    HW1 5447   0.832   1.245   1.047
 1516SOL    HW2 5448   0.974   1.184   0.996
 1517SOL     OW 5449   3.627   4.893   3.478
 1517SOL    HW1 5450   3.686   4.889   3.558
 1517SOL    HW2 5451   3.532   4.902   3.508
 1518SOL     OW 5452   0.814   4.746   1.376
 1518SOL    HW1 5453   0.866   4.696   1.446
 1518SOL    HW2 5454   0.721   4.710   1.373
 1519SOL     OW 5455   6.981   5.179   1.091
 1519SOL    HW1 5456   0.045   5.230   1.105
 1519SOL    HW2 5457   6.975   5.148   0.996
 1520SOL     OW 5458   1.571   2.735   3.073
 1520SOL    HW1 5459   1.496   2.687   3.118
 1520SOL    HW2 5460   1.538   2.775   2.988
 1521SOL     OW 5461   2.677   4.383   5.651
 1521SOL    HW1 5462   2.684   4.381   5.552
 1521SOL    HW2 5463   2.697   4.475   5.685
 1522SOL     OW 5464   0.306   2.500   6.735
 1522SOL    HW1 5465   0.395   2.480   6.777
 1522SOL    HW2 5466   0.256   2.566   6.791
 1523SOL     OW 5467   6.595   1.140   1.056
 1523SOL    HW1 5468   6.510   1.192   1.052
 1523SOL    HW2 5469   6.659   1.185   1.118
 1524SOL     OW 5470   6.273   0.916   2.765
 1524SOL    HW1 5471   6.209   0.841   2.780
 1524SOL    HW2 5472   6.365   0.879   2.754
 1525SOL     OW 5473   4.423   1.491   5.957
 1525SOL    HW1 5474   4.338   1.497   5.904
 1525SOL    HW2 5475   4.499   1.527   5.903
 1526SOL     OW 5476   6.843   1.750   1.069
 1526SOL    HW1 5477   6.879   1.709   0.985
 1526SOL    HW2 5478   6.902   1.726   1.146
 1527SOL     OW 5479   3.152   2.235   5.658
 1527SOL    HW1 5480   3.065   2.187   5.670
 1527SOL    HW2 5481   3.167   2.253   5.561
 1528SOL     OW 5482   5.249   6.023   3.349
 1528SOL    HW1 5483   5.184   5.966   3.399
 1528SOL    HW2 5484   5.243   6.002   3.251
 1529SOL     OW 5485   3.261   0.628   5.524
 1529SOL    HW1 5486   3.302   0.719   5.525
 1529SOL    HW2 5487   3.303   0.572   5.595
 1530SOL     OW 5488   3.240   0.181   2.563
 1530SOL    HW1 5489   3.218   0.095   2.516
 1530SOL    HW2 5490   3.274   0.247   2.496
 1531SOL     OW 5491   6.662   0.260   5.517
 1531SOL    HW1 5492   6.760   0.262   5.501
 1531SOL    HW2 5493   6.616   0.322   5.453
 1532SOL     OW 5494   3.382   2.092   5.186
 1532SOL    HW1 5495   3.342   2.174   5.144
 1532SOL    HW2 5496   3.359   2.012   5.130
 1533SOL     OW 5497   5.561   2.993   6.737
 1533SOL    HW1 5498   5.555   3.082   6.782
 1533SOL    HW2 5499   5.638   2.992   6.673
 1534SOL     OW 5500   6.871   6.710   1.866
 1534SOL    HW1 5501   6.912   6.787   1.914
 1534SOL    HW2 5502   6.933   6.631   1.871
 1535SOL     OW 5503   4.932   5.396   4.071
 1535SOL    HW1 5504   4.843   5.410   4.114
 1535SOL    HW2 5505   4.978   5.319   4.114
 1536SOL     OW 5506   2.892   5.582   3.715
 1536SOL    HW1 5507   2.807   5.551   3.757
 1536SOL    HW2 5508   2.968   5.564   3.776
 1537SOL     OW 5509   2.743   5.091   4.020
 1537SOL    HW1 5510   2.770   5.005   4.064
 1537SOL    HW2 5511   2.728   5.161   4.090
 1538SOL     OW 5512   2.584   5.092   6.568
 1538SOL    HW1 5513   2.603   4.999   6.598
 1538SOL    HW2 5514   2.634   5.111   6.483
 1539SOL     OW 5515   3.273   4.860   1.724
 1539SOL    HW1 5516   3.323   4.777   1.699
 1539SOL    HW2 5517   3.263   4.918   1.643
 1540SOL     OW 5518   7.011   6.835   5.175
 1540SOL    HW1 5519   6.937   6.801   5.117
 1540SOL    HW2 5520   0.006   6.772   5.251
 1541SOL     OW 5521   5.049   2.327   1.079
 1541SOL    HW1 5522   5.038   2.424   1.061
 1541SOL    HW2 5523   5.139   2.297   1.048
 1542SOL     OW 5524   0.722   6.133   1.092
 1542SOL    HW1 5525   0.783   6.054   1.099
 1542SOL    HW2 5526   0.627   6.102   1.093
 1543SOL     OW 5527   3.380   4.104   4.215
 1543SOL    HW1 5528   3.285   4.101   4.246
 1543SOL    HW2 5529   3.405   4.015   4.177
 1544SOL     OW 5530   4.036   3.687   2.846
 1544SOL    HW1 5531   4.020   3.784   2.862
 1544SOL    HW2 5532   4.097   3.651   2.916
 1545SOL     OW 5533   6.365   0.845   4.661
 1545SOL    HW1 5534   6.314   0.879   4.740
 1545SOL    HW2 5535   6.324   0.881   4.577
 1546SOL     OW 5536   0.128   6.379   5.938
 1546SOL    HW1 5537   0.190   6.408   6.011
 1546SOL    HW2 5538   0.181   6.352   5.858
 1547SOL     OW 5539   3.780   5.998   6.708
 1547SOL    HW1 5540   3.732   5.936   6.646
 1547SOL    HW2 5541   3.729   6.003   6.794
 1548SOL     OW 5542   6.455   4.580   3.790
 1548SOL    HW1 5543   6.363   4.617   3.773
 1548SOL    HW2 5544   6.518   4.617   3.721
 1549SOL     OW 5545   6.365   1.701   1.404
 1549SOL    HW1 5546   6.331   1.776   1.461
 1549SOL    HW2 5547   6.460   1.718   1.380
 1550SOL     OW 5548   2.720   5.669   3.457
 1550SOL    HW1 5549   2.798   5.676   3.519
 1550SOL    HW2 5550   2.719   5.748   3.396
 1551SOL     OW 5551   0.874   3.162   1.223
 1551SOL    HW1 5552   0.816   3.169   1.305
 1551SOL    HW2 5553   0.959   3.115   1.247
 1552SOL     OW 5554   0.887   6.894   0.544
 1552SOL    HW1 5555   0.963   6.856   0.597
 1552SOL    HW2 5556   0.895   6.994   0.541
 1553SOL     OW 5557   5.724   1.835   6.347
 1553SOL    HW1 5558   5.656   1.824   6.419
 1553SOL    HW2 5559   5.735   1.749   6.298
 1554SOL     OW 5560   3.002   1.712   1.030
 1554SOL    HW1 5561   3.052   1.655   0.965
 1554SOL    HW2 5562   3.064   1.779   1.070
 1555SOL     OW 5563   4.532   1.175   6.341
 1555SOL    HW1 5564   4.579   1.207   6.424
 1555SOL    HW2 5565   4.504   1.254   6.286
 1556SOL     OW 5566   3.180   1.908   0.106
 1556SOL    HW1 5567   3.204   1.872   0.195
 1556SOL    HW2 5568   3.250   1.972   0.075
 1557SOL     OW 5569   1.869   3.091   0.446
 1557SOL    HW1 5570   1.960   3.104   0.487
 1557SOL    HW2 5571   1.849   2.993   0.439
 1558SOL     OW 5572   5.303   2.969   5.905
 1558SOL    HW1 5573   5.365   2.990   5.830
 1558SOL    HW2 5574   5.245   2.891   5.880
 1559SOL     OW 5575   2.449   5.024   3.756
 1559SOL    HW1 5576   2.447   4.927   3.780
 1559SOL    HW2 5577   2.542   5.059   3.767
 1560SOL     OW 5578   3.952   1.560   0.927
 1560SOL    HW1 5579   3.923   1.655   0.917
 1560SOL    HW2 5580   3.997   1.529   0.843
 1561SOL     OW 5581   6.057   6.075   1.163
 1561SOL    HW1 5582   6.045   6.125   1.249
 1561SOL    HW2 5583   6.148   6.094   1.126
 1562SOL     OW 5584   3.604   0.190   2.338
 1562SOL    HW1 5585   3.638   0.283   2.327
 1562SOL    HW2 5586   3.527   0.176   2.276
 1563SOL     OW 5587   2.837   2.306   4.027
 1563SOL    HW1 5588   2.816   2.378   4.093
 1563SOL    HW2 5589   2.927   2.266   4.048
 1564SOL     OW 5590   0.978   1.435   2.927
 1564SOL    HW1 5591   0.916   1.368   2.967
 1564SOL    HW2 5592   1.069   1.426   2.968
 1565SOL     OW 5593   4.160   1.014   4.909
 1565SOL    HW1 5594   4.244   1.025   4.961
 1565SOL    HW2 5595   4.118   1.104   4.895
 1566SOL     OW 5596   5.186   4.813   3.323
 1566SOL    HW1 5597   5.196   4.771   3.232
 1566SOL    HW2 5598   5.135   4.751   3.383
 1567SOL     OW 5599   5.439   0.919   4.514
 1567SOL    HW1 5600   5.375   0.985   4.476
 1567SOL    HW2 5601   5.461   0.849   4.445
 1568SOL     OW 5602   3.013   5.077   1.306
 1568SOL    HW1 5603   3.042   5.113   1.395
 1568SOL    HW2 5604   2.937   5.133   1.271
 1569SOL     OW 5605   3.057   0.896   3.069
 1569SOL    HW1 5606   3.072   0.993   3.091
 1569SOL    HW2 5607   3.101   0.839   3.138
 1570SOL     OW 5608   3.170   5.832   6.176
 1570SOL    HW1 5609   3.169   5.820   6.275
 1570SOL    HW2 5610   3.123   5.755   6.133
 1571SOL     OW 5611   0.343   2.668   4.003
 1571SOL    HW1 5612   0.285   2.587   4.005
 1571SOL    HW2 5613   0.376   2.687   4.096
 1572SOL     OW 5614   2.582   5.259   3.005
 1572SOL    HW1 5615   2.535   5.254   2.918
 1572SOL    HW2 5616   2.677   5.286   2.990
 1573SOL     OW 5617   5.910   6.274   0.095
 1573SOL    HW1 5618   5.978   6.298   0.026
 1573SOL    HW2 5619   5.945   6.299   0.185
 1574SOL     OW 5620   6.683   3.823   3.687
 1574SOL    HW1 5621   6.671   3.749   3.622
 1574SOL    HW2 5622   6.603   3.829   3.747
 1575SOL     OW 5623   0.030   2.002   0.035
 1575SOL    HW1 5624   0.041   2.092   0.077
 1575SOL    HW2 5625   6.969   1.958   0.071
 1576SOL     OW 5626   0.996   6.919   1.488
 1576SOL    HW1 5627   1.032   6.853   1.421
 1576SOL    HW2 5628   1.071   6.975   1.523
 1577SOL     OW 5629   3.927   5.790   5.628
 1577SOL    HW1 5630   3.846   5.777   5.571
 1577SOL    HW2 5631   3.926   5.724   5.703
 1578SOL     OW 5632   4.788   0.971   1.072
 1578SOL    HW1 5633   4.770   1.044   1.138
 1578SOL    HW2 5634   4.822   1.010   0.987
 1579SOL     OW 5635   1.772   2.682   1.398
 1579SOL    HW1 5636   1.813   2.605   1.350
 1579SOL    HW2 5637   1.833   2.761   1.393
 1580SOL     OW 5638   3.311   3.556   2.729
 1580SOL    HW1 5639   3.263   3.537   2.815
 1580SOL    HW2 5640   3.294   3.650   2.702
 1581SOL     OW 5641   6.175   4.703   5.885
 1581SOL    HW1 5642   6.268   4.672   5.862
 1581SOL    HW2 5643   6.108   4.646   5.837
 1582SOL     OW 5644   4.518   6.222   5.285
 1582SOL    HW1 5645   4.586   6.249   5.217
 1582SOL    HW2 5646   4.505   6.123   5.281
 1583SOL     OW 5647   1.137   5.056   4.785
 1583SOL    HW1 5648   1.228   5.071   4.824
 1583SOL    HW2 5649   1.134   5.093   4.692
 1584SOL     OW 5650   6.816   4.636   0.140
 1584SOL    HW1 5651   6.791   4.643   0.237
 1584SOL    HW2 5652   6.794   4.544   0.106
 1585SOL     OW 5653   4.102   6.596   3.692
 1585SOL    HW1 5654   4.158   6.551   3.623
 1585SOL    HW2 5655   4.098   6.694   3.673
 1586SOL     OW 5656   3.572   6.068   3.721
 1586SOL    HW1 5657   3.531   6.114   3.643
 1586SOL    HW2 5658   3.500   6.023   3.775
 1587SOL     OW 5659   2.972   5.875   6.733
 1587SOL    HW1 5660   3.018   5.919   6.809
 1587SOL    HW2 5661   2.936   5.945   6.671
 1588SOL     OW 5662   6.593   1.684   3.358
 1588SOL    HW1 5663   6.614   1.732   3.273
 1588SOL    HW2 5664   6.538   1.603   3.337
 1589SOL     OW 5665   6.134   4.425   4.134
 1589SOL    HW1 5666   6.146   4.347   4.072
 1589SOL    HW2 5667   6.224   4.465   4.154
 1590SOL     OW 5668   6.504   2.656   3.756
 1590SOL    HW1 5669   6.565   2.730   3.728
 1590SOL    HW2 5670   6.432   2.693   3.815
 1591SOL     OW 5671   1.486   6.420   1.457
 1591SOL    HW1 5672   1.443   6.495   1.408
 1591SOL    HW2 5673   1.461   6.333   1.414
 1592SOL     OW 5674   0.003   4.393   6.074
 1592SOL    HW1 5675   0.002   4.329   6.151
 1592SOL    HW2 5676   6.954   4.464   6.089
 1593SOL     OW 5677   3.364   0.539   6.951
 1593SOL    HW1 5678   3.341   0.602   6.876
 1593SOL    HW2 5679   3.284   0.484   6.975
 1594SOL     OW 5680   5.856   0.229   2.717
 1594SOL    HW1 5681   5.813   0.299   2.661
 1594SOL    HW2 5682   5.788   0.163   2.747
 1595SOL     OW 5683   6.974   3.851   0.525
 1595SOL    HW1 5684   6.967   3.950   0.528
 1595SOL    HW2 5685   7.000   3.822   0.433
 1596SOL     OW 5686   4.154   4.738   3.113
 1596SOL    HW1 5687   4.203   4.704   3.033
 1596SOL    HW2 5688   4.175   4.680   3.192
 1597SOL     OW 5689   3.792   5.787   6.499
 1597SOL    HW1 5690   3.874   5.748   6.540
 1597SOL    HW2 5691   3.814   5.826   6.410
 1598SOL     OW 5692   1.734   4.516   0.168
 1598SOL    HW1 5693   1.665   4.530   0.096
 1598SOL    HW2 5694   1.704   4.560   0.252
 1599SOL     OW 5695   4.508   5.979   3.153
 1599SOL    HW1 5696   4.458   5.948   3.072
 1599SOL    HW2 5697   4.496   6.077   3.163
 1600SOL     OW 5698   4.131   0.290   1.925
 1600SOL    HW1 5699   4.092   0.381   1.914
 1600SOL    HW2 5700   4.096   0.230   1.853
 1601SOL     OW 5701   6.649   0.182   5.057
 1601SOL    HW1 5702   6.712   0.120   5.105
 1601SOL    HW2 5703   6.698   0.232   4.987
 1602SOL     OW 5704   3.752   5.944   3.868
 1602SOL    HW1 5705   3.772   5.982   3.958
 1602SOL    HW2 5706   3.678   5.996   3.825
 1603SOL     OW 5707   3.357   5.597   3.299
 1603SOL    HW1 5708   3.393   5.535   3.229
 1603SOL    HW2 5709   3.431   5.656   3.332
 1604SOL     OW 5710   4.287   5.348   1.739
 1604SOL    HW1 5711   4.247   5.439   1.724
 1604SOL    HW2 5712   4.313   5.308   1.652
 1605SOL     OW 5713   4.487   5.354   0.900
 1605SOL    HW1 5714   4.506   5.313   0.989
 1605SOL    HW2 5715   4.466   5.451   0.911
 1606SOL     OW 5716   3.498   5.799   4.862
 1606SOL    HW1 5717   3.541   5.874   4.814
 1606SOL    HW2 5718   3.413   5.773   4.816
 1607SOL     OW 5719   4.814   5.641   2.739
 1607SOL    HW1 5720   4.752   5.564   2.725
 1607SOL    HW2 5721   4.792   5.687   2.825
 1608SOL     OW 5722   5.386   1.472   3.350
 1608SOL    HW1 5723   5.309   1.531   3.329
 1608SOL    HW2 5724   5.469   1.527   3.360
 1609SOL     OW 5725   2.270   6.664   1.096
 1609SOL    HW1 5726   2.361   6.654   1.055
 1609SOL    HW2 5727   2.205   6.609   1.044
 1610SOL     OW 5728   5.552   6.874   0.644
 1610SOL    HW1 5729   5.648   6.896   0.625
 1610SOL    HW2 5730   5.543   6.776   0.658
 1611SOL     OW 5731   1.417   4.641   0.890
 1611SOL    HW1 5732   1.496   4.702   0.885
 1611SOL    HW2 5733   1.447   4.551   0.922
 1612SOL     OW 5734   3.645   0.441   2.387
 1612SOL    HW1 5735   3.624   0.534   2.357
 1612SOL    HW2 5736   3.742   0.434   2.410
 1613SOL     OW 5737   6.712   5.734   2.355
 1613SOL    HW1 5738   6.647   5.736   2.279
 1613SOL    HW2 5739   6.665   5.701   2.437
 1614SOL     OW 5740   6.238   1.895   6.150
 1614SOL    HW1 5741   6.286   1.928   6.068
 1614SOL    HW2 5742   6.286   1.927   6.231
 1615SOL     OW 5743   0.807   4.006   6.345
 1615SOL    HW1 5744   0.794   3.908   6.332
 1615SOL    HW2 5745   0.793   4.053   6.258
 1616SOL     OW 5746   1.709   1.425   4.670
 1616SOL    HW1 5747   1.719   1.523   4.688
 1616SOL    HW2 5748   1.717   1.408   4.572
 1617SOL     OW 5749   6.460   6.568   3.133
 1617SOL    HW1 5750   6.480   6.665   3.118
 1617SOL    HW2 5751   6.544   6.519   3.155
 1618SOL     OW 5752   3.049   5.813   3.135
 1618SOL    HW1 5753   3.043   5.735   3.198
 1618SOL    HW2 5754   3.084   5.782   3.047
 1619SOL     OW 5755   1.266   4.221   0.173
 1619SOL    HW1 5756   1.187   4.192   0.119
 1619SOL    HW2 5757   1.330   4.272   0.115
 1620SOL     OW 5758   3.537   5.257   5.491
 1620SOL    HW1 5759   3.595   5.323   5.538
 1620SOL    HW2 5760   3.533   5.172   5.543
 1621SOL     OW 5761   5.112   5.924   0.776
 1621SOL    HW1 5762   5.103   5.930   0.876
 1621SOL    HW2 5763   5.198   5.967   0.748
 1622SOL     OW 5764   6.769   5.022   4.436
 1622SOL    HW1 5765   6.868   5.014   4.440
 1622SOL    HW2 5766   6.730   4.934   4.407
 1623SOL     OW 5767   0.170   2.274   3.659
 1623SOL    HW1 5768   0.099   2.257   3.592
 1623SOL    HW2 5769   0.190   2.190   3.710
 1624SOL     OW 5770   4.198   1.939   0.785
 1624SOL    HW1 5771   4.243   1.862   0.739
 1624SOL    HW2 5772   4.166   2.005   0.717
 1625SOL     OW 5773   0.626   5.763   1.252
 1625SOL    HW1 5774   0.595   5.691   1.191
 1625SOL    HW2 5775   0.550   5.825   1.273
 1626SOL     OW 5776   2.845   2.382   1.101
 1626SOL    HW1 5777   2.776   2.448   1.131
 1626SOL    HW2 5778   2.881   2.333   1.180
 1627SOL     OW 5779   4.300   1.523   5.321
 1627SOL    HW1 5780   4.227   1.525   5.389
 1627SOL    HW2 5781   4.348   1.611   5.321
 1628SOL     OW 5782   5.365   6.472   0.891
 1628SOL    HW1 5783   5.460   6.471   0.861
 1628SOL    HW2 5784   5.317   6.547   0.846
 1629SOL     OW 5785   2.069   0.587   3.879
 1629SOL    HW1 5786   2.050   0.534   3.796
 1629SOL    HW2 5787   2.124   0.667   3.856
 1630SOL     OW 5788   0.486   3.997   6.684
 1630SOL    HW1 5789   0.441   3.980   6.595
 1630SOL    HW2 5790   0.550   3.923   6.703
 1631SOL     OW 5791   6.823   3.956   0.070
 1631SOL    HW1 5792   6.740   3.938   0.123
 1631SOL    HW2 5793   6.798   3.976   6.996
 1632SOL     OW 5794   6.565   5.535   2.540
 1632SOL    HW1 5795   6.607   5.445   2.544
 1632SOL    HW2 5796   6.478   5.529   2.491
 1633SOL     OW 5797   5.487   3.934   4.176
 1633SOL    HW1 5798   5.491   4.031   4.203
 1633SOL    HW2 5799   5.498   3.877   4.257
 1634SOL     OW 5800   6.657   1.805   4.401
 1634SOL    HW1 5801   6.755   1.798   4.382
 1634SOL    HW2 5802   6.637   1.765   4.490
 1635SOL     OW 5803   3.810   6.586   2.912
 1635SOL    HW1 5804   3.813   6.685   2.927
 1635SOL    HW2 5805   3.795   6.567   2.815
 1636SOL     OW 5806   6.072   6.128   1.475
 1636SOL    HW1 5807   6.125   6.211   1.490
 1636SOL    HW2 5808   6.077   6.070   1.557
 1637SOL     OW 5809   0.903   0.015   1.788
 1637SOL    HW1 5810   0.902   6.936   1.798
 1637SOL    HW2 5811   0.833   0.043   1.723
 1638SOL     OW 5812   6.143   2.673   1.792
 1638SOL    HW1 5813   6.132   2.692   1.890
 1638SOL    HW2 5814   6.103   2.584   1.771
 1639SOL     OW 5815   5.748   2.417   2.636
 1639SOL    HW1 5816   5.709   2.351   2.701
 1639SOL    HW2 5817   5.705   2.506   2.650
 1640SOL     OW 5818   6.777   0.322   6.941
 1640SOL    HW1 5819   6.870   0.288   6.956
 1640SOL    HW2 5820   6.711   0.249   6.959
 1641SOL     OW 5821   6.455   2.267   2.969
 1641SOL    HW1 5822   6.543   2.299   2.934
 1641SOL    HW2 5823   6.384   2.281   2.899
 1642SOL     OW 5824   6.935   2.692   6.088
 1642SOL    HW1 5825   6.866   2.746   6.040
 1642SOL    HW2 5826   7.005   2.662   6.023
 1643SOL     OW 5827   2.475   6.095   3.958
 1643SOL    HW1 5828   2.574   6.081   3.965
 1643SOL    HW2 5829   2.429   6.008   3.947
 1644SOL     OW 5830   5.955   2.560   1.427
 1644SOL    HW1 5831   5.866   2.530   1.460
 1644SOL    HW2 5832   6.026   2.530   1.490
 1645SOL     OW 5833   2.271   0.779   6.034
 1645SOL    HW1 5834   2.189   0.835   6.023
 1645SOL    HW2 5835   2.246   0.682   6.025
 1646SOL     OW 5836   1.194   4.603   0.767
 1646SOL    HW1 5837   1.119   4.668   0.776
 1646SOL    HW2 5838   1.276   4.640   0.810
 1647SOL     OW 5839   5.546   2.290   4.021
 1647SOL    HW1 5840   5.588   2.364   3.968
 1647SOL    HW2 5841   5.614   2.219   4.040
 1648SOL     OW 5842   5.371   6.161   1.093
 1648SOL    HW1 5843   5.396   6.079   1.042
 1648SOL    HW2 5844   5.449   6.223   1.097
 1649SOL     OW 5845   3.710   0.555   3.507
 1649SOL    HW1 5846   3.647   0.478   3.513
 1649SOL    HW2 5847   3.681   0.628   3.569
 1650SOL     OW 5848   2.962   3.826   6.964
 1650SOL    HW1 5849   2.910   3.740   6.964
 1650SOL    HW2 5850   3.059   3.806   6.953
 1651SOL     OW 5851   1.070   2.879   3.358
 1651SOL    HW1 5852   1.066   2.805   3.426
 1651SOL    HW2 5853   1.158   2.875   3.310
 1652SOL     OW 5854   0.153   3.130   1.453
 1652SOL    HW1 5855   0.148   3.171   1.362
 1652SOL    HW2 5856   0.229   3.065   1.455
 1653SOL     OW 5857   0.295   4.434   3.006
 1653SOL    HW1 5858   0.279   4.441   2.907
 1653SOL    HW2 5859   0.222   4.481   3.055
 1654SOL     OW 5860   6.717   3.020   2.544
 1654SOL    HW1 5861   6.739   2.936   2.494
 1654SOL    HW2 5862   6.619   3.025   2.560
 1655SOL     OW 5863   6.925   0.115   4.725
 1655SOL    HW1 5864   6.978   0.083   4.647
 1655SOL    HW2 5865   6.845   0.056   4.737
 1656SOL     OW 5866   1.967   4.202   3.048
 1656SOL    HW1 5867   1.972   4.159   2.958
 1656SOL    HW2 5868   2.041   4.168   3.106
 1657SOL     OW 5869   1.263   6.892   5.802
 1657SOL    HW1 5870   1.295   6.981   5.770
 1657SOL    HW2 5871   1.287   6.881   5.899
 1658SOL     OW 5872   6.292   0.042   6.812
 1658SOL    HW1 5873   6.301   0.129   6.861
 1658SOL    HW2 5874   6.358   0.038   6.737
 1659SOL     OW 5875   4.289   6.841   6.517
 1659SOL    HW1 5876   4.344   6.867   6.438
 1659SOL    HW2 5877   4.332   6.878   6.600
 1660SOL     OW 5878   2.635   0.759   2.370
 1660SOL    HW1 5879   2.713   0.786   2.314
 1660SOL    HW2 5880   2.558   0.735   2.310
 1661SOL     OW 5881   4.250   4.680   2.874
 1661SOL    HW1 5882   4.247   4.582   2.855
 1661SOL    HW2 5883   4.169   4.724   2.837
 1662SOL     OW 5884   0.331   1.478   4.578
 1662SOL    HW1 5885   0.281   1.401   4.539
 1662SOL    HW2 5886   0.396   1.446   4.647
 1663SOL     OW 5887   4.630   5.014   0.146
 1663SOL    HW1 5888   4.662   4.938   0.202
 1663SOL    HW2 5889   4.536   4.997   0.116
 1664SOL     OW 5890   1.581   0.087   5.728
 1664SOL    HW1 5891   1.491   0.126   5.751
 1664SOL    HW2 5892   1.568   0.005   5.673
 1665SOL     OW 5893   2.559   4.159   0.033
 1665SOL    HW1 5894   2.460   4.151   0.029
 1665SOL    HW2 5895   2.589   4.152   0.128
 1666SOL     OW 5896   6.023   6.604   6.157
 1666SOL    HW1 5897   6.030   6.527   6.221
 1666SOL    HW2 5898   5.927   6.617   6.132
 1667SOL     OW 5899   0.314   6.297   1.344
 1667SOL    HW1 5900   0.300   6.382   1.393
 1667SOL    HW2 5901   0.382   6.241   1.393
 1668SOL     OW 5902   5.504   4.438   3.040
 1668SOL    HW1 5903   5.513   4.537   3.035
 1668SOL    HW2 5904   5.420   4.415   3.089
 1669SOL     OW 5905   6.136   3.487   5.456
 1669SOL    HW1 5906   6.058   3.479   5.518
 1669SOL    HW2 5907   6.104   3.479   5.362
 1670SOL     OW 5908   2.075   4.794   6.731
 1670SOL    HW1 5909   2.096   4.790   6.633
 1670SOL    HW2 5910   2.159   4.814   6.782
 1671SOL     OW 5911   5.629   2.261   1.074
 1671SOL    HW1 5912   5.708   2.216   1.033
 1671SOL    HW2 5913   5.606   2.343   1.022
 1672SOL     OW 5914   0.311   3.658   0.115
 1672SOL    HW1 5915   0.310   3.691   0.021
 1672SOL    HW2 5916   0.390   3.696   0.163
 1673SOL     OW 5917   1.659   0.961   4.604
 1673SOL    HW1 5918   1.606   0.979   4.687
 1673SOL    HW2 5919   1.680   0.864   4.598
 1674SOL     OW 5920   4.530   2.106   2.548
 1674SOL    HW1 5921   4.606   2.111   2.484
 1674SOL    HW2 5922   4.468   2.032   2.521
 1675SOL     OW 5923   5.374   0.714   1.157
 1675SOL    HW1 5924   5.386   0.807   1.194
 1675SOL    HW2 5925   5.422   0.706   1.070
 1676SOL     OW 5926   1.136   2.168   2.475
 1676SOL    HW1 5927   1.054   2.178   2.531
 1676SOL    HW2 5928   1.216   2.188   2.531
 1677SOL     OW 5929   4.090   3.197   3.272
 1677SOL    HW1 5930   4.082   3.296   3.284
 1677SOL    HW2 5931   4.034   3.150   3.339
 1678SOL     OW 5932   0.858   6.864   1.176
 1678SOL    HW1 5933   0.851   6.953   1.220
 1678SOL    HW2 5934   0.846   6.875   1.077
 1679SOL     OW 5935   0.589   1.932   6.246
 1679SOL    HW1 5936   0.666   1.909   6.185
 1679SOL    HW2 5937   0.625   1.959   6.335
 1680SOL     OW 5938   5.273   2.629   4.282
 1680SOL    HW1 5939   5.200   2.581   4.234
 1680SOL    HW2 5940   5.243   2.722   4.306
 1681SOL     OW 5941   2.434   6.069   4.379
 1681SOL    HW1 5942   2.449   6.141   4.446
 1681SOL    HW2 5943   2.397   5.988   4.425
 1682SOL     OW 5944   3.209   0.171   4.383
 1682SOL    HW1 5945   3.207   0.072   4.372
 1682SOL    HW2 5946   3.214   0.214   4.293
 1683SOL     OW 5947   6.144   5.005   2.856
 1683SOL    HW1 5948   6.236   4.977   2.884
 1683SOL    HW2 5949   6.094   4.927   2.819
 1684SOL     OW 5950   2.596   4.549   1.846
 1684SOL    HW1 5951   2.608   4.551   1.747
 1684SOL    HW2 5952   2.685   4.550   1.891
 1685SOL     OW 5953   0.138   1.420   5.022
 1685SOL    HW1 5954   0.156   1.342   4.963
 1685SOL    HW2 5955   0.050   1.461   4.998
 1686SOL     OW 5956   4.646   5.893   2.571
 1686SOL    HW1 5957   4.632   5.794   2.568
 1686SOL    HW2 5958   4.560   5.938   2.593
 1687SOL     OW 5959   5.543   4.207   2.202
 1687SOL    HW1 5960   5.521   4.142   2.275
 1687SOL    HW2 5961   5.559   4.157   2.116
 1688SOL     OW 5962   1.081   0.940   2.581
 1688SOL    HW1 5963   1.035   1.024   2.553
 1688SOL    HW2 5964   1.170   0.963   2.621
 1689SOL     OW 5965   4.394   0.886   0.999
 1689SOL    HW1 5966   4.398   0.851   1.093
 1689SOL    HW2 5967   4.472   0.853   0.947
 1690SOL     OW 5968   0.552   4.198   3.502
 1690SOL    HW1 5969   0.608   4.194   3.585
 1690SOL    HW2 5970   0.574   4.280   3.451
 1691SOL     OW 5971   4.522   2.848   5.271
 1691SOL    HW1 5972   4.437   2.895   5.293
 1691SOL    HW2 5973   4.555   2.798   5.352
 1692SOL     OW 5974   5.274   5.051   1.465
 1692SOL    HW1 5975   5.307   5.034   1.558
 1692SOL    HW2 5976   5.184   5.008   1.453
 1693SOL     OW 5977   5.597   6.921   4.946
 1693SOL    HW1 5978   5.692   6.910   4.915
 1693SOL    HW2 5979   5.596   6.976   5.029
 1694SOL     OW 5980   4.966   1.733   5.882
 1694SOL    HW1 5981   5.016   1.677   5.816
 1694SOL    HW2 5982   5.005   1.721   5.973
 1695SOL     OW 5983   4.355   0.839   6.661
 1695SOL    HW1 5984   4.299   0.896   6.721
 1695SOL    HW2 5985   4.451   0.866   6.668
 1696SOL     OW 5986   5.081   6.320   0.307
 1696SOL    HW1 5987   5.101   6.249   0.375
 1696SOL    HW2 5988   5.118   6.293   0.218
 1697SOL     OW 5989   5.330   2.142   2.377
 1697SOL    HW1 5990   5.319   2.241   2.381
 1697SOL    HW2 5991   5.243   2.099   2.357
 1698SOL     OW 5992   4.144   0.809   1.547
 1698SOL    HW1 5993   4.117   0.879   1.480
 1698SOL    HW2 5994   4.141   0.719   1.504
 1699SOL     OW 5995   2.563   6.611   0.249
 1699SOL    HW1 5996   2.572   6.635   0.346
 1699SOL    HW2 5997   2.467   6.614   0.222
 1700SOL     OW 5998   6.409   2.353   2.683
 1700SOL    HW1 5999   6.359   2.364   2.597
 1700SOL    HW2 6000   6.505   2.332   2.663
 1701SOL     OW 6001   0.037   5.847   4.690
 1701SOL    HW1 6002   0.117   5.905   4.673
 1701SOL    HW2 6003   6.976   5.904   4.700
 1702SOL     OW 6004   1.922   2.429   6.125
 1702SOL    HW1 6005   1.981   2.397   6.051
 1702SOL    HW2 6006   1.940   2.525   6.144
 1703SOL     OW 6007   2.653   1.996   1.167
 1703SOL    HW1 6008   2.677   1.900   1.163
 1703SOL    HW2 6009   2.644   2.025   1.263
 1704SOL     OW 6010   3.031   2.180   0.702
 1704SOL    HW1 6011   3.117   2.144   0.737
 1704SOL    HW2 6012   3.033   2.180   0.602
 1705SOL     OW 6013   4.008   2.046   0.464
 1705SOL    HW1 6014   3.955   2.123   0.500
 1705SOL    HW2 6015   4.106   2.069   0.466
 1706SOL     OW 6016   5.059   2.274   6.938
 1706SOL    HW1 6017   5.146   2.322   6.951
 1706SOL    HW2 6018   5.070   2.178   6.962
 1707SOL     OW 6019   4.505   2.136   3.005
 1707SOL    HW1 6020   4.428   2.173   2.954
 1707SOL    HW2 6021   4.486   2.142   3.103
 1708SOL     OW 6022   3.337   4.942   1.976
 1708SOL    HW1 6023   3.295   4.917   1.888
 1708SOL    HW2 6024   3.413   4.881   1.996
 1709SOL     OW 6025   4.751   5.073   0.931
 1709SOL    HW1 6026   4.814   5.036   1.000
 1709SOL    HW2 6027   4.785   5.052   0.840
 1710SOL     OW 6028   5.138   5.113   2.995
 1710SOL    HW1 6029   5.131   5.105   2.895
 1710SOL    HW2 6030   5.175   5.203   3.019
 1711SOL     OW 6031   4.313   4.380   6.627
 1711SOL    HW1 6032   4.323   4.409   6.532
 1711SOL    HW2 6033   4.384   4.423   6.683
 1712SOL     OW 6034   0.557   1.295   2.517
 1712SOL    HW1 6035   0.599   1.215   2.474
 1712SOL    HW2 6036   0.510   1.350   2.448
 1713SOL     OW 6037   4.063   0.391   3.164
 1713SOL    HW1 6038   4.076   0.402   3.065
 1713SOL    HW2 6039   3.967   0.408   3.187
 1714SOL     OW 6040   3.863   3.428   0.282
 1714SOL    HW1 6041   3.769   3.413   0.312
 1714SOL    HW2 6042   3.915   3.472   0.356
 1715SOL     OW 6043   2.013   6.846   2.459
 1715SOL    HW1 6044   1.986   6.867   2.553
 1715SOL    HW2 6045   2.107   6.875   2.444
 1716SOL     OW 6046   5.059   1.492   3.942
 1716SOL    HW1 6047   5.113   1.442   3.874
 1716SOL    HW2 6048   4.965   1.502   3.909
 1717SOL     OW 6049   3.241   6.519   5.241
 1717SOL    HW1 6050   3.335   6.490   5.256
 1717SOL    HW2 6051   3.207   6.565   5.323
 1718SOL     OW 6052   1.376   2.766   1.025
 1718SOL    HW1 6053   1.454   2.798   1.079
 1718SOL    HW2 6054   1.310   2.720   1.085
 1719SOL     OW 6055   1.390   5.622   2.622
 1719SOL    HW1 6056   1.310   5.682   2.629
 1719SOL    HW2 6057   1.392   5.560   2.700
 1720SOL     OW 6058   0.818   3.185   5.942
 1720SOL    HW1 6059   0.795   3.095   5.979
 1720SOL    HW2 6060   0.800   3.255   6.012
 1721SOL     OW 6061   1.271   1.890   0.451
 1721SOL    HW1 6062   1.187   1.838   0.434
 1721SOL    HW2 6063   1.248   1.985   0.471
 1722SOL     OW 6064   2.326   2.757   3.490
 1722SOL    HW1 6065   2.342   2.758   3.588
 1722SOL    HW2 6066   2.337   2.663   3.455
 1723SOL     OW 6067   5.701   3.664   0.576
 1723SOL    HW1 6068   5.610   3.707   0.574
 1723SOL    HW2 6069   5.761   3.717   0.635
 1724SOL     OW 6070   5.785   1.981   1.338
 1724SOL    HW1 6071   5.785   1.950   1.433
 1724SOL    HW2 6072   5.775   2.080   1.335
 1725SOL     OW 6073   1.288   6.121   6.747
 1725SOL    HW1 6074   1.308   6.150   6.654
 1725SOL    HW2 6075   1.210   6.173   6.783
 1726SOL     OW 6076   5.254   4.116   3.189
 1726SOL    HW1 6077   5.190   4.191   3.204
 1726SOL    HW2 6078   5.215   4.032   3.228
 1727SOL     OW 6079   2.935   3.749   3.431
 1727SOL    HW1 6080   2.989   3.800   3.364
 1727SOL    HW2 6081   2.839   3.776   3.423
 1728SOL     OW 6082   5.067   2.246   4.235
 1728SOL    HW1 6083   5.124   2.273   4.157
 1728SOL    HW2 6084   5.057   2.323   4.298
 1729SOL     OW 6085   1.490   2.904   2.837
 1729SOL    HW1 6086   1.413   2.954   2.877
 1729SOL    HW2 6087   1.564   2.968   2.818
 1730SOL     OW 6088   2.506   5.126   4.765
 1730SOL    HW1 6089   2.457   5.197   4.715
 1730SOL    HW2 6090   2.498   5.142   4.863
 1731SOL     OW 6091   6.199   4.650   3.753
 1731SOL    HW1 6092   6.185   4.749   3.757
 1731SOL    HW2 6093   6.136   4.605   3.816
 1732SOL     OW 6094   2.538   3.493   5.596
 1732SOL    HW1 6095   2.454   3.493   5.540
 1732SOL    HW2 6096   2.547   3.405   5.641
 1733SOL     OW 6097   2.369   3.810   6.177
 1733SOL    HW1 6098   2.304   3.862   6.122
 1733SOL    HW2 6099   2.335   3.802   6.271
 1734SOL     OW 6100   6.800   3.048   1.270
 1734SOL    HW1 6101   6.858   2.969   1.292
 1734SOL    HW2 6102   6.839   3.097   1.192
 1735SOL     OW 6103   4.197   4.567   6.193
 1735SOL    HW1 6104   4.199   4.571   6.093
 1735SOL    HW2 6105   4.127   4.501   6.222
 1736SOL     OW 6106   5.296   3.279   0.493
 1736SOL    HW1 6107   5.260   3.195   0.451
 1736SOL    HW2 6108   5.220   3.339   0.518
 1737SOL     OW 6109   4.481   1.793   5.279
 1737SOL    HW1 6110   4.548   1.838   5.338
 1737SOL    HW2 6111   4.449   1.857   5.209
 1738SOL     OW 6112   1.545   3.082   3.690
 1738SOL    HW1 6113   1.614   3.082   3.617
 1738SOL    HW2 6114   1.542   2.992   3.733
 1739SOL     OW 6115   5.690   0.608   3.704
 1739SOL    HW1 6116   5.706   0.510   3.715
 1739SOL    HW2 6117   5.638   0.642   3.783
 1740SOL     OW 6118   6.204   3.000   5.062
 1740SOL    HW1 6119   6.251   3.087   5.076
 1740SOL    HW2 6120   6.271   2.927   5.052
 1741SOL     OW 6121   0.425   1.904   4.629
 1741SOL    HW1 6122   0.473   1.819   4.649
 1741SOL    HW2 6123   0.414   1.957   4.713
 1742SOL     OW 6124   6.195   5.890   5.931
 1742SOL    HW1 6125   6.244   5.977   5.927
 1742SOL    HW2 6126   6.137   5.880   5.850
 1743SOL     OW 6127   1.812   1.032   2.382
 1743SOL    HW1 6128   1.768   0.942   2.377
 1743SOL    HW2 6129   1.796   1.072   2.472
 1744SOL     OW 6130   3.651   2.113   4.795
 1744SOL    HW1 6131   3.654   2.081   4.700
 1744SOL    HW2 6132   3.563   2.155   4.814
 1745SOL     OW 6133   6.189   6.512   1.070
 1745SOL    HW1 6134   6.267   6.476   1.019
 1745SOL    HW2 6135   6.106   6.463   1.042
 1746SOL     OW 6136   2.112   4.349   3.730
 1746SOL    HW1 6137   2.147   4.270   3.779
 1746SOL    HW2 6138   2.097   4.425   3.794
 1747SOL     OW 6139   4.592   7.011   2.494
 1747SOL    HW1 6140   4.596   6.928   2.549
 1747SOL    HW2 6141   4.502   0.033   2.505
 1748SOL     OW 6142   6.910   3.202   5.118
 1748SOL    HW1 6143   6.995   3.254   5.117
 1748SOL    HW2 6144   6.930   3.104   5.120
 1749SOL     OW 6145   0.834   4.709   1.049
 1749SOL    HW1 6146   0.819   4.716   1.148
 1749SOL    HW2 6147   0.931   4.721   1.029
 1750SOL     OW 6148   4.105   0.069   5.809
 1750SOL    HW1 6149   4.200   0.051   5.832
 1750SOL    HW2 6150   4.100   0.118   5.722
 1751SOL     OW 6151   6.107   3.334   5.184
 1751SOL    HW1 6152   6.040   3.276   5.137
 1751SOL    HW2 6153   6.165   3.380   5.116
 1752SOL     OW 6154   7.003   0.492   2.439
 1752SOL    HW1 6155   0.063   0.438   2.414
 1752SOL    HW2 6156   6.979   0.474   2.534
 1753SOL     OW 6157   6.351   1.328   2.027
 1753SOL    HW1 6158   6.322   1.379   1.946
 1753SOL    HW2 6159   6.298   1.243   2.034
 1754SOL     OW 6160   2.990   5.531   4.134
 1754SOL    HW1 6161   2.944   5.462   4.190
 1754SOL    HW2 6162   2.924   5.599   4.103
 1755SOL     OW 6163   6.059   6.868   4.717
 1755SOL    HW1 6164   6.013   6.801   4.659
 1755SOL    HW2 6165   6.154   6.839   4.732
 1756SOL     OW 6166   4.924   6.740   6.999
 1756SOL    HW1 6167   5.006   6.686   6.983
 1756SOL    HW2 6168   4.944   6.813   0.044
 1757SOL     OW 6169   2.097   5.416   5.114
 1757SOL    HW1 6170   2.139   5.333   5.076
 1757SOL    HW2 6171   2.166   5.487   5.125
 1758SOL     OW 6172   2.007   6.144   4.547
 1758SOL    HW1 6173   2.100   6.163   4.578
 1758SOL    HW2 6174   2.008   6.063   4.488
 1759SOL     OW 6175   1.554   6.639   0.228
 1759SOL    HW1 6176   1.466   6.629   0.275
 1759SOL    HW2 6177   1.599   6.550   0.221
 1760SOL     OW 6178   6.867   1.128   4.780
 1760SOL    HW1 6179   6.915   1.044   4.804
 1760SOL    HW2 6180   6.932   1.194   4.743
 1761SOL     OW 6181   5.835   1.694   2.564
 1761SOL    HW1 6182   5.841   1.618   2.499
 1761SOL    HW2 6183   5.740   1.707   2.592
 1762SOL     OW 6184   0.537   1.317   5.680
 1762SOL    HW1 6185   0.603   1.288   5.612
 1762SOL    HW2 6186   0.469   1.377   5.637
 1763SOL     OW 6187   0.510   4.026   3.730
 1763SOL    HW1 6188   0.500   4.031   3.630
 1763SOL    HW2 6189   0.484   4.113   3.771
 1764SOL     OW 6190   1.165   5.613   3.083
 1764SOL    HW1 6191   1.151   5.584   2.988
 1764SOL    HW2 6192   1.086   5.585   3.138
 1765SOL     OW 6193   5.526   3.343   2.172
 1765SOL    HW1 6194   5.551   3.398   2.093
 1765SOL    HW2 6195   5.609   3.317   2.223
 1766SOL     OW 6196   4.284   4.634   3.756
 1766SOL    HW1 6197   4.186   4.615   3.762
 1766SOL    HW2 6198   4.315   4.681   3.838
 1767SOL     OW 6199   0.151   4.771   2.441
 1767SOL    HW1 6200   0.227   4.713   2.471
 1767SOL    HW2 6201   0.183   4.834   2.370
 1768SOL     OW 6202   5.134   6.120   2.382
 1768SOL    HW1 6203   5.070   6.133   2.458
 1768SOL    HW2 6204   5.113   6.034   2.335
 1769SOL     OW 6205   6.287   0.537   0.541
 1769SOL    HW1 6206   6.357   0.508   0.476
 1769SOL    HW2 6207   6.212   0.582   0.492
 1770SOL     OW 6208   1.994   5.083   0.541
 1770SOL    HW1 6209   1.969   5.120   0.451
 1770SOL    HW2 6210   2.082   5.036   0.534
 1771SOL     OW 6211   1.773   3.100   6.030
 1771SOL    HW1 6212   1.809   3.165   5.962
 1771SOL    HW2 6213   1.713   3.035   5.985
 1772SOL     OW 6214   2.014   4.251   2.686
 1772SOL    HW1 6215   2.108   4.239   2.718
 1772SOL    HW2 6216   2.013   4.258   2.587
 1773SOL     OW 6217   1.707   6.416   6.274
 1773SOL    HW1 6218   1.738   6.440   6.366
 1773SOL    HW2 6219   1.713   6.497   6.215
 1774SOL     OW 6220   5.314   5.461   0.643
 1774SOL    HW1 6221   5.363   5.399   0.704
 1774SOL    HW2 6222   5.378   5.500   0.577
 1775SOL     OW 6223   1.832   5.577   6.740
 1775SOL    HW1 6224   1.763   5.616   6.678
 1775SOL    HW2 6225   1.835   5.632   6.824
 1776SOL     OW 6226   4.528   2.514   5.449
 1776SOL    HW1 6227   4.552   2.513   5.546
 1776SOL    HW2 6228   4.446   2.571   5.436
 1777SOL     OW 6229   5.208   6.606   6.875
 1777SOL    HW1 6230   5.279   6.636   6.811
 1777SOL    HW2 6231   5.215   6.507   6.888
 1778SOL     OW 6232   5.851   6.882   3.964
 1778SOL    HW1 6233   5.870   6.792   4.004
 1778SOL    HW2 6234   5.934   6.918   3.921
 1779SOL     OW 6235   5.387   7.004   4.146
 1779SOL    HW1 6236   5.438   6.991   4.231
 1779SOL    HW2 6237   5.364   0.080   4.136
 1780SOL     OW 6238   1.859   5.167   4.789
 1780SOL    HW1 6239   1.898   5.075   4.776
 1780SOL    HW2 6240   1.761   5.159   4.805
 1781SOL     OW 6241   4.240   0.983   4.604
 1781SOL    HW1 6242   4.141   0.975   4.613
 1781SOL    HW2 6243   4.285   0.923   4.671
 1782SOL     OW 6244   6.892   1.566   2.409
 1782SOL    HW1 6245   6.926   1.507   2.483
 1782SOL    HW2 6246   6.906   1.662   2.434
 1783SOL     OW 6247   1.835   3.935   6.174
 1783SOL    HW1 6248   1.810   3.867   6.105
 1783SOL    HW2 6249   1.822   3.895   6.265
 1784SOL     OW 6250   2.737   6.565   1.551
 1784SOL    HW1 6251   2.699   6.530   1.466
 1784SOL    HW2 6252   2.793   6.646   1.532
 1785SOL     OW 6253   1.858   6.607   4.767
 1785SOL    HW1 6254   1.792   6.547   4.722
 1785SOL    HW2 6255   1.885   6.567   4.855
 1786SOL     OW 6256   0.990   6.386   1.231
 1786SOL    HW1 6257   0.930   6.382   1.151
 1786SOL    HW2 6258   0.969   6.469   1.284
 1787SOL     OW 6259   2.758   3.302   6.475
 1787SOL    HW1 6260   2.817   3.267   6.548
 1787SOL    HW2 6261   2.667   3.321   6.511
 1788SOL     OW 6262   4.537   3.715   1.078
 1788SOL    HW1 6263   4.624   3.689   1.120
 1788SOL    HW2 6264   4.550   3.798   1.024
 1789SOL     OW 6265   6.080   3.777   1.879
 1789SOL    HW1 6266   6.031   3.765   1.965
 1789SOL    HW2 6267   6.168   3.729   1.883
 1790SOL     OW 6268   2.132   1.873   4.503
 1790SOL    HW1 6269   2.171   1.907   4.589
 1790SOL    HW2 6270   2.100   1.950   4.448
 1791SOL     OW 6271   4.976   0.041   3.511
 1791SOL    HW1 6272   5.069   0.010   3.533
 1791SOL    HW2 6273   4.913   6.984   3.514
 1792SOL     OW 6274   0.347   2.094   5.880
 1792SOL    HW1 6275   0.274   2.116   5.946
 1792SOL    HW2 6276   0.341   1.997   5.855
 1793SOL     OW 6277   0.323   0.678   5.866
 1793SOL    HW1 6278   0.257   0.696   5.793
 1793SOL    HW2 6279   0.274   0.664   5.952
 1794SOL     OW 6280   1.451   0.281   5.988
 1794SOL    HW1 6281   1.409   0.222   6.057
 1794SOL    HW2 6282   1.551   0.281   6.001
 1795SOL     OW 6283   5.658   4.775   1.138
 1795SOL    HW1 6284   5.757   4.783   1.153
 1795SOL    HW2 6285   5.630   4.681   1.159
 1796SOL     OW 6286   0.585   0.582   6.702
 1796SOL    HW1 6287   0.530   0.636   6.638
 1796SOL    HW2 6288   0.681   0.607   6.693
 1797SOL     OW 6289   1.890   5.025   5.614
 1797SOL    HW1 6290   1.829   5.102   5.597
 1797SOL    HW2 6291   1.956   5.050   5.685
 1798SOL     OW 6292   2.682   3.853   5.307
 1798SOL    HW1 6293   2.607   3.851   5.242
 1798SOL    HW2 6294   2.695   3.946   5.341
 1799SOL     OW 6295   3.205   1.241   0.834
 1799SOL    HW1 6296   3.167   1.170   0.894
 1799SOL    HW2 6297   3.296   1.267   0.867
 1800SOL     OW 6298   5.707   3.370   5.280
 1800SOL    HW1 6299   5.737   3.308   5.353
 1800SOL    HW2 6300   5.672   3.315   5.204
 1801SOL     OW 6301   0.883   0.631   3.176
 1801SOL    HW1 6302   0.810   0.600   3.114
 1801SOL    HW2 6303   0.849   0.628   3.270
 1802SOL     OW 6304   0.016   5.194   3.928
 1802SOL    HW1 6305   0.072   5.275   3.916
 1802SOL    HW2 6306   0.001   5.176   4.025
 1803SOL     OW 6307   0.583   0.248   3.575
 1803SOL    HW1 6308   0.683   0.248   3.584
 1803SOL    HW2 6309   0.546   0.161   3.608
 1804SOL     OW 6310   2.377   3.297   5.967
 1804SOL    HW1 6311   2.407   3.345   6.049
 1804SOL    HW2 6312   2.446   3.228   5.942
 1805SOL     OW 6313   6.740   5.489   0.703
 1805SOL    HW1 6314   6.774   5.455   0.791
 1805SOL    HW2 6315   6.660   5.547   0.718
 1806SOL     OW 6316   0.200   1.746   1.336
 1806SOL    HW1 6317   0.144   1.668   1.363
 1806SOL    HW2 6318   0.279   1.753   1.397
 1807SOL     OW 6319   0.129   2.340   2.920
 1807SOL    HW1 6320   0.097   2.410   2.856
 1807SOL    HW2 6321   0.107   2.369   3.014
 1808SOL     OW 6322   5.147   1.828   6.322
 1808SOL    HW1 6323   5.138   1.893   6.397
 1808SOL    HW2 6324   5.243   1.803   6.310
 1809SOL     OW 6325   4.818   0.288   5.025
 1809SOL    HW1 6326   4.845   0.198   4.991
 1809SOL    HW2 6327   4.726   0.282   5.064
 1810SOL     OW 6328   1.087   0.774   4.398
 1810SOL    HW1 6329   1.011   0.716   4.427
 1810SOL    HW2 6330   1.080   0.792   4.300
 1811SOL     OW 6331   3.855   5.643   1.666
 1811SOL    HW1 6332   3.905   5.723   1.635
 1811SOL    HW2 6333   3.832   5.653   1.763
 1812SOL     OW 6334   4.600   6.663   6.670
 1812SOL    HW1 6335   4.576   6.648   6.574
 1812SOL    HW2 6336   4.653   6.586   6.704
 1813SOL     OW 6337   4.830   4.638   2.020
 1813SOL    HW1 6338   4.897   4.672   1.955
 1813SOL    HW2 6339   4.857   4.664   2.113
 1814SOL     OW 6340   6.662   6.245   0.244
 1814SOL    HW1 6341   6.632   6.187   0.168
 1814SOL    HW2 6342   6.748   6.210   0.281
 1815SOL     OW 6343   5.250   6.464   1.164
 1815SOL    HW1 6344   5.309   6.467   1.084
 1815SOL    HW2 6345   5.157   6.439   1.137
 1816SOL     OW 6346   3.852   4.709   5.327
 1816SOL    HW1 6347   3.883   4.780   5.264
 1816SOL    HW2 6348   3.904   4.625   5.311
 1817SOL     OW 6349   0.085   2.153   4.131
 1817SOL    HW1 6350   0.149   2.228   4.112
 1817SOL    HW2 6351   7.014   2.179   4.103
 1818SOL     OW 6352   2.495   0.992   0.484
 1818SOL    HW1 6353   2.412   1.035   0.448
 1818SOL    HW2 6354   2.473   0.902   0.519
 1819SOL     OW 6355   1.557   4.553   2.542
 1819SOL    HW1 6356   1.643   4.506   2.563
 1819SOL    HW2 6357   1.524   4.524   2.452
 1820SOL     OW 6358   3.008   0.198   5.050
 1820SOL    HW1 6359   3.040   0.159   5.137
 1820SOL    HW2 6360   2.947   0.134   5.005
 1821SOL     OW 6361   3.705   1.913   2.483
 1821SOL    HW1 6362   3.613   1.908   2.523
 1821SOL    HW2 6363   3.702   1.971   2.402
 1822SOL     OW 6364   6.875   3.137   3.049
 1822SOL    HW1 6365   6.839   3.090   3.129
 1822SOL    HW2 6366   6.952   3.195   3.076
 1823SOL     OW 6367   4.303   6.419   1.769
 1823SOL    HW1 6368   4.367   6.346   1.792
 1823SOL    HW2 6369   4.344   6.507   1.792
 1824SOL     OW 6370   4.214   3.090   1.795
 1824SOL    HW1 6371   4.279   3.056   1.863
 1824SOL    HW2 6372   4.239   3.183   1.769
 1825SOL     OW 6373   1.263   2.041   5.168
 1825SOL    HW1 6374   1.361   2.024   5.166
 1825SOL    HW2 6375   1.239   2.109   5.099
 1826SOL     OW 6376   3.637   2.101   1.668
 1826SOL    HW1 6377   3.718   2.057   1.706
 1826SOL    HW2 6378   3.641   2.200   1.686
 1827SOL     OW 6379   5.466   5.941   0.948
 1827SOL    HW1 6380   5.537   5.931   1.018
 1827SOL    HW2 6381   5.421   5.853   0.932
 1828SOL     OW 6382   1.576   3.656   5.290
 1828SOL    HW1 6383   1.488   3.689   5.253
 1828SOL    HW2 6384   1.651   3.691   5.233
 1829SOL     OW 6385   3.688   0.629   2.646
 1829SOL    HW1 6386   3.620   0.565   2.612
 1829SOL    HW2 6387   3.771   0.579   2.671
 1830SOL     OW 6388   5.362   0.548   5.627
 1830SOL    HW1 6389   5.430   0.549   5.700
 1830SOL    HW2 6390   5.339   0.642   5.601
 1831SOL     OW 6391   3.318   4.868   0.544
 1831SOL    HW1 6392   3.248   4.933   0.574
 1831SOL    HW2 6393   3.275   4.782   0.518
 1832SOL     OW 6394   2.633   2.686   0.388
 1832SOL    HW1 6395   2.632   2.781   0.419
 1832SOL    HW2 6396   2.723   2.665   0.349
 1833SOL     OW 6397   5.841   1.548   6.666
 1833SOL    HW1 6398   5.803   1.633   6.703
 1833SOL    HW2 6399   5.931   1.531   6.707
 1834SOL     OW 6400   0.600   2.661   5.535
 1834SOL    HW1 6401   0.647   2.589   5.585
 1834SOL    HW2 6402   0.573   2.628   5.445
 1835SOL     OW 6403   6.734   6.627   1.654
 1835SOL    HW1 6404   6.649   6.576   1.668
 1835SOL    HW2 6405   6.779   6.641   1.742
 1836SOL     OW 6406   5.205   2.690   2.692
 1836SOL    HW1 6407   5.300   2.661   2.694
 1836SOL    HW2 6408   5.165   2.670   2.602
 1837SOL     OW 6409   2.641   1.993   6.213
 1837SOL    HW1 6410   2.596   2.073   6.252
 1837SOL    HW2 6411   2.593   1.910   6.241
 1838SOL     OW 6412   5.302   0.969   0.837
 1838SOL    HW1 6413   5.246   0.957   0.920
 1838SOL    HW2 6414   5.334   1.064   0.833
 1839SOL     OW 6415   0.451   0.602   0.477
 1839SOL    HW1 6416   0.547   0.618   0.457
 1839SOL    HW2 6417   0.442   0.523   0.539
 1840SOL     OW 6418   4.223   6.197   3.400
 1840SOL    HW1 6419   4.211   6.280   3.345
 1840SOL    HW2 6420   4.257   6.222   3.491
 1841SOL     OW 6421   1.637   0.997   2.084
 1841SOL    HW1 6422   1.733   0.986   2.056
 1841SOL    HW2 6423   1.624   0.957   2.174
 1842SOL     OW 6424   1.029   5.610   0.947
 1842SOL    HW1 6425   0.931   5.616   0.928
 1842SOL    HW2 6426   1.080   5.613   0.861
 1843SOL     OW 6427   2.501   0.806   5.885
 1843SOL    HW1 6428   2.556   0.874   5.933
 1843SOL    HW2 6429   2.415   0.791   5.934
 1844SOL     OW 6430   5.947   2.636   6.141
 1844SOL    HW1 6431   6.011   2.642   6.064
 1844SOL    HW2 6432   5.952   2.545   6.181
 1845SOL     OW 6433   1.075   2.369   2.893
 1845SOL    HW1 6434   1.111   2.458   2.867
 1845SOL    HW2 6435   1.102   2.349   2.987
 1846SOL     OW 6436   3.212   1.061   1.396
 1846SOL    HW1 6437   3.281   1.134   1.397
 1846SOL    HW2 6438   3.134   1.091   1.342
 1847SOL     OW 6439   1.733   5.845   5.634
 1847SOL    HW1 6440   1.756   5.817   5.541
 1847SOL    HW2 6441   1.637   5.872   5.637
 1848SOL     OW 6442   3.614   6.748   3.198
 1848SOL    HW1 6443   3.577   6.835   3.231
 1848SOL    HW2 6444   3.596   6.740   3.100
 1849SOL     OW 6445   4.693   2.732   2.432
 1849SOL    HW1 6446   4.705   2.679   2.516
 1849SOL    HW2 6447   4.696   2.830   2.454
 1850SOL     OW 6448   4.284   1.740   0.603
 1850SOL    HW1 6449   4.279   1.719   0.505
 1850SOL    HW2 6450   4.352   1.681   0.646
 1851SOL     OW 6451   0.177   4.622   4.941
 1851SOL    HW1 6452   0.241   4.697   4.955
 1851SOL    HW2 6453   0.227   4.537   4.930
 1852SOL     OW 6454   0.523   0.241   2.852
 1852SOL    HW1 6455   0.524   0.293   2.937
 1852SOL    HW2 6456   0.568   0.294   2.780
 1853SOL     OW 6457   0.402   2.332   5.757
 1853SOL    HW1 6458   0.474   2.385   5.802
 1853SOL    HW2 6459   0.394   2.243   5.801
 1854SOL     OW 6460   0.806   6.803   3.685
 1854SOL    HW1 6461   0.727   6.771   3.633
 1854SOL    HW2 6462   0.877   6.733   3.683
 1855SOL     OW 6463   5.353   3.132   4.466
 1855SOL    HW1 6464   5.324   3.211   4.412
 1855SOL    HW2 6465   5.405   3.163   4.546
 1856SOL     OW 6466   3.782   2.939   0.463
 1856SOL    HW1 6467   3.858   2.949   0.528
 1856SOL    HW2 6468   3.724   2.863   0.490
 1857SOL     OW 6469   3.872   1.261   6.722
 1857SOL    HW1 6470   3.823   1.174   6.722
 1857SOL    HW2 6471   3.968   1.245   6.699
 1858SOL     OW 6472   4.985   2.567   4.205
 1858SOL    HW1 6473   4.983   2.520   4.294
 1858SOL    HW2 6474   4.953   2.661   4.216
 1859SOL     OW 6475   6.490   1.630   4.247
 1859SOL    HW1 6476   6.445   1.697   4.187
 1859SOL    HW2 6477   6.585   1.658   4.263
 1860SOL     OW 6478   2.123   1.177   6.053
 1860SOL    HW1 6479   2.199   1.203   5.994
 1860SOL    HW2 6480   2.065   1.257   6.069
 1861SOL     OW 6481   6.922   6.650   3.956
 1861SOL    HW1 6482   6.976   6.730   3.929
 1861SOL    HW2 6483   6.938   6.630   4.053
 1862SOL     OW 6484   2.958   5.647   5.457
 1862SOL    HW1 6485   2.921   5.735   5.427
 1862SOL    HW2 6486   2.903   5.573   5.417
 1863SOL     OW 6487   6.959   2.548   0.732
 1863SOL    HW1 6488   0.019   2.492   0.750
 1863SOL    HW2 6489   6.983   2.645   0.739
 1864SOL     OW 6490   3.933   5.411   2.408
 1864SOL    HW1 6491   3.876   5.404   2.327
 1864SOL    HW2 6492   3.937   5.322   2.454
 1865SOL     OW 6493   6.192   2.137   5.425
 1865SOL    HW1 6494   6.159   2.138   5.330
 1865SOL    HW2 6495   6.198   2.231   5.459
 1866SOL     OW 6496   0.292   4.924   3.285
 1866SOL    HW1 6497   0.237   4.840   3.283
 1866SOL    HW2 6498   0.381   4.904   3.326
 1867SOL     OW 6499   0.750   2.660   1.332
 1867SOL    HW1 6500   0.705   2.739   1.290
 1867SOL    HW2 6501   0.683   2.588   1.348
 1868SOL     OW 6502   5.646   3.280   6.842
 1868SOL    HW1 6503   5.636   3.317   6.750
 1868SOL    HW2 6504   5.585   3.329   6.905
 1869SOL     OW 6505   4.832   1.122   4.354
 1869SOL    HW1 6506   4.764   1.146   4.285
 1869SOL    HW2 6507   4.911   1.183   4.345
 1870SOL     OW 6508   6.345   6.399   5.486
 1870SOL    HW1 6509   6.307   6.328   5.426
 1870SOL    HW2 6510   6.343   6.367   5.581
 1871SOL     OW 6511   0.175   6.320   0.052
 1871SOL    HW1 6512   0.076   6.329   0.045
 1871SOL    HW2 6513   0.201   6.323   0.149
 1872SOL     OW 6514   2.868   2.938   1.672
 1872SOL    HW1 6515   2.905   2.882   1.745
 1872SOL    HW2 6516   2.929   3.015   1.654
 1873SOL     OW 6517   6.232   1.236   0.521
 1873SOL    HW1 6518   6.269   1.183   0.597
 1873SOL    HW2 6519   6.225   1.332   0.548
 1874SOL     OW 6520   0.399   5.413   0.646
 1874SOL    HW1 6521   0.403   5.435   0.743
 1874SOL    HW2 6522   0.492   5.411   0.608
 1875SOL     OW 6523   6.880   5.430   1.593
 1875SOL    HW1 6524   6.860   5.341   1.550
 1875SOL    HW2 6525   6.913   5.494   1.524
 1876SOL     OW 6526   0.484   5.495   1.189
 1876SOL    HW1 6527   0.436   5.560   1.248
 1876SOL    HW2 6528   0.491   5.407   1.235
 1877SOL     OW 6529   0.950   1.415   2.337
 1877SOL    HW1 6530   0.918   1.353   2.266
 1877SOL    HW2 6531   0.874   1.440   2.397
 1878SOL     OW 6532   5.429   4.226   3.960
 1878SOL    HW1 6533   5.457   4.145   3.908
 1878SOL    HW2 6534   5.463   4.219   4.054
 1879SOL     OW 6535   4.290   6.171   4.497
 1879SOL    HW1 6536   4.209   6.113   4.512
 1879SOL    HW2 6537   4.337   6.142   4.414
 1880SOL     OW 6538   0.165   1.649   4.186
 1880SOL    HW1 6539   0.169   1.747   4.203
 1880SOL    HW2 6540   0.158   1.600   4.272
 1881SOL     OW 6541   1.929   1.812   4.126
 1881SOL    HW1 6542   1.868   1.777   4.197
 1881SOL    HW2 6543   1.899   1.778   4.037
 1882SOL     OW 6544   1.370   5.438   0.231
 1882SOL    HW1 6545   1.300   5.394   0.175
 1882SOL    HW2 6546   1.365   5.403   0.324
 1883SOL     OW 6547   1.475   2.440   2.745
 1883SOL    HW1 6548   1.492   2.406   2.837
 1883SOL    HW2 6549   1.384   2.481   2.741
 1884SOL     OW 6550   4.107   0.855   0.016
 1884SOL    HW1 6551   4.059   0.794   6.973
 1884SOL    HW2 6552   4.145   0.932   6.987
 1885SOL     OW 6553   7.020   1.630   0.514
 1885SOL    HW1 6554   7.000   1.557   0.579
 1885SOL    HW2 6555   0.089   1.669   0.533
 1886SOL     OW 6556   3.171   2.280   6.210
 1886SOL    HW1 6557   3.200   2.215   6.281
 1886SOL    HW2 6558   3.133   2.230   6.133
 1887SOL     OW 6559   0.839   6.590   5.054
 1887SOL    HW1 6560   0.806   6.508   5.007
 1887SOL    HW2 6561   0.762   6.637   5.097
 1888SOL     OW 6562   1.676   2.046   5.386
 1888SOL    HW1 6563   1.589   2.003   5.363
 1888SOL    HW2 6564   1.672   2.084   5.478
 1889SOL     OW 6565   3.286   2.840   6.928
 1889SOL    HW1 6566   3.194   2.830   6.965
 1889SOL    HW2 6567   3.294   2.929   6.883
 1890SOL     OW 6568   6.629   5.771   6.777
 1890SOL    HW1 6569   6.636   5.763   6.677
 1890SOL    HW2 6570   6.672   5.691   6.819
 1891SOL     OW 6571   5.428   3.723   6.626
 1891SOL    HW1 6572   5.351   3.728   6.562
 1891SOL    HW2 6573   5.508   3.766   6.586
 1892SOL     OW 6574   3.940   0.156   1.756
 1892SOL    HW1 6575   3.923   0.097   1.677
 1892SOL    HW2 6576   3.911   0.110   1.840
 1893SOL     OW 6577   3.159   1.771   5.159
 1893SOL    HW1 6578   3.077   1.829   5.152
 1893SOL    HW2 6579   3.133   1.676   5.144
 1894SOL     OW 6580   4.429   3.532   0.864
 1894SOL    HW1 6581   4.414   3.631   0.872
 1894SOL    HW2 6582   4.418   3.504   0.769
 1895SOL     OW 6583   4.336   0.294   3.643
 1895SOL    HW1 6584   4.405   0.353   3.686
 1895SOL    HW2 6585   4.290   0.345   3.570
 1896SOL     OW 6586   6.029   2.211   5.971
 1896SOL    HW1 6587   5.982   2.300   5.966
 1896SOL    HW2 6588   5.983   2.153   6.039
 1897SOL     OW 6589   5.486   5.316   3.416
 1897SOL    HW1 6590   5.525   5.253   3.349
 1897SOL    HW2 6591   5.387   5.311   3.413
 1898SOL     OW 6592   5.778   6.889   6.727
 1898SOL    HW1 6593   5.690   6.879   6.680
 1898SOL    HW2 6594   5.835   6.810   6.709
 1899SOL     OW 6595   1.334   2.179   2.862
 1899SOL    HW1 6596   1.417   2.216   2.903
 1899SOL    HW2 6597   1.257   2.239   2.883
 1900SOL     OW 6598   2.533   6.035   1.212
 1900SOL    HW1 6599   2.608   6.065   1.154
 1900SOL    HW2 6600   2.562   6.036   1.308
 1901SOL     OW 6601   1.458   1.568   6.120
 1901SOL    HW1 6602   1.391   1.642   6.108
 1901SOL    HW2 6603   1.550   1.607   6.129
 1902SOL     OW 6604   2.051   2.350   5.343
 1902SOL    HW1 6605   2.128   2.324   5.401
 1902SOL    HW2 6606   2.082   2.363   5.249
 1903SOL     OW 6607   6.629   4.455   3.981
 1903SOL    HW1 6608   6.696   4.528   3.971
 1903SOL    HW2 6609   6.545   4.480   3.932
 1904SOL     OW 6610   0.606   0.708   4.558
 1904SOL    HW1 6611   0.631   0.622   4.513
 1904SOL    HW2 6612   0.535   0.754   4.504
 1905SOL     OW 6613   6.242   3.419   4.472
 1905SOL    HW1 6614   6.268   3.505   4.515
 1905SOL    HW2 6615   6.324   3.367   4.449
 1906SOL     OW 6616   2.949   6.245   6.989
 1906SOL    HW1 6617   2.986   6.241   0.061
 1906SOL    HW2 6618   2.903   6.333   6.976
 1907SOL     OW 6619   3.817   6.227   3.428
 1907SOL    HW1 6620   3.771   6.140   3.412
 1907SOL    HW2 6621   3.812   6.283   3.345
 1908SOL     OW 6622   4.986   0.476   6.763
 1908SOL    HW1 6623   4.992   0.438   6.671
 1908SOL    HW2 6624   4.893   0.464   6.799
 1909SOL     OW 6625   4.128   5.164   4.667
 1909SOL    HW1 6626   4.101   5.142   4.574
 1909SOL    HW2 6627   4.099   5.256   4.690
 1910SOL     OW 6628   5.063   2.424   4.813
 1910SOL    HW1 6629   5.079   2.423   4.912
 1910SOL    HW2 6630   4.967   2.446   4.795
 1911SOL     OW 6631   7.006   3.725   6.056
 1911SOL    HW1 6632   7.017   3.820   6.029
 1911SOL    HW2 6633   6.909   3.702   6.059
 1912SOL     OW 6634   2.749   6.279   3.028
 1912SOL    HW1 6635   2.802   6.245   2.950
 1912SOL    HW2 6636   2.810   6.293   3.106
 1913SOL     OW 6637   1.577   4.444   5.245
 1913SOL    HW1 6638   1.549   4.539   5.257
 1913SOL    HW2 6639   1.527   4.386   5.310
 1914SOL     OW 6640   4.544   1.355   5.407
 1914SOL    HW1 6641   4.536   1.348   5.506
 1914SOL    HW2 6642   4.456   1.379   5.367
 1915SOL     OW 6643   3.561   0.382   5.327
 1915SOL    HW1 6644   3.619   0.435   5.264
 1915SOL    HW2 6645   3.465   0.400   5.306
 1916SOL     OW 6646   3.929   6.449   1.484
 1916SOL    HW1 6647   3.918   6.529   1.544
 1916SOL    HW2 6648   3.940   6.480   1.389
 1917SOL     OW 6649   3.513   2.892   4.251
 1917SOL    HW1 6650   3.545   2.905   4.157
 1917SOL    HW2 6651   3.578   2.934   4.314
 1918SOL     OW 6652   5.797   6.320   4.588
 1918SOL    HW1 6653   5.853   6.255   4.536
 1918SOL    HW2 6654   5.712   6.338   4.538
 1919SOL     OW 6655   6.618   6.761   2.058
 1919SOL    HW1 6656   6.667   6.683   2.020
 1919SOL    HW2 6657   6.671   6.844   2.043
 1920SOL     OW 6658   6.914   6.105   4.165
 1920SOL    HW1 6659   6.944   6.152   4.082
 1920SOL    HW2 6660   6.820   6.132   4.187
 1921SOL     OW 6661   0.926   0.175   6.191
 1921SOL    HW1 6662   0.834   0.184   6.151
 1921SOL    HW2 6663   0.977   0.106   6.139
 1922SOL     OW 6664   3.664   4.371   1.185
 1922SOL    HW1 6665   3.592   4.378   1.116
 1922SOL    HW2 6666   3.625   4.334   1.269
 1923SOL     OW 6667   1.958   2.612   0.954
 1923SOL    HW1 6668   2.037   2.584   1.010
 1923SOL    HW2 6669   1.944   2.545   0.881
 1924SOL     OW 6670   1.178   3.696   2.044
 1924SOL    HW1 6671   1.110   3.623   2.037
 1924SOL    HW2 6672   1.212   3.701   2.138
 1925SOL     OW 6673   3.224   4.181   0.412
 1925SOL    HW1 6674   3.316   4.149   0.391
 1925SOL    HW2 6675   3.158   4.131   0.356
 1926SOL     OW 6676   1.003   0.490   3.635
 1926SOL    HW1 6677   0.995   0.525   3.728
 1926SOL    HW2 6678   1.022   0.392   3.637
 1927SOL     OW 6679   3.855   3.736   0.449
 1927SOL    HW1 6680   3.868   3.698   0.541
 1927SOL    HW2 6681   3.767   3.782   0.444
 1928SOL     OW 6682   0.028   4.866   5.321
 1928SOL    HW1 6683   6.979   4.800   5.291
 1928SOL    HW2 6684   7.012   4.923   5.394
 1929SOL     OW 6685   1.529   6.846   3.349
 1929SOL    HW1 6686   1.582   6.803   3.276
 1929SOL    HW2 6687   1.435   6.811   3.346
 1930SOL     OW 6688   6.603   5.034   6.840
 1930SOL    HW1 6689   6.636   4.951   6.883
 1930SOL    HW2 6690   6.640   5.041   6.747
 1931SOL     OW 6691   0.966   2.317   5.031
 1931SOL    HW1 6692   0.927   2.391   4.978
 1931SOL    HW2 6693   1.026   2.262   4.973
 1932SOL     OW 6694   5.435   3.049   2.669
 1932SOL    HW1 6695   5.420   3.136   2.716
 1932SOL    HW2 6696   5.445   2.976   2.737
 1933SOL     OW 6697   2.783   4.664   1.384
 1933SOL    HW1 6698   2.694   4.641   1.345
 1933SOL    HW2 6699   2.777   4.664   1.484
 1934SOL     OW 6700   0.082   6.148   4.372
 1934SOL    HW1 6701   0.022   6.129   4.294
 1934SOL    HW2 6702   0.151   6.076   4.380
 1935SOL     OW 6703   2.639   0.963   4.162
 1935SOL    HW1 6704   2.542   0.978   4.181
 1935SOL    HW2 6705   2.664   1.011   4.078
 1936SOL     OW 6706   6.647   5.736   5.692
 1936SOL    HW1 6707   6.617   5.707   5.601
 1936SOL    HW2 6708   6.594   5.690   5.762
 1937SOL     OW 6709   4.165   6.924   2.395
 1937SOL    HW1 6710   4.081   6.919   2.449
 1937SOL    HW2 6711   4.144   6.906   2.299
 1938SOL     OW 6712   5.422   0.417   3.791
 1938SOL    HW1 6713   5.422   0.447   3.695
 1938SOL    HW2 6714   5.394   0.493   3.849
 1939SOL     OW 6715   2.152   0.428   3.244
 1939SOL    HW1 6716   2.082   0.366   3.279
 1939SOL    HW2 6717   2.238   0.378   3.233
 1940SOL     OW 6718   6.988   5.456   0.167
 1940SOL    HW1 6719   6.962   5.458   0.263
 1940SOL    HW2 6720   6.963   5.367   0.127
 1941SOL     OW 6721   5.054   5.050   3.250
 1941SOL    HW1 6722   5.096   4.970   3.293
 1941SOL    HW2 6723   5.106   5.075   3.169
 1942SOL     OW 6724   6.308   5.569   3.185
 1942SOL    HW1 6725   6.323   5.584   3.283
 1942SOL    HW2 6726   6.383   5.611   3.134
 1943SOL     OW 6727   3.381   5.328   2.815
 1943SOL    HW1 6728   3.420   5.415   2.784
 1943SOL    HW2 6729   3.369   5.267   2.737
 1944SOL     OW 6730   6.899   1.276   1.974
 1944SOL    HW1 6731   6.960   1.249   2.049
 1944SOL    HW2 6732   6.810   1.301   2.011
 1945SOL     OW 6733   3.025   4.877   3.925
 1945SOL    HW1 6734   3.012   4.849   4.021
 1945SOL    HW2 6735   2.966   4.822   3.866
 1946SOL     OW 6736   1.800   0.337   0.129
 1946SOL    HW1 6737   1.781   0.415   0.189
 1946SOL    HW2 6738   1.802   0.368   0.034
 1947SOL     OW 6739   5.383   6.699   4.101
 1947SOL    HW1 6740   5.354   6.687   4.196
 1947SOL    HW2 6741   5.397   6.796   4.082
 1948SOL     OW 6742   6.223   3.802   5.604
 1948SOL    HW1 6743   6.157   3.765   5.539
 1948SOL    HW2 6744   6.224   3.902   5.597
 1949SOL     OW 6745   5.654   4.156   6.647
 1949SOL    HW1 6746   5.710   4.077   6.670
 1949SOL    HW2 6747   5.577   4.162   6.711
 1950SOL     OW 6748   3.246   3.554   0.606
 1950SOL    HW1 6749   3.242   3.569   0.704
 1950SOL    HW2 6750   3.299   3.471   0.586
 1951SOL     OW 6751   0.049   2.186   6.859
 1951SOL    HW1 6752   0.039   2.164   6.762
 1951SOL    HW2 6753   0.029   2.106   6.915
 1952SOL     OW 6754   3.877   1.949   5.340
 1952SOL    HW1 6755   3.869   2.035   5.290
 1952SOL    HW2 6756   3.786   1.909   5.353
 1953SOL     OW 6757   0.380   3.381   5.560
 1953SOL    HW1 6758   0.447   3.425   5.620
 1953SOL    HW2 6759   0.426   3.347   5.478
 1954SOL     OW 6760   2.605   1.916   3.511
 1954SOL    HW1 6761   2.666   1.976   3.458
 1954SOL    HW2 6762   2.630   1.920   3.607
 1955SOL     OW 6763   6.430   5.806   2.356
 1955SOL    HW1 6764   6.390   5.719   2.385
 1955SOL    HW2 6765   6.408   5.877   2.423
 1956SOL     OW 6766   5.885   6.546   2.181
 1956SOL    HW1 6767   5.809   6.491   2.217
 1956SOL    HW2 6768   5.891   6.631   2.232
 1957SOL     OW 6769   0.597   6.739   5.146
 1957SOL    HW1 6770   0.570   6.788   5.063
 1957SOL    HW2 6771   0.519   6.735   5.209
 1958SOL     OW 6772   5.069   3.451   5.764
 1958SOL    HW1 6773   5.090   3.354   5.752
 1958SOL    HW2 6774   5.094   3.501   5.681
 1959SOL     OW 6775   1.373   2.198   6.560
 1959SOL    HW1 6776   1.279   2.175   6.537
 1959SOL    HW2 6777   1.405   2.271   6.498
 1960SOL     OW 6778   5.031   6.365   1.530
 1960SOL    HW1 6779   5.113   6.354   1.475
 1960SOL    HW2 6780   5.050   6.337   1.624
 1961SOL     OW 6781   6.097   5.194   3.826
 1961SOL    HW1 6782   6.045   5.194   3.740
 1961SOL    HW2 6783   6.034   5.198   3.903
 1962SOL     OW 6784   0.214   6.410   3.175
 1962SOL    HW1 6785   0.209   6.463   3.260
 1962SOL    HW2 6786   0.142   6.341   3.174
 1963SOL     OW 6787   1.830   0.366   2.764
 1963SOL    HW1 6788   1.852   0.325   2.852
 1963SOL    HW2 6789   1.895   0.334   2.695
 1964SOL     OW 6790   5.578   3.576   2.896
 1964SOL    HW1 6791   5.586   3.521   2.979
 1964SOL    HW2 6792   5.567   3.514   2.817
 1965SOL     OW 6793   2.010   5.161   3.521
 1965SOL    HW1 6794   2.056   5.081   3.482
 1965SOL    HW2 6795   2.074   5.239   3.522
 1966SOL     OW 6796   6.096   5.726   5.457
 1966SOL    HW1 6797   6.088   5.680   5.368
 1966SOL    HW2 6798   6.122   5.659   5.526
 1967SOL     OW 6799   4.607   2.125   4.803
 1967SOL    HW1 6800   4.558   2.084   4.726
 1967SOL    HW2 6801   4.559   2.208   4.833
 1968SOL     OW 6802   3.112   5.225   5.978
 1968SOL    HW1 6803   3.105   5.129   6.005
 1968SOL    HW2 6804   3.089   5.284   6.056
 1969SOL     OW 6805   6.260   2.468   1.420
 1969SOL    HW1 6806   6.236   2.541   1.355
 1969SOL    HW2 6807   6.248   2.379   1.376
 1970SOL     OW 6808   1.920   7.020   3.315
 1970SOL    HW1 6809   1.927   6.975   3.404
 1970SOL    HW2 6810   1.901   6.951   3.245
 1971SOL     OW 6811   0.453   6.440   6.453
 1971SOL    HW1 6812   0.524   6.442   6.382
 1971SOL    HW2 6813   0.366   6.471   6.414
 1972SOL     OW 6814   0.928   4.842   3.860
 1972SOL    HW1 6815   1.003   4.808   3.803
 1972SOL    HW2 6816   0.892   4.927   3.820
 1973SOL     OW 6817   2.727   3.308   0.465
 1973SOL    HW1 6818   2.714   3.308   0.564
 1973SOL    HW2 6819   2.646   3.345   0.420
 1974SOL     OW 6820   5.834   0.836   4.319
 1974SOL    HW1 6821   5.825   0.935   4.323
 1974SOL    HW2 6822   5.805   0.804   4.229
 1975SOL     OW 6823   3.367   0.896   3.421
 1975SOL    HW1 6824   3.328   0.928   3.507
 1975SOL    HW2 6825   3.442   0.832   3.439
 1976SOL     OW 6826   6.913   4.978   0.206
 1976SOL    HW1 6827   7.009   4.957   0.219
 1976SOL    HW2 6828   6.859   4.894   0.213
 1977SOL     OW 6829   2.060   2.813   5.057
 1977SOL    HW1 6830   2.077   2.775   5.148
 1977SOL    HW2 6831   2.044   2.911   5.063
 1978SOL     OW 6832   6.930   1.399   4.659
 1978SOL    HW1 6833   6.833   1.377   4.642
 1978SOL    HW2 6834   6.939   1.440   4.749
 1979SOL     OW 6835   5.811   5.290   3.620
 1979SOL    HW1 6836   5.848   5.223   3.556
 1979SOL    HW2 6837   5.762   5.361   3.569
 1980SOL     OW 6838   3.865   0.359   1.346
 1980SOL    HW1 6839   3.816   0.335   1.430
 1980SOL    HW2 6840   3.853   0.456   1.326
 1981SOL     OW 6841   4.577   3.126   1.624
 1981SOL    HW1 6842   4.583   3.071   1.707
 1981SOL    HW2 6843   4.584   3.223   1.648
 1982SOL     OW 6844   5.454   6.699   4.543
 1982SOL    HW1 6845   5.431   6.693   4.640
 1982SOL    HW2 6846   5.456   6.795   4.515
 1983SOL     OW 6847   0.834   3.608   3.130
 1983SOL    HW1 6848   0.875   3.695   3.102
 1983SOL    HW2 6849   0.906   3.540   3.141
 1984SOL     OW 6850   4.258   0.239   6.173
 1984SOL    HW1 6851   4.267   0.302   6.250
 1984SOL    HW2 6852   4.229   0.149   6.206
 1985SOL     OW 6853   1.240   0.344   1.408
 1985SOL    HW1 6854   1.201   0.375   1.495
 1985SOL    HW2 6855   1.204   0.399   1.334
 1986SOL     OW 6856   1.284   1.759   6.079
 1986SOL    HW1 6857   1.282   1.770   5.980
 1986SOL    HW2 6858   1.262   1.846   6.123
 1987SOL     OW 6859   2.963   3.232   6.689
 1987SOL    HW1 6860   3.030   3.252   6.618
 1987SOL    HW2 6861   3.006   3.239   6.779
 1988SOL     OW 6862   4.691   2.988   0.952
 1988SOL    HW1 6863   4.690   2.900   0.999
 1988SOL    HW2 6864   4.619   3.046   0.989
 1989SOL     OW 6865   2.745   0.227   4.206
 1989SOL    HW1 6866   2.729   0.206   4.302
 1989SOL    HW2 6867   2.670   0.284   4.172
 1990SOL     OW 6868   2.632   1.018   2.114
 1990SOL    HW1 6869   2.538   0.990   2.132
 1990SOL    HW2 6870   2.673   0.957   2.047
 1991SOL     OW 6871   3.740   5.325   4.683
 1991SOL    HW1 6872   3.803   5.307   4.608
 1991SOL    HW2 6873   3.682   5.403   4.660
 1992SOL     OW 6874   2.400   6.402   5.248
 1992SOL    HW1 6875   2.377   6.500   5.249
 1992SOL    HW2 6876   2.466   6.385   5.175
 1993SOL     OW 6877   3.862   3.307   5.135
 1993SOL    HW1 6878   3.933   3.365   5.174
 1993SOL    HW2 6879   3.853   3.325   5.037
 1994SOL     OW 6880   6.013   2.362   1.989
 1994SOL    HW1 6881   6.029   2.382   1.892
 1994SOL    HW2 6882   6.028   2.264   2.006
 1995SOL     OW 6883   5.338   2.369   1.643
 1995SOL    HW1 6884   5.436   2.386   1.652
 1995SOL    HW2 6885   5.312   2.290   1.699
 1996SOL     OW 6886   3.074   4.301   0.001
 1996SOL    HW1 6887   3.163   4.264   0.029
 1996SOL    HW2 6888   3.086   4.363   6.944
 1997SOL     OW 6889   5.541   0.725   3.895
 1997SOL    HW1 6890   5.455   0.677   3.912
 1997SOL    HW2 6891   5.522   0.820   3.870
 1998SOL     OW 6892   3.017   4.847   5.035
 1998SOL    HW1 6893   2.970   4.831   5.122
 1998SOL    HW2 6894   2.982   4.783   4.966
 1999SOL     OW 6895   1.940   0.992   2.078
 1999SOL    HW1 6896   1.937   1.072   2.139
 1999SOL    HW2 6897   1.979   0.914   2.126
 2000SOL     OW 6898   3.981   1.841   5.110
 2000SOL    HW1 6899   3.931   1.885   5.035
 2000SOL    HW2 6900   3.927   1.849   5.194
 2001SOL     OW 6901   3.160   2.589   0.524
 2001SOL    HW1 6902   3.069   2.558   0.497
 2001SOL    HW2 6903   3.154   2.642   0.608
 2002SOL     OW 6904   1.982   4.885   4.805
 2002SOL    HW1 6905   1.982   4.810   4.739
 2002SOL    HW2 6906   1.939   4.854   4.890
 2003SOL     OW 6907   6.450   6.073   4.000
 2003SOL    HW1 6908   6.511   5.994   4.007
 2003SOL    HW2 6909   6.439   6.098   3.904
 2004SOL     OW 6910   3.094   0.982   5.748
 2004SOL    HW1 6911   3.178   0.947   5.708
 2004SOL    HW2 6912   3.114   1.028   5.834
 2005SOL     OW 6913   2.839   6.122   5.861
 2005SOL    HW1 6914   2.915   6.104   5.923
 2005SOL    HW2 6915   2.837   6.053   5.789
 2006SOL     OW 6916   4.075   4.750   3.900
 2006SOL    HW1 6917   4.120   4.770   3.987
 2006SOL    HW2 6918   3.981   4.783   3.903
 2007SOL     OW 6919   5.780   5.544   0.517
 2007SOL    HW1 6920   5.825   5.545   0.428
 2007SOL    HW2 6921   5.805   5.460   0.566
 2008SOL     OW 6922   0.534   5.925   4.116
 2008SOL    HW1 6923   0.503   6.002   4.172
 2008SOL    HW2 6924   0.563   5.850   4.177
 2009SOL     OW 6925   0.482   0.359   1.802
 2009SOL    HW1 6926   0.568   0.350   1.853
 2009SOL    HW2 6927   0.494   0.323   1.710
 2010SOL     OW 6928   1.524   6.959   0.798
 2010SOL    HW1 6929   1.623   6.973   0.807
 2010SOL    HW2 6930   1.477   0.024   0.818
 2011SOL     OW 6931   0.205   2.204   5.173
 2011SOL    HW1 6932   0.150   2.139   5.225
 2011SOL    HW2 6933   0.265   2.254   5.235
 2012SOL     OW 6934   1.093   3.721   1.091
 2012SOL    HW1 6935   1.065   3.744   1.184
 2012SOL    HW2 6936   1.145   3.636   1.092
 2013SOL     OW 6937   4.557   1.681   2.208
 2013SOL    HW1 6938   4.585   1.772   2.178
 2013SOL    HW2 6939   4.558   1.619   2.130
 2014SOL     OW 6940   2.513   5.934   3.275
 2014SOL    HW1 6941   2.480   5.992   3.201
 2014SOL    HW2 6942   2.436   5.887   3.318
 2015SOL     OW 6943   3.485   6.986   6.420
 2015SOL    HW1 6944   3.554   6.965   6.489
 2015SOL    HW2 6945   3.402   6.933   6.438
 2016SOL     OW 6946   6.964   5.207   4.208
 2016SOL    HW1 6947   6.865   5.193   4.213
 2016SOL    HW2 6948   7.011   5.119   4.214
 2017SOL     OW 6949   2.960   5.734   2.324
 2017SOL    HW1 6950   3.013   5.809   2.284
 2017SOL    HW2 6951   2.874   5.769   2.361
 2018SOL     OW 6952   0.825   5.359   5.595
 2018SOL    HW1 6953   0.735   5.384   5.630
 2018SOL    HW2 6954   0.872   5.440   5.561
 2019SOL     OW 6955   6.176   1.511   2.179
 2019SOL    HW1 6956   6.160   1.601   2.138
 2019SOL    HW2 6957   6.235   1.457   2.119
 2020SOL     OW 6958   2.624   6.042   2.860
 2020SOL    HW1 6959   2.674   6.000   2.936
 2020SOL    HW2 6960   2.610   6.139   2.878
 2021SOL     OW 6961   1.063   0.119   2.039
 2021SOL    HW1 6962   0.993   0.089   2.104
 2021SOL    HW2 6963   1.027   0.195   1.985
 2022SOL     OW 6964   1.755   3.664   1.758
 2022SOL    HW1 6965   1.855   3.659   1.762
 2022SOL    HW2 6966   1.715   3.607   1.830
 2023SOL     OW 6967   6.767   0.792   5.595
 2023SOL    HW1 6968   6.835   0.768   5.525
 2023SOL    HW2 6969   6.739   0.709   5.643
 2024SOL     OW 6970   5.906   1.335   3.584
 2024SOL    HW1 6971   5.866   1.325   3.675
 2024SOL    HW2 6972   5.946   1.248   3.555
 2025SOL     OW 6973   6.963   1.278   1.576
 2025SOL    HW1 6974   0.020   1.306   1.632
 2025SOL    HW2 6975   6.933   1.187   1.605
 2026SOL     OW 6976   2.027   1.590   5.659
 2026SOL    HW1 6977   2.107   1.578   5.600
 2026SOL    HW2 6978   2.034   1.528   5.738
 2027SOL     OW 6979   0.688   1.369   3.071
 2027SOL    HW1 6980   0.767   1.344   3.127
 2027SOL    HW2 6981   0.624   1.292   3.067
 2028SOL     OW 6982   4.176   2.629   0.063
 2028SOL    HW1 6983   4.236   2.661   7.011
 2028SOL    HW2 6984   4.081   2.651   0.039
 2029SOL     OW 6985   1.317   0.511   0.232
 2029SOL    HW1 6986   1.225   0.509   0.192
 2029SOL    HW2 6987   1.383   0.534   0.161
 2030SOL     OW 6988   1.812   0.917   3.249
 2030SOL    HW1 6989   1.842   1.009   3.273
 2030SOL    HW2 6990   1.882   0.851   3.276
 2031SOL     OW 6991   5.310   6.821   2.227
 2031SOL    HW1 6992   5.350   6.742   2.273
 2031SOL    HW2 6993   5.336   6.820   2.130
 2032SOL     OW 6994   5.321   6.700   1.287
 2032SOL    HW1 6995   5.271   6.621   1.253
 2032SOL    HW2 6996   5.360   6.751   1.210
 2033SOL     OW 6997   5.932   5.148   6.976
 2033SOL    HW1 6998   5.947   5.107   6.886
 2033SOL    HW2 6999   5.853   5.105   7.020
 2034SOL     OW 7000   2.011   0.269   2.585
 2034SOL    HW1 7001   1.966   0.180   2.584
 2034SOL    HW2 7002   2.100   0.263   2.540
 2035SOL     OW 7003   1.400   2.591   2.368
 2035SOL    HW1 7004   1.354   2.502   2.374
 2035SOL    HW2 7005   1.395   2.624   2.274
 2036SOL     OW 7006   1.913   4.620   0.674
 2036SOL    HW1 7007   1.834   4.667   0.713
 2036SOL    HW2 7008   1.902   4.521   0.687
 2037SOL     OW 7009   0.225   1.366   6.196
 2037SOL    HW1 7010   0.311   1.385   6.149
 2037SOL    HW2 7011   0.229   1.401   6.289
 2038SOL     OW 7012   0.812   0.993   4.486
 2038SOL    HW1 7013   0.793   1.091   4.489
 2038SOL    HW2 7014   0.726   0.942   4.481
 2039SOL     OW 7015   0.787   5.743   2.586
 2039SOL    HW1 7016   0.807   5.765   2.681
 2039SOL    HW2 7017   0.688   5.733   2.574
 2040SOL     OW 7018   4.092   3.636   4.638
 2040SOL    HW1 7019   4.113   3.542   4.611
 2040SOL    HW2 7020   4.160   3.698   4.597
 2041SOL     OW 7021   6.103   4.134   5.940
 2041SOL    HW1 7022   6.165   4.057   5.956
 2041SOL    HW2 7023   6.021   4.101   5.894
 2042SOL     OW 7024   4.168   5.113   6.789
 2042SOL    HW1 7025   4.208   5.204   6.794
 2042SOL    HW2 7026   4.241   5.046   6.774
 2043SOL     OW 7027   5.325   4.749   2.197
 2043SOL    HW1 7028   5.265   4.743   2.117
 2043SOL    HW2 7029   5.273   4.781   2.276
 2044SOL     OW 7030   6.471   0.595   1.903
 2044SOL    HW1 7031   6.537   0.653   1.856
 2044SOL    HW2 7032   6.390   0.649   1.927
 2045SOL     OW 7033   1.868   5.081   6.241
 2045SOL    HW1 7034   1.922   5.128   6.171
 2045SOL    HW2 7035   1.924   5.066   6.322
 2046SOL     OW 7036   6.086   0.192   5.072
 2046SOL    HW1 7037   6.009   0.255   5.056
 2046SOL    HW2 7038   6.089   0.125   4.998
 2047SOL     OW 7039   5.685   2.606   0.157
 2047SOL    HW1 7040   5.674   2.661   0.240
 2047SOL    HW2 7041   5.783   2.587   0.143
 2048SOL     OW 7042   4.568   6.988   5.673
 2048SOL    HW1 7043   4.510   0.018   5.610
 2048SOL    HW2 7044   4.662   0.001   5.666
 2049SOL     OW 7045   4.864   0.156   0.425
 2049SOL    HW1 7046   4.766   0.141   0.415
 2049SOL    HW2 7047   4.887   0.249   0.396
 2050SOL     OW 7048   5.809   2.140   4.070
 2050SOL    HW1 7049   5.823   2.116   3.974
 2050SOL    HW2 7050   5.872   2.213   4.096
 2051SOL     OW 7051   1.676   5.344   0.269
 2051SOL    HW1 7052   1.657   5.328   0.366
 2051SOL    HW2 7053   1.594   5.378   0.224
 2052SOL     OW 7054   1.026   3.324   0.666
 2052SOL    HW1 7055   0.931   3.347   0.690
 2052SOL    HW2 7056   1.026   3.258   0.591
 2053SOL     OW 7057   5.736   0.826   0.344
 2053SOL    HW1 7058   5.674   0.790   0.274
 2053SOL    HW2 7059   5.820   0.772   0.344
 2054SOL     OW 7060   5.881   2.567   0.977
 2054SOL    HW1 7061   5.905   2.518   1.061
 2054SOL    HW2 7062   5.852   2.660   1.001
 2055SOL     OW 7063   5.575   2.947   4.349
 2055SOL    HW1 7064   5.486   2.992   4.345
 2055SOL    HW2 7065   5.563   2.849   4.334
 2056SOL     OW 7066   1.598   0.858   3.411
 2056SOL    HW1 7067   1.685   0.827   3.450
 2056SOL    HW2 7068   1.591   0.828   3.316
 2057SOL     OW 7069   0.076   3.071   4.245
 2057SOL    HW1 7070   0.171   3.087   4.219
 2057SOL    HW2 7071   0.074   3.017   4.329
 2058SOL     OW 7072   6.743   2.311   2.160
 2058SOL    HW1 7073   6.707   2.218   2.170
 2058SOL    HW2 7074   6.835   2.308   2.122
 2059SOL     OW 7075   1.352   1.581   6.903
 2059SOL    HW1 7076   1.292   1.656   6.873
 2059SOL    HW2 7077   1.441   1.618   6.928
 2060SOL     OW 7078   1.133   5.249   2.540
 2060SOL    HW1 7079   1.061   5.186   2.569
 2060SOL    HW2 7080   1.222   5.209   2.560
 2061SOL     OW 7081   6.464   1.925   1.834
 2061SOL    HW1 7082   6.461   1.840   1.887
 2061SOL    HW2 7083   6.409   1.995   1.880
 2062SOL     OW 7084   4.784   0.621   3.254
 2062SOL    HW1 7085   4.701   0.665   3.289
 2062SOL    HW2 7086   4.845   0.690   3.215
 2063SOL     OW 7087   2.103   2.570   6.611
 2063SOL    HW1 7088   2.109   2.480   6.568
 2063SOL    HW2 7089   2.156   2.636   6.558
 2064SOL     OW 7090   0.820   2.589   0.201
 2064SOL    HW1 7091   0.796   2.591   0.104
 2064SOL    HW2 7092   0.737   2.599   0.256
 2065SOL     OW 7093   6.321   3.471   1.615
 2065SOL    HW1 7094   6.354   3.458   1.709
 2065SOL    HW2 7095   6.227   3.504   1.618
 2066SOL     OW 7096   1.382   6.670   4.511
 2066SOL    HW1 7097   1.396   6.769   4.510
 2066SOL    HW2 7098   1.464   6.625   4.475
 2067SOL     OW 7099   6.435   0.375   1.400
 2067SOL    HW1 7100   6.440   0.446   1.470
 2067SOL    HW2 7101   6.520   0.323   1.398
 2068SOL     OW 7102   1.915   1.588   5.342
 2068SOL    HW1 7103   1.848   1.516   5.322
 2068SOL    HW2 7104   1.879   1.649   5.413
 2069SOL     OW 7105   0.441   2.497   1.796
 2069SOL    HW1 7106   0.501   2.423   1.828
 2069SOL    HW2 7107   0.492   2.555   1.732
 2070SOL     OW 7108   1.079   0.723   2.789
 2070SOL    HW1 7109   1.107   0.701   2.882
 2070SOL    HW2 7110   1.074   0.822   2.778
 2071SOL     OW 7111   1.651   6.698   4.370
 2071SOL    HW1 7112   1.705   6.634   4.316
 2071SOL    HW2 7113   1.707   6.733   4.445
 2072SOL     OW 7114   4.887   5.201   1.531
 2072SOL    HW1 7115   4.913   5.297   1.542
 2072SOL    HW2 7116   4.958   5.153   1.480
 2073SOL     OW 7117   2.748   6.476   6.101
 2073SOL    HW1 7118   2.658   6.456   6.138
 2073SOL    HW2 7119   2.779   6.565   6.136
 2074SOL     OW 7120   5.594   1.355   2.073
 2074SOL    HW1 7121   5.536   1.434   2.091
 2074SOL    HW2 7122   5.675   1.383   2.022
 2075SOL     OW 7123   4.666   3.315   0.250
 2075SOL    HW1 7124   4.702   3.255   0.321
 2075SOL    HW2 7125   4.714   3.297   0.164
 2076SOL     OW 7126   4.816   0.285   1.270
 2076SOL    HW1 7127   4.783   0.351   1.202
 2076SOL    HW2 7128   4.903   0.246   1.240
 2077SOL     OW 7129   5.858   0.917   2.769
 2077SOL    HW1 7130   5.822   0.862   2.693
 2077SOL    HW2 7131   5.956   0.900   2.779
 2078SOL     OW 7132   3.146   5.299   5.716
 2078SOL    HW1 7133   3.149   5.205   5.683
 2078SOL    HW2 7134   3.145   5.299   5.816
 2079SOL     OW 7135   5.704   1.070   4.002
 2079SOL    HW1 7136   5.737   1.147   4.057
 2079SOL    HW2 7137   5.637   1.103   3.935
 2080SOL     OW 7138   2.604   2.375   4.189
 2080SOL    HW1 7139   2.598   2.365   4.288
 2080SOL    HW2 7140   2.554   2.456   4.159
 2081SOL     OW 7141   0.349   6.752   5.259
 2081SOL    HW1 7142   0.310   6.837   5.295
 2081SOL    HW2 7143   0.284   6.709   5.197
 2082SOL     OW 7144   5.487   0.844   1.498
 2082SOL    HW1 7145   5.417   0.832   1.569
 2082SOL    HW2 7146   5.450   0.900   1.424
 2083SOL     OW 7147   3.594   5.189   5.845
 2083SOL    HW1 7148   3.680   5.142   5.825
 2083SOL    HW2 7149   3.524   5.121   5.868
 2084SOL     OW 7150   0.266   2.777   3.534
 2084SOL    HW1 7151   0.174   2.807   3.559
 2084SOL    HW2 7152   0.284   2.686   3.573
 2085SOL     OW 7153   5.648   0.402   5.953
 2085SOL    HW1 7154   5.554   0.438   5.955
 2085SOL    HW2 7155   5.645   0.303   5.959
 2086SOL     OW 7156   2.914   5.095   0.874
 2086SOL    HW1 7157   2.905   5.119   0.970
 2086SOL    HW2 7158   2.908   5.178   0.818
 2087SOL     OW 7159   5.198   6.972   3.657
 2087SOL    HW1 7160   5.276   6.952   3.599
 2087SOL    HW2 7161   5.227   0.011   3.732
 2088SOL     OW 7162   3.348   0.130   0.641
 2088SOL    HW1 7163   3.254   0.097   0.633
 2088SOL    HW2 7164   3.408   0.077   0.581
 2089SOL     OW 7165   4.058   0.394   6.782
 2089SOL    HW1 7166   4.147   0.348   6.783
 2089SOL    HW2 7167   4.056   0.461   6.708
 2090SOL     OW 7168   3.673   3.535   4.601
 2090SOL    HW1 7169   3.634   3.540   4.509
 2090SOL    HW2 7170   3.695   3.440   4.622
 2091SOL     OW 7171   2.152   4.588   1.310
 2091SOL    HW1 7172   2.089   4.595   1.233
 2091SOL    HW2 7173   2.200   4.500   1.306
 2092SOL     OW 7174   6.356   6.483   0.837
 2092SOL    HW1 7175   6.344   6.387   0.812
 2092SOL    HW2 7176   6.369   6.537   0.754
 2093SOL     OW 7177   1.126   3.036   1.615
 2093SOL    HW1 7178   1.081   3.125   1.625
 2093SOL    HW2 7179   1.108   2.980   1.696
 2094SOL     OW 7180   6.014   0.181   2.312
 2094SOL    HW1 7181   6.104   0.223   2.326
 2094SOL    HW2 7182   6.004   0.102   2.372
 2095SOL     OW 7183   5.932   5.063   5.222
 2095SOL    HW1 7184   5.947   5.141   5.161
 2095SOL    HW2 7185   6.020   5.020   5.242
 2096SOL     OW 7186   4.883   4.073   2.542
 2096SOL    HW1 7187   4.975   4.098   2.570
 2096SOL    HW2 7188   4.877   4.071   2.442
 2097SOL     OW 7189   0.224   2.693   6.931
 2097SOL    HW1 7190   0.221   2.757   7.007
 2097SOL    HW2 7191   0.299   2.627   6.946
 2098SOL     OW 7192   4.917   0.349   4.152
 2098SOL    HW1 7193   4.830   0.345   4.200
 2098SOL    HW2 7194   4.935   0.442   4.121
 2099SOL     OW 7195   3.239   1.616   4.426
 2099SOL    HW1 7196   3.261   1.660   4.513
 2099SOL    HW2 7197   3.142   1.590   4.426
 2100SOL     OW 7198   4.664   4.028   6.630
 2100SOL    HW1 7199   4.675   4.111   6.576
 2100SOL    HW2 7200   4.677   3.948   6.571
 2101SOL     OW 7201   0.163   0.138   3.928
 2101SOL    HW1 7202   0.109   0.188   3.860
 2101SOL    HW2 7203   0.185   0.199   4.004
 2102SOL     OW 7204   0.171   4.929   2.663
 2102SOL    HW1 7205   0.098   4.892   2.721
 2102SOL    HW2 7206   0.187   4.867   2.586
 2103SOL     OW 7207   3.491   3.590   6.316
 2103SOL    HW1 7208   3.567   3.631   6.367
 2103SOL    HW2 7209   3.489   3.627   6.224
 2104SOL     OW 7210   1.609   3.557   5.538
 2104SOL    HW1 7211   1.593   3.611   5.455
 2104SOL    HW2 7212   1.695   3.586   5.580
 2105SOL     OW 7213   5.734   5.902   1.657
 2105SOL    HW1 7214   5.725   5.951   1.744
 2105SOL    HW2 7215   5.807   5.834   1.665
 2106SOL     OW 7216   4.689   5.660   6.752
 2106SOL    HW1 7217   4.747   5.616   6.684
 2106SOL    HW2 7218   4.702   5.617   6.841
 2107SOL     OW 7219   3.944   4.017   6.104
 2107SOL    HW1 7220   3.987   4.017   6.013
 2107SOL    HW2 7221   3.976   3.938   6.156
 2108SOL     OW 7222   5.823   5.102   6.044
 2108SOL    HW1 7223   5.899   5.153   6.004
 2108SOL    HW2 7224   5.843   5.004   6.041
 2109SOL     OW 7225   5.917   6.734   2.948
 2109SOL    HW1 7226   5.827   6.764   2.918
 2109SOL    HW2 7227   5.933   6.639   2.919
 2110SOL     OW 7228   2.714   4.342   6.428
 2110SOL    HW1 7229   2.644   4.352   6.356
 2110SOL    HW2 7230   2.675   4.367   6.516
 2111SOL     OW 7231   1.383   2.791   0.273
 2111SOL    HW1 7232   1.431   2.787   0.361
 2111SOL    HW2 7233   1.339   2.881   0.264
 2112SOL     OW 7234   4.622   2.909   1.481
 2112SOL    HW1 7235   4.721   2.902   1.470
 2112SOL    HW2 7236   4.599   2.994   1.527
 2113SOL     OW 7237   0.405   0.527   2.545
 2113SOL    HW1 7238   0.476   0.594   2.521
 2113SOL    HW2 7239   0.412   0.504   2.642
 2114SOL     OW 7240   2.100   3.727   6.754
 2114SOL    HW1 7241   2.044   3.693   6.830
 2114SOL    HW2 7242   2.197   3.712   6.774
 2115SOL     OW 7243   2.382   4.495   2.182
 2115SOL    HW1 7244   2.459   4.550   2.215
 2115SOL    HW2 7245   2.416   4.424   2.121
 2116SOL     OW 7246   0.312   3.926   3.149
 2116SOL    HW1 7247   0.298   4.022   3.124
 2116SOL    HW2 7248   0.227   3.875   3.136
 2117SOL     OW 7249   0.414   4.863   0.830
 2117SOL    HW1 7250   0.384   4.826   0.743
 2117SOL    HW2 7251   0.349   4.837   0.902
 2118SOL     OW 7252   0.027   3.949   2.175
 2118SOL    HW1 7253   0.118   3.968   2.137
 2118SOL    HW2 7254   0.034   3.879   2.246
 2119SOL     OW 7255   2.635   6.028   1.481
 2119SOL    HW1 7256   2.718   6.068   1.442
 2119SOL    HW2 7257   2.660   5.966   1.555
 2120SOL     OW 7258   6.643   4.936   2.203
 2120SOL    HW1 7259   6.562   4.933   2.261
 2120SOL    HW2 7260   6.723   4.909   2.256
 2121SOL     OW 7261   0.174   5.631   4.829
 2121SOL    HW1 7262   0.250   5.613   4.767
 2121SOL    HW2 7263   0.129   5.716   4.802
 2122SOL     OW 7264   4.569   4.477   4.841
 2122SOL    HW1 7265   4.570   4.377   4.842
 2122SOL    HW2 7266   4.505   4.511   4.909
 2123SOL     OW 7267   5.939   4.652   3.169
 2123SOL    HW1 7268   5.917   4.556   3.150
 2123SOL    HW2 7269   6.027   4.656   3.217
 2124SOL     OW 7270   1.775   2.270   0.801
 2124SOL    HW1 7271   1.720   2.190   0.776
 2124SOL    HW2 7272   1.715   2.346   0.825
 2125SOL     OW 7273   3.051   0.044   0.640
 2125SOL    HW1 7274   2.968   0.097   0.654
 2125SOL    HW2 7275   3.048   7.020   0.551
 2126SOL     OW 7276   2.761   0.766   0.247
 2126SOL    HW1 7277   2.685   0.724   0.298
 2126SOL    HW2 7278   2.830   0.696   0.227
 2127SOL     OW 7279   5.682   3.295   4.768
 2127SOL    HW1 7280   5.731   3.377   4.800
 2127SOL    HW2 7281   5.732   3.214   4.799
 2128SOL     OW 7282   0.442   5.126   4.227
 2128SOL    HW1 7283   0.526   5.075   4.210
 2128SOL    HW2 7284   0.415   5.176   4.144
 2129SOL     OW 7285   3.880   1.610   5.662
 2129SOL    HW1 7286   3.781   1.601   5.664
 2129SOL    HW2 7287   3.906   1.704   5.685
 2130SOL     OW 7288   4.352   6.069   2.326
 2130SOL    HW1 7289   4.392   6.128   2.395
 2130SOL    HW2 7290   4.412   5.990   2.310
 2131SOL     OW 7291   6.695   1.383   0.641
 2131SOL    HW1 7292   6.718   1.395   0.544
 2131SOL    HW2 7293   6.601   1.414   0.656
 2132SOL     OW 7294   2.112   3.137   0.560
 2132SOL    HW1 7295   2.153   3.185   0.482
 2132SOL    HW2 7296   2.099   3.201   0.636
 2133SOL     OW 7297   2.778   2.763   6.160
 2133SOL    HW1 7298   2.717   2.762   6.081
 2133SOL    HW2 7299   2.872   2.776   6.130
 2134SOL     OW 7300   1.145   0.342   0.407
 2134SOL    HW1 7301   1.189   0.432   0.410
 2134SOL    HW2 7302   1.211   0.272   0.435
 2135SOL     OW 7303   0.503   3.901   3.980
 2135SOL    HW1 7304   0.523   3.949   3.895
 2135SOL    HW2 7305   0.468   3.809   3.959
 2136SOL     OW 7306   1.994   5.658   1.833
 2136SOL    HW1 7307   1.936   5.596   1.886
 2136SOL    HW2 7308   2.087   5.657   1.871
 2137SOL     OW 7309   2.376   5.816   3.932
 2137SOL    HW1 7310   2.429   5.823   3.848
 2137SOL    HW2 7311   2.437   5.826   4.011
 2138SOL     OW 7312   5.253   1.781   2.547
 2138SOL    HW1 7313   5.286   1.761   2.640
 2138SOL    HW2 7314   5.325   1.830   2.497
 2139SOL     OW 7315   2.622   1.075   5.637
 2139SOL    HW1 7316   2.597   1.062   5.541
 2139SOL    HW2 7317   2.638   0.986   5.680
 2140SOL     OW 7318   2.286   1.360   5.512
 2140SOL    HW1 7319   2.292   1.453   5.475
 2140SOL    HW2 7320   2.352   1.350   5.586
 2141SOL     OW 7321   6.235   4.526   2.641
 2141SOL    HW1 7322   6.190   4.511   2.729
 2141SOL    HW2 7323   6.235   4.624   2.620
 2142SOL     OW 7324   1.929   1.154   3.066
 2142SOL    HW1 7325   1.849   1.162   3.006
 2142SOL    HW2 7326   1.899   1.160   3.161
 2143SOL     OW 7327   1.669   4.632   0.421
 2143SOL    HW1 7328   1.632   4.545   0.454
 2143SOL    HW2 7329   1.649   4.704   0.487
 2144SOL     OW 7330   6.130   5.973   4.095
 2144SOL    HW1 7331   6.123   5.884   4.139
 2144SOL    HW2 7332   6.197   5.969   4.021
 2145SOL     OW 7333   4.262   0.059   3.747
 2145SOL    HW1 7334   4.349   0.048   3.796
 2145SOL    HW2 7335   4.268   0.139   3.686
 2146SOL     OW 7336   1.840   3.284   0.813
 2146SOL    HW1 7337   1.878   3.212   0.871
 2146SOL    HW2 7338   1.748   3.307   0.845
 2147SOL     OW 7339   5.646   1.211   5.040
 2147SOL    HW1 7340   5.606   1.127   5.078
 2147SOL    HW2 7341   5.576   1.282   5.036
 2148SOL     OW 7342   0.434   3.197   6.763
 2148SOL    HW1 7343   0.374   3.236   6.694
 2148SOL    HW2 7344   0.523   3.243   6.759
 2149SOL     OW 7345   0.532   0.319   6.664
 2149SOL    HW1 7346   0.453   0.294   6.721
 2149SOL    HW2 7347   0.539   0.419   6.661
 2150SOL     OW 7348   2.348   3.350   1.410
 2150SOL    HW1 7349   2.345   3.450   1.417
 2150SOL    HW2 7350   2.256   3.315   1.391
 2151SOL     OW 7351   1.093   5.825   0.197
 2151SOL    HW1 7352   1.087   5.731   0.231
 2151SOL    HW2 7353   1.083   5.824   0.097
 2152SOL     OW 7354   4.129   5.979   3.706
 2152SOL    HW1 7355   4.095   6.033   3.783
 2152SOL    HW2 7356   4.227   5.963   3.718
 2153SOL     OW 7357   4.766   1.627   3.907
 2153SOL    HW1 7358   4.778   1.612   4.006
 2153SOL    HW2 7359   4.688   1.574   3.875
 2154SOL     OW 7360   2.957   6.911   3.450
 2154SOL    HW1 7361   2.932   6.953   3.363
 2154SOL    HW2 7362   2.973   6.813   3.436
 2155SOL     OW 7363   4.801   6.926   1.176
 2155SOL    HW1 7364   4.716   6.969   1.206
 2155SOL    HW2 7365   4.879   6.980   1.207
 2156SOL     OW 7366   5.803   1.827   4.120
 2156SOL    HW1 7367   5.738   1.843   4.045
 2156SOL    HW2 7368   5.783   1.890   4.195
 2157SOL     OW 7369   3.737   5.681   3.918
 2157SOL    HW1 7370   3.766   5.623   3.842
 2157SOL    HW2 7371   3.723   5.775   3.885
 2158SOL     OW 7372   3.498   0.816   6.989
 2158SOL    HW1 7373   3.464   0.735   0.017
 2158SOL    HW2 7374   3.534   0.788   6.900
 2159SOL     OW 7375   1.853   0.425   5.501
 2159SOL    HW1 7376   1.865   0.357   5.574
 2159SOL    HW2 7377   1.877   0.383   5.414
 2160SOL     OW 7378   5.719   6.300   0.415
 2160SOL    HW1 7379   5.818   6.296   0.424
 2160SOL    HW2 7380   5.695   6.338   0.325
 2161SOL     OW 7381   1.635   2.445   2.413
 2161SOL    HW1 7382   1.577   2.524   2.395
 2161SOL    HW2 7383   1.730   2.475   2.425
 2162SOL     OW 7384   1.069   6.921   2.393
 2162SOL    HW1 7385   1.109   6.872   2.316
 2162SOL    HW2 7386   1.135   6.987   2.429
 2163SOL     OW 7387   1.608   3.018   2.389
 2163SOL    HW1 7388   1.583   2.936   2.440
 2163SOL    HW2 7389   1.704   3.040   2.406
 2164SOL     OW 7390   1.895   2.508   2.360
 2164SOL    HW1 7391   1.955   2.479   2.434
 2164SOL    HW2 7392   1.897   2.607   2.352
 2165SOL     OW 7393   0.119   1.566   3.884
 2165SOL    HW1 7394   0.131   1.601   3.977
 2165SOL    HW2 7395   0.022   1.546   3.869
 2166SOL     OW 7396   6.644   4.074   2.848
 2166SOL    HW1 7397   6.733   4.028   2.840
 2166SOL    HW2 7398   6.575   4.007   2.876
 2167SOL     OW 7399   2.547   1.674   3.905
 2167SOL    HW1 7400   2.540   1.774   3.900
 2167SOL    HW2 7401   2.636   1.649   3.942
 2168SOL     OW 7402   1.807   1.439   3.194
 2168SOL    HW1 7403   1.859   1.524   3.192
 2168SOL    HW2 7404   1.808   1.398   3.102
 2169SOL     OW 7405   0.396   0.776   1.768
 2169SOL    HW1 7406   0.414   0.847   1.835
 2169SOL    HW2 7407   0.347   0.700   1.812
 2170SOL     OW 7408   1.008   4.087   5.511
 2170SOL    HW1 7409   1.077   4.015   5.505
 2170SOL    HW2 7410   0.988   4.106   5.607
 2171SOL     OW 7411   0.527   5.261   1.339
 2171SOL    HW1 7412   0.510   5.226   1.431
 2171SOL    HW2 7413   0.484   5.200   1.272
 2172SOL     OW 7414   1.019   1.593   4.669
 2172SOL    HW1 7415   1.014   1.670   4.604
 2172SOL    HW2 7416   1.067   1.622   4.751
 2173SOL     OW 7417   5.435   0.285   5.199
 2173SOL    HW1 7418   5.479   0.355   5.256
 2173SOL    HW2 7419   5.349   0.321   5.163
 2174SOL     OW 7420   6.904   6.566   5.163
 2174SOL    HW1 7421   6.875   6.536   5.253
 2174SOL    HW2 7422   6.878   6.498   5.094
 2175SOL     OW 7423   3.099   3.994   5.176
 2175SOL    HW1 7424   3.062   3.904   5.150
 2175SOL    HW2 7425   3.023   4.056   5.195
 2176SOL     OW 7426   5.529   2.105   1.536
 2176SOL    HW1 7427   5.527   2.016   1.490
 2176SOL    HW2 7428   5.519   2.178   1.468
 2177SOL     OW 7429   0.632   0.510   3.785
 2177SOL    HW1 7430   0.638   0.520   3.686
 2177SOL    HW2 7431   0.586   0.589   3.825
 2178SOL     OW 7432   0.959   2.319   2.647
 2178SOL    HW1 7433   0.986   2.333   2.742
 2178SOL    HW2 7434   0.869   2.359   2.632
 2179SOL     OW 7435   2.014   4.457   5.908
 2179SOL    HW1 7436   2.006   4.554   5.881
 2179SOL    HW2 7437   2.014   4.400   5.826
 2180SOL     OW 7438   0.814   6.257   2.307
 2180SOL    HW1 7439   0.900   6.286   2.265
 2180SOL    HW2 7440   0.812   6.158   2.315
 2181SOL     OW 7441   4.082   4.839   4.886
 2181SOL    HW1 7442   4.146   4.911   4.913
 2181SOL    HW2 7443   4.096   4.759   4.945
 2182SOL     OW 7444   0.046   5.174   2.629
 2182SOL    HW1 7445   0.073   5.270   2.621
 2182SOL    HW2 7446   0.123   5.115   2.603
 2183SOL     OW 7447   3.728   2.589   6.805
 2183SOL    HW1 7448   3.653   2.654   6.816
 2183SOL    HW2 7449   3.796   2.627   6.741
 2184SOL     OW 7450   6.264   1.070   6.660
 2184SOL    HW1 7451   6.300   1.139   6.723
 2184SOL    HW2 7452   6.173   1.042   6.691
 2185SOL     OW 7453   0.725   0.750   7.008
 2185SOL    HW1 7454   0.772   0.766   6.921
 2185SOL    HW2 7455   0.652   0.683   6.995
 2186SOL     OW 7456   0.153   5.162   5.407
 2186SOL    HW1 7457   0.110   5.210   5.331
 2186SOL    HW2 7458   0.108   5.073   5.420
 2187SOL     OW 7459   0.739   5.315   3.177
 2187SOL    HW1 7460   0.776   5.224   3.160
 2187SOL    HW2 7461   0.678   5.341   3.103
 2188SOL     OW 7462   1.946   0.480   1.030
 2188SOL    HW1 7463   1.885   0.507   1.105
 2188SOL    HW2 7464   2.004   0.404   1.060
 2189SOL     OW 7465   2.728   1.363   1.534
 2189SOL    HW1 7466   2.645   1.306   1.534
 2189SOL    HW2 7467   2.798   1.319   1.590
 2190SOL     OW 7468   6.090   4.263   2.557
 2190SOL    HW1 7469   6.124   4.270   2.651
 2190SOL    HW2 7470   6.155   4.308   2.495
 2191SOL     OW 7471   2.736   0.243   0.432
 2191SOL    HW1 7472   2.676   0.276   0.358
 2191SOL    HW2 7473   2.821   0.210   0.392
 2192SOL     OW 7474   4.272   1.308   1.152
 2192SOL    HW1 7475   4.314   1.398   1.153
 2192SOL    HW2 7476   4.299   1.259   1.069
 2193SOL     OW 7477   1.100   6.719   6.638
 2193SOL    HW1 7478   1.148   6.661   6.703
 2193SOL    HW2 7479   1.027   6.666   6.594
 2194SOL     OW 7480   0.734   3.804   6.076
 2194SOL    HW1 7481   0.737   3.848   5.986
 2194SOL    HW2 7482   0.640   3.774   6.095
 2195SOL     OW 7483   0.568   4.232   6.350
 2195SOL    HW1 7484   0.472   4.203   6.358
 2195SOL    HW2 7485   0.607   4.241   6.442
 2196SOL     OW 7486   2.936   6.428   5.552
 2196SOL    HW1 7487   3.014   6.366   5.553
 2196SOL    HW2 7488   2.882   6.415   5.636
 2197SOL     OW 7489   2.809   5.449   5.365
 2197SOL    HW1 7490   2.762   5.407   5.287
 2197SOL    HW2 7491   2.773   5.410   5.450
 2198SOL     OW 7492   0.511   0.734   6.479
 2198SOL    HW1 7493   0.419   0.701   6.459
 2198SOL    HW2 7494   0.505   0.814   6.539
 2199SOL     OW 7495   4.148   6.566   4.263
 2199SOL    HW1 7496   4.124   6.483   4.212
 2199SOL    HW2 7497   4.065   6.607   4.301
 2200SOL     OW 7498   2.709   1.522   4.401
 2200SOL    HW1 7499   2.666   1.433   4.383
 2200SOL    HW2 7500   2.671   1.590   4.339
 2201SOL     OW 7501   6.059   4.215   3.773
 2201SOL    HW1 7502   6.074   4.118   3.754
 2201SOL    HW2 7503   6.139   4.253   3.820
 2202SOL     OW 7504   3.920   5.976   2.050
 2202SOL    HW1 7505   3.941   6.062   2.003
 2202SOL    HW2 7506   3.982   5.964   2.127
 2203SOL     OW 7507   2.101   3.273   1.337
 2203SOL    HW1 7508   2.131   3.235   1.250
 2203SOL    HW2 7509   2.086   3.371   1.327
 2204SOL     OW 7510   4.918   3.155   1.000
 2204SOL    HW1 7511   4.841   3.097   0.975
 2204SOL    HW2 7512   4.895   3.209   1.081
 2205SOL     OW 7513   0.460   4.904   0.381
 2205SOL    HW1 7514   0.428   4.863   0.466
 2205SOL    HW2 7515   0.424   4.997   0.373
 2206SOL     OW 7516   2.655   2.562   6.342
 2206SOL    HW1 7517   2.687   2.559   6.437
 2206SOL    HW2 7518   2.704   2.634   6.293
 2207SOL     OW 7519   4.564   6.017   0.683
 2207SOL    HW1 7520   4.495   5.990   0.615
 2207SOL    HW2 7521   4.567   6.117   0.690
 2208SOL     OW 7522   0.931   6.267   4.329
 2208SOL    HW1 7523   1.007   6.317   4.288
 2208SOL    HW2 7524   0.850   6.275   4.270
 2209SOL     OW 7525   3.206   5.597   4.630
 2209SOL    HW1 7526   3.189   5.571   4.725
 2209SOL    HW2 7527   3.272   5.534   4.589
 2210SOL     OW 7528   4.703   6.377   1.080
 2210SOL    HW1 7529   4.681   6.292   1.127
 2210SOL    HW2 7530   4.633   6.446   1.101
 2211SOL     OW 7531   6.511   1.357   1.289
 2211SOL    HW1 7532   6.576   1.312   1.351
 2211SOL    HW2 7533   6.539   1.452   1.276
 2212SOL     OW 7534   2.629   5.944   6.587
 2212SOL    HW1 7535   2.724   5.924   6.562
 2212SOL    HW2 7536   2.625   6.032   6.636
 2213SOL     OW 7537   3.134   2.179   4.404
 2213SOL    HW1 7538   3.038   2.190   4.381
 2213SOL    HW2 7539   3.156   2.235   4.484
 2214SOL     OW 7540   3.910   3.214   6.383
 2214SOL    HW1 7541   3.819   3.179   6.406
 2214SOL    HW2 7542   3.919   3.220   6.284
 2215SOL     OW 7543   4.315   0.035   7.020
 2215SOL    HW1 7544   4.286   0.100   6.949
 2215SOL    HW2 7545   4.283   0.067   0.088
 2216SOL     OW 7546   0.790   6.869   6.095
 2216SOL    HW1 7547   0.702   6.896   6.056
 2216SOL    HW2 7548   0.778   6.840   6.190
 2217SOL     OW 7549   4.099   0.388   2.870
 2217SOL    HW1 7550   4.049   0.302   2.877
 2217SOL    HW2 7551   4.066   0.440   2.791
 2218SOL     OW 7552   0.461   5.153   5.887
 2218SOL    HW1 7553   0.463   5.055   5.906
 2218SOL    HW2 7554   0.415   5.169   5.799
 2219SOL     OW 7555   5.370   1.208   0.482
 2219SOL    HW1 7556   5.446   1.247   0.533
 2219SOL    HW2 7557   5.287   1.260   0.501
 2220SOL     OW 7558   0.537   5.990   5.576
 2220SOL    HW1 7559   0.551   6.086   5.551
 2220SOL    HW2 7560   0.440   5.973   5.591
 2221SOL     OW 7561   6.902   1.442   3.906
 2221SOL    HW1 7562   6.859   1.377   3.843
 2221SOL    HW2 7563   6.831   1.484   3.963
 2222SOL     OW 7564   4.721   6.103   1.548
 2222SOL    HW1 7565   4.686   6.023   1.597
 2222SOL    HW2 7566   4.795   6.145   1.600
 2223SOL     OW 7567   6.771   6.647   5.468
 2223SOL    HW1 7568   6.684   6.647   5.418
 2223SOL    HW2 7569   6.767   6.581   5.543
 2224SOL     OW 7570   5.751   4.084   0.648
 2224SOL    HW1 7571   5.833   4.141   0.647
 2224SOL    HW2 7572   5.751   4.023   0.569
 2225SOL     OW 7573   0.497   6.871   3.205
 2225SOL    HW1 7574   0.495   6.879   3.106
 2225SOL    HW2 7575   0.548   6.948   3.244
 2226SOL     OW 7576   2.364   4.990   0.900
 2226SOL    HW1 7577   2.383   4.937   0.982
 2226SOL    HW2 7578   2.443   5.047   0.878
 2227SOL     OW 7579   4.187   2.288   2.065
 2227SOL    HW1 7580   4.285   2.309   2.067
 2227SOL    HW2 7581   4.158   2.253   2.154
 2228SOL     OW 7582   4.958   5.229   0.021
 2228SOL    HW1 7583   4.903   5.251   6.961
 2228SOL    HW2 7584   5.054   5.253   0.004
 2229SOL     OW 7585   3.591   3.261   4.324
 2229SOL    HW1 7586   3.555   3.317   4.250
 2229SOL    HW2 7587   3.525   3.257   4.399
 2230SOL     OW 7588   5.286   6.701   0.629
 2230SOL    HW1 7589   5.368   6.666   0.584
 2230SOL    HW2 7590   5.307   6.789   0.672
 2231SOL     OW 7591   1.082   0.288   0.084
 2231SOL    HW1 7592   1.105   0.380   0.115
 2231SOL    HW2 7593   1.094   0.282   7.005
 2232SOL     OW 7594   1.553   0.181   5.351
 2232SOL    HW1 7595   1.477   0.118   5.367
 2232SOL    HW2 7596   1.557   0.205   5.254
 2233SOL     OW 7597   2.996   3.317   0.780
 2233SOL    HW1 7598   3.020   3.252   0.852
 2233SOL    HW2 7599   2.925   3.379   0.814
 2234SOL     OW 7600   4.103   1.519   0.673
 2234SOL    HW1 7601   4.160   1.447   0.633
 2234SOL    HW2 7602   4.147   1.607   0.661
 2235SOL     OW 7603   2.545   0.971   2.519
 2235SOL    HW1 7604   2.463   1.012   2.478
 2235SOL    HW2 7605   2.586   0.907   2.454
 2236SOL     OW 7606   2.112   4.284   5.438
 2236SOL    HW1 7607   2.090   4.340   5.358
 2236SOL    HW2 7608   2.131   4.344   5.516
 2237SOL     OW 7609   6.271   4.987   5.130
 2237SOL    HW1 7610   6.269   4.911   5.194
 2237SOL    HW2 7611   6.213   4.965   5.051
 2238SOL     OW 7612   5.353   4.111   2.501
 2238SOL    HW1 7613   5.268   4.131   2.549
 2238SOL    HW2 7614   5.337   4.118   2.402
 2239SOL     OW 7615   3.787   6.865   3.811
 2239SOL    HW1 7616   3.855   6.798   3.841
 2239SOL    HW2 7617   3.818   6.957   3.837
 2240SOL     OW 7618   4.638   5.394   3.140
 2240SOL    HW1 7619   4.562   5.348   3.094
 2240SOL    HW2 7620   4.690   5.447   3.072
 2241SOL     OW 7621   0.598   6.738   2.013
 2241SOL    HW1 7622   0.539   6.785   2.079
 2241SOL    HW2 7623   0.594   6.640   2.027
 2242SOL     OW 7624   4.839   3.090   3.002
 2242SOL    HW1 7625   4.908   3.151   3.041
 2242SOL    HW2 7626   4.784   3.051   3.075
 2243SOL     OW 7627   1.824   6.775   0.743
 2243SOL    HW1 7628   1.771   6.717   0.805
 2243SOL    HW2 7629   1.909   6.729   0.718
 2244SOL     OW 7630   2.490   0.132   0.779
 2244SOL    HW1 7631   2.456   0.141   0.872
 2244SOL    HW2 7632   2.579   0.086   0.780
 2245SOL     OW 7633   0.425   0.781   0.217
 2245SOL    HW1 7634   0.359   0.810   0.286
 2245SOL    HW2 7635   0.386   0.706   0.162
 2246SOL     OW 7636   2.271   0.946   5.506
 2246SOL    HW1 7637   2.246   0.878   5.574
 2246SOL    HW2 7638   2.188   0.977   5.458
 2247SOL     OW 7639   3.114   3.989   2.549
 2247SOL    HW1 7640   3.097   3.990   2.451
 2247SOL    HW2 7641   3.204   4.027   2.568
 2248SOL     OW 7642   5.804   4.134   5.328
 2248SOL    HW1 7643   5.758   4.046   5.337
 2248SOL    HW2 7644   5.900   4.119   5.303
 2249SOL     OW 7645   2.341   6.835   4.037
 2249SOL    HW1 7646   2.353   6.814   3.940
 2249SOL    HW2 7647   2.314   6.930   4.048
 2250SOL     OW 7648   4.040   4.342   6.317
 2250SOL    HW1 7649   4.117   4.283   6.341
 2250SOL    HW2 7650   3.959   4.286   6.302
 2251SOL     OW 7651   5.148   6.991   5.982
 2251SOL    HW1 7652   5.189   6.981   5.892
 2251SOL    HW2 7653   5.072   6.926   5.991
 2252SOL     OW 7654   4.596   1.912   2.766
 2252SOL    HW1 7655   4.540   1.940   2.844
 2252SOL    HW2 7656   4.599   1.987   2.699
 2253SOL     OW 7657   0.466   3.653   0.581
 2253SOL    HW1 7658   0.503   3.645   0.488
 2253SOL    HW2 7659   0.535   3.695   0.640
 2254SOL     OW 7660   3.956   3.858   3.164
 2254SOL    HW1 7661   3.962   3.890   3.259
 2254SOL    HW2 7662   3.926   3.763   3.163
 2255SOL     OW 7663   2.917   4.331   5.743
 2255SOL    HW1 7664   2.822   4.333   5.711
 2255SOL    HW2 7665   2.978   4.358   5.669
 2256SOL     OW 7666   5.074   6.522   1.901
 2256SOL    HW1 7667   5.073   6.426   1.874
 2256SOL    HW2 7668   4.989   6.544   1.949
 2257SOL     OW 7669   0.075   1.562   4.451
 2257SOL    HW1 7670   0.004   1.501   4.488
 2257SOL    HW2 7671   0.163   1.542   4.495
 2258SOL     OW 7672   2.064   6.621   4.428
 2258SOL    HW1 7673   2.076   6.619   4.527
 2258SOL    HW2 7674   2.078   6.530   4.390
 2259SOL     OW 7675   6.814   2.732   4.866
 2259SOL    HW1 7676   6.846   2.643   4.835
 2259SOL    HW2 7677   6.879   2.803   4.839
 2260SOL     OW 7678   0.915   4.157   1.542
 2260SOL    HW1 7679   0.860   4.116   1.469
 2260SOL    HW2 7680   0.981   4.090   1.576
 2261SOL     OW 7681   5.785   3.725   0.160
 2261SOL    HW1 7682   5.695   3.768   0.161
 2261SOL    HW2 7683   5.791   3.657   0.233
 2262SOL     OW 7684   6.321   0.487   4.347
 2262SOL    HW1 7685   6.287   0.516   4.436
 2262SOL    HW2 7686   6.409   0.442   4.358
 2263SOL     OW 7687   1.334   4.285   0.423
 2263SOL    HW1 7688   1.264   4.350   0.452
 2263SOL    HW2 7689   1.318   4.259   0.327
 2264SOL     OW 7690   2.235   6.702   6.312
 2264SOL    HW1 7691   2.215   6.657   6.225
 2264SOL    HW2 7692   2.187   6.789   6.316
 2265SOL     OW 7693   0.929   6.406   3.799
 2265SOL    HW1 7694   0.955   6.473   3.730
 2265SOL    HW2 7695   0.976   6.427   3.885
 2266SOL     OW 7696   4.844   1.371   6.831
 2266SOL    HW1 7697   4.922   1.396   6.889
 2266SOL    HW2 7698   4.878   1.333   6.744
 2267SOL     OW 7699   4.740   2.875   4.770
 2267SOL    HW1 7700   4.786   2.931   4.838
 2267SOL    HW2 7701   4.756   2.913   4.678
 2268SOL     OW 7702   6.838   4.614   6.095
 2268SOL    HW1 7703   6.752   4.564   6.088
 2268SOL    HW2 7704   6.841   4.686   6.026
 2269SOL     OW 7705   1.828   2.963   5.331
 2269SOL    HW1 7706   1.844   3.054   5.370
 2269SOL    HW2 7707   1.750   2.920   5.377
 2270SOL     OW 7708   4.668   2.283   6.364
 2270SOL    HW1 7709   4.731   2.280   6.287
 2270SOL    HW2 7710   4.698   2.219   6.434
 2271SOL     OW 7711   5.976   4.481   6.277
 2271SOL    HW1 7712   6.035   4.550   6.236
 2271SOL    HW2 7713   6.007   4.390   6.248
 2272SOL     OW 7714   6.204   1.233   6.060
 2272SOL    HW1 7715   6.238   1.313   6.108
 2272SOL    HW2 7716   6.250   1.151   6.095
 2273SOL     OW 7717   2.147   2.187   2.165
 2273SOL    HW1 7718   2.110   2.184   2.258
 2273SOL    HW2 7719   2.093   2.127   2.106
 2274SOL     OW 7720   1.019   0.989   0.234
 2274SOL    HW1 7721   1.033   1.020   0.328
 2274SOL    HW2 7722   0.953   1.049   0.188
 2275SOL     OW 7723   5.861   4.988   2.583
 2275SOL    HW1 7724   5.813   5.075   2.588
 2275SOL    HW2 7725   5.859   4.943   2.673
 2276SOL     OW 7726   1.630   1.392   1.682
 2276SOL    HW1 7727   1.643   1.302   1.723
 2276SOL    HW2 7728   1.621   1.383   1.583
 2277SOL     OW 7729   3.066   3.900   3.263
 2277SOL    HW1 7730   3.036   3.936   3.175
 2277SOL    HW2 7731   3.161   3.925   3.279
 2278SOL     OW 7732   0.925   2.149   3.625
 2278SOL    HW1 7733   0.907   2.051   3.619
 2278SOL    HW2 7734   0.875   2.197   3.552
 2279SOL     OW 7735   0.280   5.927   6.213
 2279SOL    HW1 7736   0.356   5.863   6.205
 2279SOL    HW2 7737   0.220   5.897   6.287
 2280SOL     OW 7738   5.050   1.412   5.306
 2280SOL    HW1 7739   4.957   1.379   5.318
 2280SOL    HW2 7740   5.113   1.334   5.308
 2281SOL     OW 7741   4.699   6.575   2.378
 2281SOL    HW1 7742   4.696   6.558   2.476
 2281SOL    HW2 7743   4.616   6.624   2.350
 2282SOL     OW 7744   4.421   5.294   5.800
 2282SOL    HW1 7745   4.355   5.327   5.867
 2282SOL    HW2 7746   4.379   5.223   5.743
 2283SOL     OW 7747   1.404   0.652   3.487
 2283SOL    HW1 7748   1.415   0.736   3.540
 2283SOL    HW2 7749   1.309   0.643   3.459
 2284SOL     OW 7750   1.508   3.171   6.331
 2284SOL    HW1 7751   1.524   3.074   6.349
 2284SOL    HW2 7752   1.421   3.198   6.371
 2285SOL     OW 7753   1.062   4.039   0.097
 2285SOL    HW1 7754   1.027   4.084   0.180
 2285SOL    HW2 7755   0.989   3.984   0.056
 2286SOL     OW 7756   4.891   6.572   3.418
 2286SOL    HW1 7757   4.990   6.578   3.431
 2286SOL    HW2 7758   4.850   6.526   3.497
 2287SOL     OW 7759   2.258   0.829   3.375
 2287SOL    HW1 7760   2.171   0.791   3.343
 2287SOL    HW2 7761   2.252   0.928   3.378
 2288SOL     OW 7762   0.358   5.306   3.281
 2288SOL    HW1 7763   0.389   5.239   3.213
 2288SOL    HW2 7764   0.428   5.316   3.351
 2289SOL     OW 7765   0.824   5.939   2.384
 2289SOL    HW1 7766   0.814   5.881   2.464
 2289SOL    HW2 7767   0.922   5.952   2.364
 2290SOL     OW 7768   0.882   5.007   1.562
 2290SOL    HW1 7769   0.852   4.940   1.495
 2290SOL    HW2 7770   0.807   5.070   1.583
 2291SOL     OW 7771   2.960   1.729   5.655
 2291SOL    HW1 7772   2.895   1.778   5.597
 2291SOL    HW2 7773   2.944   1.753   5.751
 2292SOL     OW 7774   1.252   0.975   4.886
 2292SOL    HW1 7775   1.172   0.915   4.890
 2292SOL    HW2 7776   1.223   1.068   4.866
 2293SOL     OW 7777   5.433   5.617   1.877
 2293SOL    HW1 7778   5.461   5.615   1.974
 2293SOL    HW2 7779   5.454   5.708   1.839
 2294SOL     OW 7780   4.133   6.581   6.916
 2294SOL    HW1 7781   4.082   6.568   6.831
 2294SOL    HW2 7782   4.140   6.679   6.936
 2295SOL     OW 7783   0.317   2.059   1.370
 2295SOL    HW1 7784   0.306   2.100   1.461
 2295SOL    HW2 7785   0.229   2.064   1.321
 2296SOL     OW 7786   3.026   0.443   0.620
 2296SOL    HW1 7787   2.939   0.476   0.584
 2296SOL    HW2 7788   3.072   0.388   0.549
 2297SOL     OW 7789   4.266   4.287   5.632
 2297SOL    HW1 7790   4.167   4.290   5.621
 2297SOL    HW2 7791   4.297   4.192   5.622
 2298SOL     OW 7792   3.564   2.059   1.388
 2298SOL    HW1 7793   3.581   2.135   1.325
 2298SOL    HW2 7794   3.598   2.082   1.479
 2299SOL     OW 7795   5.286   6.184   6.906
 2299SOL    HW1 7796   5.236   6.101   6.883
 2299SOL    HW2 7797   5.226   6.247   6.956
 2300SOL     OW 7798   1.589   5.353   1.545
 2300SOL    HW1 7799   1.675   5.373   1.499
 2300SOL    HW2 7800   1.519   5.332   1.477
 2301SOL     OW 7801   3.601   3.170   2.661
 2301SOL    HW1 7802   3.641   3.110   2.730
 2301SOL    HW2 7803   3.502   3.155   2.657
 2302SOL     OW 7804   3.143   5.765   2.859
 2302SOL    HW1 7805   3.161   5.774   2.761
 2302SOL    HW2 7806   3.133   5.856   2.899
 2303SOL     OW 7807   1.239   3.329   4.627
 2303SOL    HW1 7808   1.319   3.317   4.568
 2303SOL    HW2 7809   1.267   3.365   4.715
 2304SOL     OW 7810   2.489   0.966   3.250
 2304SOL    HW1 7811   2.525   1.059   3.257
 2304SOL    HW2 7812   2.403   0.959   3.299
 2305SOL     OW 7813   3.820   5.522   2.685
 2305SOL    HW1 7814   3.849   5.491   2.595
 2305SOL    HW2 7815   3.900   5.532   2.744
 2306SOL     OW 7816   2.452   4.332   1.944
 2306SOL    HW1 7817   2.519   4.394   1.903
 2306SOL    HW2 7818   2.490   4.239   1.945
 2307SOL     OW 7819   0.920   2.678   3.118
 2307SOL    HW1 7820   0.868   2.739   3.179
 2307SOL    HW2 7821   0.934   2.590   3.164
 2308SOL     OW 7822   0.851   0.664   6.748
 2308SOL    HW1 7823   0.885   0.749   6.708
 2308SOL    HW2 7824   0.873   0.587   6.688
 2309SOL     OW 7825   3.232   5.023   0.060
 2309SOL    HW1 7826   3.256   5.049   6.988
 2309SOL    HW2 7827   3.154   5.078   0.091
 2310SOL     OW 7828   6.006   0.763   1.709
 2310SOL    HW1 7829   5.906   0.759   1.701
 2310SOL    HW2 7830   6.043   0.817   1.633
 2311SOL     OW 7831   2.860   0.156   2.385
 2311SOL    HW1 7832   2.798   0.113   2.451
 2311SOL    HW2 7833   2.876   0.092   2.309
 2312SOL     OW 7834   4.113   0.086   2.640
 2312SOL    HW1 7835   4.036   0.056   2.696
 2312SOL    HW2 7836   4.081   0.153   2.573
 2313SOL     OW 7837   4.665   4.278   2.217
 2313SOL    HW1 7838   4.619   4.345   2.275
 2313SOL    HW2 7839   4.613   4.266   2.132
 2314SOL     OW 7840   6.036   0.911   3.766
 2314SOL    HW1 7841   6.009   0.841   3.832
 2314SOL    HW2 7842   5.962   0.927   3.701
 2315SOL     OW 7843   4.616   4.090   5.854
 2315SOL    HW1 7844   4.582   4.081   5.948
 2315SOL    HW2 7845   4.658   4.180   5.843
 2316SOL     OW 7846   2.767   1.164   6.210
 2316SOL    HW1 7847   2.799   1.134   6.120
 2316SOL    HW2 7848   2.800   1.256   6.228
 2317SOL     OW 7849   6.372   6.373   3.911
 2317SOL    HW1 7850   6.407   6.465   3.893
 2317SOL    HW2 7851   6.419   6.307   3.854
 2318SOL     OW 7852   2.205   4.050   4.486
 2318SOL    HW1 7853   2.121   4.017   4.528
 2318SOL    HW2 7854   2.249   4.117   4.545
 2319SOL     OW 7855   2.399   5.456   4.491
 2319SOL    HW1 7856   2.472   5.471   4.558
 2319SOL    HW2 7857   2.382   5.540   4.440
 2320SOL     OW 7858   1.263   3.288   5.507
 2320SOL    HW1 7859   1.262   3.328   5.598
 2320SOL    HW2 7860   1.218   3.350   5.442
 2321SOL     OW 7861   2.593   4.745   6.181
 2321SOL    HW1 7862   2.541   4.744   6.096
 2321SOL    HW2 7863   2.611   4.651   6.210
 2322SOL     OW 7864   2.098   3.593   2.212
 2322SOL    HW1 7865   2.180   3.608   2.267
 2322SOL    HW2 7866   2.123   3.543   2.129
 2323SOL     OW 7867   2.918   4.991   1.644
 2323SOL    HW1 7868   2.988   5.043   1.596
 2323SOL    HW2 7869   2.961   4.939   1.719
 2324SOL     OW 7870   6.692   5.974   1.992
 2324SOL    HW1 7871   6.643   5.887   1.990
 2324SOL    HW2 7872   6.790   5.957   1.994
 2325SOL     OW 7873   6.843   4.862   1.561
 2325SOL    HW1 7874   6.929   4.829   1.601
 2325SOL    HW2 7875   6.829   4.818   1.472
 2326SOL     OW 7876   1.293   6.492   6.832
 2326SOL    HW1 7877   1.370   6.464   6.889
 2326SOL    HW2 7878   1.240   6.562   6.879
 2327SOL     OW 7879   6.663   0.106   2.818
 2327SOL    HW1 7880   6.573   0.074   2.849
 2327SOL    HW2 7881   6.734   0.060   2.870
 2328SOL     OW 7882   1.239   1.950   2.007
 2328SOL    HW1 7883   1.195   1.872   2.052
 2328SOL    HW2 7884   1.337   1.948   2.027
 2329SOL     OW 7885   0.967   3.885   3.955
 2329SOL    HW1 7886   1.066   3.904   3.953
 2329SOL    HW2 7887   0.926   3.916   3.869
 2330SOL     OW 7888   6.943   3.237   0.362
 2330SOL    HW1 7889   6.854   3.255   0.403
 2330SOL    HW2 7890   6.987   3.323   0.336
 2331SOL     OW 7891   3.862   5.563   0.332
 2331SOL    HW1 7892   3.804   5.542   0.411
 2331SOL    HW2 7893   3.955   5.580   0.364
 2332SOL     OW 7894   6.486   0.064   5.516
 2332SOL    HW1 7895   6.563   0.127   5.509
 2332SOL    HW2 7896   6.505   7.002   5.463
 2333SOL     OW 7897   0.022   4.492   3.096
 2333SOL    HW1 7898   0.020   4.444   3.008
 2333SOL    HW2 7899   6.960   4.470   3.148
 2334SOL     OW 7900   1.237   0.931   6.212
 2334SOL    HW1 7901   1.333   0.930   6.239
 2334SOL    HW2 7902   1.181   0.961   6.290
 2335SOL     OW 7903   6.607   1.224   3.857
 2335SOL    HW1 7904   6.546   1.222   3.778
 2335SOL    HW2 7905   6.586   1.304   3.913
 2336SOL     OW 7906   2.977   1.722   3.774
 2336SOL    HW1 7907   3.062   1.775   3.768
 2336SOL    HW2 7908   2.931   1.723   3.686
 2337SOL     OW 7909   3.894   1.266   1.701
 2337SOL    HW1 7910   3.857   1.213   1.777
 2337SOL    HW2 7911   3.990   1.288   1.719
 2338SOL     OW 7912   1.027   3.410   3.876
 2338SOL    HW1 7913   1.053   3.370   3.965
 2338SOL    HW2 7914   0.935   3.379   3.852
 2339SOL     OW 7915   3.257   3.431   3.247
 2339SOL    HW1 7916   3.328   3.499   3.264
 2339SOL    HW2 7917   3.297   3.339   3.250
 2340SOL     OW 7918   0.680   5.325   6.563
 2340SOL    HW1 7919   0.612   5.258   6.592
 2340SOL    HW2 7920   0.684   5.400   6.629
 2341SOL     OW 7921   2.557   4.936   3.042
 2341SOL    HW1 7922   2.551   4.846   3.085
 2341SOL    HW2 7923   2.652   4.955   3.017
 2342SOL     OW 7924   2.778   6.754   4.322
 2342SOL    HW1 7925   2.849   6.805   4.274
 2342SOL    HW2 7926   2.688   6.785   4.292
 2343SOL     OW 7927   2.093   6.522   3.064
 2343SOL    HW1 7928   2.030   6.453   3.100
 2343SOL    HW2 7929   2.150   6.482   2.993
 2344SOL     OW 7930   6.868   5.429   0.424
 2344SOL    HW1 7931   6.888   5.508   0.481
 2344SOL    HW2 7932   6.804   5.368   0.472
 2345SOL     OW 7933   2.638   5.639   4.310
 2345SOL    HW1 7934   2.657   5.554   4.261
 2345SOL    HW2 7935   2.712   5.704   4.293
 2346SOL     OW 7936   4.150   3.255   5.936
 2346SOL    HW1 7937   4.125   3.349   5.914
 2346SOL    HW2 7938   4.249   3.243   5.924
 2347SOL     OW 7939   1.514   2.158   1.620
 2347SOL    HW1 7940   1.463   2.093   1.565
 2347SOL    HW2 7941   1.452   2.204   1.684
 2348SOL     OW 7942   2.069   5.938   3.549
 2348SOL    HW1 7943   2.081   5.917   3.646
 2348SOL    HW2 7944   2.035   6.032   3.539
 2349SOL     OW 7945   0.774   4.465   6.258
 2349SOL    HW1 7946   0.869   4.435   6.245
 2349SOL    HW2 7947   0.722   4.391   6.301
 2350SOL     OW 7948   5.762   3.850   5.804
 2350SOL    HW1 7949   5.801   3.812   5.720
 2350SOL    HW2 7950   5.748   3.776   5.870
 2351SOL     OW 7951   3.363   4.947   3.496
 2351SOL    HW1 7952   3.362   4.937   3.595
 2351SOL    HW2 7953   3.292   5.011   3.468
 2352SOL     OW 7954   6.508   2.959   3.651
 2352SOL    HW1 7955   6.527   3.024   3.577
 2352SOL    HW2 7956   6.439   2.893   3.619
 2353SOL     OW 7957   4.165   4.985   5.235
 2353SOL    HW1 7958   4.222   5.030   5.167
 2353SOL    HW2 7959   4.074   4.968   5.196
 2354SOL     OW 7960   2.400   2.131   4.564
 2354SOL    HW1 7961   2.350   2.082   4.636
 2354SOL    HW2 7962   2.345   2.134   4.481
 2355SOL     OW 7963   2.331   5.980   5.157
 2355SOL    HW1 7964   2.261   6.021   5.215
 2355SOL    HW2 7965   2.419   5.982   5.204
 2356SOL     OW 7966   1.102   2.939   0.017
 2356SOL    HW1 7967   1.048   2.886   0.081
 2356SOL    HW2 7968   1.127   3.027   0.058
 2357SOL     OW 7969   3.683   1.441   1.606
 2357SOL    HW1 7970   3.712   1.536   1.593
 2357SOL    HW2 7971   3.745   1.396   1.670
 2358SOL     OW 7972   2.513   5.352   5.490
 2358SOL    HW1 7973   2.582   5.280   5.499
 2358SOL    HW2 7974   2.514   5.388   5.397
 2359SOL     OW 7975   0.442   0.646   5.407
 2359SOL    HW1 7976   0.529   0.597   5.410
 2359SOL    HW2 7977   0.367   0.580   5.408
 2360SOL     OW 7978   6.174   3.938   0.622
 2360SOL    HW1 7979   6.093   3.891   0.589
 2360SOL    HW2 7980   6.154   4.036   0.634
 2361SOL     OW 7981   2.925   1.404   6.171
 2361SOL    HW1 7982   3.017   1.379   6.203
 2361SOL    HW2 7983   2.933   1.474   6.100
 2362SOL     OW 7984   3.094   5.827   3.814
 2362SOL    HW1 7985   3.045   5.832   3.727
 2362SOL    HW2 7986   3.121   5.732   3.832
 2363SOL     OW 7987   3.982   1.974   3.739
 2363SOL    HW1 7988   3.902   2.023   3.776
 2363SOL    HW2 7989   3.952   1.887   3.701
 2364SOL     OW 7990   1.352   2.522   2.034
 2364SOL    HW1 7991   1.301   2.436   2.045
 2364SOL    HW2 7992   1.294   2.591   1.993
 2365SOL     OW 7993   6.411   2.124   6.748
 2365SOL    HW1 7994   6.499   2.169   6.765
 2365SOL    HW2 7995   6.428   2.035   6.706
 2366SOL     OW 7996   3.101   4.958   0.737
 2366SOL    HW1 7997   3.048   5.017   0.798
 2366SOL    HW2 7998   3.120   4.871   0.783
 2367SOL     OW 7999   2.186   3.492   0.237
 2367SOL    HW1 8000   2.090   3.513   0.217
 2367SOL    HW2 8001   2.205   3.397   0.214
 2368SOL     OW 8002   5.743   7.016   4.196
 2368SOL    HW1 8003   5.791   6.960   4.129
 2368SOL    HW2 8004   5.760   6.981   4.288
 2369SOL     OW 8005   1.967   6.906   4.397
 2369SOL    HW1 8006   1.969   6.834   4.328
 2369SOL    HW2 8007   2.045   6.967   4.384
 2370SOL     OW 8008   5.605   3.409   0.080
 2370SOL    HW1 8009   5.699   3.400   0.111
 2370SOL    HW2 8010   5.543   3.385   0.155
 2371SOL     OW 8011   2.388   6.657   2.053
 2371SOL    HW1 8012   2.392   6.757   2.058
 2371SOL    HW2 8013   2.473   6.622   2.015
 2372SOL     OW 8014   6.925   2.865   1.985
 2372SOL    HW1 8015   6.884   2.836   1.899
 2372SOL    HW2 8016   7.020   2.834   1.989
 2373SOL     OW 8017   1.864   3.671   5.591
 2373SOL    HW1 8018   1.916   3.597   5.550
 2373SOL    HW2 8019   1.909   3.702   5.675
 2374SOL     OW 8020   6.754   2.255   5.142
 2374SOL    HW1 8021   6.658   2.234   5.127
 2374SOL    HW2 8022   6.762   2.333   5.203
 2375SOL     OW 8023   3.407   5.387   5.827
 2375SOL    HW1 8024   3.325   5.360   5.776
 2375SOL    HW2 8025   3.477   5.317   5.818
 2376SOL     OW 8026   5.719   3.326   4.025
 2376SOL    HW1 8027   5.683   3.343   4.116
 2376SOL    HW2 8028   5.650   3.349   3.956
 2377SOL     OW 8029   3.475   3.743   3.719
 2377SOL    HW1 8030   3.536   3.748   3.639
 2377SOL    HW2 8031   3.529   3.754   3.802
 2378SOL     OW 8032   5.207   2.334   0.235
 2378SOL    HW1 8033   5.111   2.310   0.219
 2378SOL    HW2 8034   5.252   2.355   0.148
 2379SOL     OW 8035   6.759   1.108   0.383
 2379SOL    HW1 8036   6.669   1.123   0.423
 2379SOL    HW2 8037   6.788   1.014   0.400
 2380SOL     OW 8038   0.152   2.810   0.150
 2380SOL    HW1 8039   0.120   2.884   0.209
 2380SOL    HW2 8040   0.089   2.733   0.157
 2381SOL     OW 8041   2.322   6.098   3.111
 2381SOL    HW1 8042   2.338   6.197   3.113
 2381SOL    HW2 8043   2.224   6.080   3.112
 2382SOL     OW 8044   1.905   3.490   4.328
 2382SOL    HW1 8045   1.985   3.471   4.385
 2382SOL    HW2 8046   1.935   3.511   4.235
 2383SOL     OW 8047   6.469   0.039   1.273
 2383SOL    HW1 8048   6.510   6.970   1.292
 2383SOL    HW2 8049   6.370   0.028   1.260
 2384SOL     OW 8050   4.885   2.037   2.720
 2384SOL    HW1 8051   4.826   2.024   2.800
 2384SOL    HW2 8052   4.905   1.948   2.679
 2385SOL     OW 8053   7.012   0.577   6.986
 2385SOL    HW1 8054   6.919   0.605   7.012
 2385SOL    HW2 8055   7.007   0.507   6.915
 2386SOL     OW 8056   5.233   5.942   4.387
 2386SOL    HW1 8057   5.215   5.876   4.460
 2386SOL    HW2 8058   5.192   5.910   4.302
 2387SOL     OW 8059   1.808   1.006   4.364
 2387SOL    HW1 8060   1.758   1.004   4.451
 2387SOL    HW2 8061   1.760   0.951   4.296
 2388SOL     OW 8062   6.773   2.752   3.974
 2388SOL    HW1 8063   6.696   2.690   3.985
 2388SOL    HW2 8064   6.795   2.794   4.062
 2389SOL     OW 8065   4.357   4.778   3.495
 2389SOL    HW1 8066   4.293   4.853   3.480
 2389SOL    HW2 8067   4.313   4.706   3.547
 2390SOL     OW 8068   3.886   2.973   2.627
 2390SOL    HW1 8069   3.944   3.053   2.636
 2390SOL    HW2 8070   3.862   2.960   2.531
 2391SOL     OW 8071   5.629   4.782   6.263
 2391SOL    HW1 8072   5.599   4.706   6.321
 2391SOL    HW2 8073   5.629   4.753   6.168
 2392SOL     OW 8074   2.615   6.930   6.421
 2392SOL    HW1 8075   2.696   6.873   6.406
 2392SOL    HW2 8076   2.642   7.015   6.466
 2393SOL     OW 8077   4.896   4.183   5.999
 2393SOL    HW1 8078   4.836   4.261   5.982
 2393SOL    HW2 8079   4.924   4.182   6.095
 2394SOL     OW 8080   0.171   3.661   4.665
 2394SOL    HW1 8081   0.076   3.635   4.683
 2394SOL    HW2 8082   0.180   3.694   4.571
 2395SOL     OW 8083   4.870   0.107   5.817
 2395SOL    HW1 8084   4.813   0.189   5.807
 2395SOL    HW2 8085   4.832   0.049   5.889
 2396SOL     OW 8086   3.822   5.181   0.816
 2396SOL    HW1 8087   3.852   5.153   0.724
 2396SOL    HW2 8088   3.731   5.221   0.810
 2397SOL     OW 8089   0.281   4.240   4.320
 2397SOL    HW1 8090   0.324   4.310   4.377
 2397SOL    HW2 8091   0.330   4.153   4.332
 2398SOL     OW 8092   4.995   3.972   6.910
 2398SOL    HW1 8093   4.939   3.893   6.886
 2398SOL    HW2 8094   5.063   3.987   6.838
 2399SOL     OW 8095   3.983   0.798   1.148
 2399SOL    HW1 8096   3.978   0.857   1.228
 2399SOL    HW2 8097   4.041   0.841   1.078
 2400SOL     OW 8098   2.624   3.669   0.807
 2400SOL    HW1 8099   2.539   3.654   0.758
 2400SOL    HW2 8100   2.694   3.702   0.744
 2401SOL     OW 8101   5.708   6.113   0.041
 2401SOL    HW1 8102   5.782   6.172   0.074
 2401SOL    HW2 8103   5.659   6.075   0.119
 2402SOL     OW 8104   0.593   0.142   4.516
 2402SOL    HW1 8105   0.691   0.137   4.495
 2402SOL    HW2 8106   0.561   0.051   4.543
 2403SOL     OW 8107   0.943   2.446   5.880
 2403SOL    HW1 8108   0.933   2.352   5.913
 2403SOL    HW2 8109   1.031   2.483   5.909
 2404SOL     OW 8110   2.404   1.523   1.469
 2404SOL    HW1 8111   2.366   1.440   1.509
 2404SOL    HW2 8112   2.480   1.556   1.525
 2405SOL     OW 8113   3.352   4.070   2.614
 2405SOL    HW1 8114   3.419   4.098   2.683
 2405SOL    HW2 8115   3.369   4.121   2.530
 2406SOL     OW 8116   3.483   1.346   1.465
 2406SOL    HW1 8117   3.549   1.389   1.527
 2406SOL    HW2 8118   3.529   1.277   1.409
 2407SOL     OW 8119   5.751   2.110   3.748
 2407SOL    HW1 8120   5.710   2.139   3.662
 2407SOL    HW2 8121   5.850   2.106   3.738
 2408SOL     OW 8122   4.583   4.562   1.981
 2408SOL    HW1 8123   4.679   4.581   2.001
 2408SOL    HW2 8124   4.571   4.465   1.961
 2409SOL     OW 8125   2.203   3.937   2.130
 2409SOL    HW1 8126   2.271   4.006   2.156
 2409SOL    HW2 8127   2.168   3.892   2.212
 2410SOL     OW 8128   4.072   3.244   4.356
 2410SOL    HW1 8129   4.001   3.312   4.372
 2410SOL    HW2 8130   4.087   3.234   4.258
 2411SOL     OW 8131   5.239   6.412   5.286
 2411SOL    HW1 8132   5.255   6.361   5.371
 2411SOL    HW2 8133   5.198   6.351   5.218
 2412SOL     OW 8134   5.558   4.246   1.759
 2412SOL    HW1 8135   5.461   4.226   1.748
 2412SOL    HW2 8136   5.570   4.344   1.778
 2413SOL     OW 8137   5.509   0.567   1.438
 2413SOL    HW1 8138   5.510   0.666   1.429
 2413SOL    HW2 8139   5.582   0.527   1.382
 2414SOL     OW 8140   4.857   4.227   3.699
 2414SOL    HW1 8141   4.844   4.321   3.669
 2414SOL    HW2 8142   4.787   4.204   3.767
 2415SOL     OW 8143   5.897   1.102   2.157
 2415SOL    HW1 8144   5.801   1.084   2.179
 2415SOL    HW2 8145   5.917   1.199   2.174
 2416SOL     OW 8146   5.401   2.103   5.814
 2416SOL    HW1 8147   5.418   2.161   5.734
 2416SOL    HW2 8148   5.471   2.031   5.819
 2417SOL     OW 8149   2.931   3.457   4.701
 2417SOL    HW1 8150   2.881   3.443   4.616
 2417SOL    HW2 8151   2.930   3.555   4.724
 2418SOL     OW 8152   3.672   3.216   3.965
 2418SOL    HW1 8153   3.610   3.266   4.025
 2418SOL    HW2 8154   3.665   3.118   3.983
 2419SOL     OW 8155   0.199   6.575   3.402
 2419SOL    HW1 8156   0.233   6.548   3.492
 2419SOL    HW2 8157   0.264   6.638   3.359
 2420SOL     OW 8158   3.389   0.368   1.765
 2420SOL    HW1 8159   3.411   0.284   1.814
 2420SOL    HW2 8160   3.312   0.415   1.810
 2421SOL     OW 8161   2.019   2.909   4.413
 2421SOL    HW1 8162   2.096   2.905   4.477
 2421SOL    HW2 8163   1.936   2.936   4.463
 2422SOL     OW 8164   5.029   1.719   0.831
 2422SOL    HW1 8165   5.053   1.808   0.870
 2422SOL    HW2 8166   5.051   1.647   0.897
 2423SOL     OW 8167   2.677   6.209   2.142
 2423SOL    HW1 8168   2.750   6.256   2.092
 2423SOL    HW2 8169   2.701   6.204   2.239
 2424SOL     OW 8170   5.886   1.182   0.263
 2424SOL    HW1 8171   5.808   1.243   0.251
 2424SOL    HW2 8172   5.885   1.113   0.190
 2425SOL     OW 8173   6.122   0.516   4.155
 2425SOL    HW1 8174   6.189   0.519   4.229
 2425SOL    HW2 8175   6.158   0.460   4.081
 2426SOL     OW 8176   2.182   5.183   5.013
 2426SOL    HW1 8177   2.236   5.140   5.086
 2426SOL    HW2 8178   2.100   5.128   4.996
 2427SOL     OW 8179   5.897   6.255   5.137
 2427SOL    HW1 8180   5.805   6.252   5.098
 2427SOL    HW2 8181   5.892   6.280   5.234
 2428SOL     OW 8182   0.660   0.761   1.686
 2428SOL    HW1 8183   0.563   0.776   1.707
 2428SOL    HW2 8184   0.674   0.762   1.587
 2429SOL     OW 8185   5.255   5.882   1.233
 2429SOL    HW1 8186   5.328   5.946   1.256
 2429SOL    HW2 8187   5.292   5.789   1.230
 2430SOL     OW 8188   6.187   0.673   2.511
 2430SOL    HW1 8189   6.126   0.752   2.505
 2430SOL    HW2 8190   6.218   0.663   2.606
 2431SOL     OW 8191   4.466   1.127   2.242
 2431SOL    HW1 8192   4.506   1.046   2.200
 2431SOL    HW2 8193   4.521   1.155   2.321
 2432SOL     OW 8194   4.713   6.142   1.941
 2432SOL    HW1 8195   4.723   6.221   2.002
 2432SOL    HW2 8196   4.696   6.060   1.995
 2433SOL     OW 8197   4.287   0.254   6.829
 2433SOL    HW1 8198   4.344   0.324   6.787
 2433SOL    HW2 8199   4.287   0.172   6.772
 2434SOL     OW 8200   3.788   0.936   5.950
 2434SOL    HW1 8201   3.844   1.010   5.988
 2434SOL    HW2 8202   3.755   0.963   5.859
 2435SOL     OW 8203   5.793   6.085   5.408
 2435SOL    HW1 8204   5.743   6.050   5.487
 2435SOL    HW2 8205   5.768   6.032   5.326
 2436SOL     OW 8206   2.238   5.918   0.382
 2436SOL    HW1 8207   2.302   5.869   0.440
 2436SOL    HW2 8208   2.284   5.996   0.339
 2437SOL     OW 8209   6.775   6.438   5.637
 2437SOL    HW1 8210   6.830   6.402   5.713
 2437SOL    HW2 8211   6.680   6.409   5.649
 2438SOL     OW 8212   2.808   2.382   0.755
 2438SOL    HW1 8213   2.711   2.386   0.733
 2438SOL    HW2 8214   2.830   2.293   0.795
 2439SOL     OW 8215   6.184   4.060   5.580
 2439SOL    HW1 8216   6.110   4.082   5.515
 2439SOL    HW2 8217   6.207   4.143   5.632
 2440SOL     OW 8218   5.318   5.285   5.703
 2440SOL    HW1 8219   5.306   5.322   5.611
 2440SOL    HW2 8220   5.305   5.357   5.770
 2441SOL     OW 8221   5.673   2.114   0.530
 2441SOL    HW1 8222   5.689   2.203   0.573
 2441SOL    HW2 8223   5.626   2.127   0.443
 2442SOL     OW 8224   0.571   3.756   4.629
 2442SOL    HW1 8225   0.660   3.741   4.670
 2442SOL    HW2 8226   0.571   3.720   4.535
 2443SOL     OW 8227   2.885   4.102   6.414
 2443SOL    HW1 8228   2.830   4.185   6.418
 2443SOL    HW2 8229   2.978   4.125   6.385
 2444SOL     OW 8230   2.803   3.896   5.610
 2444SOL    HW1 8231   2.756   3.808   5.605
 2444SOL    HW2 8232   2.866   3.904   5.532
 2445SOL     OW 8233   0.433   0.905   0.869
 2445SOL    HW1 8234   0.475   0.821   0.835
 2445SOL    HW2 8235   0.504   0.974   0.885
 2446SOL     OW 8236   6.528   4.630   5.069
 2446SOL    HW1 8237   6.592   4.707   5.061
 2446SOL    HW2 8238   6.435   4.663   5.054
 2447SOL     OW 8239   0.910   1.402   0.388
 2447SOL    HW1 8240   0.976   1.419   0.315
 2447SOL    HW2 8241   0.955   1.350   0.462
 2448SOL     OW 8242   0.961   0.359   4.668
 2448SOL    HW1 8243   1.034   0.406   4.718
 2448SOL    HW2 8244   0.955   0.264   4.699
 2449SOL     OW 8245   0.329   3.799   5.677
 2449SOL    HW1 8246   0.389   3.739   5.625
 2449SOL    HW2 8247   0.241   3.753   5.691
 2450SOL     OW 8248   2.210   3.994   2.979
 2450SOL    HW1 8249   2.171   3.902   2.989
 2450SOL    HW2 8250   2.211   4.039   3.068
 2451SOL     OW 8251   2.294   6.123   3.605
 2451SOL    HW1 8252   2.374   6.112   3.547
 2451SOL    HW2 8253   2.222   6.171   3.554
 2452SOL     OW 8254   1.110   2.699   4.308
 2452SOL    HW1 8255   1.176   2.742   4.247
 2452SOL    HW2 8256   1.153   2.683   4.397
 2453SOL     OW 8257   6.641   4.437   1.405
 2453SOL    HW1 8258   6.689   4.350   1.415
 2453SOL    HW2 8259   6.555   4.423   1.356
 2454SOL     OW 8260   3.406   0.836   2.422
 2454SOL    HW1 8261   3.460   0.896   2.479
 2454SOL    HW2 8262   3.310   0.838   2.452
 2455SOL     OW 8263   5.892   5.854   0.476
 2455SOL    HW1 8264   5.985   5.876   0.447
 2455SOL    HW2 8265   5.828   5.878   0.403
 2456SOL     OW 8266   4.685   6.544   1.363
 2456SOL    HW1 8267   4.630   6.465   1.393
 2456SOL    HW2 8268   4.751   6.566   1.435
 2457SOL     OW 8269   5.586   6.496   1.448
 2457SOL    HW1 8270   5.655   6.559   1.485
 2457SOL    HW2 8271   5.529   6.462   1.522
 2458SOL     OW 8272   0.638   5.371   3.425
 2458SOL    HW1 8273   0.651   5.470   3.435
 2458SOL    HW2 8274   0.669   5.343   3.334
 2459SOL     OW 8275   2.262   6.999   0.769
 2459SOL    HW1 8276   2.188   0.045   0.760
 2459SOL    HW2 8277   2.349   0.027   0.777
 2460SOL     OW 8278   3.450   5.659   1.943
 2460SOL    HW1 8279   3.480   5.687   2.034
 2460SOL    HW2 8280   3.353   5.636   1.946
 2461SOL     OW 8281   5.596   0.798   2.155
 2461SOL    HW1 8282   5.534   0.722   2.176
 2461SOL    HW2 8283   5.565   0.880   2.203
 2462SOL     OW 8284   2.129   4.779   6.467
 2462SOL    HW1 8285   2.049   4.770   6.408
 2462SOL    HW2 8286   2.212   4.776   6.412
 2463SOL     OW 8287   6.445   1.977   4.405
 2463SOL    HW1 8288   6.462   2.067   4.364
 2463SOL    HW2 8289   6.516   1.914   4.375
 2464SOL     OW 8290   1.564   3.309   0.844
 2464SOL    HW1 8291   1.494   3.380   0.845
 2464SOL    HW2 8292   1.549   3.245   0.920
 2465SOL     OW 8293   6.277   5.591   3.749
 2465SOL    HW1 8294   6.220   5.591   3.831
 2465SOL    HW2 8295   6.363   5.640   3.768
 2466SOL     OW 8296   4.024   1.791   2.811
 2466SOL    HW1 8297   4.013   1.847   2.729
 2466SOL    HW2 8298   4.007   1.695   2.790
 2467SOL     OW 8299   6.863   0.971   6.276
 2467SOL    HW1 8300   6.931   1.039   6.302
 2467SOL    HW2 8301   6.835   0.988   6.181
 2468SOL     OW 8302   7.016   4.772   1.130
 2468SOL    HW1 8303   6.969   4.818   1.055
 2468SOL    HW2 8304   6.972   4.684   1.149
 2469SOL     OW 8305   2.682   2.963   5.616
 2469SOL    HW1 8306   2.753   3.021   5.656
 2469SOL    HW2 8307   2.684   2.971   5.517
 2470SOL     OW 8308   5.734   3.271   0.373
 2470SOL    HW1 8309   5.762   3.271   0.469
 2470SOL    HW2 8310   5.651   3.218   0.362
 2471SOL     OW 8311   1.357   0.363   3.521
 2471SOL    HW1 8312   1.322   0.438   3.576
 2471SOL    HW2 8313   1.306   0.358   3.435
 2472SOL     OW 8314   6.282   1.629   3.216
 2472SOL    HW1 8315   6.205   1.615   3.154
 2472SOL    HW2 8316   6.296   1.547   3.271
 2473SOL     OW 8317   1.030   6.834   4.970
 2473SOL    HW1 8318   1.060   6.844   4.875
 2473SOL    HW2 8319   0.939   6.795   4.972
 2474SOL     OW 8320   6.213   5.073   4.865
 2474SOL    HW1 8321   6.116   5.053   4.856
 2474SOL    HW2 8322   6.227   5.172   4.862
 2475SOL     OW 8323   3.992   1.844   0.295
 2475SOL    HW1 8324   4.081   1.827   0.253
 2475SOL    HW2 8325   4.003   1.905   0.373
 2476SOL     OW 8326   0.464   2.145   4.230
 2476SOL    HW1 8327   0.541   2.095   4.271
 2476SOL    HW2 8328   0.388   2.148   4.295
 2477SOL     OW 8329   4.255   4.997   1.280
 2477SOL    HW1 8330   4.238   4.947   1.195
 2477SOL    HW2 8331   4.335   4.960   1.326
 2478SOL     OW 8332   6.805   6.809   3.222
 2478SOL    HW1 8333   6.765   6.780   3.135
 2478SOL    HW2 8334   6.746   6.877   3.265
 2479SOL     OW 8335   0.601   3.631   0.240
 2479SOL    HW1 8336   0.695   3.662   0.253
 2479SOL    HW2 8337   0.590   3.542   0.284
 2480SOL     OW 8338   0.378   3.596   1.034
 2480SOL    HW1 8339   0.291   3.549   1.030
 2480SOL    HW2 8340   0.382   3.653   1.116
 2481SOL     OW 8341   4.346   5.481   2.479
 2481SOL    HW1 8342   4.366   5.427   2.396
 2481SOL    HW2 8343   4.314   5.419   2.551
 2482SOL     OW 8344   4.413   2.477   4.301
 2482SOL    HW1 8345   4.401   2.396   4.243
 2482SOL    HW2 8346   4.387   2.455   4.395
 2483SOL     OW 8347   0.586   1.909   6.758
 2483SOL    HW1 8348   0.512   1.961   6.801
 2483SOL    HW2 8349   0.571   1.811   6.774
 2484SOL     OW 8350   2.990   2.336   6.515
 2484SOL    HW1 8351   3.007   2.238   6.513
 2484SOL    HW2 8352   2.915   2.358   6.453
 2485SOL     OW 8353   0.333   5.924   2.423
 2485SOL    HW1 8354   0.370   5.981   2.497
 2485SOL    HW2 8355   0.299   5.983   2.350
 2486SOL     OW 8356   0.945   5.113   3.187
 2486SOL    HW1 8357   0.970   5.162   3.271
 2486SOL    HW2 8358   0.953   5.175   3.109
 2487SOL     OW 8359   3.104   0.656   0.746
 2487SOL    HW1 8360   3.199   0.666   0.773
 2487SOL    HW2 8361   3.093   0.572   0.692
 2488SOL     OW 8362   3.389   6.100   6.579
 2488SOL    HW1 8363   3.380   6.007   6.614
 2488SOL    HW2 8364   3.483   6.117   6.551
 2489SOL     OW 8365   6.990   5.841   4.192
 2489SOL    HW1 8366   6.987   5.806   4.286
 2489SOL    HW2 8367   6.965   5.938   4.192
 2490SOL     OW 8368   4.851   3.496   1.602
 2490SOL    HW1 8369   4.813   3.541   1.683
 2490SOL    HW2 8370   4.933   3.445   1.628
 2491SOL     OW 8371   1.174   4.383   2.320
 2491SOL    HW1 8372   1.107   4.368   2.248
 2491SOL    HW2 8373   1.127   4.395   2.408
 2492SOL     OW 8374   4.126   2.861   6.198
 2492SOL    HW1 8375   4.176   2.891   6.117
 2492SOL    HW2 8376   4.068   2.936   6.231
 2493SOL     OW 8377   6.641   2.047   4.148
 2493SOL    HW1 8378   6.576   1.982   4.109
 2493SOL    HW2 8379   6.714   1.996   4.194
 2494SOL     OW 8380   4.793   3.610   1.376
 2494SOL    HW1 8381   4.823   3.570   1.463
 2494SOL    HW2 8382   4.847   3.571   1.302
 2495SOL     OW 8383   5.966   1.629   4.107
 2495SOL    HW1 8384   5.903   1.704   4.087
 2495SOL    HW2 8385   5.962   1.607   4.204
 2496SOL     OW 8386   0.626   6.166   0.368
 2496SOL    HW1 8387   0.566   6.206   0.299
 2496SOL    HW2 8388   0.652   6.236   0.434
 2497SOL     OW 8389   5.466   2.016   6.197
 2497SOL    HW1 8390   5.547   2.075   6.203
 2497SOL    HW2 8391   5.408   2.047   6.122
 2498SOL     OW 8392   0.876   4.048   4.645
 2498SOL    HW1 8393   0.853   3.975   4.580
 2498SOL    HW2 8394   0.948   4.017   4.706
 2499SOL     OW 8395   5.729   0.378   5.638
 2499SOL    HW1 8396   5.703   0.363   5.734
 2499SOL    HW2 8397   5.698   0.300   5.583
 2500SOL     OW 8398   4.632   2.868   6.503
 2500SOL    HW1 8399   4.610   2.922   6.584
 2500SOL    HW2 8400   4.557   2.875   6.437
 2501SOL     OW 8401   6.433   4.566   0.428
 2501SOL    HW1 8402   6.513   4.520   0.468
 2501SOL    HW2 8403   6.357   4.561   0.493
 2502SOL     OW 8404   1.951   6.750   3.070
 2502SOL    HW1 8405   1.996   6.661   3.062
 2502SOL    HW2 8406   1.852   6.738   3.063
 2503SOL     OW 8407   4.499   6.115   4.698
 2503SOL    HW1 8408   4.450   6.152   4.619
 2503SOL    HW2 8409   4.528   6.022   4.678
 2504SOL     OW 8410   1.896   4.415   3.575
 2504SOL    HW1 8411   1.960   4.391   3.648
 2504SOL    HW2 8412   1.943   4.466   3.504
 2505SOL     OW 8413   4.574   5.383   3.589
 2505SOL    HW1 8414   4.541   5.320   3.519
 2505SOL    HW2 8415   4.512   5.382   3.667
 2506SOL     OW 8416   6.834   1.692   0.316
 2506SOL    HW1 8417   6.785   1.605   0.322
 2506SOL    HW2 8418   6.896   1.700   0.394
 2507SOL     OW 8419   6.674   5.619   1.080
 2507SOL    HW1 8420   6.588   5.649   1.038
 2507SOL    HW2 8421   6.735   5.698   1.092
 2508SOL     OW 8422   2.432   2.497   2.304
 2508SOL    HW1 8423   2.360   2.559   2.273
 2508SOL    HW2 8424   2.409   2.461   2.395
 2509SOL     OW 8425   5.203   2.002   3.911
 2509SOL    HW1 8426   5.207   2.031   3.815
 2509SOL    HW2 8427   5.147   1.920   3.918
 2510SOL     OW 8428   3.638   5.824   1.057
 2510SOL    HW1 8429   3.701   5.879   1.111
 2510SOL    HW2 8430   3.619   5.738   1.104
 2511SOL     OW 8431   1.351   6.951   4.304
 2511SOL    HW1 8432   1.413   6.919   4.376
 2511SOL    HW2 8433   1.344   0.030   4.309
 2512SOL     OW 8434   4.628   2.680   4.441
 2512SOL    HW1 8435   4.567   2.606   4.468
 2512SOL    HW2 8436   4.613   2.703   4.345
 2513SOL     OW 8437   0.433   4.615   1.180
 2513SOL    HW1 8438   0.531   4.625   1.196
 2513SOL    HW2 8439   0.411   4.519   1.165
 2514SOL     OW 8440   1.089   1.531   4.087
 2514SOL    HW1 8441   0.989   1.523   4.090
 2514SOL    HW2 8442   1.114   1.613   4.037
 2515SOL     OW 8443   0.711   4.716   0.408
 2515SOL    HW1 8444   0.747   4.639   0.355
 2515SOL    HW2 8445   0.618   4.737   0.378
 2516SOL     OW 8446   4.745   6.509   3.626
 2516SOL    HW1 8447   4.673   6.556   3.676
 2516SOL    HW2 8448   4.777   6.431   3.680
 2517SOL     OW 8449   2.468   4.813   0.447
 2517SOL    HW1 8450   2.441   4.768   0.532
 2517SOL    HW2 8451   2.387   4.842   0.397
 2518SOL     OW 8452   2.423   2.493   6.231
 2518SOL    HW1 8453   2.494   2.510   6.299
 2518SOL    HW2 8454   2.359   2.425   6.266
 2519SOL     OW 8455   4.920   4.369   4.968
 2519SOL    HW1 8456   4.989   4.309   4.928
 2519SOL    HW2 8457   4.836   4.364   4.915
 2520SOL     OW 8458   2.261   4.807   2.105
 2520SOL    HW1 8459   2.351   4.774   2.076
 2520SOL    HW2 8460   2.225   4.871   2.036
 2521SOL     OW 8461   6.181   0.141   5.490
 2521SOL    HW1 8462   6.193   0.158   5.392
 2521SOL    HW2 8463   6.267   0.106   5.528
 2522SOL     OW 8464   1.381   3.235   5.018
 2522SOL    HW1 8465   1.470   3.267   5.050
 2522SOL    HW2 8466   1.347   3.163   5.079
 2523SOL     OW 8467   6.983   3.200   6.817
 2523SOL    HW1 8468   7.018   3.106   6.815
 2523SOL    HW2 8469   6.981   3.233   6.911
 2524SOL     OW 8470   1.020   6.988   5.179
 2524SOL    HW1 8471   1.024   6.928   5.098
 2524SOL    HW2 8472   1.019   0.063   5.149
 2525SOL     OW 8473   1.960   4.463   3.102
 2525SOL    HW1 8474   1.950   4.365   3.082
 2525SOL    HW2 8475   1.939   4.516   3.020
 2526SOL     OW 8476   0.432   2.162   5.477
 2526SOL    HW1 8477   0.479   2.074   5.475
 2526SOL    HW2 8478   0.475   2.222   5.544
 2527SOL     OW 8479   5.743   6.691   3.746
 2527SOL    HW1 8480   5.745   6.641   3.833
 2527SOL    HW2 8481   5.742   6.626   3.670
 2528SOL     OW 8482   5.880   5.595   0.230
 2528SOL    HW1 8483   5.871   5.693   0.243
 2528SOL    HW2 8484   5.831   5.567   0.147
 2529SOL     OW 8485   5.344   4.031   4.848
 2529SOL    HW1 8486   5.283   3.961   4.883
 2529SOL    HW2 8487   5.438   3.995   4.846
 2530SOL     OW 8488   1.022   6.747   4.041
 2530SOL    HW1 8489   1.058   6.831   4.000
 2530SOL    HW2 8490   0.961   6.771   4.116
 2531SOL     OW 8491   4.842   1.378   0.253
 2531SOL    HW1 8492   4.782   1.299   0.243
 2531SOL    HW2 8493   4.938   1.347   0.248
 2532SOL     OW 8494   1.630   4.493   5.723
 2532SOL    HW1 8495   1.588   4.468   5.811
 2532SOL    HW2 8496   1.718   4.447   5.714
 2533SOL     OW 8497   6.106   6.699   5.111
 2533SOL    HW1 8498   6.199   6.713   5.076
 2533SOL    HW2 8499   6.105   6.619   5.170
 2534SOL     OW 8500   6.853   1.677   3.720
 2534SOL    HW1 8501   6.847   1.585   3.759
 2534SOL    HW2 8502   6.769   1.727   3.739
 2535SOL     OW 8503   2.444   1.082   2.751
 2535SOL    HW1 8504   2.475   1.057   2.843
 2535SOL    HW2 8505   2.501   1.036   2.683
 2536SOL     OW 8506   6.485   0.797   3.880
 2536SOL    HW1 8507   6.470   0.717   3.937
 2536SOL    HW2 8508   6.426   0.792   3.799
 2537SOL     OW 8509   4.239   5.213   1.466
 2537SOL    HW1 8510   4.246   5.148   1.391
 2537SOL    HW2 8511   4.298   5.292   1.448
 2538SOL     OW 8512   1.760   4.841   5.031
 2538SOL    HW1 8513   1.746   4.919   5.092
 2538SOL    HW2 8514   1.671   4.801   5.007
 2539SOL     OW 8515   2.698   0.489   5.864
 2539SOL    HW1 8516   2.765   0.438   5.918
 2539SOL    HW2 8517   2.734   0.505   5.772
 2540SOL     OW 8518   5.691   1.922   2.289
 2540SOL    HW1 8519   5.720   1.931   2.384
 2540SOL    HW2 8520   5.742   1.848   2.245
 2541SOL     OW 8521   0.689   6.820   5.404
 2541SOL    HW1 8522   0.663   6.734   5.449
 2541SOL    HW2 8523   0.680   6.809   5.305
 2542SOL     OW 8524   3.621   1.674   4.101
 2542SOL    HW1 8525   3.549   1.631   4.046
 2542SOL    HW2 8526   3.580   1.743   4.161
 2543SOL     OW 8527   0.330   2.588   4.740
 2543SOL    HW1 8528   0.238   2.620   4.716
 2543SOL    HW2 8529   0.366   2.531   4.666
 2544SOL     OW 8530   6.277   5.797   2.842
 2544SOL    HW1 8531   6.196   5.798   2.783
 2544SOL    HW2 8532   6.310   5.890   2.856
 2545SOL     OW 8533   6.352   2.027   0.473
 2545SOL    HW1 8534   6.373   2.119   0.505
 2545SOL    HW2 8535   6.288   2.032   0.396
 2546SOL     OW 8536   6.270   4.245   2.804
 2546SOL    HW1 8537   6.357   4.269   2.761
 2546SOL    HW2 8538   6.238   4.322   2.860
 2547SOL     OW 8539   5.827   3.826   0.784
 2547SOL    HW1 8540   5.916   3.794   0.813
 2547SOL    HW2 8541   5.831   3.924   0.764
 2548SOL     OW 8542   0.040   6.689   5.434
 2548SOL    HW1 8543   0.084   6.601   5.454
 2548SOL    HW2 8544   6.962   6.677   5.434
 2549SOL     OW 8545   2.919   2.933   0.290
 2549SOL    HW1 8546   2.901   2.852   0.235
 2549SOL    HW2 8547   2.892   2.917   0.384
 2550SOL     OW 8548   3.941   5.947   6.288
 2550SOL    HW1 8549   3.909   6.034   6.325
 2550SOL    HW2 8550   3.992   5.963   6.203
 2551SOL     OW 8551   3.688   5.295   0.496
 2551SOL    HW1 8552   3.778   5.337   0.505
 2551SOL    HW2 8553   3.640   5.301   0.584
 2552SOL     OW 8554   2.221   5.490   1.509
 2552SOL    HW1 8555   2.140   5.514   1.454
 2552SOL    HW2 8556   2.218   5.541   1.595
 2553SOL     OW 8557   4.534   0.782   6.940
 2553SOL    HW1 8558   4.450   0.729   6.947
 2553SOL    HW2 8559   4.587   0.751   6.861
 2554SOL     OW 8560   1.437   5.711   1.454
 2554SOL    HW1 8561   1.482   5.783   1.506
 2554SOL    HW2 8562   1.506   5.652   1.412
 2555SOL     OW 8563   5.633   6.943   4.664
 2555SOL    HW1 8564   5.626   6.893   4.750
 2555SOL    HW2 8565   5.541   6.969   4.633
 2556SOL     OW 8566   3.688   0.452   0.132
 2556SOL    HW1 8567   3.776   0.454   0.179
 2556SOL    HW2 8568   3.693   0.509   0.049
 2557SOL     OW 8569   2.927   0.760   6.899
 2557SOL    HW1 8570   2.955   0.760   6.803
 2557SOL    HW2 8571   2.827   0.757   6.904
 2558SOL     OW 8572   5.116   3.440   0.605
 2558SOL    HW1 8573   5.077   3.363   0.656
 2558SOL    HW2 8574   5.132   3.516   0.667
 2559SOL     OW 8575   0.823   4.146   3.976
 2559SOL    HW1 8576   0.824   4.049   4.000
 2559SOL    HW2 8577   0.906   4.190   4.013
 2560SOL     OW 8578   4.741   2.177   3.822
 2560SOL    HW1 8579   4.777   2.182   3.915
 2560SOL    HW2 8580   4.816   2.166   3.758
 2561SOL     OW 8581   3.944   0.066   4.844
 2561SOL    HW1 8582   3.908   0.124   4.771
 2561SOL    HW2 8583   3.919   0.105   4.933
 2562SOL     OW 8584   2.445   6.364   3.901
 2562SOL    HW1 8585   2.372   6.404   3.958
 2562SOL    HW2 8586   2.456   6.267   3.926
 2563SOL     OW 8587   3.551   2.226   6.364
 2563SOL    HW1 8588   3.490   2.211   6.287
 2563SOL    HW2 8589   3.543   2.320   6.397
 2564SOL     OW 8590   1.535   1.947   0.024
 2564SOL    HW1 8591   1.549   2.045   0.007
 2564SOL    HW2 8592   1.555   1.896   6.962
 2565SOL     OW 8593   0.694   1.416   0.590
 2565SOL    HW1 8594   0.763   1.400   0.520
 2565SOL    HW2 8595   0.727   1.485   0.654
 2566SOL     OW 8596   2.567   0.817   0.953
 2566SOL    HW1 8597   2.490   0.755   0.964
 2566SOL    HW2 8598   2.589   0.859   1.041
 2567SOL     OW 8599   2.243   1.225   0.371
 2567SOL    HW1 8600   2.212   1.148   0.427
 2567SOL    HW2 8601   2.179   1.240   0.295
 2568SOL     OW 8602   3.613   6.347   7.005
 2568SOL    HW1 8603   3.524   6.333   0.029
 2568SOL    HW2 8604   3.685   6.344   0.053
 2569SOL     OW 8605   1.649   0.273   0.919
 2569SOL    HW1 8606   1.687   0.258   1.010
 2569SOL    HW2 8607   1.578   0.205   0.900
 2570SOL     OW 8608   0.104   6.168   5.129
 2570SOL    HW1 8609   0.178   6.156   5.194
 2570SOL    HW2 8610   0.028   6.108   5.153
 2571SOL     OW 8611   3.249   3.365   3.928
 2571SOL    HW1 8612   3.339   3.367   3.972
 2571SOL    HW2 8613   3.254   3.412   3.840
 2572SOL     OW 8614   1.970   5.484   2.058
 2572SOL    HW1 8615   1.884   5.535   2.055
 2572SOL    HW2 8616   1.975   5.433   2.144
 2573SOL     OW 8617   6.728   2.091   4.564
 2573SOL    HW1 8618   6.745   2.028   4.639
 2573SOL    HW2 8619   6.651   2.057   4.509
 2574SOL     OW 8620   0.624   3.574   2.086
 2574SOL    HW1 8621   0.654   3.605   1.996
 2574SOL    HW2 8622   0.667   3.486   2.107
 2575SOL     OW 8623   5.718   3.724   6.816
 2575SOL    HW1 8624   5.765   3.792   6.760
 2575SOL    HW2 8625   5.784   3.672   6.869
 2576SOL     OW 8626   2.125   6.802   3.790
 2576SOL    HW1 8627   2.223   6.794   3.810
 2576SOL    HW2 8628   2.088   6.712   3.772
 2577SOL     OW 8629   2.732   5.803   1.654
 2577SOL    HW1 8630   2.830   5.823   1.655
 2577SOL    HW2 8631   2.689   5.843   1.735
 2578SOL     OW 8632   4.692   1.831   4.100
 2578SOL    HW1 8633   4.613   1.831   4.039
 2578SOL    HW2 8634   4.775   1.819   4.046
 2579SOL     OW 8635   6.974   1.609   6.148
 2579SOL    HW1 8636   0.052   1.618   6.160
 2579SOL    HW2 8637   6.955   1.550   6.069
 2580SOL     OW 8638   1.318   2.438   6.170
 2580SOL    HW1 8639   1.416   2.448   6.152
 2580SOL    HW2 8640   1.297   2.475   6.260
 2581SOL     OW 8641   6.390   6.884   4.324
 2581SOL    HW1 8642   6.394   6.794   4.366
 2581SOL    HW2 8643   6.482   6.914   4.299
 2582SOL     OW 8644   0.648   5.616   2.889
 2582SOL    HW1 8645   0.716   5.650   2.953
 2582SOL    HW2 8646   0.563   5.595   2.937
 2583SOL     OW 8647   2.032   1.122   0.213
 2583SOL    HW1 8648   1.950   1.179   0.216
 2583SOL    HW2 8649   2.007   1.028   0.190
 2584SOL     OW 8650   5.159   6.917   1.952
 2584SOL    HW1 8651   5.165   6.871   1.863
 2584SOL    HW2 8652   5.206   7.006   1.945
 2585SOL     OW 8653   3.855   1.231   1.346
 2585SOL    HW1 8654   3.841   1.282   1.432
 2585SOL    HW2 8655   3.902   1.290   1.280
 2586SOL     OW 8656   6.656   2.344   4.409
 2586SOL    HW1 8657   6.736   2.363   4.351
 2586SOL    HW2 8658   6.686   2.303   4.495
 2587SOL     OW 8659   6.492   6.761   2.774
 2587SOL    HW1 8660   6.450   6.826   2.711
 2587SOL    HW2 8661   6.525   6.681   2.723
 2588SOL     OW 8662   5.004   0.783   1.599
 2588SOL    HW1 8663   4.956   0.698   1.577
 2588SOL    HW2 8664   5.015   0.838   1.516
 2589SOL     OW 8665   6.113   6.535   0.468
 2589SOL    HW1 8666   6.166   6.535   0.553
 2589SOL    HW2 8667   6.080   6.627   0.449
 2590SOL     OW 8668   3.883   6.217   2.689
 2590SOL    HW1 8669   3.977   6.252   2.697
 2590SOL    HW2 8670   3.846   6.242   2.600
 2591SOL     OW 8671   5.247   0.489   1.695
 2591SOL    HW1 8672   5.207   0.449   1.613
 2591SOL    HW2 8673   5.261   0.587   1.681
 2592SOL     OW 8674   3.193   5.450   1.665
 2592SOL    HW1 8675   3.212   5.522   1.598
 2592SOL    HW2 8676   3.095   5.449   1.685
 2593SOL     OW 8677   2.956   6.842   2.604
 2593SOL    HW1 8678   3.030   6.851   2.671
 2593SOL    HW2 8679   2.995   6.819   2.514
 2594SOL     OW 8680   0.883   5.983   6.471
 2594SOL    HW1 8681   0.920   6.076   6.474
 2594SOL    HW2 8682   0.795   5.984   6.424
 2595SOL     OW 8683   6.155   3.431   4.167
 2595SOL    HW1 8684   6.205   3.414   4.252
 2595SOL    HW2 8685   6.218   3.425   4.090
 2596SOL     OW 8686   4.197   1.888   1.987
 2596SOL    HW1 8687   4.220   1.821   1.917
 2596SOL    HW2 8688   4.153   1.968   1.945
 2597SOL     OW 8689   2.105   2.645   6.876
 2597SOL    HW1 8690   2.129   2.614   6.784
 2597SOL    HW2 8691   2.018   2.694   6.873
 2598SOL     OW 8692   6.316   2.567   2.869
 2598SOL    HW1 8693   6.342   2.552   2.964
 2598SOL    HW2 8694   6.360   2.497   2.812
 2599SOL     OW 8695   4.515   4.494   6.814
 2599SOL    HW1 8696   4.500   4.409   6.863
 2599SOL    HW2 8697   4.475   4.570   6.865
 2600SOL     OW 8698   6.705   3.541   3.534
 2600SOL    HW1 8699   6.699   3.533   3.434
 2600SOL    HW2 8700   6.677   3.454   3.575
 2601SOL     OW 8701   3.806   3.091   5.595
 2601SOL    HW1 8702   3.891   3.077   5.645
 2601SOL    HW2 8703   3.821   3.072   5.498
 2602SOL     OW 8704   6.085   5.750   4.931
 2602SOL    HW1 8705   6.154   5.771   4.862
 2602SOL    HW2 8706   5.997   5.789   4.904
 2603SOL     OW 8707   2.893   2.636   0.354
 2603SOL    HW1 8708   2.897   2.706   0.426
 2603SOL    HW2 8709   2.894   2.545   0.396
 2604SOL     OW 8710   6.031   0.986   1.879
 2604SOL    HW1 8711   5.998   0.902   1.837
 2604SOL    HW2 8712   5.964   1.017   1.947
 2605SOL     OW 8713   4.606   4.469   4.062
 2605SOL    HW1 8714   4.683   4.498   4.004
 2605SOL    HW2 8715   4.524   4.521   4.035
 2606SOL     OW 8716   6.755   4.341   1.897
 2606SOL    HW1 8717   6.824   4.304   1.834
 2606SOL    HW2 8718   6.668   4.352   1.849
 2607SOL     OW 8719   0.767   1.759   4.572
 2607SOL    HW1 8720   0.707   1.704   4.631
 2607SOL    HW2 8721   0.808   1.832   4.626
 2608SOL     OW 8722   4.802   0.399   0.845
 2608SOL    HW1 8723   4.880   0.339   0.826
 2608SOL    HW2 8724   4.817   0.488   0.802
 2609SOL     OW 8725   0.276   2.226   4.405
 2609SOL    HW1 8726   0.283   2.136   4.449
 2609SOL    HW2 8727   0.180   2.251   4.397
 2610SOL     OW 8728   5.942   5.883   4.369
 2610SOL    HW1 8729   5.895   5.807   4.413
 2610SOL    HW2 8730   5.938   5.964   4.429
 2611SOL     OW 8731   3.480   6.125   1.584
 2611SOL    HW1 8732   3.510   6.220   1.593
 2611SOL    HW2 8733   3.555   6.069   1.552
 2612SOL     OW 8734   6.043   6.592   4.176
 2612SOL    HW1 8735   6.106   6.515   4.180
 2612SOL    HW2 8736   5.956   6.566   4.218
 2613SOL     OW 8737   4.200   0.528   1.420
 2613SOL    HW1 8738   4.250   0.492   1.342
 2613SOL    HW2 8739   4.161   0.453   1.473
 2614SOL     OW 8740   6.942   6.409   6.300
 2614SOL    HW1 8741   6.849   6.430   6.332
 2614SOL    HW2 8742   6.971   6.322   6.341
 2615SOL     OW 8743   5.768   5.247   2.268
 2615SOL    HW1 8744   5.752   5.220   2.363
 2615SOL    HW2 8745   5.680   5.267   2.224
 2616SOL     OW 8746   4.063   3.179   2.594
 2616SOL    HW1 8747   4.047   3.134   2.506
 2616SOL    HW2 8748   4.047   3.277   2.585
 2617SOL     OW 8749   3.708   0.285   1.583
 2617SOL    HW1 8750   3.718   0.211   1.649
 2617SOL    HW2 8751   3.615   0.284   1.546
 2618SOL     OW 8752   1.066   0.519   0.892
 2618SOL    HW1 8753   1.062   0.445   0.826
 2618SOL    HW2 8754   0.973   0.546   0.917
 2619SOL     OW 8755   5.095   1.689   1.718
 2619SOL    HW1 8756   5.012   1.725   1.674
 2619SOL    HW2 8757   5.169   1.756   1.710
 2620SOL     OW 8758   1.552   4.221   4.188
 2620SOL    HW1 8759   1.645   4.245   4.160
 2620SOL    HW2 8760   1.491   4.300   4.175
 2621SOL     OW 8761   0.893   4.418   4.341
 2621SOL    HW1 8762   0.933   4.397   4.252
 2621SOL    HW2 8763   0.856   4.335   4.381
 2622SOL     OW 8764   3.216   3.365   6.084
 2622SOL    HW1 8765   3.150   3.428   6.125
 2622SOL    HW2 8766   3.176   3.323   6.003
 2623SOL     OW 8767   2.904   1.134   5.609
 2623SOL    HW1 8768   2.809   1.127   5.640
 2623SOL    HW2 8769   2.962   1.077   5.667
 2624SOL     OW 8770   6.506   2.344   3.949
 2624SOL    HW1 8771   6.419   2.370   3.991
 2624SOL    HW2 8772   6.490   2.266   3.887
 2625SOL     OW 8773   4.453   0.838   5.605
 2625SOL    HW1 8774   4.552   0.852   5.598
 2625SOL    HW2 8775   4.414   0.834   5.513
 2626SOL     OW 8776   2.226   6.440   2.507
 2626SOL    HW1 8777   2.257   6.460   2.414
 2626SOL    HW2 8778   2.234   6.521   2.564
 2627SOL     OW 8779   7.010   0.165   4.427
 2627SOL    HW1 8780   0.080   0.127   4.413
 2627SOL    HW2 8781   7.016   0.253   4.473
 2628SOL     OW 8782   3.895   5.578   5.818
 2628SOL    HW1 8783   3.959   5.622   5.882
 2628SOL    HW2 8784   3.804   5.577   5.857
 2629SOL     OW 8785   3.505   4.365   1.652
 2629SOL    HW1 8786   3.499   4.346   1.554
 2629SOL    HW2 8787   3.549   4.289   1.698
 2630SOL     OW 8788   2.857   2.309   2.358
 2630SOL    HW1 8789   2.885   2.291   2.263
 2630SOL    HW2 8790   2.832   2.405   2.368
 2631SOL     OW 8791   4.680   6.447   4.341
 2631SOL    HW1 8792   4.673   6.478   4.246
 2631SOL    HW2 8793   4.591   6.455   4.385
 2632SOL     OW 8794   5.011   1.902   0.442
 2632SOL    HW1 8795   4.972   1.812   0.422
 2632SOL    HW2 8796   4.943   1.959   0.487
 2633SOL     OW 8797   6.538   2.401   6.488
 2633SOL    HW1 8798   6.515   2.341   6.565
 2633SOL    HW2 8799   6.587   2.350   6.418
 2634SOL     OW 8800   2.343   5.500   1.203
 2634SOL    HW1 8801   2.423   5.555   1.180
 2634SOL    HW2 8802   2.313   5.521   1.296
 2635SOL     OW 8803   4.890   4.746   3.466
 2635SOL    HW1 8804   4.805   4.712   3.506
 2635SOL    HW2 8805   4.923   4.823   3.521
 2636SOL     OW 8806   5.893   0.877   5.303
 2636SOL    HW1 8807   5.984   0.836   5.312
 2636SOL    HW2 8808   5.825   0.814   5.339
 2637SOL     OW 8809   4.910   6.396   2.311
 2637SOL    HW1 8810   4.861   6.483   2.320
 2637SOL    HW2 8811   5.008   6.411   2.325
 2638SOL     OW 8812   5.783   5.683   0.960
 2638SOL    HW1 8813   5.717   5.702   1.033
 2638SOL    HW2 8814   5.742   5.705   0.872
 2639SOL     OW 8815   6.614   6.298   0.500
 2639SOL    HW1 8816   6.688   6.250   0.547
 2639SOL    HW2 8817   6.629   6.295   0.401
 2640SOL     OW 8818   6.595   6.860   6.040
 2640SOL    HW1 8819   6.519   6.906   6.085
 2640SOL    HW2 8820   6.680   6.879   6.089
 2641SOL     OW 8821   5.812   4.889   0.196
 2641SOL    HW1 8822   5.872   4.864   0.271
 2641SOL    HW2 8823   5.800   4.810   0.134
 2642SOL     OW 8824   6.125   6.929   3.911
 2642SOL    HW1 8825   6.201   6.875   3.947
 2642SOL    HW2 8826   6.124   6.922   3.811
 2643SOL     OW 8827   0.869   0.384   2.775
 2643SOL    HW1 8828   0.829   0.473   2.754
 2643SOL    HW2 8829   0.815   0.312   2.730
 2644SOL     OW 8830   0.382   4.757   6.215
 2644SOL    HW1 8831   0.373   4.715   6.305
 2644SOL    HW2 8832   0.337   4.700   6.146
 2645SOL     OW 8833   5.365   5.604   5.472
 2645SOL    HW1 8834   5.444   5.554   5.435
 2645SOL    HW2 8835   5.371   5.700   5.446
 2646SOL     OW 8836   6.410   6.396   6.841
 2646SOL    HW1 8837   6.477   6.329   6.875
 2646SOL    HW2 8838   6.360   6.434   6.919
 2647SOL     OW 8839   3.668   1.586   0.718
 2647SOL    HW1 8840   3.660   1.680   0.751
 2647SOL    HW2 8841   3.715   1.586   0.630
 2648SOL     OW 8842   4.066   0.958   2.421
 2648SOL    HW1 8843   4.071   1.012   2.337
 2648SOL    HW2 8844   4.149   0.903   2.431
 2649SOL     OW 8845   3.648   1.936   5.681
 2649SOL    HW1 8846   3.555   1.910   5.708
 2649SOL    HW2 8847   3.712   1.908   5.752
 2650SOL     OW 8848   0.348   6.255   2.096
 2650SOL    HW1 8849   0.327   6.334   2.038
 2650SOL    HW2 8850   0.446   6.253   2.116
 2651SOL     OW 8851   0.375   0.635   3.342
 2651SOL    HW1 8852   0.317   0.558   3.313
 2651SOL    HW2 8853   0.370   0.708   3.274
 2652SOL     OW 8854   2.962   3.231   2.303
 2652SOL    HW1 8855   2.896   3.305   2.315
 2652SOL    HW2 8856   3.055   3.270   2.303
 2653SOL     OW 8857   6.465   6.159   6.269
 2653SOL    HW1 8858   6.448   6.062   6.287
 2653SOL    HW2 8859   6.552   6.170   6.222
 2654SOL     OW 8860   5.774   2.838   6.067
 2654SOL    HW1 8861   5.703   2.833   6.138
 2654SOL    HW2 8862   5.847   2.774   6.089
 2655SOL     OW 8863   5.027   6.225   5.107
 2655SOL    HW1 8864   4.948   6.172   5.077
 2655SOL    HW2 8865   5.024   6.316   5.065
 2656SOL     OW 8866   5.772   3.032   4.053
 2656SOL    HW1 8867   5.744   3.127   4.048
 2656SOL    HW2 8868   5.820   3.016   4.139
 2657SOL     OW 8869   2.038   2.669   6.148
 2657SOL    HW1 8870   2.069   2.744   6.207
 2657SOL    HW2 8871   2.036   2.700   6.053
 2658SOL     OW 8872   5.776   4.482   5.816
 2658SOL    HW1 8873   5.685   4.521   5.804
 2658SOL    HW2 8874   5.770   4.401   5.874
 2659SOL     OW 8875   6.820   3.056   4.157
 2659SOL    HW1 8876   6.804   3.089   4.064
 2659SOL    HW2 8877   6.918   3.057   4.175
 2660SOL     OW 8878   6.812   2.387   3.101
 2660SOL    HW1 8879   6.837   2.455   3.033
 2660SOL    HW2 8880   6.872   2.396   3.181
 2661SOL     OW 8881   4.322   5.791   0.685
 2661SOL    HW1 8882   4.358   5.728   0.617
 2661SOL    HW2 8883   4.344   5.885   0.659
 2662SOL     OW 8884   2.918   6.530   3.983
 2662SOL    HW1 8885   2.935   6.514   4.081
 2662SOL    HW2 8886   2.991   6.487   3.930
 2663SOL     OW 8887   1.033   4.268   2.586
 2663SOL    HW1 8888   0.952   4.209   2.596
 2663SOL    HW2 8889   1.051   4.313   2.673
 2664SOL     OW 8890   4.080   3.646   2.000
 2664SOL    HW1 8891   4.035   3.613   2.084
 2664SOL    HW2 8892   4.169   3.685   2.024
 2665SOL     OW 8893   3.692   0.932   4.806
 2665SOL    HW1 8894   3.744   1.014   4.783
 2665SOL    HW2 8895   3.635   0.949   4.886
 2666SOL     OW 8896   5.305   5.785   1.508
 2666SOL    HW1 8897   5.292   5.722   1.431
 2666SOL    HW2 8898   5.216   5.811   1.545
 2667SOL     OW 8899   1.545   5.036   3.954
 2667SOL    HW1 8900   1.572   4.998   3.866
 2667SOL    HW2 8901   1.447   5.057   3.953
 2668SOL     OW 8902   0.138   2.944   5.666
 2668SOL    HW1 8903   0.138   3.039   5.634
 2668SOL    HW2 8904   0.170   2.941   5.760
 2669SOL     OW 8905   4.294   4.758   5.359
 2669SOL    HW1 8906   4.293   4.848   5.316
 2669SOL    HW2 8907   4.225   4.755   5.431
 2670SOL     OW 8908   1.655   0.864   6.801
 2670SOL    HW1 8909   1.561   0.891   6.779
 2670SOL    HW2 8910   1.716   0.894   6.728
 2671SOL     OW 8911   2.645   3.493   6.040
 2671SOL    HW1 8912   2.626   3.575   6.093
 2671SOL    HW2 8913   2.695   3.427   6.097
 2672SOL     OW 8914   0.934   5.007   0.575
 2672SOL    HW1 8915   1.002   5.015   0.649
 2672SOL    HW2 8916   0.849   5.051   0.605
 2673SOL     OW 8917   4.075   1.931   3.249
 2673SOL    HW1 8918   4.038   1.992   3.180
 2673SOL    HW2 8919   4.162   1.893   3.218
 2674SOL     OW 8920   5.269   5.321   5.433
 2674SOL    HW1 8921   5.185   5.368   5.406
 2674SOL    HW2 8922   5.328   5.311   5.352
 2675SOL     OW 8923   0.495   4.459   5.664
 2675SOL    HW1 8924   0.506   4.419   5.573
 2675SOL    HW2 8925   0.548   4.543   5.670
 2676SOL     OW 8926   4.341   0.692   1.985
 2676SOL    HW1 8927   4.392   0.756   2.043
 2676SOL    HW2 8928   4.405   0.644   1.925
 2677SOL     OW 8929   2.422   5.025   2.252
 2677SOL    HW1 8930   2.408   5.090   2.178
 2677SOL    HW2 8931   2.340   4.969   2.263
 2678SOL     OW 8932   0.701   5.022   5.735
 2678SOL    HW1 8933   0.775   4.988   5.677
 2678SOL    HW2 8934   0.724   5.114   5.767
 2679SOL     OW 8935   2.860   4.243   1.311
 2679SOL    HW1 8936   2.927   4.175   1.340
 2679SOL    HW2 8937   2.793   4.257   1.383
 2680SOL     OW 8938   0.987   2.406   1.781
 2680SOL    HW1 8939   1.020   2.320   1.743
 2680SOL    HW2 8940   0.963   2.469   1.707
 2681SOL     OW 8941   1.474   1.785   2.513
 2681SOL    HW1 8942   1.501   1.871   2.470
 2681SOL    HW2 8943   1.410   1.803   2.587
 2682SOL     OW 8944   5.832   1.814   3.591
 2682SOL    HW1 8945   5.866   1.890   3.536
 2682SOL    HW2 8946   5.903   1.786   3.656
 2683SOL     OW 8947   0.807   6.737   1.555
 2683SOL    HW1 8948   0.879   6.801   1.530
 2683SOL    HW2 8949   0.794   6.737   1.654
 2684SOL     OW 8950   2.481   6.636   2.933
 2684SOL    HW1 8951   2.414   6.637   2.858
 2684SOL    HW2 8952   2.506   6.731   2.955
 2685SOL     OW 8953   5.714   5.650   5.171
 2685SOL    HW1 8954   5.718   5.730   5.230
 2685SOL    HW2 8955   5.804   5.606   5.168
 2686SOL     OW 8956   1.990   2.734   4.205
 2686SOL    HW1 8957   1.918   2.781   4.153
 2686SOL    HW2 8958   2.011   2.786   4.288
 2687SOL     OW 8959   4.537   5.659   2.514
 2687SOL    HW1 8960   4.606   5.651   2.442
 2687SOL    HW2 8961   4.481   5.577   2.516
 2688SOL     OW 8962   3.854   4.533   6.346
 2688SOL    HW1 8963   3.926   4.466   6.330
 2688SOL    HW2 8964   3.814   4.560   6.259
 2689SOL     OW 8965   6.894   3.655   3.973
 2689SOL    HW1 8966   6.960   3.697   4.036
 2689SOL    HW2 8967   6.902   3.698   3.883
 2690SOL     OW 8968   3.526   3.383   3.467
 2690SOL    HW1 8969   3.623   3.364   3.456
 2690SOL    HW2 8970   3.472   3.313   3.420
 2691SOL     OW 8971   1.395   6.010   2.014
 2691SOL    HW1 8972   1.475   6.070   2.007
 2691SOL    HW2 8973   1.357   5.995   1.923
 2692SOL     OW 8974   0.417   6.979   3.530
 2692SOL    HW1 8975   0.317   6.971   3.531
 2692SOL    HW2 8976   0.446   7.020   3.444
 2693SOL     OW 8977   1.560   4.020   2.781
 2693SOL    HW1 8978   1.482   3.973   2.739
 2693SOL    HW2 8979   1.604   3.959   2.847
 2694SOL     OW 8980   1.927   0.261   3.263
 2694SOL    HW1 8981   1.916   0.163   3.281
 2694SOL    HW2 8982   1.854   0.311   3.308
 2695SOL     OW 8983   4.161   2.072   3.457
 2695SOL    HW1 8984   4.144   2.033   3.548
 2695SOL    HW2 8985   4.135   2.005   3.387
 2696SOL     OW 8986   3.612   3.824   5.619
 2696SOL    HW1 8987   3.701   3.868   5.628
 2696SOL    HW2 8988   3.624   3.728   5.592
 2697SOL     OW 8989   2.457   1.763   4.426
 2697SOL    HW1 8990   2.506   1.709   4.358
 2697SOL    HW2 8991   2.364   1.780   4.394
 2698SOL     OW 8992   2.520   3.421   0.305
 2698SOL    HW1 8993   2.538   3.469   0.219
 2698SOL    HW2 8994   2.451   3.472   0.357
 2699SOL     OW 8995   3.794   5.707   1.936
 2699SOL    HW1 8996   3.821   5.798   1.966
 2699SOL    HW2 8997   3.706   5.683   1.976
 2700SOL     OW 8998   2.107   3.718   3.021
 2700SOL    HW1 8999   2.108   3.630   2.973
 2700SOL    HW2 9000   2.110   3.702   3.119
 2701SOL     OW 9001   3.854   6.724   6.278
 2701SOL    HW1 9002   3.923   6.725   6.351
 2701SOL    HW2 9003   3.856   6.811   6.229
 2702SOL     OW 9004   6.981   0.361   3.564
 2702SOL    HW1 9005   6.999   0.293   3.493
 2702SOL    HW2 9006   6.888   0.396   3.554
 2703SOL     OW 9007   1.968   1.329   2.249
 2703SOL    HW1 9008   1.882   1.340   2.200
 2703SOL    HW2 9009   1.956   1.354   2.345
 2704SOL     OW 9010   2.355   5.060   1.244
 2704SOL    HW1 9011   2.307   4.972   1.247
 2704SOL    HW2 9012   2.295   5.132   1.277
 2705SOL     OW 9013   6.858   4.879   3.072
 2705SOL    HW1 9014   6.934   4.850   3.013
 2705SOL    HW2 9015   6.799   4.942   3.023
 2706SOL     OW 9016   0.014   1.628   2.168
 2706SOL    HW1 9017   0.051   1.719   2.190
 2706SOL    HW2 9018   7.016   1.579   2.253
 2707SOL     OW 9019   2.423   1.353   6.082
 2707SOL    HW1 9020   2.420   1.279   6.149
 2707SOL    HW2 9021   2.368   1.430   6.116
 2708SOL     OW 9022   1.685   2.646   1.072
 2708SOL    HW1 9023   1.706   2.651   0.975
 2708SOL    HW2 9024   1.744   2.577   1.115
 2709SOL     OW 9025   4.805   6.247   0.390
 2709SOL    HW1 9026   4.728   6.276   0.447
 2709SOL    HW2 9027   4.884   6.225   0.447
 2710SOL     OW 9028   5.828   3.694   2.895
 2710SOL    HW1 9029   5.731   3.672   2.885
 2710SOL    HW2 9030   5.866   3.719   2.806
 2711SOL     OW 9031   1.319   0.257   2.064
 2711SOL    HW1 9032   1.251   0.184   2.069
 2711SOL    HW2 9033   1.353   0.265   1.970
 2712SOL     OW 9034   2.703   4.141   0.286
 2712SOL    HW1 9035   2.764   4.107   0.215
 2712SOL    HW2 9036   2.756   4.189   0.356
 2713SOL     OW 9037   2.215   3.082   5.229
 2713SOL    HW1 9038   2.305   3.047   5.202
 2713SOL    HW2 9039   2.149   3.066   5.156
 2714SOL     OW 9040   5.175   6.699   5.238
 2714SOL    HW1 9041   5.260   6.740   5.204
 2714SOL    HW2 9042   5.190   6.603   5.258
 2715SOL     OW 9043   6.365   1.263   6.474
 2715SOL    HW1 9044   6.346   1.200   6.550
 2715SOL    HW2 9045   6.457   1.302   6.486
 2716SOL     OW 9046   0.523   0.050   2.500
 2716SOL    HW1 9047   0.527   0.051   2.401
 2716SOL    HW2 9048   0.573   6.991   2.535
 2717SOL     OW 9049   0.863   1.111   2.864
 2717SOL    HW1 9050   0.819   1.191   2.824
 2717SOL    HW2 9051   0.943   1.086   2.809
 2718SOL     OW 9052   1.608   4.789   3.687
 2718SOL    HW1 9053   1.645   4.696   3.691
 2718SOL    HW2 9054   1.682   4.854   3.670
 2719SOL     OW 9055   3.934   5.405   1.530
 2719SOL    HW1 9056   3.872   5.475   1.567
 2719SOL    HW2 9057   3.975   5.439   1.446
 2720SOL     OW 9058   1.304   5.812   3.424
 2720SOL    HW1 9059   1.270   5.817   3.518
 2720SOL    HW2 9060   1.355   5.895   3.402
 2721SOL     OW 9061   4.112   0.016   4.368
 2721SOL    HW1 9062   4.058   0.099   4.382
 2721SOL    HW2 9063   4.085   6.968   4.435
 2722SOL     OW 9064   1.588   5.751   1.846
 2722SOL    HW1 9065   1.508   5.812   1.848
 2722SOL    HW2 9066   1.652   5.779   1.918
 2723SOL     OW 9067   1.415   1.252   5.824
 2723SOL    HW1 9068   1.495   1.310   5.839
 2723SOL    HW2 9069   1.426   1.201   5.739
 2724SOL     OW 9070   3.779   5.163   6.170
 2724SOL    HW1 9071   3.849   5.166   6.242
 2724SOL    HW2 9072   3.819   5.125   6.087
 2725SOL     OW 9073   3.311   4.936   3.764
 2725SOL    HW1 9074   3.299   4.859   3.828
 2725SOL    HW2 9075   3.344   5.016   3.815
 2726SOL     OW 9076   4.914   5.622   1.743
 2726SOL    HW1 9077   4.933   5.545   1.682
 2726SOL    HW2 9078   5.000   5.669   1.766
 2727SOL     OW 9079   2.242   5.602   3.084
 2727SOL    HW1 9080   2.251   5.578   2.987
 2727SOL    HW2 9081   2.292   5.536   3.140
 2728SOL     OW 9082   3.799   6.992   5.817
 2728SOL    HW1 9083   3.812   0.070   5.828
 2728SOL    HW2 9084   3.785   6.971   5.721
 2729SOL     OW 9085   5.807   5.191   2.839
 2729SOL    HW1 9086   5.818   5.227   2.747
 2729SOL    HW2 9087   5.867   5.239   2.902
 2730SOL     OW 9088   1.866   5.528   1.463
 2730SOL    HW1 9089   1.891   5.454   1.526
 2730SOL    HW2 9090   1.821   5.601   1.514
 2731SOL     OW 9091   2.988   3.759   1.518
 2731SOL    HW1 9092   2.918   3.792   1.582
 2731SOL    HW2 9093   3.079   3.780   1.554
 2732SOL     OW 9094   6.314   2.061   2.740
 2732SOL    HW1 9095   6.253   2.121   2.792
 2732SOL    HW2 9096   6.281   1.967   2.746
 2733SOL     OW 9097   1.799   0.235   5.723
 2733SOL    HW1 9098   1.762   0.289   5.799
 2733SOL    HW2 9099   1.740   0.156   5.705
 2734SOL     OW 9100   1.781   5.667   3.736
 2734SOL    HW1 9101   1.835   5.604   3.792
 2734SOL    HW2 9102   1.701   5.620   3.700
 2735SOL     OW 9103   1.724   4.878   2.382
 2735SOL    HW1 9104   1.811   4.842   2.347
 2735SOL    HW2 9105   1.670   4.802   2.419
 2736SOL     OW 9106   4.410   0.416   5.633
 2736SOL    HW1 9107   4.366   0.415   5.723
 2736SOL    HW2 9108   4.344   0.446   5.564
 2737SOL     OW 9109   4.587   3.459   6.217
 2737SOL    HW1 9110   4.612   3.493   6.127
 2737SOL    HW2 9111   4.668   3.419   6.261
 2738SOL     OW 9112   5.573   5.005   4.067
 2738SOL    HW1 9113   5.592   4.910   4.046
 2738SOL    HW2 9114   5.540   5.052   3.984
 2739SOL     OW 9115   6.271   2.681   0.623
 2739SOL    HW1 9116   6.269   2.745   0.700
 2739SOL    HW2 9117   6.251   2.589   0.656
 2740SOL     OW 9118   6.471   2.338   3.222
 2740SOL    HW1 9119   6.448   2.320   3.126
 2740SOL    HW2 9120   6.420   2.275   3.281
 2741SOL     OW 9121   0.725   2.524   5.745
 2741SOL    HW1 9122   0.808   2.496   5.794
 2741SOL    HW2 9123   0.698   2.616   5.775
 2742SOL     OW 9124   2.110   6.551   6.549
 2742SOL    HW1 9125   2.152   6.627   6.499
 2742SOL    HW2 9126   2.028   6.583   6.595
 2743SOL     OW 9127   5.098   4.866   0.805
 2743SOL    HW1 9128   5.185   4.822   0.826
 2743SOL    HW2 9129   5.023   4.801   0.818
 2744SOL     OW 9130   3.804   1.498   6.602
 2744SOL    HW1 9131   3.854   1.418   6.635
 2744SOL    HW2 9132   3.706   1.487   6.622
 2745SOL     OW 9133   2.296   5.732   0.624
 2745SOL    HW1 9134   2.201   5.757   0.642
 2745SOL    HW2 9135   2.326   5.666   0.692
 2746SOL     OW 9136   1.501   2.168   6.117
 2746SOL    HW1 9137   1.402   2.165   6.125
 2746SOL    HW2 9138   1.540   2.087   6.163
 2747SOL     OW 9139   4.286   5.690   3.905
 2747SOL    HW1 9140   4.258   5.697   3.809
 2747SOL    HW2 9141   4.206   5.701   3.964
 2748SOL     OW 9142   3.631   1.074   3.987
 2748SOL    HW1 9143   3.709   1.023   4.023
 2748SOL    HW2 9144   3.561   1.082   4.058
 2749SOL     OW 9145   4.571   5.451   4.387
 2749SOL    HW1 9146   4.623   5.415   4.308
 2749SOL    HW2 9147   4.498   5.387   4.410
 2750SOL     OW 9148   0.527   5.734   2.537
 2750SOL    HW1 9149   0.475   5.652   2.560
 2750SOL    HW2 9150   0.466   5.803   2.498
 2751SOL     OW 9151   1.372   0.328   6.401
 2751SOL    HW1 9152   1.366   0.414   6.451
 2751SOL    HW2 9153   1.450   0.275   6.434
 2752SOL     OW 9154   5.682   6.261   5.684
 2752SOL    HW1 9155   5.739   6.232   5.761
 2752SOL    HW2 9156   5.586   6.263   5.713
 2753SOL     OW 9157   2.400   5.633   5.456
 2753SOL    HW1 9158   2.415   5.549   5.508
 2753SOL    HW2 9159   2.429   5.712   5.510
 2754SOL     OW 9160   1.234   6.249   4.017
 2754SOL    HW1 9161   1.275   6.266   4.107
 2754SOL    HW2 9162   1.202   6.154   4.012
 2755SOL     OW 9163   3.738   5.956   2.576
 2755SOL    HW1 9164   3.820   5.984   2.527
 2755SOL    HW2 9165   3.764   5.909   2.660
 2756SOL     OW 9166   0.966   2.925   5.652
 2756SOL    HW1 9167   1.021   2.946   5.733
 2756SOL    HW2 9168   0.870   2.911   5.679
 2757SOL     OW 9169   4.218   3.383   6.997
 2757SOL    HW1 9170   4.241   3.479   6.978
 2757SOL    HW2 9171   4.281   3.347   0.045
 2758SOL     OW 9172   6.414   6.324   2.173
 2758SOL    HW1 9173   6.329   6.322   2.121
 2758SOL    HW2 9174   6.452   6.232   2.180
 2759SOL     OW 9175   3.259   3.959   6.080
 2759SOL    HW1 9176   3.341   3.904   6.093
 2759SOL    HW2 9177   3.254   3.991   5.985
 2760SOL     OW 9178   5.411   6.351   2.812
 2760SOL    HW1 9179   5.430   6.445   2.781
 2760SOL    HW2 9180   5.496   6.306   2.839
 2761SOL     OW 9181   1.139   2.540   3.911
 2761SOL    HW1 9182   1.100   2.632   3.902
 2761SOL    HW2 9183   1.237   2.548   3.926
 2762SOL     OW 9184   2.541   2.379   0.711
 2762SOL    HW1 9185   2.492   2.301   0.672
 2762SOL    HW2 9186   2.493   2.463   0.688
 2763SOL     OW 9187   6.188   2.074   4.698
 2763SOL    HW1 9188   6.227   2.164   4.717
 2763SOL    HW2 9189   6.259   2.005   4.706
 2764SOL     OW 9190   0.798   3.346   2.194
 2764SOL    HW1 9191   0.798   3.248   2.179
 2764SOL    HW2 9192   0.842   3.367   2.282
 2765SOL     OW 9193   6.231   6.857   6.979
 2765SOL    HW1 9194   6.226   6.933   6.914
 2765SOL    HW2 9195   6.324   6.819   6.979
 2766SOL     OW 9196   4.778   0.543   0.017
 2766SOL    HW1 9197   4.842   0.467   0.024
 2766SOL    HW2 9198   4.723   0.533   6.954
 2767SOL     OW 9199   7.010   5.558   6.556
 2767SOL    HW1 9200   7.012   5.625   6.482
 2767SOL    HW2 9201   6.926   5.505   6.551
 2768SOL     OW 9202   3.804   0.075   1.343
 2768SOL    HW1 9203   3.820   0.173   1.335
 2768SOL    HW2 9204   3.797   0.034   1.252
 2769SOL     OW 9205   0.817   4.556   5.849
 2769SOL    HW1 9206   0.793   4.569   5.753
 2769SOL    HW2 9207   0.868   4.636   5.882
 2770SOL     OW 9208   2.990   6.159   0.606
 2770SOL    HW1 9209   3.018   6.254   0.619
 2770SOL    HW2 9210   2.902   6.143   0.650
 2771SOL     OW 9211   4.566   6.720   5.114
 2771SOL    HW1 9212   4.526   6.645   5.166
 2771SOL    HW2 9213   4.507   6.743   5.037
 2772SOL     OW 9214   4.912   0.433   3.443
 2772SOL    HW1 9215   4.878   0.339   3.448
 2772SOL    HW2 9216   4.873   0.478   3.363
 2773SOL     OW 9217   5.618   2.833   5.256
 2773SOL    HW1 9218   5.625   2.733   5.261
 2773SOL    HW2 9219   5.563   2.866   5.332
 2774SOL     OW 9220   6.261   1.980   4.163
 2774SOL    HW1 9221   6.282   2.069   4.202
 2774SOL    HW2 9222   6.323   1.961   4.087
 2775SOL     OW 9223   0.430   3.287   4.185
 2775SOL    HW1 9224   0.425   3.340   4.270
 2775SOL    HW2 9225   0.522   3.292   4.148
 2776SOL     OW 9226   5.090   4.939   6.379
 2776SOL    HW1 9227   5.009   4.980   6.337
 2776SOL    HW2 9228   5.098   4.844   6.351
 2777SOL     OW 9229   2.639   2.434   6.725
 2777SOL    HW1 9230   2.594   2.498   6.787
 2777SOL    HW2 9231   2.673   2.356   6.777
 2778SOL     OW 9232   2.744   0.163   6.252
 2778SOL    HW1 9233   2.744   0.221   6.333
 2778SOL    HW2 9234   2.649   0.143   6.225
 2779SOL     OW 9235   4.431   0.955   1.491
 2779SOL    HW1 9236   4.429   0.895   1.570
 2779SOL    HW2 9237   4.409   0.903   1.409
 2780SOL     OW 9238   0.190   1.666   4.799
 2780SOL    HW1 9239   0.230   1.590   4.851
 2780SOL    HW2 9240   0.226   1.664   4.706
 2781SOL     OW 9241   5.852   1.432   3.254
 2781SOL    HW1 9242   5.892   1.491   3.324
 2781SOL    HW2 9243   5.847   1.338   3.288
 2782SOL     OW 9244   5.264   0.297   5.642
 2782SOL    HW1 9245   5.287   0.232   5.570
 2782SOL    HW2 9246   5.309   0.385   5.624
 2783SOL     OW 9247   5.896   3.946   1.727
 2783SOL    HW1 9248   5.810   3.898   1.714
 2783SOL    HW2 9249   5.954   3.895   1.791
 2784SOL     OW 9250   0.812   2.104   1.127
 2784SOL    HW1 9251   0.779   2.062   1.211
 2784SOL    HW2 9252   0.734   2.137   1.074
 2785SOL     OW 9253   5.658   3.111   1.231
 2785SOL    HW1 9254   5.715   3.060   1.296
 2785SOL    HW2 9255   5.568   3.128   1.272
 2786SOL     OW 9256   0.380   5.976   6.763
 2786SOL    HW1 9257   0.440   5.913   6.812
 2786SOL    HW2 9258   0.412   5.987   6.668
 2787SOL     OW 9259   6.848   5.843   0.258
 2787SOL    HW1 9260   6.932   5.790   0.267
 2787SOL    HW2 9261   6.812   5.834   0.165
 2788SOL     OW 9262   3.207   6.730   6.029
 2788SOL    HW1 9263   3.126   6.737   6.088
 2788SOL    HW2 9264   3.179   6.698   5.938
 2789SOL     OW 9265   1.303   1.784   5.115
 2789SOL    HW1 9266   1.397   1.765   5.143
 2789SOL    HW2 9267   1.276   1.875   5.147
 2790SOL     OW 9268   1.381   5.648   2.176
 2790SOL    HW1 9269   1.304   5.645   2.241
 2790SOL    HW2 9270   1.345   5.657   2.083
 2791SOL     OW 9271   0.380   3.388   2.932
 2791SOL    HW1 9272   0.379   3.473   2.983
 2791SOL    HW2 9273   0.289   3.345   2.938
 2792SOL     OW 9274   3.565   0.875   6.078
 2792SOL    HW1 9275   3.539   0.936   6.153
 2792SOL    HW2 9276   3.646   0.913   6.032
 2793SOL     OW 9277   3.600   3.882   0.459
 2793SOL    HW1 9278   3.654   3.895   0.543
 2793SOL    HW2 9279   3.556   3.968   0.434
 2794SOL     OW 9280   0.748   2.631   6.964
 2794SOL    HW1 9281   0.723   2.717   7.008
 2794SOL    HW2 9282   0.832   2.642   6.913
 2795SOL     OW 9283   0.615   5.703   1.511
 2795SOL    HW1 9284   0.671   5.621   1.512
 2795SOL    HW2 9285   0.609   5.739   1.418
 2796SOL     OW 9286   2.045   5.661   6.179
 2796SOL    HW1 9287   2.119   5.599   6.153
 2796SOL    HW2 9288   1.978   5.665   6.105
 2797SOL     OW 9289   4.977   5.679   3.223
 2797SOL    HW1 9290   4.958   5.581   3.230
 2797SOL    HW2 9291   4.892   5.729   3.209
 2798SOL     OW 9292   4.512   0.747   1.715
 2798SOL    HW1 9293   4.581   0.747   1.788
 2798SOL    HW2 9294   4.471   0.656   1.708
 2799SOL     OW 9295   3.524   6.185   5.041
 2799SOL    HW1 9296   3.549   6.205   4.947
 2799SOL    HW2 9297   3.424   6.192   5.051
 2800SOL     OW 9298   5.888   0.018   5.869
 2800SOL    HW1 9299   5.792   0.024   5.897
 2800SOL    HW2 9300   5.944   0.076   5.929
 2801SOL     OW 9301   7.018   4.410   4.620
 2801SOL    HW1 9302   0.021   4.442   4.528
 2801SOL    HW2 9303   0.081   4.390   4.670
 2802SOL     OW 9304   1.609   5.019   5.268
 2802SOL    HW1 9305   1.537   5.071   5.221
 2802SOL    HW2 9306   1.662   5.081   5.326
 2803SOL     OW 9307   3.574   2.040   6.041
 2803SOL    HW1 9308   3.501   1.971   6.037
 2803SOL    HW2 9309   3.535   2.130   6.025
 2804SOL     OW 9310   0.136   2.417   3.962
 2804SOL    HW1 9311   0.059   2.470   3.926
 2804SOL    HW2 9312   0.169   2.354   3.892
 2805SOL     OW 9313   3.703   2.885   1.191
 2805SOL    HW1 9314   3.621   2.937   1.212
 2805SOL    HW2 9315   3.721   2.819   1.264
 2806SOL     OW 9316   0.439   3.732   6.104
 2806SOL    HW1 9317   0.354   3.740   6.156
 2806SOL    HW2 9318   0.438   3.796   6.027
 2807SOL     OW 9319   4.067   0.572   3.687
 2807SOL    HW1 9320   4.012   0.632   3.745
 2807SOL    HW2 9321   4.159   0.564   3.724
 2808SOL     OW 9322   0.671   4.666   5.583
 2808SOL    HW1 9323   0.639   4.707   5.498
 2808SOL    HW2 9324   0.728   4.587   5.563
 2809SOL     OW 9325   0.043   5.511   2.146
 2809SOL    HW1 9326   0.126   5.465   2.115
 2809SOL    HW2 9327   6.983   5.467   2.105
 2810SOL     OW 9328   2.334   0.017   2.891
 2810SOL    HW1 9329   2.235   0.025   2.907
 2810SOL    HW2 9330   2.376   6.990   2.968
 2811SOL     OW 9331   0.935   1.016   1.303
 2811SOL    HW1 9332   0.870   1.011   1.378
 2811SOL    HW2 9333   0.890   1.055   1.222
 2812SOL     OW 9334   1.091   1.404   1.121
 2812SOL    HW1 9335   1.072   1.337   1.049
 2812SOL    HW2 9336   1.012   1.411   1.181
 2813SOL     OW 9337   1.005   3.266   1.644
 2813SOL    HW1 9338   0.961   3.349   1.608
 2813SOL    HW2 9339   1.058   3.288   1.725
 2814SOL     OW 9340   2.447   4.051   0.353
 2814SOL    HW1 9341   2.467   3.966   0.304
 2814SOL    HW2 9342   2.530   4.107   0.358
 2815SOL     OW 9343   0.252   4.662   4.494
 2815SOL    HW1 9344   0.318   4.736   4.481
 2815SOL    HW2 9345   0.185   4.688   4.563
 2816SOL     OW 9346   0.647   5.734   5.567
 2816SOL    HW1 9347   0.586   5.656   5.575
 2816SOL    HW2 9348   0.594   5.819   5.573
 2817SOL     OW 9349   3.794   0.862   2.447
 2817SOL    HW1 9350   3.893   0.879   2.454
 2817SOL    HW2 9351   3.775   0.768   2.472
 2818SOL     OW 9352   1.707   0.226   0.607
 2818SOL    HW1 9353   1.772   0.206   0.533
 2818SOL    HW2 9354   1.739   0.185   0.692
 2819SOL     OW 9355   0.709   0.122   6.852
 2819SOL    HW1 9356   0.722   0.154   6.945
 2819SOL    HW2 9357   0.617   0.146   6.820
 2820SOL     OW 9358   1.699   2.789   0.200
 2820SOL    HW1 9359   1.612   2.834   0.181
 2820SOL    HW2 9360   1.686   2.690   0.200
 2821SOL     OW 9361   3.482   3.376   6.093
 2821SOL    HW1 9362   3.502   3.347   6.186
 2821SOL    HW2 9363   3.385   3.363   6.074
 2822SOL     OW 9364   4.540   2.789   0.333
 2822SOL    HW1 9365   4.569   2.751   0.245
 2822SOL    HW2 9366   4.440   2.795   0.336
 2823SOL     OW 9367   4.989   2.563   1.439
 2823SOL    HW1 9368   4.964   2.586   1.345
 2823SOL    HW2 9369   4.942   2.478   1.465
 2824SOL     OW 9370   1.266   3.834   4.447
 2824SOL    HW1 9371   1.325   3.768   4.494
 2824SOL    HW2 9372   1.176   3.792   4.430
 2825SOL     OW 9373   5.410   1.757   6.296
 2825SOL    HW1 9374   5.442   1.841   6.251
 2825SOL    HW2 9375   5.446   1.753   6.389
 2826SOL     OW 9376   2.792   2.604   6.563
 2826SOL    HW1 9377   2.731   2.554   6.624
 2826SOL    HW2 9378   2.851   2.664   6.617
 2827SOL     OW 9379   6.060   1.005   6.385
 2827SOL    HW1 9380   6.046   1.092   6.339
 2827SOL    HW2 9381   6.126   1.016   6.459
 2828SOL     OW 9382   1.847   3.941   0.900
 2828SOL    HW1 9383   1.931   3.945   0.953
 2828SOL    HW2 9384   1.852   3.865   0.835
 2829SOL     OW 9385   3.215   3.640   2.444
 2829SOL    HW1 9386   3.189   3.621   2.350
 2829SOL    HW2 9387   3.253   3.558   2.486
 2830SOL     OW 9388   3.163   5.840   5.269
 2830SOL    HW1 9389   3.174   5.934   5.239
 2830SOL    HW2 9390   3.233   5.817   5.337
 2831SOL     OW 9391   5.446   1.890   2.116
 2831SOL    HW1 9392   5.527   1.907   2.173
 2831SOL    HW2 9393   5.384   1.829   2.165
 2832SOL     OW 9394   0.730   3.961   1.942
 2832SOL    HW1 9395   0.747   3.957   1.843
 2832SOL    HW2 9396   0.792   4.027   1.984
 2833SOL     OW 9397   1.657   2.475   2.109
 2833SOL    HW1 9398   1.634   2.390   2.156
 2833SOL    HW2 9399   1.587   2.496   2.042
 2834SOL     OW 9400   3.739   6.354   4.778
 2834SOL    HW1 9401   3.810   6.312   4.835
 2834SOL    HW2 9402   3.709   6.440   4.820
 2835SOL     OW 9403   6.602   1.016   0.118
 2835SOL    HW1 9404   6.698   0.990   0.108
 2835SOL    HW2 9405   6.553   0.943   0.167
 2836SOL     OW 9406   3.134   5.829   2.596
 2836SOL    HW1 9407   3.044   5.848   2.634
 2836SOL    HW2 9408   3.125   5.759   2.524
 2837SOL     OW 9409   5.004   4.111   1.748
 2837SOL    HW1 9410   4.944   4.181   1.711
 2837SOL    HW2 9411   5.005   4.116   1.848
 2838SOL     OW 9412   6.433   4.716   6.698
 2838SOL    HW1 9413   6.365   4.769   6.750
 2838SOL    HW2 9414   6.386   4.642   6.649
 2839SOL     OW 9415   6.181   3.436   4.784
 2839SOL    HW1 9416   6.271   3.392   4.778
 2839SOL    HW2 9417   6.110   3.369   4.763
 2840SOL     OW 9418   6.980   6.623   4.220
 2840SOL    HW1 9419   0.008   6.551   4.269
 2840SOL    HW2 9420   0.023   6.697   4.198
 2841SOL     OW 9421   6.039   3.648   2.517
 2841SOL    HW1 9422   5.964   3.598   2.474
 2841SOL    HW2 9423   6.002   3.721   2.574
 2842SOL     OW 9424   1.504   0.759   3.823
 2842SOL    HW1 9425   1.509   0.853   3.855
 2842SOL    HW2 9426   1.589   0.734   3.777
 2843SOL     OW 9427   2.195   2.330   3.815
 2843SOL    HW1 9428   2.111   2.328   3.761
 2843SOL    HW2 9429   2.194   2.410   3.875
 2844SOL     OW 9430   5.080   3.891   0.160
 2844SOL    HW1 9431   5.067   3.931   0.069
 2844SOL    HW2 9432   4.998   3.839   0.185
 2845SOL     OW 9433   3.430   1.826   2.520
 2845SOL    HW1 9434   3.393   1.734   2.530
 2845SOL    HW2 9435   3.443   1.847   2.423
 2846SOL     OW 9436   6.510   0.249   6.913
 2846SOL    HW1 9437   6.431   0.230   6.970
 2846SOL    HW2 9438   6.501   0.339   6.871
 2847SOL     OW 9439   4.439   4.420   1.170
 2847SOL    HW1 9440   4.455   4.389   1.264
 2847SOL    HW2 9441   4.398   4.346   1.117
 2848SOL     OW 9442   0.981   4.197   5.243
 2848SOL    HW1 9443   0.994   4.149   5.330
 2848SOL    HW2 9444   0.931   4.137   5.180
 2849SOL     OW 9445   4.959   0.267   1.640
 2849SOL    HW1 9446   4.887   0.202   1.663
 2849SOL    HW2 9447   4.922   0.338   1.581
 2850SOL     OW 9448   1.854   0.502   2.228
 2850SOL    HW1 9449   1.826   0.472   2.320
 2850SOL    HW2 9450   1.776   0.545   2.182
 2851SOL     OW 9451   3.403   3.055   1.635
 2851SOL    HW1 9452   3.444   2.974   1.678
 2851SOL    HW2 9453   3.317   3.029   1.590
 2852SOL     OW 9454   6.461   4.747   6.270
 2852SOL    HW1 9455   6.498   4.769   6.179
 2852SOL    HW2 9456   6.425   4.654   6.269
 2853SOL     OW 9457   0.072   4.236   5.469
 2853SOL    HW1 9458   0.073   4.295   5.550
 2853SOL    HW2 9459   0.043   4.288   5.389
 2854SOL     OW 9460   4.368   0.548   5.967
 2854SOL    HW1 9461   4.416   0.573   6.052
 2854SOL    HW2 9462   4.370   0.625   5.904
 2855SOL     OW 9463   2.347   1.888   4.978
 2855SOL    HW1 9464   2.440   1.852   4.979
 2855SOL    HW2 9465   2.326   1.925   5.068
 2856SOL     OW 9466   1.119   5.498   3.900
 2856SOL    HW1 9467   1.179   5.480   3.822
 2856SOL    HW2 9468   1.032   5.450   3.888
 2857SOL     OW 9469   6.874   4.538   1.153
 2857SOL    HW1 9470   6.778   4.526   1.126
 2857SOL    HW2 9471   6.931   4.474   1.103
 2858SOL     OW 9472   4.470   4.753   2.153
 2858SOL    HW1 9473   4.378   4.769   2.118
 2858SOL    HW2 9474   4.524   4.702   2.086
 2859SOL     OW 9475   5.290   4.737   0.967
 2859SOL    HW1 9476   5.380   4.721   0.925
 2859SOL    HW2 9477   5.262   4.655   1.017
 2860SOL     OW 9478   1.260   0.082   2.480
 2860SOL    HW1 9479   1.273   0.175   2.446
 2860SOL    HW2 9480   1.347   0.048   2.517
 2861SOL     OW 9481   4.921   4.806   5.967
 2861SOL    HW1 9482   4.883   4.846   5.884
 2861SOL    HW2 9483   4.883   4.852   6.047
 2862SOL     OW 9484   4.360   3.040   6.977
 2862SOL    HW1 9485   4.306   3.043   0.040
 2862SOL    HW2 9486   4.448   2.996   6.995
 2863SOL     OW 9487   6.038   1.112   5.250
 2863SOL    HW1 9488   6.047   1.167   5.333
 2863SOL    HW2 9489   5.988   1.028   5.271
 2864SOL     OW 9490   3.575   4.368   0.313
 2864SOL    HW1 9491   3.637   4.400   0.242
 2864SOL    HW2 9492   3.482   4.401   0.294
 2865SOL     OW 9493   5.905   5.208   4.745
 2865SOL    HW1 9494   5.889   5.295   4.792
 2865SOL    HW2 9495   5.931   5.227   4.650
 2866SOL     OW 9496   4.089   4.217   0.304
 2866SOL    HW1 9497   4.019   4.147   0.322
 2866SOL    HW2 9498   4.165   4.204   0.367
 2867SOL     OW 9499   5.401   6.150   2.254
 2867SOL    HW1 9500   5.304   6.139   2.234
 2867SOL    HW2 9501   5.413   6.219   2.325
 2868SOL     OW 9502   1.199   0.447   5.401
 2868SOL    HW1 9503   1.163   0.515   5.336
 2868SOL    HW2 9504   1.217   0.361   5.352
 2869SOL     OW 9505   6.166   5.474   4.308
 2869SOL    HW1 9506   6.251   5.508   4.267
 2869SOL    HW2 9507   6.150   5.380   4.278
 2870SOL     OW 9508   6.622   2.526   2.025
 2870SOL    HW1 9509   6.624   2.511   1.926
 2870SOL    HW2 9510   6.658   2.445   2.071
 2871SOL     OW 9511   4.848   1.662   2.403
 2871SOL    HW1 9512   4.854   1.563   2.400
 2871SOL    HW2 9513   4.766   1.689   2.454
 2872SOL     OW 9514   2.925   2.035   2.380
 2872SOL    HW1 9515   2.897   2.130   2.395
 2872SOL    HW2 9516   2.844   1.980   2.358
 2873SOL     OW 9517   0.578   6.874   1.075
 2873SOL    HW1 9518   0.487   6.844   1.102
 2873SOL    HW2 9519   0.647   6.811   1.112
 2874SOL     OW 9520   2.590   1.402   2.986
 2874SOL    HW1 9521   2.683   1.372   2.966
 2874SOL    HW2 9522   2.531   1.382   2.908
 2875SOL     OW 9523   2.065   7.004   2.991
 2875SOL    HW1 9524   2.040   6.920   3.040
 2875SOL    HW2 9525   1.990   0.048   2.995
 2876SOL     OW 9526   1.728   0.278   1.894
 2876SOL    HW1 9527   1.791   0.356   1.891
 2876SOL    HW2 9528   1.678   0.272   1.808
 2877SOL     OW 9529   1.138   2.513   6.870
 2877SOL    HW1 9530   1.087   2.599   6.876
 2877SOL    HW2 9531   1.232   2.532   6.841
 2878SOL     OW 9532   3.893   3.091   3.817
 2878SOL    HW1 9533   3.972   3.145   3.789
 2878SOL    HW2 9534   3.907   3.056   3.909
 2879SOL     OW 9535   4.981   4.228   0.024
 2879SOL    HW1 9536   4.967   4.157   6.976
 2879SOL    HW2 9537   5.061   4.284   7.020
 2880SOL     OW 9538   2.229   1.098   3.341
 2880SOL    HW1 9539   2.181   1.179   3.375
 2880SOL    HW2 9540   2.239   1.104   3.242
 2881SOL     OW 9541   5.162   5.926   6.888
 2881SOL    HW1 9542   5.245   5.889   6.929
 2881SOL    HW2 9543   5.113   5.853   6.839
 2882SOL     OW 9544   4.648   6.057   0.242
 2882SOL    HW1 9545   4.697   6.129   0.292
 2882SOL    HW2 9546   4.621   6.091   0.152
 2883SOL     OW 9547   6.022   6.195   4.210
 2883SOL    HW1 9548   6.050   6.108   4.170
 2883SOL    HW2 9549   5.944   6.231   4.159
 2884SOL     OW 9550   6.230   5.236   4.181
 2884SOL    HW1 9551   6.275   5.283   4.105
 2884SOL    HW2 9552   6.285   5.157   4.208
 2885SOL     OW 9553   1.127   2.728   3.588
 2885SOL    HW1 9554   1.097   2.765   3.677
 2885SOL    HW2 9555   1.185   2.649   3.603
 2886SOL     OW 9556   2.035   4.421   5.223
 2886SOL    HW1 9557   2.070   4.365   5.148
 2886SOL    HW2 9558   2.028   4.517   5.193
 2887SOL     OW 9559   0.475   6.205   3.108
 2887SOL    HW1 9560   0.574   6.197   3.098
 2887SOL    HW2 9561   0.452   6.213   3.205
 2888SOL     OW 9562   6.054   0.138   6.897
 2888SOL    HW1 9563   5.972   0.088   6.924
 2888SOL    HW2 9564   6.116   0.077   6.849
 2889SOL     OW 9565   3.562   6.141   2.713
 2889SOL    HW1 9566   3.468   6.137   2.681
 2889SOL    HW2 9567   3.624   6.111   2.640
 2890SOL     OW 9568   1.140   1.636   1.254
 2890SOL    HW1 9569   1.123   1.542   1.222
 2890SOL    HW2 9570   1.057   1.690   1.242
 2891SOL     OW 9571   6.922   2.503   4.784
 2891SOL    HW1 9572   6.874   2.429   4.736
 2891SOL    HW2 9573   6.963   2.467   4.868
 2892SOL     OW 9574   5.843   3.544   2.371
 2892SOL    HW1 9575   5.785   3.474   2.414
 2892SOL    HW2 9576   5.789   3.625   2.351
 2893SOL     OW 9577   6.905   5.351   4.665
 2893SOL    HW1 9578   6.862   5.332   4.754
 2893SOL    HW2 9579   6.834   5.373   4.598
 2894SOL     OW 9580   2.201   5.629   2.566
 2894SOL    HW1 9581   2.121   5.592   2.520
 2894SOL    HW2 9582   2.181   5.720   2.602
 2895SOL     OW 9583   4.550   6.784   6.107
 2895SOL    HW1 9584   4.463   6.751   6.070
 2895SOL    HW2 9585   4.542   6.793   6.206
 2896SOL     OW 9586   5.258   6.688   4.331
 2896SOL    HW1 9587   5.172   6.732   4.356
 2896SOL    HW2 9588   5.312   6.671   4.414
 2897SOL     OW 9589   4.421   5.202   3.107
 2897SOL    HW1 9590   4.410   5.220   3.205
 2897SOL    HW2 9591   4.448   5.106   3.094
 2898SOL     OW 9592   5.638   2.656   2.670
 2898SOL    HW1 9593   5.573   2.603   2.725
 2898SOL    HW2 9594   5.595   2.682   2.583
 2899SOL     OW 9595   6.890   4.141   0.845
 2899SOL    HW1 9596   6.893   4.062   0.906
 2899SOL    HW2 9597   6.922   4.222   0.893
 2900SOL     OW 9598   2.625   3.156   5.948
 2900SOL    HW1 9599   2.681   3.220   5.894
 2900SOL    HW2 9600   2.681   3.113   6.018
 2901SOL     OW 9601   0.469   3.756   3.412
 2901SOL    HW1 9602   0.434   3.848   3.395
 2901SOL    HW2 9603   0.397   3.689   3.394
 2902SOL     OW 9604   7.017   6.244   3.889
 2902SOL    HW1 9605   0.032   6.165   3.839
 2902SOL    HW2 9606   6.917   6.239   3.890
 2903SOL     OW 9607   4.948   5.173   0.385
 2903SOL    HW1 9608   4.949   5.084   0.432
 2903SOL    HW2 9609   4.979   5.244   0.447
 2904SOL     OW 9610   2.331   4.102   5.407
 2904SOL    HW1 9611   2.277   4.186   5.398
 2904SOL    HW2 9612   2.370   4.078   5.318
 2905SOL     OW 9613   1.527   5.990   1.565
 2905SOL    HW1 9614   1.597   6.045   1.610
 2905SOL    HW2 9615   1.504   6.030   1.477
 2906SOL     OW 9616   6.248   6.366   4.144
 2906SOL    HW1 9617   6.289   6.355   4.053
 2906SOL    HW2 9618   6.182   6.293   4.160
 2907SOL     OW 9619   0.886   1.256   4.364
 2907SOL    HW1 9620   0.968   1.314   4.371
 2907SOL    HW2 9621   0.821   1.282   4.435
 2908SOL     OW 9622   4.463   6.594   2.907
 2908SOL    HW1 9623   4.453   6.506   2.862
 2908SOL    HW2 9624   4.373   6.635   2.922
 2909SOL     OW 9625   0.175   6.374   1.709
 2909SOL    HW1 9626   0.187   6.275   1.705
 2909SOL    HW2 9627   0.100   6.395   1.771
 2910SOL     OW 9628   0.192   0.891   4.006
 2910SOL    HW1 9629   0.141   0.823   4.058
 2910SOL    HW2 9630   0.272   0.921   4.059
 2911SOL     OW 9631   6.837   4.692   5.257
 2911SOL    HW1 9632   6.838   4.592   5.264
 2911SOL    HW2 9633   6.819   4.719   5.162
 2912SOL     OW 9634   1.059   1.387   1.683
 2912SOL    HW1 9635   1.053   1.360   1.587
 2912SOL    HW2 9636   1.137   1.340   1.726
 2913SOL     OW 9637   3.416   7.006   2.059
 2913SOL    HW1 9638   3.395   0.041   2.139
 2913SOL    HW2 9639   3.426   0.045   1.979
 2914SOL     OW 9640   3.960   5.508   0.778
 2914SOL    HW1 9641   4.020   5.442   0.731
 2914SOL    HW2 9642   4.000   5.599   0.773
 2915SOL     OW 9643   2.260   0.552   2.439
 2915SOL    HW1 9644   2.273   0.623   2.507
 2915SOL    HW2 9645   2.337   0.488   2.442
 2916SOL     OW 9646   1.478   6.311   7.002
 2916SOL    HW1 9647   1.417   6.238   0.013
 2916SOL    HW2 9648   1.517   6.285   6.914
 2917SOL     OW 9649   2.815   6.249   3.645
 2917SOL    HW1 9650   2.884   6.307   3.602
 2917SOL    HW2 9651   2.771   6.298   3.719
 2918SOL     OW 9652   4.855   2.563   2.010
 2918SOL    HW1 9653   4.843   2.494   1.938
 2918SOL    HW2 9654   4.880   2.650   1.969
 2919SOL     OW 9655   0.737   5.952   5.185
 2919SOL    HW1 9656   0.747   5.998   5.097
 2919SOL    HW2 9657   0.814   5.976   5.244
 2920SOL     OW 9658   1.789   2.223   2.953
 2920SOL    HW1 9659   1.824   2.148   3.009
 2920SOL    HW2 9660   1.853   2.241   2.878
 2921SOL     OW 9661   1.076   6.133   3.638
 2921SOL    HW1 9662   1.159   6.170   3.679
 2921SOL    HW2 9663   0.997   6.159   3.692
 2922SOL     OW 9664   3.698   6.258   3.948
 2922SOL    HW1 9665   3.700   6.353   3.917
 2922SOL    HW2 9666   3.605   6.222   3.938
 2923SOL     OW 9667   6.361   5.551   5.218
 2923SOL    HW1 9668   6.401   5.499   5.294
 2923SOL    HW2 9669   6.315   5.488   5.156
 2924SOL     OW 9670   6.169   2.093   5.080
 2924SOL    HW1 9671   6.180   1.999   5.113
 2924SOL    HW2 9672   6.252   2.122   5.033
 2925SOL     OW 9673   4.959   6.383   5.855
 2925SOL    HW1 9674   5.039   6.440   5.873
 2925SOL    HW2 9675   4.880   6.441   5.836
 2926SOL     OW 9676   6.474   3.276   4.388
 2926SOL    HW1 9677   6.544   3.346   4.380
 2926SOL    HW2 9678   6.509   3.200   4.443
 2927SOL     OW 9679   1.135   1.724   2.078
 2927SOL    HW1 9680   1.042   1.709   2.044
 2927SOL    HW2 9681   1.160   1.650   2.141
 2928SOL     OW 9682   6.458   3.213   0.278
 2928SOL    HW1 9683   6.526   3.204   0.205
 2928SOL    HW2 9684   6.395   3.136   0.275
 2929SOL     OW 9685   2.300   2.176   4.297
 2929SOL    HW1 9686   2.202   2.160   4.309
 2929SOL    HW2 9687   2.316   2.266   4.258
 2930SOL     OW 9688   0.644   3.942   4.208
 2930SOL    HW1 9689   0.589   3.945   4.125
 2930SOL    HW2 9690   0.723   3.882   4.194
 2931SOL     OW 9691   4.771   3.860   5.805
 2931SOL    HW1 9692   4.745   3.957   5.809
 2931SOL    HW2 9693   4.798   3.837   5.711
 2932SOL     OW 9694   6.160   5.335   0.826
 2932SOL    HW1 9695   6.180   5.390   0.745
 2932SOL    HW2 9696   6.096   5.385   0.884
 2933SOL     OW 9697   1.293   0.053   6.740
 2933SOL    HW1 9698   1.282   7.020   6.656
 2933SOL    HW2 9699   1.303   0.149   6.717
 2934SOL     OW 9700   3.667   4.440   0.570
 2934SOL    HW1 9701   3.664   4.408   0.475
 2934SOL    HW2 9702   3.612   4.522   0.580
 2935SOL     OW 9703   0.313   2.512   6.216
 2935SOL    HW1 9704   0.357   2.594   6.180
 2935SOL    HW2 9705   0.380   2.438   6.224
 2936SOL     OW 9706   4.698   6.101   1.241
 2936SOL    HW1 9707   4.726   6.006   1.224
 2936SOL    HW2 9708   4.767   6.146   1.297
 2937SOL     OW 9709   4.895   4.729   2.277
 2937SOL    HW1 9710   4.990   4.749   2.303
 2937SOL    HW2 9711   4.865   4.645   2.322
 2938SOL     OW 9712   0.047   5.236   6.421
 2938SOL    HW1 9713   0.055   5.321   6.475
 2938SOL    HW2 9714   0.138   5.202   6.399
 2939SOL     OW 9715   0.028   6.512   1.900
 2939SOL    HW1 9716   0.072   6.548   1.981
 2939SOL    HW2 9717   7.010   6.421   1.920
 2940SOL     OW 9718   3.931   6.714   3.966
 2940SOL    HW1 9719   3.925   6.697   4.064
 2940SOL    HW2 9720   4.012   6.670   3.929
 2941SOL     OW 9721   1.808   4.762   3.089
 2941SOL    HW1 9722   1.899   4.791   3.120
 2941SOL    HW2 9723   1.814   4.727   2.996
 2942SOL     OW 9724   3.130   1.484   0.957
 2942SOL    HW1 9725   3.174   1.406   0.913
 2942SOL    HW2 9726   3.058   1.452   1.019
 2943SOL     OW 9727   6.005   3.778   3.084
 2943SOL    HW1 9728   6.090   3.742   3.045
 2943SOL    HW2 9729   5.930   3.766   3.019
 2944SOL     OW 9730   2.171   6.024   2.357
 2944SOL    HW1 9731   2.152   6.116   2.323
 2944SOL    HW2 9732   2.086   5.970   2.356
 2945SOL     OW 9733   4.703   4.297   1.067
 2945SOL    HW1 9734   4.618   4.343   1.095
 2945SOL    HW2 9735   4.760   4.362   1.017
 2946SOL     OW 9736   3.708   3.674   5.232
 2946SOL    HW1 9737   3.717   3.772   5.247
 2946SOL    HW2 9738   3.676   3.630   5.317
 2947SOL     OW 9739   6.503   6.163   0.931
 2947SOL    HW1 9740   6.431   6.198   0.871
 2947SOL    HW2 9741   6.555   6.093   0.882
 2948SOL     OW 9742   6.764   3.219   2.160
 2948SOL    HW1 9743   6.701   3.186   2.090
 2948SOL    HW2 9744   6.725   3.300   2.204
 2949SOL     OW 9745   1.483   6.423   0.650
 2949SOL    HW1 9746   1.512   6.405   0.556
 2949SOL    HW2 9747   1.474   6.337   0.699
 2950SOL     OW 9748   6.024   5.320   2.972
 2950SOL    HW1 9749   6.096   5.292   3.036
 2950SOL    HW2 9750   6.047   5.289   2.880
 2951SOL     OW 9751   0.051   1.584   1.501
 2951SOL    HW1 9752   7.017   1.654   1.546
 2951SOL    HW2 9753   7.011   1.513   1.465
 2952SOL     OW 9754   6.910   1.915   5.111
 2952SOL    HW1 9755   6.865   1.961   5.188
 2952SOL    HW2 9756   7.003   1.891   5.136
 2953SOL     OW 9757   1.167   5.119   3.702
 2953SOL    HW1 9758   1.074   5.087   3.716
 2953SOL    HW2 9759   1.214   5.059   3.637
 2954SOL     OW 9760   0.195   4.613   6.043
 2954SOL    HW1 9761   0.159   4.671   5.970
 2954SOL    HW2 9762   0.156   4.522   6.035
 2955SOL     OW 9763   2.390   4.218   5.799
 2955SOL    HW1 9764   2.430   4.154   5.733
 2955SOL    HW2 9765   2.407   4.185   5.892
 2956SOL     OW 9766   5.300   4.659   4.047
 2956SOL    HW1 9767   5.324   4.585   3.984
 2956SOL    HW2 9768   5.370   4.731   4.041
 2957SOL     OW 9769   2.172   5.168   1.428
 2957SOL    HW1 9770   2.244   5.165   1.497
 2957SOL    HW2 9771   2.095   5.111   1.457
 2958SOL     OW 9772   2.163   5.009   2.384
 2958SOL    HW1 9773   2.158   5.095   2.435
 2958SOL    HW2 9774   2.113   5.019   2.298
 2959SOL     OW 9775   6.932   3.703   2.705
 2959SOL    HW1 9776   6.836   3.731   2.708
 2959SOL    HW2 9777   6.946   3.641   2.628
 2960SOL     OW 9778   5.377   6.929   0.845
 2960SOL    HW1 9779   5.373   6.908   0.943
 2960SOL    HW2 9780   5.470   6.914   0.812
 2961SOL     OW 9781   5.333   3.408   1.891
 2961SOL    HW1 9782   5.305   3.395   1.987
 2961SOL    HW2 9783   5.358   3.504   1.877
 2962SOL     OW 9784   6.635   0.211   3.449
 2962SOL    HW1 9785   6.659   0.117   3.425
 2962SOL    HW2 9786   6.557   0.241   3.395
 2963SOL     OW 9787   1.905   0.956   5.093
 2963SOL    HW1 9788   1.826   0.932   5.036
 2963SOL    HW2 9789   1.915   0.889   5.166
 2964SOL     OW 9790   1.089   0.986   6.430
 2964SOL    HW1 9791   1.087   1.076   6.474
 2964SOL    HW2 9792   1.133   0.920   6.490
 2965SOL     OW 9793   6.969   6.981   5.498
 2965SOL    HW1 9794   6.877   7.011   5.522
 2965SOL    HW2 9795   6.976   6.882   5.511
 2966SOL     OW 9796   3.179   5.899   2.301
 2966SOL    HW1 9797   3.153   5.916   2.396
 2966SOL    HW2 9798   3.258   5.838   2.298
 2967SOL     OW 9799   5.286   0.733   4.691
 2967SOL    HW1 9800   5.223   0.787   4.748
 2967SOL    HW2 9801   5.312   0.787   4.611
 2968SOL     OW 9802   1.427   3.830   1.209
 2968SOL    HW1 9803   1.444   3.733   1.193
 2968SOL    HW2 9804   1.508   3.872   1.249
 2969SOL     OW 9805   4.918   3.538   5.440
 2969SOL    HW1 9806   4.870   3.454   5.414
 2969SOL    HW2 9807   4.930   3.596   5.360
 2970SOL     OW 9808   2.928   1.811   4.539
 2970SOL    HW1 9809   2.922   1.713   4.519
 2970SOL    HW2 9810   2.887   1.829   4.629
 2971SOL     OW 9811   5.325   3.176   6.107
 2971SOL    HW1 9812   5.312   3.103   6.040
 2971SOL    HW2 9813   5.278   3.258   6.075
 2972SOL     OW 9814   6.321   5.524   6.716
 2972SOL    HW1 9815   6.400   5.464   6.707
 2972SOL    HW2 9816   6.250   5.478   6.770
 2973SOL     OW 9817   4.550   0.957   3.692
 2973SOL    HW1 9818   4.506   0.922   3.609
 2973SOL    HW2 9819   4.623   0.895   3.719
 2974SOL     OW 9820   4.548   6.984   1.949
 2974SOL    HW1 9821   4.613   0.038   1.931
 2974SOL    HW2 9822   4.592   6.896   1.929
 2975SOL     OW 9823   4.800   3.969   4.045
 2975SOL    HW1 9824   4.839   3.903   3.981
 2975SOL    HW2 9825   4.800   3.930   4.137
 2976SOL     OW 9826   4.199   1.265   2.503
 2976SOL    HW1 9827   4.111   1.272   2.458
 2976SOL    HW2 9828   4.272   1.282   2.437
 2977SOL     OW 9829   0.926   0.707   1.547
 2977SOL    HW1 9830   0.891   0.614   1.541
 2977SOL    HW2 9831   0.942   0.730   1.643
 2978SOL     OW 9832   4.449   5.204   6.642
 2978SOL    HW1 9833   4.441   5.304   6.644
 2978SOL    HW2 9834   4.472   5.170   6.733
 2979SOL     OW 9835   3.079   0.792   4.186
 2979SOL    HW1 9836   3.044   0.699   4.195
 2979SOL    HW2 9837   3.024   0.853   4.243
 2980SOL     OW 9838   3.456   3.580   4.770
 2980SOL    HW1 9839   3.542   3.578   4.719
 2980SOL    HW2 9840   3.426   3.675   4.780
 2981SOL     OW 9841   2.144   0.980   1.468
 2981SOL    HW1 9842   2.144   1.038   1.386
 2981SOL    HW2 9843   2.050   0.965   1.497
 2982SOL     OW 9844   1.821   0.032   0.781
 2982SOL    HW1 9845   1.821   6.953   0.771
 2982SOL    HW2 9846   1.916   0.065   0.779
 2983SOL     OW 9847   6.456   2.935   5.563
 2983SOL    HW1 9848   6.387   2.923   5.492
 2983SOL    HW2 9849   6.514   3.013   5.540
 2984SOL     OW 9850   0.262   5.314   1.578
 2984SOL    HW1 9851   0.357   5.292   1.601
 2984SOL    HW2 9852   0.230   5.390   1.634
 2985SOL     OW 9853   0.192   0.146   5.808
 2985SOL    HW1 9854   0.146   0.171   5.722
 2985SOL    HW2 9855   0.291   0.159   5.797
 2986SOL     OW 9856   3.656   3.582   2.208
 2986SOL    HW1 9857   3.611   3.507   2.161
 2986SOL    HW2 9858   3.735   3.612   2.154
 2987SOL     OW 9859   1.956   6.381   5.521
 2987SOL    HW1 9860   2.010   6.454   5.479
 2987SOL    HW2 9861   1.859   6.393   5.496
 2988SOL     OW 9862   0.271   1.500   6.430
 2988SOL    HW1 9863   0.358   1.525   6.474
 2988SOL    HW2 9864   0.195   1.526   6.489
 2989SOL     OW 9865   5.050   2.753   4.691
 2989SOL    HW1 9866   4.958   2.715   4.686
 2989SOL    HW2 9867   5.112   2.700   4.633
 2990SOL     OW 9868   5.468   1.732   4.224
 2990SOL    HW1 9869   5.441   1.790   4.148
 2990SOL    HW2 9870   5.452   1.781   4.310
 2991SOL     OW 9871   0.422   3.406   0.719
 2991SOL    HW1 9872   0.429   3.481   0.653
 2991SOL    HW2 9873   0.493   3.417   0.788
 2992SOL     OW 9874   0.317   3.676   5.247
 2992SOL    HW1 9875   0.404   3.716   5.276
 2992SOL    HW2 9876   0.273   3.631   5.325
 2993SOL     OW 9877   2.541   3.935   1.036
 2993SOL    HW1 9878   2.577   3.890   0.954
 2993SOL    HW2 9879   2.461   3.886   1.068
 2994SOL     OW 9880   3.671   5.477   5.911
 2994SOL    HW1 9881   3.676   5.378   5.907
 2994SOL    HW2 9882   3.676   5.508   6.006
 2995SOL     OW 9883   4.325   0.655   0.830
 2995SOL    HW1 9884   4.422   0.677   0.841
 2995SOL    HW2 9885   4.269   0.728   0.869
 2996SOL     OW 9886   6.617   0.566   4.313
 2996SOL    HW1 9887   6.640   0.525   4.401
 2996SOL    HW2 9888   6.563   0.650   4.328
 2997SOL     OW 9889   4.909   6.603   4.406
 2997SOL    HW1 9890   4.930   6.630   4.312
 2997SOL    HW2 9891   4.838   6.532   4.405
 2998SOL     OW 9892   2.924   1.532   2.207
 2998SOL    HW1 9893   2.969   1.582   2.133
 2998SOL    HW2 9894   2.967   1.443   2.218
 2999SOL     OW 9895   3.227   4.136   1.031
 2999SOL    HW1 9896   3.152   4.196   1.005
 2999SOL    HW2 9897   3.242   4.068   0.959
 3000SOL     OW 9898   2.872   4.142   5.303
 3000SOL    HW1 9899   2.913   4.227   5.336
 3000SOL    HW2 9900   2.774   4.155   5.289
 3001SOL     OW 9901   5.468   0.738   5.868
 3001SOL    HW1 9902   5.401   0.781   5.808
 3001SOL    HW2 9903   5.556   0.785   5.860
 3002SOL     OW 9904   1.512   1.971   2.076
 3002SOL    HW1 9905   1.561   2.031   2.013
 3002SOL    HW2 9906   1.543   1.989   2.169
 3003SOL     OW 9907   1.745   6.385   0.143
 3003SOL    HW1 9908   1.691   6.339   0.072
 3003SOL    HW2 9909   1.810   6.448   0.100
 3004SOL     OW 9910   2.382   6.716   3.767
 3004SOL    HW1 9911   2.480   6.730   3.756
 3004SOL    HW2 9912   2.357   6.626   3.731
 3005SOL     OW 9913   0.997   2.142   0.231
 3005SOL    HW1 9914   1.060   2.098   0.166
 3005SOL    HW2 9915   1.014   2.240   0.232
 3006SOL     OW 9916   5.248   1.891   5.944
 3006SOL    HW1 9917   5.155   1.917   5.971
 3006SOL    HW2 9918   5.293   1.968   5.899
 3007SOL     OW 9919   5.733   5.847   0.248
 3007SOL    HW1 9920   5.765   5.874   0.157
 3007SOL    HW2 9921   5.653   5.902   0.272
 3008SOL     OW 9922   4.809   3.389   5.766
 3008SOL    HW1 9923   4.903   3.419   5.780
 3008SOL    HW2 9924   4.802   3.342   5.678
 3009SOL     OW 9925   0.097   3.545   1.734
 3009SOL    HW1 9926   0.046   3.564   1.650
 3009SOL    HW2 9927   0.117   3.447   1.739
 3010SOL     OW 9928   4.099   5.754   0.835
 3010SOL    HW1 9929   4.171   5.770   0.768
 3010SOL    HW2 9930   4.131   5.780   0.926
 3011SOL     OW 9931   6.293   0.742   0.903
 3011SOL    HW1 9932   6.215   0.694   0.945
 3011SOL    HW2 9933   6.316   0.699   0.816
 3012SOL     OW 9934   2.333   2.230   5.324
 3012SOL    HW1 9935   2.322   2.314   5.271
 3012SOL    HW2 9936   2.400   2.245   5.397
 3013SOL     OW 9937   0.441   4.877   4.530
 3013SOL    HW1 9938   0.368   4.945   4.535
 3013SOL    HW2 9939   0.463   4.858   4.434
 3014SOL     OW 9940   5.698   0.161   6.104
 3014SOL    HW1 9941   5.716   0.082   6.162
 3014SOL    HW2 9942   5.684   0.242   6.162
 3015SOL     OW 9943   1.243   0.798   6.541
 3015SOL    HW1 9944   1.233   0.705   6.505
 3015SOL    HW2 9945   1.324   0.841   6.501
 3016SOL     OW 9946   2.064   6.003   4.052
 3016SOL    HW1 9947   2.060   5.970   3.957
 3016SOL    HW2 9948   2.157   6.031   4.073
 3017SOL     OW 9949   1.093   5.393   0.471
 3017SOL    HW1 9950   1.076   5.306   0.424
 3017SOL    HW2 9951   1.143   5.376   0.556
 3018SOL     OW 9952   3.496   0.626   1.376
 3018SOL    HW1 9953   3.411   0.574   1.381
 3018SOL    HW2 9954   3.489   0.709   1.431
 3019SOL     OW 9955   1.922   0.534   5.966
 3019SOL    HW1 9956   2.019   0.537   5.940
 3019SOL    HW2 9957   1.903   0.609   6.029
 3020SOL     OW 9958   6.383   4.326   6.928
 3020SOL    HW1 9959   6.306   4.319   6.864
 3020SOL    HW2 9960   6.367   4.404   6.989
 3021SOL     OW 9961   4.000   0.592   5.083
 3021SOL    HW1 9962   4.076   0.558   5.139
 3021SOL    HW2 9963   4.034   0.618   4.992
 3022SOL     OW 9964   3.819   5.950   3.150
 3022SOL    HW1 9965   3.769   5.991   3.226
 3022SOL    HW2 9966   3.845   6.021   3.084
 3023SOL     OW 9967   5.325   5.518   4.367
 3023SOL    HW1 9968   5.326   5.429   4.320
 3023SOL    HW2 9969   5.231   5.552   4.371
 3024SOL     OW 9970   0.265   0.650   0.014
 3024SOL    HW1 9971   0.257   0.710   6.955
 3024SOL    HW2 9972   0.174   0.637   0.054
 3025SOL     OW 9973   4.120   5.750   0.135
 3025SOL    HW1 9974   4.080   5.839   0.115
 3025SOL    HW2 9975   4.140   5.702   0.049
 3026SOL     OW 9976   0.185   0.874   2.133
 3026SOL    HW1 9977   0.117   0.813   2.174
 3026SOL    HW2 9978   0.152   0.905   2.044
 3027SOL     OW 9979   4.318   0.776   0.546
 3027SOL    HW1 9980   4.306   0.746   0.641
 3027SOL    HW2 9981   4.236   0.752   0.494
 3028SOL     OW 9982   3.335   3.037   5.490
 3028SOL    HW1 9983   3.408   3.043   5.559
 3028SOL    HW2 9984   3.372   3.065   5.401
 3029SOL     OW 9985   6.752   3.316   4.678
 3029SOL    HW1 9986   6.716   3.316   4.771
 3029SOL    HW2 9987   6.811   3.396   4.665
 3030SOL     OW 9988   2.084   3.181   6.542
 3030SOL    HW1 9989   2.149   3.105   6.537
 3030SOL    HW2 9990   2.086   3.233   6.457
 3031SOL     OW 9991   1.210   5.726   0.770
 3031SOL    HW1 9992   1.201   5.804   0.832
 3031SOL    HW2 9993   1.199   5.758   0.675
 3032SOL     OW 9994   2.446   0.450   2.794
 3032SOL    HW1 9995   2.502   0.512   2.739
 3032SOL    HW2 9996   2.356   0.440   2.752
 3033SOL     OW 9997   0.545   1.688   5.473
 3033SOL    HW1 9998   0.558   1.787   5.465
 3033SOL    HW2 9999   0.632   1.645   5.499
 3034SOL     OW10000   6.398   4.281   3.635
 3034SOL    HW110001   6.356   4.343   3.569
 3034SOL    HW210002   6.493   4.307   3.650
 3035SOL     OW10003   0.767   3.493   0.508
 3035SOL    HW110004   0.760   3.430   0.586
 3035SOL    HW210005   0.861   3.493   0.475
 3036SOL     OW10006   3.238   2.234   5.387
 3036SOL    HW110007   3.194   2.298   5.323
 3036SOL    HW210008   3.302   2.176   5.337
 3037SOL     OW10009   0.765   5.823   6.710
 3037SOL    HW110010   0.860   5.802   6.687
 3037SOL    HW210011   0.762   5.890   6.784
 3038SOL     OW10012   5.739   4.479   6.124
 3038SOL    HW110013   5.823   4.493   6.176
 3038SOL    HW210014   5.710   4.566   6.083
 3039SOL     OW10015   6.637   3.953   5.885
 3039SOL    HW110016   6.559   3.929   5.826
 3039SOL    HW210017   6.614   3.932   5.980
 3040SOL     OW10018   5.788   5.169   6.516
 3040SOL    HW110019   5.727   5.241   6.483
 3040SOL    HW210020   5.789   5.094   6.449
 3041SOL     OW10021   1.133   4.439   5.812
 3041SOL    HW110022   1.109   4.355   5.860
 3041SOL    HW210023   1.089   4.441   5.722
 3042SOL     OW10024   0.380   5.301   3.969
 3042SOL    HW110025   0.313   5.370   3.996
 3042SOL    HW210026   0.378   5.292   3.869
 3043SOL     OW10027   2.580   5.134   0.785
 3043SOL    HW110028   2.642   5.199   0.741
 3043SOL    HW210029   2.627   5.046   0.795
 3044SOL     OW10030   3.849   3.412   4.356
 3044SOL    HW110031   3.752   3.391   4.342
 3044SOL    HW210032   3.867   3.507   4.332
 3045SOL     OW10033   4.404   1.986   2.143
 3045SOL    HW110034   4.432   2.081   2.133
 3045SOL    HW210035   4.332   1.965   2.076
 3046SOL     OW10036   5.022   6.607   0.714
 3046SOL    HW110037   5.008   6.702   0.742
 3046SOL    HW210038   5.111   6.597   0.670
 3047SOL     OW10039   5.480   1.472   5.044
 3047SOL    HW110040   5.443   1.491   5.135
 3047SOL    HW210041   5.558   1.532   5.026
 3048SOL     OW10042   3.701   4.712   1.124
 3048SOL    HW110043   3.736   4.802   1.095
 3048SOL    HW210044   3.606   4.702   1.092
 3049SOL     OW10045   1.021   1.924   2.743
 3049SOL    HW110046   0.940   1.877   2.707
 3049SOL    HW210047   0.994   1.988   2.815
 3050SOL     OW10048   3.385   2.079   0.038
 3050SOL    HW110049   3.323   2.145   0.080
 3050SOL    HW210050   3.478   2.117   0.037
 3051SOL     OW10051   2.267   5.269   5.633
 3051SOL    HW110052   2.205   5.347   5.625
 3051SOL    HW210053   2.355   5.293   5.593
 3052SOL     OW10054   6.974   0.097   2.208
 3052SOL    HW110055   6.936   0.016   2.253
 3052SOL    HW210056   6.911   0.174   2.218
 3053SOL     OW10057   0.866   4.151   0.600
 3053SOL    HW110058   0.960   4.120   0.581
 3053SOL    HW210059   0.836   4.114   0.688
 3054SOL     OW10060   5.085   0.588   3.027
 3054SOL    HW110061   5.082   0.603   3.126
 3054SOL    HW210062   5.061   0.672   2.980
 3055SOL     OW10063   5.854   6.356   6.685
 3055SOL    HW110064   5.784   6.324   6.622
 3055SOL    HW210065   5.932   6.294   6.682
 3056SOL     OW10066   4.761   1.337   6.022
 3056SOL    HW110067   4.741   1.310   5.928
 3056SOL    HW210068   4.750   1.436   6.030
 3057SOL     OW10069   5.020   3.673   2.863
 3057SOL    HW110070   4.969   3.736   2.922
 3057SOL    HW210071   4.956   3.626   2.802
 3058SOL     OW10072   0.386   4.439   6.110
 3058SOL    HW110073   0.298   4.459   6.068
 3058SOL    HW210074   0.450   4.407   6.039
 3059SOL     OW10075   1.553   1.824   3.246
 3059SOL    HW110076   1.569   1.725   3.253
 3059SOL    HW210077   1.592   1.859   3.161
 3060SOL     OW10078   5.516   4.719   4.328
 3060SOL    HW110079   5.591   4.679   4.380
 3060SOL    HW210080   5.494   4.809   4.364
 3061SOL     OW10081   6.083   0.136   4.093
 3061SOL    HW110082   6.114   0.066   4.029
 3061SOL    HW210083   5.992   0.166   4.068
 3062SOL     OW10084   4.276   4.321   0.666
 3062SOL    HW110085   4.283   4.258   0.589
 3062SOL    HW210086   4.195   4.298   0.720
 3063SOL     OW10087   0.431   4.718   2.602
 3063SOL    HW110088   0.384   4.632   2.580
 3063SOL    HW210089   0.389   4.759   2.682
 3064SOL     OW10090   4.839   2.324   6.804
 3064SOL    HW110091   4.926   2.318   6.854
 3064SOL    HW210092   4.815   2.420   6.791
 3065SOL     OW10093   5.866   1.729   0.001
 3065SOL    HW110094   5.936   1.671   6.981
 3065SOL    HW210095   5.809   1.768   6.950
 3066SOL     OW10096   5.369   6.726   4.828
 3066SOL    HW110097   5.288   6.785   4.830
 3066SOL    HW210098   5.437   6.761   4.892
 3067SOL     OW10099   1.120   2.567   5.335
 3067SOL    HW110100   1.033   2.616   5.328
 3067SOL    HW210101   1.154   2.571   5.429
 3068SOL     OW10102   0.040   0.690   0.810
 3068SOL    HW110103   0.048   0.752   0.732
 3068SOL    HW210104   0.041   0.596   0.777
 3069SOL     OW10105   5.131   6.582   3.536
 3069SOL    HW110106   5.226   6.558   3.515
 3069SOL    HW210107   5.128   6.629   3.624
 3070SOL     OW10108   2.002   0.777   0.476
 3070SOL    HW110109   2.069   0.719   0.521
 3070SOL    HW210110   1.923   0.790   0.537
 3071SOL     OW10111   5.973   4.515   5.130
 3071SOL    HW110112   5.961   4.609   5.159
 3071SOL    HW210113   5.891   4.485   5.081
 3072SOL     OW10114   2.067   6.596   6.103
 3072SOL    HW110115   2.066   6.498   6.083
 3072SOL    HW210116   1.975   6.624   6.133
 3073SOL     OW10117   6.859   4.576   2.012
 3073SOL    HW110118   6.950   4.599   2.046
 3073SOL    HW210119   6.860   4.485   1.970
 3074SOL     OW10120   3.243   2.579   1.683
 3074SOL    HW110121   3.325   2.522   1.680
 3074SOL    HW210122   3.163   2.524   1.660
 3075SOL     OW10123   3.119   5.188   1.533
 3075SOL    HW110124   3.110   5.272   1.586
 3075SOL    HW210125   3.213   5.155   1.539
 3076SOL     OW10126   0.649   1.031   5.204
 3076SOL    HW110127   0.734   1.076   5.232
 3076SOL    HW210128   0.585   1.030   5.280
 3077SOL     OW10129   0.050   4.102   2.642
 3077SOL    HW110130   0.124   4.050   2.600
 3077SOL    HW210131   7.019   4.150   2.572
 3078SOL     OW10132   0.116   3.263   1.704
 3078SOL    HW110133   0.139   3.239   1.609
 3078SOL    HW210134   0.088   3.181   1.753
 3079SOL     OW10135   2.228   3.884   5.519
 3079SOL    HW110136   2.266   3.969   5.485
 3079SOL    HW210137   2.209   3.822   5.443
 3080SOL     OW10138   3.433   4.549   0.998
 3080SOL    HW110139   3.341   4.568   1.035
 3080SOL    HW210140   3.441   4.451   0.981
 3081SOL     OW10141   1.205   3.656   0.114
 3081SOL    HW110142   1.166   3.721   0.179
 3081SOL    HW210143   1.303   3.672   0.106
 3082SOL     OW10144   4.763   5.585   4.557
 3082SOL    HW110145   4.778   5.509   4.619
 3082SOL    HW210146   4.692   5.560   4.491
 3083SOL     OW10147   4.003   5.435   1.802
 3083SOL    HW110148   4.056   5.518   1.783
 3083SOL    HW210149   3.943   5.452   1.880
 3084SOL     OW10150   6.711   4.772   4.356
 3084SOL    HW110151   6.616   4.778   4.385
 3084SOL    HW210152   6.763   4.717   4.421
 3085SOL     OW10153   6.082   5.397   0.300
 3085SOL    HW110154   6.171   5.412   0.256
 3085SOL    HW210155   6.012   5.453   0.254
 3086SOL     OW10156   6.270   6.271   6.428
 3086SOL    HW110157   6.304   6.331   6.500
 3086SOL    HW210158   6.346   6.238   6.372
 3087SOL     OW10159   3.524   6.734   2.147
 3087SOL    HW110160   3.530   6.734   2.047
 3087SOL    HW210161   3.483   6.820   2.177
 3088SOL     OW10162   2.159   3.273   5.661
 3088SOL    HW110163   2.207   3.326   5.730
 3088SOL    HW210164   2.111   3.335   5.599
 3089SOL     OW10165   4.408   5.035   6.127
 3089SOL    HW110166   4.352   5.061   6.205
 3089SOL    HW210167   4.377   4.948   6.090
 3090SOL     OW10168   0.287   2.652   2.586
 3090SOL    HW110169   0.227   2.732   2.592
 3090SOL    HW210170   0.380   2.681   2.565
 3091SOL     OW10171   0.673   2.904   1.223
 3091SOL    HW110172   0.677   2.992   1.272
 3091SOL    HW210173   0.627   2.917   1.136
 3092SOL     OW10174   5.958   1.369   2.152
 3092SOL    HW110175   5.938   1.328   2.064
 3092SOL    HW210176   6.045   1.419   2.147
 3093SOL     OW10177   6.196   5.717   0.079
 3093SOL    HW110178   6.121   5.691   0.017
 3093SOL    HW210179   6.254   5.784   0.035
 3094SOL     OW10180   2.139   2.238   6.757
 3094SOL    HW110181   2.162   2.265   6.851
 3094SOL    HW210182   2.065   2.296   6.724
 3095SOL     OW10183   2.049   4.034   5.651
 3095SOL    HW110184   2.133   3.992   5.616
 3095SOL    HW210185   2.071   4.121   5.695
 3096SOL     OW10186   0.292   3.122   3.997
 3096SOL    HW110187   0.312   3.192   4.065
 3096SOL    HW210188   0.319   3.155   3.906
 3097SOL     OW10189   5.465   2.920   5.454
 3097SOL    HW110190   5.377   2.905   5.499
 3097SOL    HW210191   5.461   3.004   5.400
 3098SOL     OW10192   2.071   3.476   3.196
 3098SOL    HW110193   1.971   3.474   3.190
 3098SOL    HW210194   2.108   3.396   3.150
 3099SOL     OW10195   0.329   6.359   4.756
 3099SOL    HW110196   0.401   6.356   4.826
 3099SOL    HW210197   0.350   6.431   4.690
 3100SOL     OW10198   5.587   4.929   1.874
 3100SOL    HW110199   5.504   4.894   1.830
 3100SOL    HW210200   5.568   5.018   1.915
 3101SOL     OW10201   4.490   0.053   5.185
 3101SOL    HW110202   4.585   0.023   5.187
 3101SOL    HW210203   4.460   0.075   5.278
 3102SOL     OW10204   6.632   4.703   1.719
 3102SOL    HW110205   6.680   4.780   1.676
 3102SOL    HW210206   6.634   4.713   1.818
 3103SOL     OW10207   3.149   1.626   1.707
 3103SOL    HW110208   3.065   1.647   1.655
 3103SOL    HW210209   3.197   1.551   1.662
 3104SOL     OW10210   4.629   1.612   4.997
 3104SOL    HW110211   4.679   1.559   4.927
 3104SOL    HW210212   4.686   1.621   5.078
 3105SOL     OW10213   5.901   3.570   6.960
 3105SOL    HW110214   5.922   3.475   6.982
 3105SOL    HW210215   5.831   3.605   0.001
 3106SOL     OW10216   5.467   1.134   5.782
 3106SOL    HW110217   5.372   1.103   5.772
 3106SOL    HW210218   5.484   1.158   5.878
 3107SOL     OW10219   3.378   1.879   5.001
 3107SOL    HW110220   3.446   1.806   5.004
 3107SOL    HW210221   3.291   1.846   5.037
 3108SOL     OW10222   2.226   4.231   3.497
 3108SOL    HW110223   2.144   4.280   3.526
 3108SOL    HW210224   2.300   4.296   3.480
 3109SOL     OW10225   6.619   6.343   4.422
 3109SOL    HW110226   6.641   6.332   4.519
 3109SOL    HW210227   6.519   6.346   4.411
 3110SOL     OW10228   0.805   5.118   2.862
 3110SOL    HW110229   0.722   5.063   2.857
 3110SOL    HW210230   0.781   5.215   2.853
 3111SOL     OW10231   5.719   4.552   3.902
 3111SOL    HW110232   5.725   4.491   3.824
 3111SOL    HW210233   5.811   4.575   3.934
 3112SOL     OW10234   3.405   1.247   5.897
 3112SOL    HW110235   3.492   1.276   5.938
 3112SOL    HW210236   3.416   1.241   5.798
 3113SOL     OW10237   1.693   6.401   3.120
 3113SOL    HW110238   1.672   6.307   3.094
 3113SOL    HW210239   1.764   6.402   3.190
 3114SOL     OW10240   4.735   1.598   5.965
 3114SOL    HW110241   4.703   1.652   6.043
 3114SOL    HW210242   4.789   1.657   5.904
 3115SOL     OW10243   4.839   5.212   5.235
 3115SOL    HW110244   4.803   5.219   5.328
 3115SOL    HW210245   4.764   5.190   5.172
 3116SOL     OW10246   0.740   0.485   0.211
 3116SOL    HW110247   0.691   0.521   0.131
 3116SOL    HW210248   0.800   0.556   0.248
 3117SOL     OW10249   4.939   0.478   6.381
 3117SOL    HW110250   4.867   0.498   6.315
 3117SOL    HW210251   5.021   0.531   6.360
 3118SOL     OW10252   1.195   1.896   3.626
 3118SOL    HW110253   1.105   1.922   3.592
 3118SOL    HW210254   1.255   1.876   3.549
 3119SOL     OW10255   4.415   5.500   5.018
 3119SOL    HW110256   4.435   5.592   4.985
 3119SOL    HW210257   4.475   5.434   4.973
 3120SOL     OW10258   1.992   6.010   5.943
 3120SOL    HW110259   1.894   5.993   5.945
 3120SOL    HW210260   2.029   6.000   6.035
 3121SOL     OW10261   3.612   1.888   4.293
 3121SOL    HW110262   3.711   1.874   4.278
 3121SOL    HW210263   3.593   1.985   4.299
 3122SOL     OW10264   5.243   4.902   4.796
 3122SOL    HW110265   5.260   4.846   4.716
 3122SOL    HW210266   5.276   4.995   4.780
 3123SOL     OW10267   2.107   1.319   3.464
 3123SOL    HW110268   2.099   1.342   3.561
 3123SOL    HW210269   2.112   1.402   3.409
 3124SOL     OW10270   5.117   0.250   4.327
 3124SOL    HW110271   5.026   0.271   4.291
 3124SOL    HW210272   5.128   0.150   4.335
 3125SOL     OW10273   1.564   1.264   5.039
 3125SOL    HW110274   1.654   1.251   4.998
 3125SOL    HW210275   1.496   1.276   4.966
 3126SOL     OW10276   5.572   5.241   5.231
 3126SOL    HW110277   5.648   5.202   5.179
 3126SOL    HW210278   5.567   5.197   5.321
 3127SOL     OW10279   0.191   1.086   5.454
 3127SOL    HW110280   0.103   1.127   5.479
 3127SOL    HW210281   0.196   0.993   5.490
 3128SOL     OW10282   3.658   0.371   0.520
 3128SOL    HW110283   3.721   0.301   0.554
 3128SOL    HW210284   3.710   0.443   0.474
 3129SOL     OW10285   4.348   3.839   0.397
 3129SOL    HW110286   4.299   3.752   0.396
 3129SOL    HW210287   4.394   3.854   0.309
 3130SOL     OW10288   6.689   5.244   2.207
 3130SOL    HW110289   6.664   5.158   2.161
 3130SOL    HW210290   6.750   5.297   2.148
 3131SOL     OW10291   6.170   4.456   2.938
 3131SOL    HW110292   6.087   4.423   2.983
 3131SOL    HW210293   6.219   4.519   2.998
 3132SOL     OW10294   4.531   4.506   0.161
 3132SOL    HW110295   4.612   4.455   0.132
 3132SOL    HW210296   4.454   4.442   0.171
 3133SOL     OW10297   4.159   0.272   4.675
 3133SOL    HW110298   4.252   0.235   4.668
 3133SOL    HW210299   4.157   0.364   4.635
 3134SOL     OW10300   5.397   5.129   2.381
 3134SOL    HW110301   5.297   5.116   2.377
 3134SOL    HW210302   5.440   5.074   2.309
 3135SOL     OW10303   4.442   5.475   6.647
 3135SOL    HW110304   4.421   5.518   6.559
 3135SOL    HW210305   4.517   5.524   6.690
 3136SOL     OW10306   6.752   1.318   3.231
 3136SOL    HW110307   6.795   1.245   3.284
 3136SOL    HW210308   6.818   1.391   3.214
 3137SOL     OW10309   6.154   6.652   6.534
 3137SOL    HW110310   6.201   6.730   6.492
 3137SOL    HW210311   6.221   6.580   6.554
 3138SOL     OW10312   5.780   6.528   4.289
 3138SOL    HW110313   5.723   6.557   4.212
 3138SOL    HW210314   5.722   6.492   4.362
 3139SOL     OW10315   2.446   5.341   1.563
 3139SOL    HW110316   2.410   5.248   1.575
 3139SOL    HW210317   2.371   5.402   1.540
 3140SOL     OW10318   6.722   6.298   6.143
 3140SOL    HW110319   6.662   6.273   6.067
 3140SOL    HW210320   6.683   6.376   6.191
 3141SOL     OW10321   6.572   1.621   6.463
 3141SOL    HW110322   6.622   1.589   6.383
 3141SOL    HW210323   6.495   1.560   6.480
 3142SOL     OW10324   4.184   0.517   4.103
 3142SOL    HW110325   4.211   0.454   4.030
 3142SOL    HW210326   4.255   0.585   4.117
 3143SOL     OW10327   6.155   1.400   0.871
 3143SOL    HW110328   6.140   1.478   0.931
 3143SOL    HW210329   6.091   1.327   0.895
 3144SOL     OW10330   3.961   3.969   0.326
 3144SOL    HW110331   3.913   3.892   0.367
 3144SOL    HW210332   4.003   3.941   0.240
 3145SOL     OW10333   0.095   6.724   0.620
 3145SOL    HW110334   0.183   6.705   0.664
 3145SOL    HW210335   0.034   6.645   0.634
 3146SOL     OW10336   0.447   1.098   4.869
 3146SOL    HW110337   0.358   1.119   4.910
 3146SOL    HW210338   0.453   1.000   4.850
 3147SOL     OW10339   3.650   5.435   1.034
 3147SOL    HW110340   3.637   5.469   0.941
 3147SOL    HW210341   3.745   5.449   1.063
 3148SOL     OW10342   6.841   5.349   1.996
 3148SOL    HW110343   6.912   5.283   1.970
 3148SOL    HW210344   6.768   5.348   1.928
 3149SOL     OW10345   2.727   1.806   6.889
 3149SOL    HW110346   2.805   1.869   6.900
 3149SOL    HW210347   2.761   1.716   6.861
 3150SOL     OW10348   6.126   5.684   5.182
 3150SOL    HW110349   6.095   5.721   5.094
 3150SOL    HW210350   6.220   5.652   5.173
 3151SOL     OW10351   6.982   0.546   5.822
 3151SOL    HW110352   6.991   0.519   5.917
 3151SOL    HW210353   0.022   0.623   5.803
 3152SOL     OW10354   1.682   3.366   6.271
 3152SOL    HW110355   1.625   3.291   6.305
 3152SOL    HW210356   1.749   3.330   6.207
 3153SOL     OW10357   6.312   4.881   1.229
 3153SOL    HW110358   6.402   4.865   1.268
 3153SOL    HW210359   6.245   4.822   1.275
 3154SOL     OW10360   5.029   0.999   0.170
 3154SOL    HW110361   4.970   1.061   0.221
 3154SOL    HW210362   4.980   0.913   0.154
 3155SOL     OW10363   0.769   4.391   0.446
 3155SOL    HW110364   0.685   4.354   0.405
 3155SOL    HW210365   0.818   4.318   0.493
 3156SOL     OW10366   3.741   4.255   1.766
 3156SOL    HW110367   3.812   4.215   1.708
 3156SOL    HW210368   3.757   4.229   1.861
 3157SOL     OW10369   0.828   1.084   5.729
 3157SOL    HW110370   0.876   1.168   5.706
 3157SOL    HW210371   0.729   1.099   5.722
 3158SOL     OW10372   1.464   1.145   6.067
 3158SOL    HW110373   1.421   1.205   5.999
 3158SOL    HW210374   1.437   1.175   6.158
 3159SOL     OW10375   6.087   0.655   6.830
 3159SOL    HW110376   6.113   0.573   6.780
 3159SOL    HW210377   6.083   0.636   6.928
 3160SOL     OW10378   1.887   0.117   6.392
 3160SOL    HW110379   1.964   0.055   6.405
 3160SOL    HW210380   1.911   0.207   6.428
 3161SOL     OW10381   2.322   2.312   1.989
 3161SOL    HW110382   2.407   2.327   2.039
 3161SOL    HW210383   2.250   2.282   2.052
 3162SOL     OW10384   2.004   5.494   1.220
 3162SOL    HW110385   1.940   5.511   1.295
 3162SOL    HW210386   2.061   5.575   1.206
 3163SOL     OW10387   4.340   4.280   0.127
 3163SOL    HW110388   4.251   4.236   0.117
 3163SOL    HW210389   4.400   4.223   0.182
 3164SOL     OW10390   2.276   6.742   3.163
 3164SOL    HW110391   2.255   6.652   3.125
 3164SOL    HW210392   2.214   6.760   3.240
 3165SOL     OW10393   0.719   6.645   6.733
 3165SOL    HW110394   0.755   6.731   6.771
 3165SOL    HW210395   0.621   6.641   6.749
 3166SOL     OW10396   4.845   0.832   4.784
 3166SOL    HW110397   4.901   0.832   4.867
 3166SOL    HW210398   4.902   0.803   4.706
 3167SOL     OW10399   5.692   3.071   0.609
 3167SOL    HW110400   5.705   3.160   0.654
 3167SOL    HW210401   5.777   3.019   0.611
 3168SOL     OW10402   5.122   2.151   0.618
 3168SOL    HW110403   5.031   2.191   0.629
 3168SOL    HW210404   5.113   2.056   0.588
 3169SOL     OW10405   2.488   4.782   1.931
 3169SOL    HW110406   2.537   4.845   1.872
 3169SOL    HW210407   2.531   4.692   1.926
 3170SOL     OW10408   2.164   4.103   3.226
 3170SOL    HW110409   2.194   4.159   3.303
 3170SOL    HW210410   2.155   4.008   3.255
 3171SOL     OW10411   5.204   2.434   3.798
 3171SOL    HW110412   5.211   2.370   3.874
 3171SOL    HW210413   5.260   2.402   3.722
 3172SOL     OW10414   6.271   4.029   2.089
 3172SOL    HW110415   6.318   4.117   2.104
 3172SOL    HW210416   6.256   4.016   1.991
 3173SOL     OW10417   4.281   3.005   0.866
 3173SOL    HW110418   4.324   2.969   0.783
 3173SOL    HW210419   4.270   3.104   0.858
 3174SOL     OW10420   3.031   3.518   6.357
 3174SOL    HW110421   2.968   3.540   6.432
 3174SOL    HW210422   3.106   3.583   6.358
 3175SOL     OW10423   5.551   1.002   4.761
 3175SOL    HW110424   5.596   0.932   4.816
 3175SOL    HW210425   5.503   0.959   4.685
 3176SOL     OW10426   0.699   4.810   4.670
 3176SOL    HW110427   0.619   4.841   4.618
 3176SOL    HW210428   0.698   4.710   4.676
 3177SOL     OW10429   5.065   3.794   3.519
 3177SOL    HW110430   5.042   3.884   3.557
 3177SOL    HW210431   5.131   3.749   3.579
 3178SOL     OW10432   6.851   1.084   1.767
 3178SOL    HW110433   6.917   1.145   1.811
 3178SOL    HW210434   6.832   1.007   1.827
 3179SOL     OW10435   1.015   1.886   1.845
 3179SOL    HW110436   0.934   1.854   1.894
 3179SOL    HW210437   1.098   1.857   1.894
 3180SOL     OW10438   6.922   6.341   0.045
 3180SOL    HW110439   6.920   6.263   0.108
 3180SOL    HW210440   6.911   6.426   0.097
 3181SOL     OW10441   1.813   0.021   4.758
 3181SOL    HW110442   1.814   7.020   4.856
 3181SOL    HW210443   1.792   6.960   4.706
 3182SOL     OW10444   2.227   1.374   0.833
 3182SOL    HW110445   2.310   1.382   0.887
 3182SOL    HW210446   2.219   1.281   0.797
 3183SOL     OW10447   4.137   3.801   1.069
 3183SOL    HW110448   4.053   3.762   1.033
 3183SOL    HW210449   4.205   3.728   1.083
 3184SOL     OW10450   0.611   2.397   4.892
 3184SOL    HW110451   0.518   2.371   4.917
 3184SOL    HW210452   0.608   2.473   4.827
 3185SOL     OW10453   0.491   5.520   6.240
 3185SOL    HW110454   0.432   5.475   6.308
 3185SOL    HW210455   0.480   5.477   6.151
 3186SOL     OW10456   0.410   1.783   6.499
 3186SOL    HW110457   0.406   1.749   6.405
 3186SOL    HW210458   0.463   1.720   6.555
 3187SOL     OW10459   4.428   5.780   2.229
 3187SOL    HW110460   4.451   5.713   2.159
 3187SOL    HW210461   4.382   5.735   2.306
 3188SOL     OW10462   2.253   5.483   6.147
 3188SOL    HW110463   2.344   5.444   6.155
 3188SOL    HW210464   2.190   5.415   6.109
 3189SOL     OW10465   3.563   1.966   5.352
 3189SOL    HW110466   3.570   2.016   5.438
 3189SOL    HW210467   3.497   2.012   5.293
 3190SOL     OW10468   5.491   6.278   4.676
 3190SOL    HW110469   5.511   6.294   4.579
 3190SOL    HW210470   5.429   6.349   4.709
 3191SOL     OW10471   4.344   5.674   1.457
 3191SOL    HW110472   4.343   5.774   1.453
 3191SOL    HW210473   4.310   5.637   1.370
 3192SOL     OW10474   5.746   2.116   2.749
 3192SOL    HW110475   5.781   2.071   2.832
 3192SOL    HW210476   5.648   2.134   2.760
 3193SOL     OW10477   3.480   0.025   5.295
 3193SOL    HW110478   3.496   0.032   5.196
 3193SOL    HW210479   3.538   6.973   5.333
 3194SOL     OW10480   1.771   0.530   6.637
 3194SOL    HW110481   1.834   0.489   6.570
 3194SOL    HW210482   1.817   0.605   6.684
 3195SOL     OW10483   0.068   1.944   1.218
 3195SOL    HW110484   0.136   1.879   1.252
 3195SOL    HW210485   6.999   1.922   1.256
 3196SOL     OW10486   6.049   0.566   3.719
 3196SOL    HW110487   6.020   0.471   3.722
 3196SOL    HW210488   6.033   0.609   3.808
 3197SOL     OW10489   1.834   1.244   6.611
 3197SOL    HW110490   1.782   1.197   6.540
 3197SOL    HW210491   1.770   1.286   6.676
 3198SOL     OW10492   5.695   2.933   3.144
 3198SOL    HW110493   5.736   2.855   3.097
 3198SOL    HW210494   5.703   2.921   3.243
 3199SOL     OW10495   5.448   3.711   3.191
 3199SOL    HW110496   5.449   3.794   3.136
 3199SOL    HW210497   5.364   3.659   3.173
 3200SOL     OW10498   5.514   3.309   3.855
 3200SOL    HW110499   5.453   3.387   3.840
 3200SOL    HW210500   5.570   3.295   3.774
 3201SOL     OW10501   5.881   4.575   2.617
 3201SOL    HW110502   5.802   4.609   2.567
 3201SOL    HW210503   5.864   4.481   2.646
 3202SOL     OW10504   1.720   4.083   6.719
 3202SOL    HW110505   1.701   4.099   6.622
 3202SOL    HW210506   1.636   4.054   6.765
 3203SOL     OW10507   3.198   6.774   1.465
 3203SOL    HW110508   3.166   6.852   1.518
 3203SOL    HW210509   3.180   6.790   1.368
 3204SOL     OW10510   3.293   1.416   3.007
 3204SOL    HW110511   3.347   1.338   2.975
 3204SOL    HW210512   3.351   1.478   3.061
 3205SOL     OW10513   5.150   3.618   5.534
 3205SOL    HW110514   5.134   3.702   5.585
 3205SOL    HW210515   5.068   3.595   5.481
 3206SOL     OW10516   3.292   3.267   1.056
 3206SOL    HW110517   3.283   3.175   1.020
 3206SOL    HW210518   3.388   3.287   1.075
 3207SOL     OW10519   1.584   5.591   5.564
 3207SOL    HW110520   1.551   5.675   5.522
 3207SOL    HW210521   1.527   5.569   5.643
 3208SOL     OW10522   6.159   5.547   6.062
 3208SOL    HW110523   6.129   5.520   5.971
 3208SOL    HW210524   6.108   5.627   6.092
 3209SOL     OW10525   5.278   5.728   6.536
 3209SOL    HW110526   5.368   5.693   6.562
 3209SOL    HW210527   5.240   5.670   6.463
 3210SOL     OW10528   5.991   6.000   1.969
 3210SOL    HW110529   6.012   5.918   2.022
 3210SOL    HW210530   5.892   6.007   1.954
 3211SOL     OW10531   1.098   5.232   5.984
 3211SOL    HW110532   1.106   5.215   5.886
 3211SOL    HW210533   1.189   5.249   6.022
 3212SOL     OW10534   1.961   0.526   3.083
 3212SOL    HW110535   2.042   0.499   3.135
 3212SOL    HW210536   1.887   0.462   3.101
 3213SOL     OW10537   1.453   0.503   6.611
 3213SOL    HW110538   1.413   0.569   6.548
 3213SOL    HW210539   1.553   0.506   6.604
 3214SOL     OW10540   3.395   1.162   2.862
 3214SOL    HW110541   3.486   1.200   2.849
 3214SOL    HW210542   3.344   1.168   2.776
 3215SOL     OW10543   2.205   3.191   1.083
 3215SOL    HW110544   2.299   3.158   1.072
 3215SOL    HW210545   2.156   3.181   0.997
 3216SOL     OW10546   6.006   4.591   0.508
 3216SOL    HW110547   6.044   4.530   0.439
 3216SOL    HW210548   5.928   4.548   0.552
 3217SOL     OW10549   0.456   6.035   2.644
 3217SOL    HW110550   0.515   6.108   2.678
 3217SOL    HW210551   0.435   5.971   2.719
 3218SOL     OW10552   5.640   0.884   3.115
 3218SOL    HW110553   5.728   0.839   3.097
 3218SOL    HW210554   5.653   0.983   3.114
 3219SOL     OW10555   5.957   0.975   5.669
 3219SOL    HW110556   6.033   1.013   5.721
 3219SOL    HW210557   5.924   1.042   5.603
 3220SOL     OW10558   6.942   4.476   6.686
 3220SOL    HW110559   0.003   4.485   6.629
 3220SOL    HW210560   6.929   4.560   6.739
 3221SOL     OW10561   3.304   0.874   1.210
 3221SOL    HW110562   3.240   0.897   1.137
 3221SOL    HW210563   3.262   0.893   1.299
 3222SOL     OW10564   3.772   1.776   3.008
 3222SOL    HW110565   3.842   1.778   2.938
 3222SOL    HW210566   3.690   1.822   2.974
 3223SOL     OW10567   1.336   6.208   0.976
 3223SOL    HW110568   1.286   6.183   1.058
 3223SOL    HW210569   1.309   6.300   0.947
 3224SOL     OW10570   3.440   2.042   3.863
 3224SOL    HW110571   3.404   2.029   3.955
 3224SOL    HW210572   3.440   1.955   3.814
 3225SOL     OW10573   3.991   0.672   3.946
 3225SOL    HW110574   4.030   0.762   3.925
 3225SOL    HW210575   4.038   0.633   4.025
 3226SOL     OW10576   6.830   0.417   1.033
 3226SOL    HW110577   6.737   0.383   1.042
 3226SOL    HW210578   6.833   0.488   0.963
 3227SOL     OW10579   4.854   4.448   5.222
 3227SOL    HW110580   4.890   4.419   5.133
 3227SOL    HW210581   4.929   4.476   5.281
 3228SOL     OW10582   2.565   3.828   0.179
 3228SOL    HW110583   2.566   3.906   0.117
 3228SOL    HW210584   2.550   3.744   0.126
 3229SOL     OW10585   1.518   1.591   0.732
 3229SOL    HW110586   1.510   1.646   0.649
 3229SOL    HW210587   1.524   1.652   0.812
 3230SOL     OW10588   2.887   5.945   5.671
 3230SOL    HW110589   2.871   5.855   5.712
 3230SOL    HW210590   2.962   5.939   5.606
 3231SOL     OW10591   2.226   1.926   2.259
 3231SOL    HW110592   2.212   2.016   2.219
 3231SOL    HW210593   2.309   1.927   2.315
 3232SOL     OW10594   4.000   5.115   4.107
 3232SOL    HW110595   4.012   5.125   4.008
 3232SOL    HW210596   4.023   5.201   4.153
 3233SOL     OW10597   0.193   1.876   0.353
 3233SOL    HW110598   0.269   1.862   0.416
 3233SOL    HW210599   0.163   1.787   0.318
 3234SOL     OW10600   2.381   2.859   0.799
 3234SOL    HW110601   2.435   2.779   0.772
 3234SOL    HW210602   2.404   2.885   0.892
 3235SOL     OW10603   0.729   6.899   2.580
 3235SOL    HW110604   0.765   6.808   2.557
 3235SOL    HW210605   0.760   6.965   2.512
 3236SOL     OW10606   3.615   2.199   0.226
 3236SOL    HW110607   3.594   2.144   0.307
 3236SOL    HW210608   3.701   2.247   0.239
 3237SOL     OW10609   5.748   1.546   5.010
 3237SOL    HW110610   5.803   1.475   5.055
 3237SOL    HW210611   5.775   1.636   5.045
 3238SOL     OW10612   6.443   5.041   1.534
 3238SOL    HW110613   6.383   5.016   1.610
 3238SOL    HW210614   6.455   5.140   1.533
 3239SOL     OW10615   6.781   6.998   4.485
 3239SOL    HW110616   6.696   0.008   4.528
 3239SOL    HW210617   6.831   0.055   4.449
 3240SOL     OW10618   0.558   0.513   6.989
 3240SOL    HW110619   0.572   0.499   6.891
 3240SOL    HW210620   0.460   0.526   7.007
 3241SOL     OW10621   6.307   1.895   5.512
 3241SOL    HW110622   6.288   1.988   5.481
 3241SOL    HW210623   6.220   1.847   5.527
 3242SOL     OW10624   5.587   3.916   4.847
 3242SOL    HW110625   5.667   3.946   4.898
 3242SOL    HW210626   5.612   3.897   4.752
 3243SOL     OW10627   5.733   4.764   5.000
 3243SOL    HW110628   5.711   4.803   4.910
 3243SOL    HW210629   5.678   4.810   5.070
 3244SOL     OW10630   5.357   0.217   6.828
 3244SOL    HW110631   5.315   0.130   6.856
 3244SOL    HW210632   5.428   0.199   6.761
 3245SOL     OW10633   4.133   0.888   5.592
 3245SOL    HW110634   4.197   0.846   5.528
 3245SOL    HW210635   4.077   0.816   5.633
 3246SOL     OW10636   6.367   0.104   2.885
 3246SOL    HW110637   6.320   0.192   2.887
 3246SOL    HW210638   6.315   0.037   2.937
 3247SOL     OW10639   0.374   4.478   3.275
 3247SOL    HW110640   0.466   4.475   3.315
 3247SOL    HW210641   0.379   4.461   3.177
 3248SOL     OW10642   5.246   2.257   4.005
 3248SOL    HW110643   5.343   2.239   4.025
 3248SOL    HW210644   5.203   2.173   3.973
 3249SOL     OW10645   3.269   4.072   3.888
 3249SOL    HW110646   3.238   4.167   3.885
 3249SOL    HW210647   3.191   4.011   3.873
 3250SOL     OW10648   4.598   5.214   2.374
 3250SOL    HW110649   4.516   5.267   2.353
 3250SOL    HW210650   4.583   5.118   2.351
 3251SOL     OW10651   2.424   1.359   2.735
 3251SOL    HW110652   2.470   1.391   2.652
 3251SOL    HW210653   2.418   1.259   2.733
 3252SOL     OW10654   2.177   1.126   2.999
 3252SOL    HW110655   2.193   1.034   2.963
 3252SOL    HW210656   2.083   1.133   3.032
 3253SOL     OW10657   6.845   3.600   0.586
 3253SOL    HW110658   6.870   3.692   0.558
 3253SOL    HW210659   6.748   3.585   0.570
 3254SOL     OW10660   6.221   0.386   0.988
 3254SOL    HW110661   6.300   0.406   0.931
 3254SOL    HW210662   6.252   0.372   1.083
 3255SOL     OW10663   4.783   5.851   1.114
 3255SOL    HW110664   4.707   5.840   1.049
 3255SOL    HW210665   4.869   5.856   1.064
 3256SOL     OW10666   4.705   2.048   1.351
 3256SOL    HW110667   4.642   2.037   1.275
 3256SOL    HW210668   4.782   2.105   1.322
 3257SOL     OW10669   2.530   2.254   3.213
 3257SOL    HW110670   2.581   2.295   3.137
 3257SOL    HW210671   2.594   2.226   3.284
 3258SOL     OW10672   2.604   5.849   3.740
 3258SOL    HW110673   2.662   5.910   3.794
 3258SOL    HW210674   2.642   5.838   3.649
 3259SOL     OW10675   4.798   4.498   3.655
 3259SOL    HW110676   4.834   4.573   3.711
 3259SOL    HW210677   4.699   4.506   3.647
 3260SOL     OW10678   0.993   4.461   2.794
 3260SOL    HW110679   0.924   4.477   2.865
 3260SOL    HW210680   1.084   4.484   2.830
 3261SOL     OW10681   5.444   6.681   3.728
 3261SOL    HW110682   5.351   6.706   3.701
 3261SOL    HW210683   5.498   6.764   3.743
 3262SOL     OW10684   3.160   2.100   2.810
 3262SOL    HW110685   3.208   2.096   2.723
 3262SOL    HW210686   3.220   2.068   2.883
 3263SOL     OW10687   0.229   1.636   2.376
 3263SOL    HW110688   0.231   1.710   2.308
 3263SOL    HW210689   0.208   1.674   2.466
 3264SOL     OW10690   1.725   4.956   0.075
 3264SOL    HW110691   1.779   5.040   0.062
 3264SOL    HW210692   1.784   4.885   0.113
 3265SOL     OW10693   6.055   5.148   6.390
 3265SOL    HW110694   6.058   5.076   6.321
 3265SOL    HW210695   5.968   5.143   6.440
 3266SOL     OW10696   3.311   5.084   6.827
 3266SOL    HW110697   3.352   5.012   6.770
 3266SOL    HW210698   3.283   5.161   6.769
 3267SOL     OW10699   4.018   6.779   0.914
 3267SOL    HW110700   4.028   6.866   0.865
 3267SOL    HW210701   4.038   6.793   1.011
 3268SOL     OW10702   6.171   5.316   1.774
 3268SOL    HW110703   6.148   5.346   1.681
 3268SOL    HW210704   6.263   5.276   1.774
 3269SOL     OW10705   1.442   4.751   1.941
 3269SOL    HW110706   1.396   4.782   2.024
 3269SOL    HW210707   1.462   4.830   1.883
 3270SOL     OW10708   0.683   3.347   5.440
 3270SOL    HW110709   0.621   3.285   5.391
 3270SOL    HW210710   0.706   3.307   5.529
 3271SOL     OW10711   0.518   2.820   2.805
 3271SOL    HW110712   0.471   2.907   2.822
 3271SOL    HW210713   0.512   2.762   2.886
 3272SOL     OW10714   4.250   6.127   0.678
 3272SOL    HW110715   4.312   6.102   0.603
 3272SOL    HW210716   4.231   6.225   0.675
 3273SOL     OW10717   5.143   2.482   6.267
 3273SOL    HW110718   5.110   2.432   6.187
 3273SOL    HW210719   5.116   2.578   6.261
 3274SOL     OW10720   5.785   0.384   0.408
 3274SOL    HW110721   5.769   0.433   0.494
 3274SOL    HW210722   5.709   0.322   0.391
 3275SOL     OW10723   4.343   0.342   1.280
 3275SOL    HW110724   4.407   0.313   1.350
 3275SOL    HW210725   4.326   0.266   1.216
 3276SOL     OW10726   5.133   0.267   0.511
 3276SOL    HW110727   5.121   0.286   0.609
 3276SOL    HW210728   5.061   0.204   0.481
 3277SOL     OW10729   3.903   2.078   2.044
 3277SOL    HW110730   3.982   2.128   2.010
 3277SOL    HW210731   3.820   2.114   2.001
 3278SOL     OW10732   6.785   0.333   0.297
 3278SOL    HW110733   6.713   0.368   0.237
 3278SOL    HW210734   6.839   0.409   0.332
 3279SOL     OW10735   3.457   0.077   1.784
 3279SOL    HW110736   3.542   0.100   1.832
 3279SOL    HW210737   3.480   0.025   1.701
 3280SOL     OW10738   5.750   4.028   4.093
 3280SOL    HW110739   5.791   4.113   4.061
 3280SOL    HW210740   5.655   4.044   4.117
 3281SOL     OW10741   6.135   3.284   1.222
 3281SOL    HW110742   6.155   3.365   1.277
 3281SOL    HW210743   6.043   3.291   1.184
 3282SOL     OW10744   0.718   4.774   3.993
 3282SOL    HW110745   0.654   4.850   3.984
 3282SOL    HW210746   0.805   4.798   3.949
 3283SOL     OW10747   3.535   1.664   0.465
 3283SOL    HW110748   3.588   1.675   0.381
 3283SOL    HW210749   3.522   1.567   0.485
 3284SOL     OW10750   1.533   6.129   3.988
 3284SOL    HW110751   1.495   6.210   3.944
 3284SOL    HW210752   1.609   6.093   3.933
 3285SOL     OW10753   4.113   1.608   5.071
 3285SOL    HW110754   4.063   1.691   5.095
 3285SOL    HW210755   4.186   1.592   5.138
 3286SOL     OW10756   3.175   1.456   1.294
 3286SOL    HW110757   3.251   1.475   1.232
 3286SOL    HW210758   3.120   1.539   1.306
 3287SOL     OW10759   2.407   0.105   6.778
 3287SOL    HW110760   2.420   0.102   6.679
 3287SOL    HW210761   2.378   0.197   6.805
 3288SOL     OW10762   1.877   6.395   1.756
 3288SOL    HW110763   1.836   6.381   1.666
 3288SOL    HW210764   1.853   6.486   1.790
 3289SOL     OW10765   4.152   1.483   7.018
 3289SOL    HW110766   4.231   1.508   0.053
 3289SOL    HW210767   4.072   1.472   0.057
 3290SOL     OW10768   0.490   5.543   0.336
 3290SOL    HW110769   0.425   5.604   0.382
 3290SOL    HW210770   0.544   5.494   0.403
 3291SOL     OW10771   4.832   6.636   5.300
 3291SOL    HW110772   4.831   6.579   5.382
 3291SOL    HW210773   4.874   6.585   5.224
 3292SOL     OW10774   6.447   2.147   1.130
 3292SOL    HW110775   6.483   2.240   1.126
 3292SOL    HW210776   6.509   2.085   1.083
 3293SOL     OW10777   5.651   5.622   3.229
 3293SOL    HW110778   5.585   5.664   3.166
 3293SOL    HW210779   5.729   5.588   3.177
 3294SOL     OW10780   5.094   2.397   5.080
 3294SOL    HW110781   5.067   2.481   5.127
 3294SOL    HW210782   5.037   2.321   5.113
 3295SOL     OW10783   1.421   2.828   2.170
 3295SOL    HW110784   1.380   2.907   2.216
 3295SOL    HW210785   1.361   2.797   2.097
 3296SOL     OW10786   2.093   0.240   5.727
 3296SOL    HW110787   1.995   0.225   5.736
 3296SOL    HW210788   2.143   0.168   5.775
 3297SOL     OW10789   3.125   1.600   4.793
 3297SOL    HW110790   3.134   1.568   4.887
 3297SOL    HW210791   3.117   1.521   4.732
 3298SOL     OW10792   5.513   4.116   5.825
 3298SOL    HW110793   5.471   4.037   5.869
 3298SOL    HW210794   5.584   4.154   5.886
 3299SOL     OW10795   2.698   4.875   4.345
 3299SOL    HW110796   2.782   4.929   4.341
 3299SOL    HW210797   2.665   4.871   4.440
 3300SOL     OW10798   1.750   0.110   4.375
 3300SOL    HW110799   1.774   0.176   4.303
 3300SOL    HW210800   1.774   0.018   4.345
 3301SOL     OW10801   1.237   1.168   2.954
 3301SOL    HW110802   1.208   1.219   2.873
 3301SOL    HW210803   1.215   1.220   3.036
 3302SOL     OW10804   2.465   5.313   6.199
 3302SOL    HW110805   2.435   5.275   6.287
 3302SOL    HW210806   2.556   5.352   6.210
 3303SOL     OW10807   3.711   2.884   6.985
 3303SOL    HW110808   3.635   2.949   6.978
 3303SOL    HW210809   3.777   2.902   6.912
 3304SOL     OW10810   2.919   5.134   6.697
 3304SOL    HW110811   2.879   5.222   6.721
 3304SOL    HW210812   2.947   5.086   6.780
 3305SOL     OW10813   3.448   2.266   0.883
 3305SOL    HW110814   3.490   2.293   0.970
 3305SOL    HW210815   3.383   2.192   0.900
 3306SOL     OW10816   2.104   0.627   0.101
 3306SOL    HW110817   2.149   0.652   0.015
 3306SOL    HW210818   2.165   0.649   0.178
 3307SOL     OW10819   1.893   6.747   5.217
 3307SOL    HW110820   1.949   6.777   5.295
 3307SOL    HW210821   1.894   6.647   5.213
 3308SOL     OW10822   4.040   4.370   1.179
 3308SOL    HW110823   4.123   4.426   1.173
 3308SOL    HW210824   4.064   4.273   1.170
 3309SOL     OW10825   5.921   3.153   3.701
 3309SOL    HW110826   5.839   3.187   3.655
 3309SOL    HW210827   5.944   3.213   3.778
 3310SOL     OW10828   6.307   5.526   5.730
 3310SOL    HW110829   6.221   5.513   5.779
 3310SOL    HW210830   6.375   5.566   5.792
 3311SOL     OW10831   3.344   3.236   0.172
 3311SOL    HW110832   3.411   3.237   0.247
 3311SOL    HW210833   3.254   3.211   0.209
 3312SOL     OW10834   4.543   2.293   6.067
 3312SOL    HW110835   4.463   2.263   6.119
 3312SOL    HW210836   4.625   2.280   6.123
 3313SOL     OW10837   1.111   0.779   3.448
 3313SOL    HW110838   1.088   0.689   3.409
 3313SOL    HW210839   1.195   0.813   3.404
 3314SOL     OW10840   2.625   5.513   2.776
 3314SOL    HW110841   2.593   5.561   2.694
 3314SOL    HW210842   2.719   5.540   2.796
 3315SOL     OW10843   0.415   5.607   5.117
 3315SOL    HW110844   0.355   5.683   5.089
 3315SOL    HW210845   0.451   5.625   5.208
 3316SOL     OW10846   3.245   2.139   5.976
 3316SOL    HW110847   3.277   2.048   6.001
 3316SOL    HW210848   3.307   2.179   5.909
 3317SOL     OW10849   4.854   2.360   3.058
 3317SOL    HW110850   4.795   2.426   3.011
 3317SOL    HW210851   4.902   2.405   3.133
 3318SOL     OW10852   3.409   1.996   0.985
 3318SOL    HW110853   3.320   1.982   0.943
 3318SOL    HW210854   3.477   1.938   0.941
 3319SOL     OW10855   6.631   5.887   3.621
 3319SOL    HW110856   6.563   5.949   3.583
 3319SOL    HW210857   6.723   5.918   3.595
 3320SOL     OW10858   6.210   6.981   1.262
 3320SOL    HW110859   6.236   6.884   1.257
 3320SOL    HW210860   6.142   6.993   1.334
 3321SOL     OW10861   4.901   0.937   0.597
 3321SOL    HW110862   4.962   0.867   0.633
 3321SOL    HW210863   4.851   0.901   0.519
 3322SOL     OW10864   6.648   4.027   1.007
 3322SOL    HW110865   6.679   4.025   1.102
 3322SOL    HW210866   6.699   4.097   0.958
 3323SOL     OW10867   1.444   2.557   1.689
 3323SOL    HW110868   1.540   2.580   1.681
 3323SOL    HW210869   1.434   2.465   1.728
 3324SOL     OW10870   5.074   5.528   6.007
 3324SOL    HW110871   4.984   5.535   6.050
 3324SOL    HW210872   5.116   5.618   6.004
 3325SOL     OW10873   2.281   4.188   6.354
 3325SOL    HW110874   2.221   4.251   6.305
 3325SOL    HW210875   2.369   4.183   6.308
 3326SOL     OW10876   4.389   0.928   2.978
 3326SOL    HW110877   4.371   1.005   2.916
 3326SOL    HW210878   4.332   0.936   3.060
 3327SOL     OW10879   1.217   5.274   0.720
 3327SOL    HW110880   1.249   5.342   0.785
 3327SOL    HW210881   1.120   5.255   0.736
 3328SOL     OW10882   4.611   2.230   6.985
 3328SOL    HW110883   4.691   2.188   6.942
 3328SOL    HW210884   4.589   2.316   6.939
 3329SOL     OW10885   6.938   5.601   5.980
 3329SOL    HW110886   7.017   5.576   6.035
 3329SOL    HW210887   6.875   5.524   5.976
 3330SOL     OW10888   6.400   3.379   2.294
 3330SOL    HW110889   6.403   3.334   2.384
 3330SOL    HW210890   6.392   3.310   2.223
 3331SOL     OW10891   2.087   2.878   0.876
 3331SOL    HW110892   2.166   2.853   0.821
 3331SOL    HW210893   2.032   2.796   0.895
 3332SOL     OW10894   6.222   4.708   0.986
 3332SOL    HW110895   6.293   4.777   0.970
 3332SOL    HW210896   6.132   4.752   0.982
 3333SOL     OW10897   4.374   4.775   6.013
 3333SOL    HW110898   4.411   4.694   5.966
 3333SOL    HW210899   4.282   4.793   5.979
 3334SOL     OW10900   2.567   4.549   1.563
 3334SOL    HW110901   2.502   4.473   1.566
 3334SOL    HW210902   2.517   4.635   1.555
 3335SOL     OW10903   5.374   4.683   5.272
 3335SOL    HW110904   5.398   4.602   5.324
 3335SOL    HW210905   5.322   4.656   5.190
 3336SOL     OW10906   3.330   5.578   6.011
 3336SOL    HW110907   3.371   5.516   5.944
 3336SOL    HW210908   3.236   5.597   5.985
 3337SOL     OW10909   3.365   1.680   0.989
 3337SOL    HW110910   3.307   1.600   1.005
 3337SOL    HW210911   3.373   1.733   1.074
 3338SOL     OW10912   0.267   4.793   1.060
 3338SOL    HW110913   0.178   4.786   1.107
 3338SOL    HW210914   0.331   4.729   1.103
 3339SOL     OW10915   7.014   5.641   6.814
 3339SOL    HW110916   0.064   5.707   6.787
 3339SOL    HW210917   6.986   5.589   6.733
 3340SOL     OW10918   3.512   6.330   1.364
 3340SOL    HW110919   3.543   6.409   1.311
 3340SOL    HW210920   3.450   6.360   1.436
 3341SOL     OW10921   0.978   0.802   2.181
 3341SOL    HW110922   0.956   0.738   2.107
 3341SOL    HW210923   1.059   0.769   2.230
 3342SOL     OW10924   2.329   6.771   4.428
 3342SOL    HW110925   2.340   6.675   4.401
 3342SOL    HW210926   2.232   6.792   4.438
 3343SOL     OW10927   5.436   2.934   0.629
 3343SOL    HW110928   5.522   2.984   0.625
 3343SOL    HW210929   5.363   2.990   0.590
 3344SOL     OW10930   0.097   3.661   5.700
 3344SOL    HW110931   0.099   3.582   5.761
 3344SOL    HW210932   0.004   3.696   5.693
 3345SOL     OW10933   3.130   3.209   5.539
 3345SOL    HW110934   3.195   3.136   5.517
 3345SOL    HW210935   3.091   3.245   5.455
 3346SOL     OW10936   1.372   6.871   2.077
 3346SOL    HW110937   1.321   6.920   2.006
 3346SOL    HW210938   1.314   6.801   2.118
 3347SOL     OW10939   5.612   4.335   5.390
 3347SOL    HW110940   5.525   4.316   5.344
 3347SOL    HW210941   5.676   4.260   5.373
 3348SOL     OW10942   3.663   2.933   3.998
 3348SOL    HW110943   3.760   2.909   3.999
 3348SOL    HW210944   3.617   2.881   3.927
 3349SOL     OW10945   6.228   3.962   5.099
 3349SOL    HW110946   6.215   3.868   5.132
 3349SOL    HW210947   6.318   3.995   5.128
 3350SOL     OW10948   1.181   1.147   1.332
 3350SOL    HW110949   1.121   1.067   1.324
 3350SOL    HW210950   1.269   1.119   1.370
 3351SOL     OW10951   5.133   1.726   1.975
 3351SOL    HW110952   5.096   1.709   1.884
 3351SOL    HW210953   5.060   1.757   2.036
 3352SOL     OW10954   0.207   3.876   0.928
 3352SOL    HW110955   0.298   3.838   0.911
 3352SOL    HW210956   0.144   3.844   0.858
 3353SOL     OW10957   2.305   6.833   5.820
 3353SOL    HW110958   2.391   6.881   5.838
 3353SOL    HW210959   2.293   6.759   5.886
 3354SOL     OW10960   0.906   1.964   3.184
 3354SOL    HW110961   0.874   1.869   3.184
 3354SOL    HW210962   0.828   2.025   3.174
 3355SOL     OW10963   6.843   1.207   2.794
 3355SOL    HW110964   6.778   1.245   2.861
 3355SOL    HW210965   6.883   1.123   2.831
 3356SOL     OW10966   2.502   3.087   6.816
 3356SOL    HW110967   2.588   3.134   6.797
 3356SOL    HW210968   2.500   3.058   6.911
 3357SOL     OW10969   2.593   5.041   1.840
 3357SOL    HW110970   2.515   5.058   1.779
 3357SOL    HW210971   2.655   5.120   1.838
 3358SOL     OW10972   5.191   4.836   2.389
 3358SOL    HW110973   5.169   4.775   2.464
 3358SOL    HW210974   5.173   4.931   2.415
 3359SOL     OW10975   1.362   1.362   2.559
 3359SOL    HW110976   1.393   1.409   2.477
 3359SOL    HW210977   1.441   1.335   2.615
 3360SOL     OW10978   1.148   0.356   6.832
 3360SOL    HW110979   1.072   0.303   6.794
 3360SOL    HW210980   1.157   0.442   6.783
 3361SOL     OW10981   5.658   6.813   2.858
 3361SOL    HW110982   5.657   6.849   2.764
 3361SOL    HW210983   5.570   6.770   2.878
 3362SOL     OW10984   1.805   1.187   5.830
 3362SOL    HW110985   1.856   1.199   5.745
 3362SOL    HW210986   1.750   1.269   5.847
 3363SOL     OW10987   0.489   1.021   6.622
 3363SOL    HW110988   0.450   1.041   6.532
 3363SOL    HW210989   0.510   1.107   6.669
 3364SOL     OW10990   1.903   4.816   6.300
 3364SOL    HW110991   1.852   4.899   6.279
 3364SOL    HW210992   1.841   4.737   6.299
 3365SOL     OW10993   6.556   1.952   5.177
 3365SOL    HW110994   6.575   1.892   5.099
 3365SOL    HW210995   6.529   1.897   5.255
 3366SOL     OW10996   5.555   0.924   6.112
 3366SOL    HW110997   5.518   1.016   6.096
 3366SOL    HW210998   5.589   0.887   6.026
 3367SOL     OW10999   0.837   0.607   2.035
 3367SOL    HW111000   0.807   0.579   1.944
 3367SOL    HW211001   0.758   0.618   2.095
 3368SOL     OW11002   0.275   5.737   5.970
 3368SOL    HW111003   0.185   5.759   5.934
 3368SOL    HW211004   0.283   5.770   6.064
 3369SOL     OW11005   4.206   0.153   6.540
 3369SOL    HW111006   4.213   0.098   6.457
 3369SOL    HW211007   4.149   0.105   6.607
 3370SOL     OW11008   5.801   6.460   5.524
 3370SOL    HW111009   5.756   6.542   5.488
 3370SOL    HW211010   5.737   6.410   5.582
 3371SOL     OW11011   0.527   5.513   1.878
 3371SOL    HW111012   0.606   5.462   1.912
 3371SOL    HW211013   0.510   5.591   1.939
 3372SOL     OW11014   0.380   1.293   2.922
 3372SOL    HW111015   0.312   1.322   2.855
 3372SOL    HW211016   0.461   1.260   2.875
 3373SOL     OW11017   6.485   2.220   5.254
 3373SOL    HW111018   6.478   2.227   5.353
 3373SOL    HW211019   6.509   2.126   5.229
 3374SOL     OW11020   3.329   5.086   5.325
 3374SOL    HW111021   3.357   4.997   5.290
 3374SOL    HW211022   3.410   5.144   5.337
 3375SOL     OW11023   4.659   4.565   5.483
 3375SOL    HW111024   4.620   4.474   5.495
 3375SOL    HW211025   4.683   4.579   5.387
 3376SOL     OW11026   3.422   3.812   2.371
 3376SOL    HW111027   3.342   3.766   2.410
 3376SOL    HW211028   3.485   3.744   2.335
 3377SOL     OW11029   1.693   6.383   5.510
 3377SOL    HW111030   1.684   6.461   5.572
 3377SOL    HW211031   1.646   6.304   5.549
 3378SOL     OW11032   6.533   1.548   0.955
 3378SOL    HW111033   6.627   1.551   0.919
 3378SOL    HW211034   6.475   1.611   0.903
 3379SOL     OW11035   0.867   4.492   5.491
 3379SOL    HW111036   0.960   4.471   5.522
 3379SOL    HW211037   0.851   4.448   5.402
 3380SOL     OW11038   0.115   4.236   6.575
 3380SOL    HW111039   0.110   4.145   6.533
 3380SOL    HW211040   0.147   4.228   6.669
 3381SOL     OW11041   3.025   2.204   0.399
 3381SOL    HW111042   3.121   2.193   0.377
 3381SOL    HW211043   2.971   2.205   0.315
 3382SOL     OW11044   6.966   0.803   1.043
 3382SOL    HW111045   6.989   0.765   0.954
 3382SOL    HW211046   6.871   0.836   1.042
 3383SOL     OW11047   6.095   5.222   2.703
 3383SOL    HW111048   6.068   5.189   2.612
 3383SOL    HW211049   6.135   5.147   2.755
 3384SOL     OW11050   3.911   3.007   4.123
 3384SOL    HW111051   3.988   3.070   4.120
 3384SOL    HW211052   3.851   3.031   4.199
 3385SOL     OW11053   6.456   3.716   3.496
 3385SOL    HW111054   6.417   3.808   3.503
 3385SOL    HW211055   6.555   3.721   3.501
 3386SOL     OW11056   6.165   4.383   5.283
 3386SOL    HW111057   6.111   4.413   5.204
 3386SOL    HW211058   6.254   4.430   5.281
 3387SOL     OW11059   2.260   2.151   2.567
 3387SOL    HW111060   2.240   2.086   2.641
 3387SOL    HW211061   2.176   2.172   2.518
 3388SOL     OW11062   5.724   2.239   1.325
 3388SOL    HW111063   5.705   2.244   1.227
 3388SOL    HW211064   5.694   2.324   1.369
 3389SOL     OW11065   5.396   4.532   3.421
 3389SOL    HW111066   5.435   4.461   3.480
 3389SOL    HW211067   5.304   4.555   3.451
 3390SOL     OW11068   4.608   2.879   5.620
 3390SOL    HW111069   4.541   2.953   5.620
 3390SOL    HW211070   4.566   2.796   5.656
 3391SOL     OW11071   3.992   2.220   4.773
 3391SOL    HW111072   3.949   2.311   4.771
 3391SOL    HW211073   3.994   2.182   4.681
 3392SOL     OW11074   3.604   6.774   4.103
 3392SOL    HW111075   3.537   6.703   4.126
 3392SOL    HW211076   3.681   6.770   4.167
 3393SOL     OW11077   6.642   6.944   6.977
 3393SOL    HW111078   6.636   7.009   0.031
 3393SOL    HW211079   6.571   6.875   6.986
 3394SOL     OW11080   5.797   2.756   1.334
 3394SOL    HW111081   5.825   2.843   1.376
 3394SOL    HW211082   5.864   2.685   1.358
 3395SOL     OW11083   1.551   3.402   5.202
 3395SOL    HW111084   1.554   3.489   5.250
 3395SOL    HW211085   1.528   3.329   5.267
 3396SOL     OW11086   6.991   4.366   4.059
 3396SOL    HW111087   7.020   4.457   4.088
 3396SOL    HW211088   6.999   4.303   4.136
 3397SOL     OW11089   3.813   6.403   5.886
 3397SOL    HW111090   3.877   6.458   5.941
 3397SOL    HW211091   3.727   6.394   5.936
 3398SOL     OW11092   1.096   6.914   4.255
 3398SOL    HW111093   1.191   6.933   4.280
 3398SOL    HW211094   1.067   6.828   4.297
 3399SOL     OW11095   5.135   4.736   4.250
 3399SOL    HW111096   5.194   4.700   4.177
 3399SOL    HW211097   5.039   4.717   4.228
 3400SOL     OW11098   4.985   2.592   0.001
 3400SOL    HW111099   4.951   2.504   0.034
 3400SOL    HW211100   4.957   2.605   6.926
 3401SOL     OW11101   6.082   4.306   6.956
 3401SOL    HW111102   6.128   4.264   0.014
 3401SOL    HW211103   6.054   4.398   6.980
 3402SOL     OW11104   5.460   5.856   1.747
 3402SOL    HW111105   5.396   5.876   1.672
 3402SOL    HW211106   5.552   5.885   1.721
 3403SOL     OW11107   3.712   1.016   5.306
 3403SOL    HW111108   3.692   0.920   5.287
 3403SOL    HW211109   3.631   1.060   5.347
 3404SOL     OW11110   4.790   0.837   0.383
 3404SOL    HW111111   4.708   0.812   0.433
 3404SOL    HW211112   4.777   0.820   0.285
 3405SOL     OW11113   6.752   3.659   6.537
 3405SOL    HW111114   6.690   3.718   6.589
 3405SOL    HW211115   6.789   3.588   6.597
 3406SOL     OW11116   1.598   3.725   2.481
 3406SOL    HW111117   1.568   3.636   2.515
 3406SOL    HW211118   1.582   3.730   2.382
 3407SOL     OW11119   1.113   5.945   2.395
 3407SOL    HW111120   1.100   6.040   2.426
 3407SOL    HW211121   1.123   5.944   2.296
 3408SOL     OW11122   5.199   4.449   2.601
 3408SOL    HW111123   5.190   4.358   2.641
 3408SOL    HW211124   5.255   4.444   2.518
 3409SOL     OW11125   3.856   0.686   5.670
 3409SOL    HW111126   3.762   0.713   5.688
 3409SOL    HW211127   3.868   0.671   5.572
 3410SOL     OW11128   6.533   6.831   0.687
 3410SOL    HW111129   6.628   6.800   0.683
 3410SOL    HW211130   6.516   6.875   0.775
 3411SOL     OW11131   4.765   2.089   2.979
 3411SOL    HW111132   4.813   2.162   3.029
 3411SOL    HW211133   4.669   2.113   2.970
 3412SOL     OW11134   3.765   4.432   0.109
 3412SOL    HW111135   3.704   4.457   0.034
 3412SOL    HW211136   3.777   4.511   0.169
 3413SOL     OW11137   3.495   1.702   3.818
 3413SOL    HW111138   3.497   1.744   3.727
 3413SOL    HW211139   3.587   1.675   3.844
 3414SOL     OW11140   2.895   2.238   5.102
 3414SOL    HW111141   2.945   2.179   5.040
 3414SOL    HW211142   2.959   2.294   5.154
 3415SOL     OW11143   0.603   4.475   3.630
 3415SOL    HW111144   0.658   4.421   3.693
 3415SOL    HW211145   0.507   4.473   3.660
 3416SOL     OW11146   1.449   5.663   5.215
 3416SOL    HW111147   1.512   5.717   5.271
 3416SOL    HW211148   1.404   5.722   5.148
 3417SOL     OW11149   6.815   6.806   2.368
 3417SOL    HW111150   6.858   6.762   2.290
 3417SOL    HW211151   6.729   6.760   2.390
 3418SOL     OW11152   2.944   1.478   5.476
 3418SOL    HW111153   2.935   1.550   5.544
 3418SOL    HW211154   2.854   1.456   5.438
 3419SOL     OW11155   4.286   4.672   0.341
 3419SOL    HW111156   4.355   4.710   0.402
 3419SOL    HW211157   4.241   4.747   0.292
 3420SOL     OW11158   4.075   2.290   3.802
 3420SOL    HW111159   3.994   2.280   3.745
 3420SOL    HW211160   4.156   2.300   3.743
 3421SOL     OW11161   0.281   5.917   5.337
 3421SOL    HW111162   0.254   5.835   5.387
 3421SOL    HW211163   0.279   5.996   5.399
 3422SOL     OW11164   3.637   1.379   2.041
 3422SOL    HW111165   3.649   1.466   2.087
 3422SOL    HW211166   3.577   1.391   1.961
 3423SOL     OW11167   2.406   0.409   1.118
 3423SOL    HW111168   2.381   0.499   1.081
 3423SOL    HW211169   2.501   0.411   1.148
 3424SOL     OW11170   4.753   0.944   3.417
 3424SOL    HW111171   4.708   1.010   3.357
 3424SOL    HW211172   4.713   0.853   3.403
 3425SOL     OW11173   4.507   4.442   1.694
 3425SOL    HW111174   4.483   4.360   1.747
 3425SOL    HW211175   4.428   4.504   1.692
 3426SOL     OW11176   4.195   3.823   0.638
 3426SOL    HW111177   4.234   3.849   0.549
 3426SOL    HW211178   4.265   3.830   0.709
 3427SOL     OW11179   0.795   1.189   0.198
 3427SOL    HW111180   0.809   1.279   0.239
 3427SOL    HW211181   0.697   1.167   0.197
 3428SOL     OW11182   4.211   4.808   2.081
 3428SOL    HW111183   4.256   4.887   2.040
 3428SOL    HW211184   4.116   4.830   2.102
 3429SOL     OW11185   1.355   3.414   0.230
 3429SOL    HW111186   1.300   3.483   0.182
 3429SOL    HW211187   1.327   3.409   0.326
 3430SOL     OW11188   1.729   6.879   0.246
 3430SOL    HW111189   1.687   6.790   0.232
 3430SOL    HW211190   1.705   6.913   0.337
 3431SOL     OW11191   0.613   6.066   0.666
 3431SOL    HW111192   0.568   6.054   0.577
 3431SOL    HW211193   0.707   6.097   0.651
 3432SOL     OW11194   2.884   1.597   5.949
 3432SOL    HW111195   2.817   1.602   5.875
 3432SOL    HW211196   2.849   1.644   6.029
 3433SOL     OW11197   3.457   0.940   4.967
 3433SOL    HW111198   3.431   0.870   5.033
 3433SOL    HW211199   3.387   1.011   4.964
 3434SOL     OW11200   4.916   2.838   2.009
 3434SOL    HW111201   4.874   2.922   1.975
 3434SOL    HW211202   4.924   2.844   2.109
 3435SOL     OW11203   0.147   1.922   1.821
 3435SOL    HW111204   0.143   2.013   1.780
 3435SOL    HW211205   0.237   1.882   1.805
 3436SOL     OW11206   4.100   6.858   4.576
 3436SOL    HW111207   4.079   6.894   4.667
 3436SOL    HW211208   4.080   6.760   4.573
 3437SOL     OW11209   4.164   6.969   5.496
 3437SOL    HW111210   4.106   0.028   5.512
 3437SOL    HW211211   4.151   6.903   5.570
 3438SOL     OW11212   1.264   2.851   6.401
 3438SOL    HW111213   1.207   2.933   6.402
 3438SOL    HW211214   1.286   2.825   6.495
 3439SOL     OW11215   2.278   6.544   4.038
 3439SOL    HW111216   2.267   6.497   4.125
 3439SOL    HW211217   2.314   6.636   4.054
 3440SOL     OW11218   4.923   3.287   0.749
 3440SOL    HW111219   4.918   3.246   0.840
 3440SOL    HW211220   4.838   3.335   0.730
 3441SOL     OW11221   2.972   0.228   3.770
 3441SOL    HW111222   3.071   0.211   3.773
 3441SOL    HW211223   2.954   0.309   3.715
 3442SOL     OW11224   1.785   4.990   3.578
 3442SOL    HW111225   1.853   5.060   3.555
 3442SOL    HW211226   1.694   5.021   3.548
 3443SOL     OW11227   6.182   1.515   2.630
 3443SOL    HW111228   6.250   1.570   2.581
 3443SOL    HW211229   6.160   1.434   2.577
 3444SOL     OW11230   5.060   5.537   0.149
 3444SOL    HW111231   5.020   5.620   0.111
 3444SOL    HW211232   5.001   5.459   0.126
 3445SOL     OW11233   6.494   4.740   4.027
 3445SOL    HW111234   6.581   4.755   3.980
 3445SOL    HW211235   6.486   4.643   4.050
 3446SOL     OW11236   3.780   0.113   2.532
 3446SOL    HW111237   3.744   0.166   2.609
 3446SOL    HW211238   3.727   0.132   2.450
 3447SOL     OW11239   5.499   6.313   7.013
 3447SOL    HW111240   5.573   6.251   0.019
 3447SOL    HW211241   5.425   6.260   6.970
 3448SOL     OW11242   3.528   0.829   1.539
 3448SOL    HW111243   3.464   0.830   1.616
 3448SOL    HW211244   3.603   0.892   1.558
 3449SOL     OW11245   6.925   6.547   3.047
 3449SOL    HW111246   6.861   6.619   3.022
 3449SOL    HW211247   6.941   6.489   2.967
 3450SOL     OW11248   0.809   1.648   1.540
 3450SOL    HW111249   0.790   1.557   1.503
 3450SOL    HW211250   0.901   1.649   1.578
 3451SOL     OW11251   0.969   5.992   4.061
 3451SOL    HW111252   0.983   5.953   4.152
 3451SOL    HW211253   1.057   6.003   4.015
 3452SOL     OW11254   5.949   1.238   0.527
 3452SOL    HW111255   6.045   1.211   0.531
 3452SOL    HW211256   5.911   1.210   0.439
 3453SOL     OW11257   5.312   5.819   4.677
 3453SOL    HW111258   5.342   5.739   4.730
 3453SOL    HW211259   5.381   5.891   4.685
 3454SOL     OW11260   1.125   0.952   0.902
 3454SOL    HW111261   1.038   0.926   0.860
 3454SOL    HW211262   1.129   1.051   0.912
 3455SOL     OW11263   1.941   2.382   4.184
 3455SOL    HW111264   1.894   2.371   4.097
 3455SOL    HW211265   1.877   2.415   4.253
 3456SOL     OW11266   5.564   6.839   1.395
 3456SOL    HW111267   5.502   6.767   1.365
 3456SOL    HW211268   5.658   6.815   1.368
 3457SOL     OW11269   2.616   4.613   3.584
 3457SOL    HW111270   2.605   4.655   3.494
 3457SOL    HW211271   2.706   4.635   3.621
 3458SOL     OW11272   5.757   6.692   0.730
 3458SOL    HW111273   5.854   6.713   0.745
 3458SOL    HW211274   5.722   6.641   0.808
 3459SOL     OW11275   0.431   5.302   3.650
 3459SOL    HW111276   0.520   5.258   3.657
 3459SOL    HW211277   0.367   5.242   3.603
 3460SOL     OW11278   4.634   2.691   6.898
 3460SOL    HW111279   4.673   2.730   6.981
 3460SOL    HW211280   4.572   2.616   6.922
 3461SOL     OW11281   3.973   6.159   3.835
 3461SOL    HW111282   3.963   6.205   3.746
 3461SOL    HW211283   3.903   6.193   3.898
 3462SOL     OW11284   4.878   3.531   3.172
 3462SOL    HW111285   4.882   3.614   3.116
 3462SOL    HW211286   4.882   3.555   3.268
 3463SOL     OW11287   2.018   2.935   1.150
 3463SOL    HW111288   2.055   2.901   1.064
 3463SOL    HW211289   2.082   2.999   1.191
 3464SOL     OW11290   4.973   3.167   6.271
 3464SOL    HW111291   5.051   3.193   6.328
 3464SOL    HW211292   4.922   3.094   6.317
 3465SOL     OW11293   2.061   3.652   1.788
 3465SOL    HW111294   2.126   3.595   1.838
 3465SOL    HW211295   2.089   3.748   1.794
 3466SOL     OW11296   6.083   4.809   4.758
 3466SOL    HW111297   6.022   4.866   4.813
 3466SOL    HW211298   6.163   4.862   4.732
 3467SOL     OW11299   2.932   2.627   0.808
 3467SOL    HW111300   3.005   2.608   0.873
 3467SOL    HW211301   2.889   2.542   0.780
 3468SOL     OW11302   4.649   1.534   1.537
 3468SOL    HW111303   4.689   1.626   1.538
 3468SOL    HW211304   4.660   1.494   1.446
 3469SOL     OW11305   4.581   6.710   5.670
 3469SOL    HW111306   4.493   6.668   5.695
 3469SOL    HW211307   4.573   6.809   5.678
 3470SOL     OW11308   0.198   2.866   2.190
 3470SOL    HW111309   0.132   2.928   2.233
 3470SOL    HW211310   0.290   2.905   2.198
 3471SOL     OW11311   4.832   3.959   2.811
 3471SOL    HW111312   4.844   3.969   2.712
 3471SOL    HW211313   4.819   4.049   2.852
 3472SOL     OW11314   4.512   1.955   3.453
 3472SOL    HW111315   4.507   1.940   3.552
 3472SOL    HW211316   4.579   2.026   3.433
 3473SOL     OW11317   0.020   3.904   3.105
 3473SOL    HW111318   0.012   3.866   3.197
 3473SOL    HW211319   7.001   3.841   3.039
 3474SOL     OW11320   6.215   5.162   4.482
 3474SOL    HW111321   6.137   5.172   4.420
 3474SOL    HW211322   6.300   5.176   4.431
 3475SOL     OW11323   6.761   3.945   4.468
 3475SOL    HW111324   6.771   4.016   4.537
 3475SOL    HW211325   6.811   3.972   4.385
 3476SOL     OW11326   1.295   1.863   3.351
 3476SOL    HW111327   1.231   1.927   3.311
 3476SOL    HW211328   1.382   1.868   3.303
 3477SOL     OW11329   0.400   3.716   1.284
 3477SOL    HW111330   0.492   3.717   1.324
 3477SOL    HW211331   0.333   3.690   1.353
 3478SOL     OW11332   2.437   6.945   6.977
 3478SOL    HW111333   2.384   6.984   0.031
 3478SOL    HW211334   2.433   7.006   6.898
 3479SOL     OW11335   0.645   3.512   3.684
 3479SOL    HW111336   0.703   3.477   3.758
 3479SOL    HW211337   0.600   3.436   3.637
 3480SOL     OW11338   1.078   5.533   6.970
 3480SOL    HW111339   0.993   5.484   6.946
 3480SOL    HW211340   1.062   5.631   6.966
 3481SOL     OW11341   6.515   0.670   6.557
 3481SOL    HW111342   6.473   0.759   6.540
 3481SOL    HW211343   6.502   0.611   6.478
 3482SOL     OW11344   5.999   3.919   4.693
 3482SOL    HW111345   5.959   3.834   4.658
 3482SOL    HW211346   6.011   3.984   4.619
 3483SOL     OW11347   4.536   1.975   3.733
 3483SOL    HW111348   4.442   2.007   3.721
 3483SOL    HW211349   4.593   2.052   3.761
 3484SOL     OW11350   2.234   3.478   5.825
 3484SOL    HW111351   2.263   3.574   5.831
 3484SOL    HW211352   2.301   3.420   5.871
 3485SOL     OW11353   0.325   1.850   5.728
 3485SOL    HW111354   0.318   1.768   5.785
 3485SOL    HW211355   0.420   1.865   5.702
 3486SOL     OW11356   2.299   0.345   4.711
 3486SOL    HW111357   2.207   0.304   4.713
 3486SOL    HW211358   2.330   0.352   4.616
 3487SOL     OW11359   6.219   1.773   6.600
 3487SOL    HW111360   6.270   1.842   6.547
 3487SOL    HW211361   6.122   1.797   6.600
 3488SOL     OW11362   6.109   0.824   4.265
 3488SOL    HW111363   6.134   0.749   4.203
 3488SOL    HW211364   6.024   0.801   4.312
 3489SOL     OW11365   3.392   0.235   0.914
 3489SOL    HW111366   3.390   0.334   0.925
 3489SOL    HW211367   3.370   0.211   0.820
 3490SOL     OW11368   4.121   5.113   0.716
 3490SOL    HW111369   4.191   5.060   0.667
 3490SOL    HW211370   4.030   5.087   0.684
 3491SOL     OW11371   4.890   4.066   0.329
 3491SOL    HW111372   4.839   4.059   0.243
 3491SOL    HW211373   4.964   3.999   0.329
 3492SOL     OW11374   5.835   4.193   2.476
 3492SOL    HW111375   5.816   4.192   2.378
 3492SOL    HW211376   5.930   4.220   2.491
 3493SOL     OW11377   6.211   3.667   4.621
 3493SOL    HW111378   6.172   3.597   4.682
 3493SOL    HW211379   6.256   3.737   4.677
 3494SOL     OW11380   3.589   1.645   2.145
 3494SOL    HW111381   3.568   1.664   2.050
 3494SOL    HW211382   3.661   1.706   2.177
 3495SOL     OW11383   1.495   3.442   1.850
 3495SOL    HW111384   1.440   3.521   1.823
 3495SOL    HW211385   1.562   3.422   1.779
 3496SOL     OW11386   6.655   5.162   0.877
 3496SOL    HW111387   6.596   5.217   0.818
 3496SOL    HW211388   6.601   5.123   0.951
 3497SOL     OW11389   4.144   0.555   2.346
 3497SOL    HW111390   4.212   0.482   2.355
 3497SOL    HW211391   4.054   0.516   2.328
 3498SOL     OW11392   1.872   2.014   1.473
 3498SOL    HW111393   1.898   1.952   1.546
 3498SOL    HW211394   1.883   2.109   1.504
 3499SOL     OW11395   5.652   5.619   5.657
 3499SOL    HW111396   5.725   5.678   5.623
 3499SOL    HW211397   5.573   5.626   5.597
 3500SOL     OW11398   1.637   1.888   3.745
 3500SOL    HW111399   1.718   1.842   3.780
 3500SOL    HW211400   1.590   1.935   3.820
 3501SOL     OW11401   2.124   6.950   6.353
 3501SOL    HW111402   2.210   6.995   6.329
 3501SOL    HW211403   2.121   6.933   6.452
 3502SOL     OW11404   5.114   3.706   1.707
 3502SOL    HW111405   5.085   3.779   1.646
 3502SOL    HW211406   5.214   3.708   1.717
 3503SOL     OW11407   6.794   5.961   5.945
 3503SOL    HW111408   6.702   5.982   5.913
 3503SOL    HW211409   6.806   5.996   6.038
 3504SOL     OW11410   1.634   0.608   2.081
 3504SOL    HW111411   1.618   0.696   2.126
 3504SOL    HW211412   1.581   0.537   2.126
 3505SOL     OW11413   5.624   5.124   5.486
 3505SOL    HW111414   5.577   5.093   5.568
 3505SOL    HW211415   5.677   5.048   5.447
 3506SOL     OW11416   5.110   4.511   4.456
 3506SOL    HW111417   5.189   4.470   4.409
 3506SOL    HW211418   5.072   4.584   4.399
 3507SOL     OW11419   2.379   0.070   0.394
 3507SOL    HW111420   2.322   0.150   0.375
 3507SOL    HW211421   2.474   0.098   0.405
 3508SOL     OW11422   3.028   2.533   5.387
 3508SOL    HW111423   3.075   2.488   5.310
 3508SOL    HW211424   2.945   2.578   5.354
 3509SOL     OW11425   4.224   5.884   6.885
 3509SOL    HW111426   4.320   5.891   6.911
 3509SOL    HW211427   4.168   5.933   6.952
 3510SOL     OW11428   2.085   0.588   0.833
 3510SOL    HW111429   2.044   0.679   0.833
 3510SOL    HW211430   2.044   0.534   0.906
 3511SOL     OW11431   2.515   4.699   1.308
 3511SOL    HW111432   2.421   4.663   1.307
 3511SOL    HW211433   2.531   4.751   1.224
 3512SOL     OW11434   1.284   4.033   6.920
 3512SOL    HW111435   1.240   4.026   7.009
 3512SOL    HW211436   1.246   4.111   6.870
 3513SOL     OW11437   5.924   2.114   0.452
 3513SOL    HW111438   5.917   2.210   0.478
 3513SOL    HW211439   5.842   2.065   0.484
 3514SOL     OW11440   4.776   0.790   2.818
 3514SOL    HW111441   4.729   0.704   2.797
 3514SOL    HW211442   4.724   0.841   2.887
 3515SOL     OW11443   5.805   6.096   4.802
 3515SOL    HW111444   5.715   6.135   4.785
 3515SOL    HW211445   5.851   6.079   4.714
 3516SOL     OW11446   5.062   0.149   1.134
 3516SOL    HW111447   5.139   0.176   1.077
 3516SOL    HW211448   5.081   0.059   1.175
 3517SOL     OW11449   6.457   1.489   0.530
 3517SOL    HW111450   6.361   1.508   0.553
 3517SOL    HW211451   6.499   1.571   0.491
 3518SOL     OW11452   5.820   1.804   5.156
 3518SOL    HW111453   5.843   1.898   5.183
 3518SOL    HW211454   5.902   1.757   5.126
 3519SOL     OW11455   3.036   0.737   0.413
 3519SOL    HW111456   3.127   0.696   0.414
 3519SOL    HW211457   2.976   0.690   0.478
 3520SOL     OW11458   3.244   5.440   5.252
 3520SOL    HW111459   3.221   5.435   5.349
 3520SOL    HW211460   3.173   5.490   5.203
 3521SOL     OW11461   3.008   3.195   6.974
 3521SOL    HW111462   2.978   3.100   6.970
 3521SOL    HW211463   2.955   3.243   0.023
 3522SOL     OW11464   0.134   5.497   6.993
 3522SOL    HW111465   0.073   5.466   0.045
 3522SOL    HW211466   0.084   5.558   6.931
 3523SOL     OW11467   0.913   5.125   5.499
 3523SOL    HW111468   0.854   5.197   5.537
 3523SOL    HW211469   0.901   5.041   5.552
 3524SOL     OW11470   6.256   1.870   3.087
 3524SOL    HW111471   6.291   1.786   3.129
 3524SOL    HW211472   6.332   1.929   3.062
 3525SOL     OW11473   5.995   4.590   3.986
 3525SOL    HW111474   6.030   4.681   4.010
 3525SOL    HW211475   6.025   4.524   4.055
 3526SOL     OW11476   1.048   5.692   3.415
 3526SOL    HW111477   1.011   5.740   3.495
 3526SOL    HW211478   1.132   5.736   3.384
 3527SOL     OW11479   6.758   2.834   5.941
 3527SOL    HW111480   6.669   2.802   5.974
 3527SOL    HW211481   6.769   2.930   5.965
 3528SOL     OW11482   2.700   6.428   5.403
 3528SOL    HW111483   2.786   6.445   5.450
 3528SOL    HW211484   2.719   6.394   5.311
 3529SOL     OW11485   5.059   5.725   6.709
 3529SOL    HW111486   4.975   5.679   6.679
 3529SOL    HW211487   5.120   5.736   6.631
 3530SOL     OW11488   6.951   6.272   1.947
 3530SOL    HW111489   6.912   6.232   2.030
 3530SOL    HW211490   7.020   6.210   1.910
 3531SOL     OW11491   4.558   1.537   1.981
 3531SOL    HW111492   4.622   1.519   1.906
 3531SOL    HW211493   4.486   1.468   1.980
 3532SOL     OW11494   2.361   1.103   2.370
 3532SOL    HW111495   2.265   1.074   2.374
 3532SOL    HW211496   2.366   1.202   2.363
 3533SOL     OW11497   6.726   1.549   2.160
 3533SOL    HW111498   6.679   1.461   2.148
 3533SOL    HW211499   6.782   1.546   2.243
 3534SOL     OW11500   0.394   2.275   1.596
 3534SOL    HW111501   0.468   2.236   1.541
 3534SOL    HW211502   0.430   2.350   1.652
 3535SOL     OW11503   2.829   5.115   5.100
 3535SOL    HW111504   2.797   5.064   5.020
 3535SOL    HW211505   2.929   5.109   5.106
 3536SOL     OW11506   3.182   1.790   2.865
 3536SOL    HW111507   3.151   1.828   2.778
 3536SOL    HW211508   3.103   1.769   2.923
 3537SOL     OW11509   1.651   5.869   2.816
 3537SOL    HW111510   1.733   5.881   2.871
 3537SOL    HW211511   1.578   5.831   2.873
 3538SOL     OW11512   3.102   5.283   4.954
 3538SOL    HW111513   3.077   5.249   5.045
 3538SOL    HW211514   3.160   5.364   4.963
 3539SOL     OW11515   4.017   3.907   4.129
 3539SOL    HW111516   4.002   3.888   4.226
 3539SOL    HW211517   4.055   3.999   4.119
 3540SOL     OW11518   1.888   2.092   4.155
 3540SOL    HW111519   1.901   1.998   4.124
 3540SOL    HW211520   1.924   2.155   4.086
 3541SOL     OW11521   3.082   3.753   4.943
 3541SOL    HW111522   3.026   3.734   5.023
 3541SOL    HW211523   3.025   3.750   4.861
 3542SOL     OW11524   1.443   4.797   2.588
 3542SOL    HW111525   1.481   4.704   2.590
 3542SOL    HW211526   1.404   4.819   2.677
 3543SOL     OW11527   5.531   2.676   4.282
 3543SOL    HW111528   5.587   2.598   4.310
 3543SOL    HW211529   5.434   2.652   4.291
 3544SOL     OW11530   2.205   4.399   6.154
 3544SOL    HW111531   2.213   4.499   6.156
 3544SOL    HW211532   2.150   4.371   6.076
 3545SOL     OW11533   4.453   5.422   6.226
 3545SOL    HW111534   4.474   5.478   6.305
 3545SOL    HW211535   4.356   5.397   6.226
 3546SOL     OW11536   6.856   5.779   3.337
 3546SOL    HW111537   6.879   5.846   3.407
 3546SOL    HW211538   6.787   5.715   3.372
 3547SOL     OW11539   4.573   5.054   4.373
 3547SOL    HW111540   4.567   5.002   4.458
 3547SOL    HW211541   4.648   5.120   4.379
 3548SOL     OW11542   4.981   2.909   5.696
 3548SOL    HW111543   4.953   2.887   5.789
 3548SOL    HW211544   4.969   2.829   5.637
 3549SOL     OW11545   6.345   4.578   3.134
 3549SOL    HW111546   6.370   4.546   3.225
 3549SOL    HW211547   6.366   4.676   3.126
 3550SOL     OW11548   5.076   2.036   3.007
 3550SOL    HW111549   5.049   2.093   2.929
 3550SOL    HW211550   5.052   2.084   3.092
 3551SOL     OW11551   3.056   6.596   2.769
 3551SOL    HW111552   3.065   6.688   2.730
 3551SOL    HW211553   3.145   6.551   2.772
 3552SOL     OW11554   5.588   6.117   2.884
 3552SOL    HW111555   5.674   6.123   2.834
 3552SOL    HW211556   5.606   6.095   2.980
 3553SOL     OW11557   5.345   2.463   2.362
 3553SOL    HW111558   5.346   2.521   2.281
 3553SOL    HW211559   5.287   2.505   2.433
 3554SOL     OW11560   4.166   4.719   6.710
 3554SOL    HW111561   4.115   4.686   6.789
 3554SOL    HW211562   4.107   4.722   6.630
 3555SOL     OW11563   1.212   3.176   3.180
 3555SOL    HW111564   1.240   3.081   3.165
 3555SOL    HW211565   1.112   3.181   3.184
 3556SOL     OW11566   2.989   0.695   5.476
 3556SOL    HW111567   2.970   0.681   5.378
 3556SOL    HW211568   3.087   0.683   5.493
 3557SOL     OW11569   1.931   0.430   4.671
 3557SOL    HW111570   1.968   0.361   4.733
 3557SOL    HW211571   1.913   0.389   4.581
 3558SOL     OW11572   6.966   5.973   2.029
 3558SOL    HW111573   0.025   6.033   2.020
 3558SOL    HW211574   6.994   5.879   2.014
 3559SOL     OW11575   0.654   1.190   4.703
 3559SOL    HW111576   0.681   1.286   4.713
 3559SOL    HW211577   0.572   1.172   4.757
 3560SOL     OW11578   0.803   5.486   1.578
 3560SOL    HW111579   0.775   5.530   1.664
 3560SOL    HW211580   0.887   5.528   1.545
 3561SOL     OW11581   4.864   4.657   5.641
 3561SOL    HW111582   4.773   4.630   5.609
 3561SOL    HW211583   4.861   4.752   5.673
 3562SOL     OW11584   5.719   0.326   3.641
 3562SOL    HW111585   5.688   0.314   3.547
 3562SOL    HW211586   5.698   0.244   3.694
 3563SOL     OW11587   5.118   1.024   1.075
 3563SOL    HW111588   5.146   1.081   1.152
 3563SOL    HW211589   5.027   1.052   1.044
 3564SOL     OW11590   0.055   4.369   4.347
 3564SOL    HW111591   0.083   4.460   4.315
 3564SOL    HW211592   0.132   4.306   4.341
 3565SOL     OW11593   2.900   0.903   4.660
 3565SOL    HW111594   2.872   0.999   4.665
 3565SOL    HW211595   2.969   0.884   4.729
 3566SOL     OW11596   0.183   3.115   6.110
 3566SOL    HW111597   0.094   3.138   6.150
 3566SOL    HW211598   0.191   3.156   6.019
 3567SOL     OW11599   0.072   3.181   0.692
 3567SOL    HW111600   0.113   3.267   0.661
 3567SOL    HW211601   0.141   3.124   0.735
 3568SOL     OW11602   4.380   4.635   3.271
 3568SOL    HW111603   4.368   4.709   3.337
 3568SOL    HW211604   4.465   4.587   3.290
 3569SOL     OW11605   3.140   4.019   4.392
 3569SOL    HW111606   3.041   4.009   4.400
 3569SOL    HW211607   3.184   3.932   4.415
 3570SOL     OW11608   6.911   1.438   5.905
 3570SOL    HW111609   6.978   1.428   5.831
 3570SOL    HW211610   6.821   1.410   5.871
 3571SOL     OW11611   2.172   6.590   5.478
 3571SOL    HW111612   2.250   6.536   5.448
 3571SOL    HW211613   2.177   6.681   5.437
 3572SOL     OW11614   5.019   4.655   1.303
 3572SOL    HW111615   4.919   4.645   1.296
 3572SOL    HW211616   5.050   4.620   1.391
 3573SOL     OW11617   6.614   3.505   2.191
 3573SOL    HW111618   6.651   3.596   2.207
 3573SOL    HW211619   6.524   3.497   2.234
 3574SOL     OW11620   2.885   3.095   6.077
 3574SOL    HW111621   2.840   3.047   6.152
 3574SOL    HW211622   2.895   3.192   6.100
 3575SOL     OW11623   5.563   6.934   7.017
 3575SOL    HW111624   5.480   6.932   6.962
 3575SOL    HW211625   5.611   0.000   7.004
 3576SOL     OW11626   0.971   3.267   6.814
 3576SOL    HW111627   0.921   3.346   6.781
 3576SOL    HW211628   1.069   3.289   6.820
 3577SOL     OW11629   2.555   2.710   5.545
 3577SOL    HW111630   2.567   2.793   5.599
 3577SOL    HW211631   2.496   2.729   5.467
 3578SOL     OW11632   3.290   3.064   6.743
 3578SOL    HW111633   3.383   3.028   6.730
 3578SOL    HW211634   3.295   3.154   6.785
 3579SOL     OW11635   0.416   3.278   2.512
 3579SOL    HW111636   0.446   3.320   2.426
 3579SOL    HW211637   0.475   3.310   2.586
 3580SOL     OW11638   0.284   3.641   1.537
 3580SOL    HW111639   0.376   3.602   1.539
 3580SOL    HW211640   0.234   3.614   1.620
 3581SOL     OW11641   0.658   0.286   2.615
 3581SOL    HW111642   0.671   0.346   2.536
 3581SOL    HW211643   0.607   0.205   2.588
 3582SOL     OW11644   3.695   3.764   5.909
 3582SOL    HW111645   3.791   3.772   5.884
 3582SOL    HW211646   3.637   3.778   5.828
 3583SOL     OW11647   0.711   4.844   0.823
 3583SOL    HW111648   0.620   4.862   0.860
 3583SOL    HW211649   0.758   4.777   0.881
 3584SOL     OW11650   5.584   4.313   4.828
 3584SOL    HW111651   5.614   4.241   4.766
 3584SOL    HW211652   5.485   4.326   4.818
 3585SOL     OW11653   2.858   1.703   3.531
 3585SOL    HW111654   2.780   1.639   3.526
 3585SOL    HW211655   2.825   1.797   3.521
 3586SOL     OW11656   6.378   2.701   4.563
 3586SOL    HW111657   6.364   2.696   4.464
 3586SOL    HW211658   6.419   2.790   4.586
 3587SOL     OW11659   3.401   6.923   6.141
 3587SOL    HW111660   3.404   6.940   6.240
 3587SOL    HW211661   3.354   6.837   6.123
 3588SOL     OW11662   6.609   4.423   4.445
 3588SOL    HW111663   6.687   4.375   4.405
 3588SOL    HW211664   6.542   4.356   4.478
 3589SOL     OW11665   0.339   6.950   6.298
 3589SOL    HW111666   0.313   0.025   6.304
 3589SOL    HW211667   0.362   6.915   6.389
 3590SOL     OW11668   6.807   4.795   0.735
 3590SOL    HW111669   6.855   4.707   0.739
 3590SOL    HW211670   6.771   4.809   0.643
 3591SOL     OW11671   5.388   2.170   6.845
 3591SOL    HW111672   5.334   2.226   6.783
 3591SOL    HW211673   5.475   2.145   6.802
 3592SOL     OW11674   1.599   6.956   1.561
 3592SOL    HW111675   1.609   6.886   1.632
 3592SOL    HW211676   1.576   6.913   1.475
 3593SOL     OW11677   4.954   3.059   6.011
 3593SOL    HW111678   5.014   2.985   5.978
 3593SOL    HW211679   4.991   3.096   6.096
 3594SOL     OW11680   4.321   5.004   4.359
 3594SOL    HW111681   4.418   5.024   4.355
 3594SOL    HW211682   4.306   4.917   4.407
 3595SOL     OW11683   5.519   6.195   5.992
 3595SOL    HW111684   5.557   6.282   5.960
 3595SOL    HW211685   5.465   6.210   6.075
 3596SOL     OW11686   3.842   1.796   3.558
 3596SOL    HW111687   3.802   1.826   3.471
 3596SOL    HW211688   3.912   1.726   3.540
 3597SOL     OW11689   2.207   3.380   5.165
 3597SOL    HW111690   2.225   3.282   5.169
 3597SOL    HW211691   2.257   3.426   5.238
 3598SOL     OW11692   1.530   5.307   4.669
 3598SOL    HW111693   1.540   5.209   4.683
 3598SOL    HW211694   1.512   5.352   4.756
 3599SOL     OW11695   4.846   1.507   4.850
 3599SOL    HW111696   4.879   1.425   4.802
 3599SOL    HW211697   4.908   1.529   4.925
 3600SOL     OW11698   3.631   3.107   0.660
 3600SOL    HW111699   3.612   3.011   0.642
 3600SOL    HW211700   3.572   3.140   0.733
 3601SOL     OW11701   5.136   0.873   5.263
 3601SOL    HW111702   5.044   0.872   5.224
 3601SOL    HW211703   5.175   0.965   5.252
 3602SOL     OW11704   2.055   2.061   1.263
 3602SOL    HW111705   2.095   1.972   1.282
 3602SOL    HW211706   1.994   2.087   1.338
 3603SOL     OW11707   2.723   1.351   5.852
 3603SOL    HW111708   2.630   1.330   5.883
 3603SOL    HW211709   2.723   1.438   5.803
 3604SOL     OW11710   6.665   0.549   3.799
 3604SOL    HW111711   6.644   0.488   3.875
 3604SOL    HW211712   6.736   0.614   3.826
 3605SOL     OW11713   0.656   5.642   3.463
 3605SOL    HW111714   0.666   5.721   3.402
 3605SOL    HW211715   0.666   5.672   3.558
 3606SOL     OW11716   2.246   6.578   1.836
 3606SOL    HW111717   2.284   6.612   1.921
 3606SOL    HW211718   2.317   6.574   1.766
 3607SOL     OW11719   5.039   2.776   3.034
 3607SOL    HW111720   5.063   2.683   3.008
 3607SOL    HW211721   5.035   2.833   2.952
 3608SOL     OW11722   3.048   2.078   4.957
 3608SOL    HW111723   3.121   2.139   4.988
 3608SOL    HW211724   3.071   2.039   4.868
 3609SOL     OW11725   2.467   0.083   4.351
 3609SOL    HW111726   2.520   0.072   4.435
 3609SOL    HW211727   2.510   0.031   4.277
 3610SOL     OW11728   2.603   6.715   4.915
 3610SOL    HW111729   2.593   6.742   4.819
 3610SOL    HW211730   2.533   6.760   4.970
 3611SOL     OW11731   5.278   4.859   3.014
 3611SOL    HW111732   5.190   4.811   3.004
 3611SOL    HW211733   5.262   4.956   3.031
 3612SOL     OW11734   6.133   1.380   6.555
 3612SOL    HW111735   6.221   1.334   6.543
 3612SOL    HW211736   6.087   1.344   6.636
 3613SOL     OW11737   4.006   5.522   1.267
 3613SOL    HW111738   4.106   5.519   1.261
 3613SOL    HW211739   3.968   5.533   1.175
 3614SOL     OW11740   4.062   4.375   6.742
 3614SOL    HW111741   4.146   4.396   6.692
 3614SOL    HW211742   4.023   4.459   6.778
 3615SOL     OW11743   6.124   2.386   5.513
 3615SOL    HW111744   6.031   2.355   5.530
 3615SOL    HW211745   6.123   2.481   5.482
 3616SOL     OW11746   1.229   1.810   6.807
 3616SOL    HW111747   1.134   1.841   6.813
 3616SOL    HW211748   1.278   1.866   6.740
 3617SOL     OW11749   3.633   6.387   6.536
 3617SOL    HW111750   3.661   6.435   6.453
 3617SOL    HW211751   3.622   6.289   6.517
 3618SOL     OW11752   2.163   4.426   4.335
 3618SOL    HW111753   2.140   4.519   4.307
 3618SOL    HW211754   2.087   4.387   4.388
 3619SOL     OW11755   5.498   2.683   1.282
 3619SOL    HW111756   5.580   2.733   1.309
 3619SOL    HW211757   5.424   2.702   1.348
 3620SOL     OW11758   6.134   6.320   4.999
 3620SOL    HW111759   6.052   6.297   5.052
 3620SOL    HW211760   6.211   6.333   5.062
 3621SOL     OW11761   2.885   3.361   3.676
 3621SOL    HW111762   2.919   3.267   3.678
 3621SOL    HW211763   2.859   3.385   3.582
 3622SOL     OW11764   0.849   6.615   0.176
 3622SOL    HW111765   0.778   6.683   0.164
 3622SOL    HW211766   0.917   6.648   0.241
 3623SOL     OW11767   1.063   4.783   6.277
 3623SOL    HW111768   1.125   4.708   6.253
 3623SOL    HW211769   1.104   4.870   6.250
 3624SOL     OW11770   3.542   1.116   1.686
 3624SOL    HW111771   3.630   1.087   1.648
 3624SOL    HW211772   3.507   1.194   1.634
 3625SOL     OW11773   6.792   2.582   0.522
 3625SOL    HW111774   6.735   2.507   0.487
 3625SOL    HW211775   6.837   2.552   0.606
 3626SOL     OW11776   1.223   2.394   5.154
 3626SOL    HW111777   1.196   2.459   5.225
 3626SOL    HW211778   1.140   2.357   5.110
 3627SOL     OW11779   3.926   2.303   1.767
 3627SOL    HW111780   3.970   2.393   1.765
 3627SOL    HW211781   3.829   2.314   1.786
 3628SOL     OW11782   6.676   2.144   1.806
 3628SOL    HW111783   6.592   2.148   1.752
 3628SOL    HW211784   6.702   2.049   1.820
 3629SOL     OW11785   1.475   1.515   4.373
 3629SOL    HW111786   1.548   1.447   4.378
 3629SOL    HW211787   1.409   1.489   4.303
 3630SOL     OW11788   6.824   2.347   3.712
 3630SOL    HW111789   6.828   2.253   3.745
 3630SOL    HW211790   6.733   2.367   3.677
 3631SOL     OW11791   1.994   6.557   2.380
 3631SOL    HW111792   2.037   6.493   2.444
 3631SOL    HW211793   2.022   6.650   2.402
 3632SOL     OW11794   4.804   4.039   0.994
 3632SOL    HW111795   4.723   3.994   0.957
 3632SOL    HW211796   4.788   4.137   1.002
 3633SOL     OW11797   3.636   3.132   6.425
 3633SOL    HW111798   3.616   3.035   6.412
 3633SOL    HW211799   3.555   3.186   6.404
 3634SOL     OW11800   3.193   5.311   6.635
 3634SOL    HW111801   3.120   5.249   6.664
 3634SOL    HW211802   3.206   5.381   6.705
 3635SOL     OW11803   2.489   0.000   1.244
 3635SOL    HW111804   2.454   0.068   1.180
 3635SOL    HW211805   2.432   7.019   1.326
 3636SOL     OW11806   1.146   4.808   0.055
 3636SOL    HW111807   1.203   4.794   0.136
 3636SOL    HW211808   1.170   4.740   7.007
 3637SOL     OW11809   6.680   3.030   6.774
 3637SOL    HW111810   6.774   3.036   6.810
 3637SOL    HW211811   6.629   2.963   6.827
 3638SOL     OW11812   5.974   4.818   2.777
 3638SOL    HW111813   5.921   4.820   2.862
 3638SOL    HW211814   5.950   4.737   2.725
 3639SOL     OW11815   3.884   3.655   4.251
 3639SOL    HW111816   3.972   3.646   4.203
 3639SOL    HW211817   3.848   3.747   4.237
 3640SOL     OW11818   5.221   2.371   0.750
 3640SOL    HW111819   5.170   2.455   0.735
 3640SOL    HW211820   5.172   2.295   0.706
 3641SOL     OW11821   5.918   3.351   2.185
 3641SOL    HW111822   5.933   3.426   2.249
 3641SOL    HW211823   5.845   3.375   2.121
 3642SOL     OW11824   6.122   2.982   6.188
 3642SOL    HW111825   6.135   2.948   6.095
 3642SOL    HW211826   6.073   3.069   6.185
 3643SOL     OW11827   4.073   5.452   5.578
 3643SOL    HW111828   4.146   5.497   5.629
 3643SOL    HW211829   3.989   5.455   5.631
 3644SOL     OW11830   2.693   0.902   1.645
 3644SOL    HW111831   2.747   0.832   1.599
 3644SOL    HW211832   2.690   0.883   1.743
 3645SOL     OW11833   1.406   4.578   3.433
 3645SOL    HW111834   1.416   4.566   3.532
 3645SOL    HW211835   1.492   4.611   3.394
 3646SOL     OW11836   2.281   4.456   4.631
 3646SOL    HW111837   2.259   4.369   4.674
 3646SOL    HW211838   2.306   4.441   4.536
 3647SOL     OW11839   3.317   6.671   6.808
 3647SOL    HW111840   3.337   6.644   6.714
 3647SOL    HW211841   3.313   6.771   6.814
 3648SOL     OW11842   4.325   5.557   3.296
 3648SOL    HW111843   4.284   5.629   3.239
 3648SOL    HW211844   4.422   5.576   3.307
 3649SOL     OW11845   5.873   2.848   0.079
 3649SOL    HW111846   5.898   2.757   0.046
 3649SOL    HW211847   5.776   2.848   0.103
 3650SOL     OW11848   5.435   5.553   6.998
 3650SOL    HW111849   5.453   5.484   0.047
 3650SOL    HW211850   5.341   5.545   6.966
 3651SOL     OW11851   1.157   1.839   5.678
 3651SOL    HW111852   1.170   1.929   5.720
 3651SOL    HW211853   1.173   1.768   5.746
 3652SOL     OW11854   4.304   1.350   2.230
 3652SOL    HW111855   4.363   1.272   2.211
 3652SOL    HW211856   4.228   1.351   2.165
 3653SOL     OW11857   0.741   1.410   1.042
 3653SOL    HW111858   0.722   1.439   0.948
 3653SOL    HW211859   0.656   1.404   1.093
 3654SOL     OW11860   5.405   0.324   0.711
 3654SOL    HW111861   5.305   0.320   0.719
 3654SOL    HW211862   5.434   0.419   0.711
 3655SOL     OW11863   1.722   2.219   4.339
 3655SOL    HW111864   1.760   2.266   4.419
 3655SOL    HW211865   1.797   2.185   4.282
 3656SOL     OW11866   6.777   6.928   1.692
 3656SOL    HW111867   6.747   6.832   1.697
 3656SOL    HW211868   6.785   6.965   1.784
 3657SOL     OW11869   4.990   5.905   5.061
 3657SOL    HW111870   5.002   5.896   4.963
 3657SOL    HW211871   5.041   5.832   5.108
 3658SOL     OW11872   1.777   4.657   5.960
 3658SOL    HW111873   1.733   4.652   6.050
 3658SOL    HW211874   1.743   4.737   5.911
 3659SOL     OW11875   6.712   1.951   6.205
 3659SOL    HW111876   6.654   1.875   6.235
 3659SOL    HW211877   6.678   1.987   6.119
 3660SOL     OW11878   5.878   5.476   6.601
 3660SOL    HW111879   5.824   5.414   6.543
 3660SOL    HW211880   5.826   5.560   6.617
 3661SOL     OW11881   0.353   2.376   4.980
 3661SOL    HW111882   0.336   2.363   5.077
 3661SOL    HW211883   0.280   2.431   4.940
 3662SOL     OW11884   2.697   1.664   5.766
 3662SOL    HW111885   2.692   1.742   5.703
 3662SOL    HW211886   2.606   1.646   5.805
 3663SOL     OW11887   2.734   2.251   6.930
 3663SOL    HW111888   2.657   2.267   6.991
 3663SOL    HW211889   2.814   2.301   6.964
 3664SOL     OW11890   3.910   1.366   2.033
 3664SOL    HW111891   3.825   1.314   2.036
 3664SOL    HW211892   3.911   1.432   2.109
 3665SOL     OW11893   1.096   5.734   5.770
 3665SOL    HW111894   1.069   5.655   5.826
 3665SOL    HW211895   1.019   5.795   5.758
 3666SOL     OW11896   2.175   2.484   4.601
 3666SOL    HW111897   2.164   2.569   4.652
 3666SOL    HW211898   2.272   2.471   4.579
 3667SOL     OW11899   1.881   0.352   1.636
 3667SOL    HW111900   1.876   0.359   1.536
 3667SOL    HW211901   1.869   0.256   1.663
 3668SOL     OW11902   0.559   1.067   1.698
 3668SOL    HW111903   0.507   1.078   1.783
 3668SOL    HW211904   0.634   1.133   1.696
 3669SOL     OW11905   0.623   1.291   3.593
 3669SOL    HW111906   0.557   1.273   3.666
 3669SOL    HW211907   0.595   1.243   3.510
 3670SOL     OW11908   3.196   5.629   1.972
 3670SOL    HW111909   3.133   5.703   1.995
 3670SOL    HW211910   3.188   5.557   2.041
 3671SOL     OW11911   6.243   0.396   3.931
 3671SOL    HW111912   6.224   0.414   3.835
 3671SOL    HW211913   6.253   0.298   3.945
 3672SOL     OW11914   4.020   6.775   2.731
 3672SOL    HW111915   3.948   6.802   2.795
 3672SOL    HW211916   4.003   6.816   2.642
 3673SOL     OW11917   3.730   6.004   1.246
 3673SOL    HW111918   3.630   5.996   1.243
 3673SOL    HW211919   3.756   6.082   1.302
 3674SOL     OW11920   1.227   4.563   6.228
 3674SOL    HW111921   1.280   4.547   6.311
 3674SOL    HW211922   1.289   4.587   6.153
 3675SOL     OW11923   1.305   0.704   4.208
 3675SOL    HW111924   1.263   0.751   4.130
 3675SOL    HW211925   1.321   0.770   4.281
 3676SOL     OW11926   4.028   1.865   3.987
 3676SOL    HW111927   4.036   1.900   3.893
 3676SOL    HW211928   4.102   1.903   4.043
 3677SOL     OW11929   2.455   0.698   3.924
 3677SOL    HW111930   2.468   0.603   3.895
 3677SOL    HW211931   2.519   0.720   3.997
 3678SOL     OW11932   1.024   0.794   3.708
 3678SOL    HW111933   1.101   0.763   3.763
 3678SOL    HW211934   1.056   0.818   3.616
 3679SOL     OW11935   4.272   0.775   2.431
 3679SOL    HW111936   4.236   0.700   2.375
 3679SOL    HW211937   4.247   0.758   2.527
 3680SOL     OW11938   3.660   1.166   4.551
 3680SOL    HW111939   3.690   1.202   4.463
 3680SOL    HW211940   3.564   1.137   4.544
 3681SOL     OW11941   1.985   6.369   4.885
 3681SOL    HW111942   2.039   6.292   4.920
 3681SOL    HW211943   1.918   6.335   4.819
 3682SOL     OW11944   5.281   1.517   1.837
 3682SOL    HW111945   5.224   1.571   1.900
 3682SOL    HW211946   5.241   1.521   1.745
 3683SOL     OW11947   5.801   1.451   5.797
 3683SOL    HW111948   5.722   1.486   5.846
 3683SOL    HW211949   5.857   1.395   5.858
 3684SOL     OW11950   2.083   6.686   5.731
 3684SOL    HW111951   2.105   6.630   5.651
 3684SOL    HW211952   2.148   6.761   5.738
 3685SOL     OW11953   2.180   6.272   5.659
 3685SOL    HW111954   2.096   6.309   5.621
 3685SOL    HW211955   2.253   6.276   5.591
 3686SOL     OW11956   0.661   3.878   3.160
 3686SOL    HW111957   0.582   3.858   3.218
 3686SOL    HW211958   0.704   3.792   3.133
 3687SOL     OW11959   5.538   5.635   4.261
 3687SOL    HW111960   5.456   5.618   4.316
 3687SOL    HW211961   5.538   5.731   4.232
 3688SOL     OW11962   6.067   2.371   0.599
 3688SOL    HW111963   6.012   2.450   0.576
 3688SOL    HW211964   6.042   2.338   0.690
 3689SOL     OW11965   1.626   6.577   5.710
 3689SOL    HW111966   1.695   6.636   5.752
 3689SOL    HW211967   1.540   6.627   5.702
 3690SOL     OW11968   4.965   5.452   1.518
 3690SOL    HW111969   4.921   5.494   1.439
 3690SOL    HW211970   5.060   5.430   1.496
 3691SOL     OW11971   1.705   2.673   0.773
 3691SOL    HW111972   1.801   2.690   0.754
 3691SOL    HW211973   1.648   2.736   0.720
 3692SOL     OW11974   0.858   3.523   5.795
 3692SOL    HW111975   0.902   3.502   5.883
 3692SOL    HW211976   0.908   3.597   5.750
 3693SOL     OW11977   6.657   0.877   2.199
 3693SOL    HW111978   6.584   0.941   2.223
 3693SOL    HW211979   6.625   0.783   2.212
 3694SOL     OW11980   6.627   0.402   2.506
 3694SOL    HW111981   6.531   0.409   2.481
 3694SOL    HW211982   6.652   0.306   2.517
 3695SOL     OW11983   5.778   3.206   2.921
 3695SOL    HW111984   5.748   3.181   2.829
 3695SOL    HW211985   5.837   3.134   2.958
 3696SOL     OW11986   4.416   0.721   4.790
 3696SOL    HW111987   4.496   0.719   4.729
 3696SOL    HW211988   4.435   0.782   4.866
 3697SOL     OW11989   0.415   6.279   2.845
 3697SOL    HW111990   0.437   6.256   2.940
 3697SOL    HW211991   0.321   6.250   2.825
 3698SOL     OW11992   1.673   0.406   3.083
 3698SOL    HW111993   1.618   0.328   3.052
 3698SOL    HW211994   1.657   0.421   3.181
 3699SOL     OW11995   2.558   2.585   3.706
 3699SOL    HW111996   2.643   2.631   3.680
 3699SOL    HW211997   2.577   2.488   3.723
 3700SOL     OW11998   1.043   4.827   4.143
 3700SOL    HW111999   0.977   4.818   4.068
 3700SOL    HW212000   0.996   4.813   4.230
 3701SOL     OW12001   1.490   0.413   2.197
 3701SOL    HW112002   1.423   0.347   2.164
 3701SOL    HW212003   1.490   0.413   2.297
 3702SOL     OW12004   5.272   4.409   3.192
 3702SOL    HW112005   5.185   4.369   3.219
 3702SOL    HW212006   5.314   4.454   3.271
 3703SOL     OW12007   1.107   1.369   4.349
 3703SOL    HW112008   1.114   1.459   4.306
 3703SOL    HW212009   1.146   1.373   4.441
 3704SOL     OW12010   6.383   2.267   0.805
 3704SOL    HW112011   6.416   2.328   0.733
 3704SOL    HW212012   6.300   2.306   0.846
 3705SOL     OW12013   4.909   4.821   2.769
 3705SOL    HW112014   4.915   4.869   2.682
 3705SOL    HW212015   4.849   4.872   2.831
 3706SOL     OW12016   0.079   3.759   0.272
 3706SOL    HW112017   0.026   3.756   0.187
 3706SOL    HW212018   0.173   3.786   0.252
 3707SOL     OW12019   1.277   4.886   3.538
 3707SOL    HW112020   1.190   4.877   3.488
 3707SOL    HW212021   1.291   4.805   3.594
 3708SOL     OW12022   2.941   6.746   0.741
 3708SOL    HW112023   2.997   6.819   0.781
 3708SOL    HW212024   2.846   6.774   0.740
 3709SOL     OW12025   1.748   1.290   2.091
 3709SOL    HW112026   1.683   1.215   2.105
 3709SOL    HW212027   1.701   1.377   2.105
 3710SOL     OW12028   0.468   4.586   5.122
 3710SOL    HW112029   0.537   4.613   5.189
 3710SOL    HW212030   0.432   4.667   5.077
 3711SOL     OW12031   1.409   5.709   4.495
 3711SOL    HW112032   1.485   5.768   4.471
 3711SOL    HW212033   1.440   5.614   4.498
 3712SOL     OW12034   1.954   5.289   4.282
 3712SOL    HW112035   1.894   5.211   4.264
 3712SOL    HW212036   1.953   5.309   4.380
 3713SOL     OW12037   5.590   0.205   4.212
 3713SOL    HW112038   5.559   0.232   4.120
 3713SOL    HW212039   5.652   0.128   4.205
 3714SOL     OW12040   0.569   4.500   0.699
 3714SOL    HW112041   0.651   4.520   0.751
 3714SOL    HW212042   0.542   4.581   0.646
 3715SOL     OW12043   5.394   5.465   3.646
 3715SOL    HW112044   5.443   5.404   3.584
 3715SOL    HW212045   5.358   5.543   3.595
 3716SOL     OW12046   5.053   5.854   4.206
 3716SOL    HW112047   5.090   5.762   4.194
 3716SOL    HW212048   5.025   5.891   4.118
 3717SOL     OW12049   4.328   1.157   0.913
 3717SOL    HW112050   4.361   1.068   0.946
 3717SOL    HW212051   4.404   1.205   0.870
 3718SOL     OW12052   6.815   0.236   5.789
 3718SOL    HW112053   6.862   0.303   5.732
 3718SOL    HW212054   6.782   0.161   5.731
 3719SOL     OW12055   3.491   4.113   0.343
 3719SOL    HW112056   3.533   4.204   0.342
 3719SOL    HW212057   3.424   4.108   0.268
 3720SOL     OW12058   0.378   2.913   1.384
 3720SOL    HW112059   0.442   2.964   1.441
 3720SOL    HW212060   0.428   2.863   1.314
 3721SOL     OW12061   6.526   5.582   5.899
 3721SOL    HW112062   6.513   5.668   5.948
 3721SOL    HW212063   6.546   5.509   5.965
 3722SOL     OW12064   5.020   6.136   2.782
 3722SOL    HW112065   5.105   6.187   2.788
 3722SOL    HW212066   4.980   6.126   2.873
 3723SOL     OW12067   4.622   3.576   0.263
 3723SOL    HW112068   4.632   3.478   0.244
 3723SOL    HW212069   4.553   3.614   0.202
 3724SOL     OW12070   1.120   4.766   4.749
 3724SOL    HW112071   1.060   4.759   4.829
 3724SOL    HW212072   1.125   4.862   4.720
 3725SOL     OW12073   0.810   5.606   0.030
 3725SOL    HW112074   0.807   5.510   0.057
 3725SOL    HW212075   0.740   5.656   0.081
 3726SOL     OW12076   6.245   4.042   4.833
 3726SOL    HW112077   6.230   4.013   4.928
 3726SOL    HW212078   6.157   4.046   4.786
 3727SOL     OW12079   6.449   3.798   3.883
 3727SOL    HW112080   6.452   3.896   3.863
 3727SOL    HW212081   6.483   3.781   3.975
 3728SOL     OW12082   3.479   2.456   0.035
 3728SOL    HW112083   3.411   2.388   0.064
 3728SOL    HW212084   3.571   2.419   0.048
 3729SOL     OW12085   0.663   0.511   5.328
 3729SOL    HW112086   0.722   0.569   5.272
 3729SOL    HW212087   0.704   0.420   5.336
 3730SOL     OW12088   4.026   5.658   4.012
 3730SOL    HW112089   4.002   5.724   4.083
 3730SOL    HW212090   3.973   5.677   3.929
 3731SOL     OW12091   0.300   2.026   6.818
 3731SOL    HW112092   0.308   2.039   6.719
 3731SOL    HW212093   0.229   2.086   6.854
 3732SOL     OW12094   3.233   2.092   6.397
 3732SOL    HW112095   3.311   2.091   6.459
 3732SOL    HW212096   3.170   2.019   6.421
 3733SOL     OW12097   2.059   1.105   3.994
 3733SOL    HW112098   2.063   1.012   3.957
 3733SOL    HW212099   2.071   1.102   4.094
 3734SOL     OW12100   3.949   6.462   0.905
 3734SOL    HW112101   4.011   6.391   0.939
 3734SOL    HW212102   4.003   6.542   0.877
 3735SOL     OW12103   3.897   6.894   2.506
 3735SOL    HW112104   3.862   6.833   2.435
 3735SOL    HW212105   3.842   6.977   2.509
 3736SOL     OW12106   6.711   0.875   1.053
 3736SOL    HW112107   6.690   0.971   1.033
 3736SOL    HW212108   6.650   0.841   1.124
 3737SOL     OW12109   6.907   2.680   3.039
 3737SOL    HW112110   6.902   2.613   2.966
 3737SOL    HW212111   6.980   2.746   3.018
 3738SOL     OW12112   6.878   6.869   1.351
 3738SOL    HW112113   6.858   6.963   1.380
 3738SOL    HW212114   6.868   6.862   1.252
 3739SOL     OW12115   3.084   3.909   0.637
 3739SOL    HW112116   3.066   3.871   0.727
 3739SOL    HW212117   3.118   3.838   0.576
 3740SOL     OW12118   5.190   5.523   6.342
 3740SOL    HW112119   5.143   5.435   6.347
 3740SOL    HW212120   5.132   5.589   6.295
 3741SOL     OW12121   5.438   3.412   0.295
 3741SOL    HW112122   5.426   3.512   0.294
 3741SOL    HW212123   5.431   3.379   0.389
 3742SOL     OW12124   3.461   5.508   0.064
 3742SOL    HW112125   3.526   5.581   0.084
 3742SOL    HW212126   3.508   5.434   0.016
 3743SOL     OW12127   4.064   3.434   1.539
 3743SOL    HW112128   4.014   3.379   1.607
 3743SOL    HW212129   4.114   3.506   1.586
 3744SOL     OW12130   0.566   7.002   2.251
 3744SOL    HW112131   0.657   0.003   2.285
 3744SOL    HW212132   0.554   0.023   2.161
 3745SOL     OW12133   4.917   3.777   2.180
 3745SOL    HW112134   4.986   3.714   2.144
 3745SOL    HW212135   4.839   3.724   2.214
 3746SOL     OW12136   6.070   0.727   4.627
 3746SOL    HW112137   6.099   0.776   4.709
 3746SOL    HW212138   5.970   0.729   4.621
 3747SOL     OW12139   3.534   6.878   5.536
 3747SOL    HW112140   3.582   6.804   5.584
 3747SOL    HW212141   3.563   6.966   5.574
 3748SOL     OW12142   4.887   1.658   2.829
 3748SOL    HW112143   4.915   1.707   2.746
 3748SOL    HW212144   4.848   1.722   2.894
 3749SOL     OW12145   6.976   6.365   2.356
 3749SOL    HW112146   6.931   6.310   2.286
 3749SOL    HW212147   6.907   6.411   2.412
 3750SOL     OW12148   5.965   4.240   0.661
 3750SOL    HW112149   5.948   4.338   0.677
 3750SOL    HW212150   6.064   4.225   0.656
 3751SOL     OW12151   1.893   3.750   2.106
 3751SOL    HW112152   1.843   3.672   2.068
 3751SOL    HW212153   1.975   3.717   2.153
 3752SOL     OW12154   0.678   6.384   6.819
 3752SOL    HW112155   0.617   6.341   6.752
 3752SOL    HW212156   0.708   6.473   6.784
 3753SOL     OW12157   6.584   6.808   4.631
 3753SOL    HW112158   6.603   6.798   4.533
 3753SOL    HW212159   6.610   6.724   4.678
 3754SOL     OW12160   6.614   6.839   1.344
 3754SOL    HW112161   6.592   6.761   1.285
 3754SOL    HW212162   6.713   6.843   1.358
 3755SOL     OW12163   5.212   3.577   3.118
 3755SOL    HW112164   5.241   3.486   3.150
 3755SOL    HW212165   5.151   3.566   3.040
 3756SOL     OW12166   3.178   0.482   0.191
 3756SOL    HW112167   3.213   0.392   0.163
 3756SOL    HW212168   3.245   0.526   0.251
 3757SOL     OW12169   2.900   5.450   6.673
 3757SOL    HW112170   2.979   5.511   6.674
 3757SOL    HW212171   2.875   5.426   6.767
 3758SOL     OW12172   1.883   1.501   4.469
 3758SOL    HW112173   1.968   1.529   4.514
 3758SOL    HW212174   1.858   1.568   4.400
 3759SOL     OW12175   4.842   4.506   6.261
 3759SOL    HW112176   4.841   4.605   6.250
 3759SOL    HW212177   4.936   4.475   6.275
 3760SOL     OW12178   1.553   2.690   5.061
 3760SOL    HW112179   1.609   2.767   5.034
 3760SOL    HW212180   1.602   2.605   5.043
 3761SOL     OW12181   0.134   6.436   4.342
 3761SOL    HW112182   0.123   6.481   4.431
 3761SOL    HW212183   0.099   6.342   4.347
 3762SOL     OW12184   0.040   4.036   0.006
 3762SOL    HW112185   6.983   3.986   0.045
 3762SOL    HW212186   0.090   4.082   0.079
 3763SOL     OW12187   6.797   3.482   6.312
 3763SOL    HW112188   6.757   3.552   6.372
 3763SOL    HW212189   6.734   3.405   6.304
 3764SOL     OW12190   2.279   6.838   3.485
 3764SOL    HW112191   2.201   6.779   3.465
 3764SOL    HW212192   2.335   6.798   3.558
 3765SOL     OW12193   5.815   0.728   4.579
 3765SOL    HW112194   5.796   0.751   4.483
 3765SOL    HW212195   5.742   0.764   4.636
 3766SOL     OW12196   1.423   0.626   5.107
 3766SOL    HW112197   1.496   0.605   5.171
 3766SOL    HW212198   1.410   0.550   5.044
 3767SOL     OW12199   1.137   4.990   0.785
 3767SOL    HW112200   1.091   4.960   0.870
 3767SOL    HW212201   1.213   5.050   0.808
 3768SOL     OW12202   4.415   6.492   0.426
 3768SOL    HW112203   4.387   6.573   0.376
 3768SOL    HW212204   4.508   6.504   0.461
 3769SOL     OW12205   4.392   6.435   5.413
 3769SOL    HW112206   4.434   6.359   5.364
 3769SOL    HW212207   4.450   6.516   5.405
 3770SOL     OW12208   1.713   2.156   6.926
 3770SOL    HW112209   1.776   2.150   6.848
 3770SOL    HW212210   1.622   2.178   6.893
 3771SOL     OW12211   5.310   2.264   6.057
 3771SOL    HW112212   5.339   2.216   5.975
 3771SOL    HW212213   5.390   2.298   6.106
 3772SOL     OW12214   5.138   1.247   2.318
 3772SOL    HW112215   5.050   1.292   2.305
 3772SOL    HW212216   5.166   1.202   2.233
 3773SOL     OW12217   6.775   2.764   6.627
 3773SOL    HW112218   6.829   2.848   6.627
 3773SOL    HW212219   6.832   2.687   6.597
 3774SOL     OW12220   0.434   0.955   1.448
 3774SOL    HW112221   0.346   0.982   1.410
 3774SOL    HW212222   0.456   1.013   1.526
 3775SOL     OW12223   5.473   3.990   3.843
 3775SOL    HW112224   5.481   3.940   3.756
 3775SOL    HW212225   5.433   3.930   3.912
 3776SOL     OW12226   2.356   3.367   0.795
 3776SOL    HW112227   2.376   3.433   0.723
 3776SOL    HW212228   2.260   3.340   0.789
 3777SOL     OW12229   2.072   4.628   3.832
 3777SOL    HW112230   2.064   4.710   3.776
 3777SOL    HW212231   2.141   4.643   3.903
 3778SOL     OW12232   2.715   5.546   2.021
 3778SOL    HW112233   2.760   5.633   2.043
 3778SOL    HW212234   2.632   5.564   1.968
 3779SOL     OW12235   2.815   5.116   6.444
 3779SOL    HW112236   2.851   5.103   6.537
 3779SOL    HW212237   2.829   5.211   6.416
 3780SOL     OW12238   3.317   6.632   4.962
 3780SOL    HW112239   3.295   6.729   4.971
 3780SOL    HW212240   3.256   6.578   5.020
 3781SOL     OW12241   2.837   5.626   5.033
 3781SOL    HW112242   2.789   5.543   5.061
 3781SOL    HW212243   2.852   5.624   4.934
 3782SOL     OW12244   2.478   1.544   3.649
 3782SOL    HW112245   2.403   1.595   3.606
 3782SOL    HW212246   2.500   1.584   3.738
 3783SOL     OW12247   5.302   6.138   5.469
 3783SOL    HW112248   5.261   6.142   5.560
 3783SOL    HW212249   5.387   6.191   5.468
 3784SOL     OW12250   5.595   1.622   3.354
 3784SOL    HW112251   5.597   1.682   3.434
 3784SOL    HW212252   5.678   1.565   3.353
 3785SOL     OW12253   2.047   1.614   1.383
 3785SOL    HW112254   2.017   1.569   1.467
 3785SOL    HW212255   2.071   1.709   1.402
 3786SOL     OW12256   3.081   5.619   3.314
 3786SOL    HW112257   3.179   5.621   3.331
 3786SOL    HW212258   3.037   5.554   3.376
 3787SOL     OW12259   3.900   1.357   3.995
 3787SOL    HW112260   3.902   1.288   4.068
 3787SOL    HW212261   3.865   1.443   4.033
 3788SOL     OW12262   5.362   3.124   2.399
 3788SOL    HW112263   5.392   3.138   2.493
 3788SOL    HW212264   5.442   3.108   2.340
 3789SOL     OW12265   1.474   5.051   3.428
 3789SOL    HW112266   1.409   4.988   3.470
 3789SOL    HW212267   1.538   4.999   3.371
 3790SOL     OW12268   1.825   3.181   3.630
 3790SOL    HW112269   1.794   3.245   3.560
 3790SOL    HW212270   1.901   3.221   3.680
 3791SOL     OW12271   4.424   0.059   1.671
 3791SOL    HW112272   4.475   7.003   1.632
 3791SOL    HW212273   4.329   0.056   1.640
 3792SOL     OW12274   6.823   6.361   5.366
 3792SOL    HW112275   6.838   6.393   5.459
 3792SOL    HW212276   6.848   6.264   5.359
 3793SOL     OW12277   1.878   0.703   2.593
 3793SOL    HW112278   1.830   0.618   2.569
 3793SOL    HW212279   1.908   0.699   2.688
 3794SOL     OW12280   4.702   6.414   1.783
 3794SOL    HW112281   4.651   6.334   1.752
 3794SOL    HW212282   4.754   6.391   1.866
 3795SOL     OW12283   5.682   6.933   6.258
 3795SOL    HW112284   5.742   6.878   6.317
 3795SOL    HW212285   5.648   6.877   6.183
 3796SOL     OW12286   1.388   3.094   2.220
 3796SOL    HW112287   1.457   3.072   2.290
 3796SOL    HW212288   1.431   3.150   2.149
 3797SOL     OW12289   0.401   5.107   3.091
 3797SOL    HW112290   0.409   5.084   2.994
 3797SOL    HW212291   0.379   5.025   3.143
 3798SOL     OW12292   1.747   4.832   2.103
 3798SOL    HW112293   1.653   4.812   2.130
 3798SOL    HW212294   1.759   4.814   2.005
 3799SOL     OW12295   2.297   0.087   5.889
 3799SOL    HW112296   2.276   0.007   5.832
 3799SOL    HW212297   2.380   0.131   5.854
 3800SOL     OW12298   4.529   2.410   4.584
 3800SOL    HW112299   4.612   2.369   4.547
 3800SOL    HW212300   4.532   2.407   4.684
 3801SOL     OW12301   0.208   6.858   5.776
 3801SOL    HW112302   0.113   6.824   5.776
 3801SOL    HW212303   0.207   6.956   5.792
 3802SOL     OW12304   1.806   1.766   5.501
 3802SOL    HW112305   1.789   1.834   5.429
 3802SOL    HW212306   1.797   1.809   5.591
 3803SOL     OW12307   3.534   0.968   1.265
 3803SOL    HW112308   3.580   0.907   1.330
 3803SOL    HW212309   3.444   0.931   1.242
 3804SOL     OW12310   4.655   2.032   4.308
 3804SOL    HW112311   4.642   1.990   4.218
 3804SOL    HW212312   4.717   1.976   4.363
 3805SOL     OW12313   2.762   4.324   1.596
 3805SOL    HW112314   2.824   4.372   1.659
 3805SOL    HW212315   2.690   4.387   1.567
 3806SOL     OW12316   2.543   1.625   0.104
 3806SOL    HW112317   2.448   1.620   0.136
 3806SOL    HW212318   2.552   1.572   0.020
 3807SOL     OW12319   1.588   6.549   3.749
 3807SOL    HW112320   1.658   6.621   3.758
 3807SOL    HW212321   1.516   6.581   3.687
 3808SOL     OW12322   2.930   0.055   1.563
 3808SOL    HW112323   2.852   0.065   1.501
 3808SOL    HW212324   2.929   0.129   1.630
 3809SOL     OW12325   5.179   1.094   6.774
 3809SOL    HW112326   5.236   1.020   6.739
 3809SOL    HW212327   5.233   1.178   6.780
 3810SOL     OW12328   2.988   3.100   5.227
 3810SOL    HW112329   3.011   3.195   5.247
 3810SOL    HW212330   3.039   3.070   5.146
 3811SOL     OW12331   0.725   5.469   5.150
 3811SOL    HW112332   0.708   5.561   5.185
 3811SOL    HW212333   0.639   5.429   5.117
 3812SOL     OW12334   5.437   1.581   5.297
 3812SOL    HW112335   5.373   1.638   5.246
 3812SOL    HW212336   5.473   1.633   5.375
 3813SOL     OW12337   3.334   5.249   1.208
 3813SOL    HW112338   3.429   5.238   1.180
 3813SOL    HW212339   3.287   5.161   1.202
 3814SOL     OW12340   0.252   6.308   2.382
 3814SOL    HW112341   0.285   6.339   2.471
 3814SOL    HW212342   0.322   6.324   2.313
 3815SOL     OW12343   5.193   2.257   1.423
 3815SOL    HW112344   5.227   2.318   1.495
 3815SOL    HW212345   5.222   2.291   1.334
 3816SOL     OW12346   1.433   6.832   1.029
 3816SOL    HW112347   1.498   6.760   1.057
 3816SOL    HW212348   1.466   6.875   0.945
 3817SOL     OW12349   5.312   2.398   5.389
 3817SOL    HW112350   5.368   2.315   5.391
 3817SOL    HW212351   5.295   2.425   5.294
 3818SOL     OW12352   4.713   5.236   1.778
 3818SOL    HW112353   4.780   5.240   1.704
 3818SOL    HW212354   4.734   5.160   1.839
 3819SOL     OW12355   5.294   4.620   0.239
 3819SOL    HW112356   5.317   4.557   0.313
 3819SOL    HW212357   5.378   4.662   0.203
 3820SOL     OW12358   4.999   6.669   4.164
 3820SOL    HW112359   5.012   6.768   4.156
 3820SOL    HW212360   5.073   6.621   4.116
 3821SOL     OW12361   0.979   4.040   2.102
 3821SOL    HW112362   0.978   3.988   2.188
 3821SOL    HW212363   1.064   4.020   2.052
 3822SOL     OW12364   2.819   5.610   1.485
 3822SOL    HW112365   2.752   5.663   1.538
 3822SOL    HW212366   2.841   5.526   1.534
 3823SOL     OW12367   3.671   2.768   5.708
 3823SOL    HW112368   3.653   2.744   5.613
 3823SOL    HW212369   3.674   2.867   5.718
 3824SOL     OW12370   0.049   2.294   6.345
 3824SOL    HW112371   6.987   2.317   6.295
 3824SOL    HW212372   0.100   2.378   6.365
 3825SOL     OW12373   6.796   6.715   6.353
 3825SOL    HW112374   6.814   6.795   6.296
 3825SOL    HW212375   6.709   6.673   6.325
 3826SOL     OW12376   6.823   2.812   1.749
 3826SOL    HW112377   6.761   2.817   1.671
 3826SOL    HW212378   6.916   2.833   1.718
 3827SOL     OW12379   4.294   3.292   0.901
 3827SOL    HW112380   4.241   3.259   0.979
 3827SOL    HW212381   4.335   3.380   0.924
 3828SOL     OW12382   4.506   1.137   2.708
 3828SOL    HW112383   4.408   1.122   2.695
 3828SOL    HW212384   4.520   1.198   2.786
 3829SOL     OW12385   2.235   5.019   3.607
 3829SOL    HW112386   2.170   5.016   3.683
 3829SOL    HW212387   2.324   5.048   3.642
 3830SOL     OW12388   2.821   0.925   5.351
 3830SOL    HW112389   2.860   0.947   5.440
 3830SOL    HW212390   2.721   0.925   5.358
 3831SOL     OW12391   3.982   1.369   2.374
 3831SOL    HW112392   3.939   1.316   2.301
 3831SOL    HW212393   3.945   1.462   2.373
 3832SOL     OW12394   7.010   0.758   2.359
 3832SOL    HW112395   6.983   0.671   2.400
 3832SOL    HW212396   0.051   0.806   2.422
 3833SOL     OW12397   1.459   4.612   0.224
 3833SOL    HW112398   1.457   4.595   0.322
 3833SOL    HW212399   1.366   4.629   0.191
 3834SOL     OW12400   2.483   1.866   0.004
 3834SOL    HW112401   2.474   1.796   0.075
 3834SOL    HW212402   2.562   1.845   6.967
 3835SOL     OW12403   3.717   5.472   5.596
 3835SOL    HW112404   3.780   5.439   5.666
 3835SOL    HW212405   3.768   5.523   5.527
 3836SOL     OW12406   1.094   3.454   6.245
 3836SOL    HW112407   1.074   3.516   6.168
 3836SOL    HW212408   1.019   3.456   6.310
 3837SOL     OW12409   3.499   2.853   0.547
 3837SOL    HW112410   3.439   2.902   0.484
 3837SOL    HW212411   3.480   2.755   0.543
 3838SOL     OW12412   6.222   3.239   5.583
 3838SOL    HW112413   6.196   3.329   5.549
 3838SOL    HW212414   6.190   3.168   5.520
 3839SOL     OW12415   6.446   6.490   5.956
 3839SOL    HW112416   6.544   6.497   5.975
 3839SOL    HW212417   6.394   6.499   6.041
 3840SOL     OW12418   1.608   0.880   4.213
 3840SOL    HW112419   1.571   0.968   4.183
 3840SOL    HW212420   1.548   0.841   4.282
 3841SOL     OW12421   0.397   3.681   4.819
 3841SOL    HW112422   0.311   3.645   4.782
 3841SOL    HW212423   0.449   3.726   4.747
 3842SOL     OW12424   0.685   5.469   6.784
 3842SOL    HW112425   0.723   5.536   6.847
 3842SOL    HW212426   0.591   5.448   6.811
 3843SOL     OW12427   5.640   3.036   0.956
 3843SOL    HW112428   5.542   3.048   0.938
 3843SOL    HW212429   5.662   3.071   1.047
 3844SOL     OW12430   2.320   5.046   6.127
 3844SOL    HW112431   2.302   5.144   6.127
 3844SOL    HW212432   2.249   4.999   6.075
 3845SOL     OW12433   3.732   3.981   3.771
 3845SOL    HW112434   3.671   3.939   3.839
 3845SOL    HW212435   3.727   4.080   3.778
 3846SOL     OW12436   6.888   4.565   3.702
 3846SOL    HW112437   6.948   4.495   3.664
 3846SOL    HW212438   6.911   4.654   3.662
 3847SOL     OW12439   0.480   0.232   0.449
 3847SOL    HW112440   0.386   0.231   0.414
 3847SOL    HW212441   0.530   0.155   0.410
 3848SOL     OW12442   2.783   5.256   0.604
 3848SOL    HW112443   2.754   5.334   0.550
 3848SOL    HW212444   2.883   5.249   0.601
 3849SOL     OW12445   1.504   2.230   5.856
 3849SOL    HW112446   1.486   2.327   5.869
 3849SOL    HW212447   1.499   2.183   5.945
 3850SOL     OW12448   2.854   3.879   1.741
 3850SOL    HW112449   2.909   3.827   1.807
 3850SOL    HW212450   2.888   3.973   1.737
 3851SOL     OW12451   2.636   2.597   1.501
 3851SOL    HW112452   2.691   2.623   1.580
 3851SOL    HW212453   2.567   2.668   1.484
 3852SOL     OW12454   3.505   0.628   4.964
 3852SOL    HW112455   3.407   0.642   4.976
 3852SOL    HW212456   3.526   0.614   4.868
 3853SOL     OW12457   1.522   3.004   1.865
 3853SOL    HW112458   1.609   2.957   1.877
 3853SOL    HW212459   1.498   3.006   1.767
 3854SOL     OW12460   1.409   3.146   3.970
 3854SOL    HW112461   1.460   3.140   3.884
 3854SOL    HW212462   1.471   3.171   4.044
 3855SOL     OW12463   0.076   2.011   5.324
 3855SOL    HW112464   0.130   2.032   5.406
 3855SOL    HW212465   6.999   2.018   5.347
 3856SOL     OW12466   0.732   6.364   5.758
 3856SOL    HW112467   0.795   6.428   5.712
 3856SOL    HW212468   0.688   6.411   5.835
 3857SOL     OW12469   0.477   6.767   5.857
 3857SOL    HW112470   0.523   6.814   5.782
 3857SOL    HW212471   0.380   6.794   5.859
 3858SOL     OW12472   2.195   5.624   0.296
 3858SOL    HW112473   2.216   5.558   0.367
 3858SOL    HW212474   2.185   5.715   0.336
 3859SOL     OW12475   7.001   2.437   2.037
 3859SOL    HW112476   0.039   2.468   1.962
 3859SOL    HW212477   6.985   2.512   2.100
 3860SOL     OW12478   2.424   6.258   5.501
 3860SOL    HW112479   2.440   6.334   5.438
 3860SOL    HW212480   2.438   6.171   5.452
 3861SOL     OW12481   4.457   4.527   0.670
 3861SOL    HW112482   4.389   4.453   0.676
 3861SOL    HW212483   4.453   4.568   0.579
 3862SOL     OW12484   1.521   5.480   6.093
 3862SOL    HW112485   1.547   5.470   6.189
 3862SOL    HW212486   1.574   5.415   6.038
 3863SOL     OW12487   3.113   2.982   1.274
 3863SOL    HW112488   3.039   2.917   1.256
 3863SOL    HW212489   3.174   2.986   1.195
 3864SOL     OW12490   3.902   1.639   6.978
 3864SOL    HW112491   3.989   1.663   6.936
 3864SOL    HW212492   3.830   1.696   6.940
 3865SOL     OW12493   4.479   0.406   2.666
 3865SOL    HW112494   4.522   0.315   2.664
 3865SOL    HW212495   4.424   0.415   2.748
 3866SOL     OW12496   3.877   6.245   6.422
 3866SOL    HW112497   3.877   6.331   6.372
 3866SOL    HW212498   3.929   6.255   6.507
 3867SOL     OW12499   1.818   2.913   3.756
 3867SOL    HW112500   1.885   2.976   3.716
 3867SOL    HW212501   1.861   2.826   3.776
 3868SOL     OW12502   1.640   5.736   2.584
 3868SOL    HW112503   1.567   5.667   2.582
 3868SOL    HW212504   1.641   5.780   2.673
 3869SOL     OW12505   1.247   2.469   3.586
 3869SOL    HW112506   1.163   2.446   3.635
 3869SOL    HW212507   1.325   2.421   3.627
 3870SOL     OW12508   3.211   4.545   0.473
 3870SOL    HW112509   3.269   4.569   0.395
 3870SOL    HW212510   3.132   4.493   0.441
 3871SOL     OW12511   2.531   1.305   4.349
 3871SOL    HW112512   2.534   1.303   4.249
 3871SOL    HW212513   2.473   1.230   4.382
 3872SOL     OW12514   4.319   3.575   0.315
 3872SOL    HW112515   4.224   3.575   0.285
 3872SOL    HW212516   4.359   3.485   0.300
 3873SOL     OW12517   5.077   4.449   2.114
 3873SOL    HW112518   5.028   4.488   2.036
 3873SOL    HW212519   5.173   4.437   2.090
 3874SOL     OW12520   4.404   6.412   5.909
 3874SOL    HW112521   4.387   6.443   5.816
 3874SOL    HW212522   4.498   6.376   5.915
 3875SOL     OW12523   2.231   4.081   0.787
 3875SOL    HW112524   2.296   4.020   0.742
 3875SOL    HW212525   2.143   4.076   0.740
 3876SOL     OW12526   5.175   3.830   2.695
 3876SOL    HW112527   5.266   3.815   2.733
 3876SOL    HW212528   5.107   3.787   2.754
 3877SOL     OW12529   5.345   0.818   2.506
 3877SOL    HW112530   5.415   0.889   2.520
 3877SOL    HW212531   5.282   0.846   2.434
 3878SOL     OW12532   3.815   5.962   4.924
 3878SOL    HW112533   3.839   6.030   4.993
 3878SOL    HW212534   3.728   5.987   4.882
 3879SOL     OW12535   3.171   5.946   1.118
 3879SOL    HW112536   3.189   5.942   1.019
 3879SOL    HW212537   3.229   5.879   1.164
 3880SOL     OW12538   5.682   2.498   3.884
 3880SOL    HW112539   5.767   2.463   3.845
 3880SOL    HW212540   5.701   2.579   3.939
 3881SOL     OW12541   0.410   5.086   0.658
 3881SOL    HW112542   0.364   5.170   0.687
 3881SOL    HW212543   0.399   5.016   0.728
 3882SOL     OW12544   0.281   0.023   6.669
 3882SOL    HW112545   0.210   0.033   6.599
 3882SOL    HW212546   0.337   6.963   6.648
 3883SOL     OW12547   3.171   1.145   5.975
 3883SOL    HW112548   3.253   1.180   5.929
 3883SOL    HW212549   3.193   1.125   6.071
 3884SOL     OW12550   1.190   4.792   5.584
 3884SOL    HW112551   1.225   4.739   5.661
 3884SOL    HW212552   1.266   4.842   5.541
 3885SOL     OW12553   0.543   2.085   5.168
 3885SOL    HW112554   0.493   2.060   5.085
 3885SOL    HW212555   0.500   2.165   5.210
 3886SOL     OW12556   6.788   5.682   4.647
 3886SOL    HW112557   6.786   5.782   4.652
 3886SOL    HW212558   6.827   5.645   4.731
 3887SOL     OW12559   5.237   2.950   5.187
 3887SOL    HW112560   5.205   2.940   5.093
 3887SOL    HW212561   5.336   2.934   5.190
 3888SOL     OW12562   5.496   1.922   1.819
 3888SOL    HW112563   5.497   1.930   1.919
 3888SOL    HW212564   5.542   2.001   1.780
 3889SOL     OW12565   0.282   5.313   0.196
 3889SOL    HW112566   0.329   5.245   0.140
 3889SOL    HW212567   0.286   5.402   0.150
 3890SOL     OW12568   6.527   3.595   1.467
 3890SOL    HW112569   6.590   3.632   1.536
 3890SOL    HW212570   6.446   3.558   1.513
 3891SOL     OW12571   5.608   5.248   5.970
 3891SOL    HW112572   5.668   5.178   6.010
 3891SOL    HW212573   5.656   5.335   5.968
 3892SOL     OW12574   5.255   6.283   3.995
 3892SOL    HW112575   5.225   6.379   4.000
 3892SOL    HW212576   5.314   6.271   3.915
 3893SOL     OW12577   2.822   6.288   4.111
 3893SOL    HW112578   2.910   6.286   4.159
 3893SOL    HW212579   2.838   6.300   4.013
 3894SOL     OW12580   5.456   5.500   6.319
 3894SOL    HW112581   5.483   5.533   6.410
 3894SOL    HW212582   5.359   5.477   6.320
 3895SOL     OW12583   1.708   1.714   6.178
 3895SOL    HW112584   1.791   1.681   6.223
 3895SOL    HW212585   1.731   1.746   6.086
 3896SOL     OW12586   6.996   2.525   5.699
 3896SOL    HW112587   0.055   2.494   5.649
 3896SOL    HW212588   0.003   2.571   5.782
 3897SOL     OW12589   3.173   6.892   2.758
 3897SOL    HW112590   3.237   6.953   2.711
 3897SOL    HW212591   3.202   6.880   2.853
 3898SOL     OW12592   3.750   4.128   4.808
 3898SOL    HW112593   3.689   4.156   4.883
 3898SOL    HW212594   3.706   4.148   4.720
 3899SOL     OW12595   5.343   1.808   5.163
 3899SOL    HW112596   5.407   1.883   5.181
 3899SOL    HW212597   5.264   1.844   5.113
 3900SOL     OW12598   6.753   2.645   4.320
 3900SOL    HW112599   6.688   2.594   4.264
 3900SOL    HW212600   6.830   2.586   4.344
 3901SOL     OW12601   2.571   5.498   4.688
 3901SOL    HW112602   2.570   5.598   4.699
 3901SOL    HW212603   2.553   5.455   4.776
 3902SOL     OW12604   3.763   4.973   1.950
 3902SOL    HW112605   3.700   4.896   1.948
 3902SOL    HW212606   3.725   5.046   2.007
 3903SOL     OW12607   4.425   2.434   6.449
 3903SOL    HW112608   4.345   2.440   6.389
 3903SOL    HW212609   4.486   2.363   6.414
 3904SOL     OW12610   2.122   5.699   0.984
 3904SOL    HW112611   2.208   5.737   1.019
 3904SOL    HW212612   2.138   5.608   0.946
 3905SOL     OW12613   0.448   0.417   6.076
 3905SOL    HW112614   0.375   0.415   6.144
 3905SOL    HW212615   0.410   0.439   5.986
 3906SOL     OW12616   0.788   6.125   4.951
 3906SOL    HW112617   0.886   6.140   4.944
 3906SOL    HW212618   0.740   6.207   4.917
 3907SOL     OW12619   1.040   1.268   4.989
 3907SOL    HW112620   1.084   1.182   5.016
 3907SOL    HW212621   1.012   1.317   5.071
 3908SOL     OW12622   2.345   0.943   4.529
 3908SOL    HW112623   2.374   0.921   4.436
 3908SOL    HW212624   2.393   0.882   4.593
 3909SOL     OW12625   4.892   2.838   1.415
 3909SOL    HW112626   4.956   2.869   1.344
 3909SOL    HW212627   4.914   2.744   1.440
 3910SOL     OW12628   3.613   2.188   1.120
 3910SOL    HW112629   3.521   2.149   1.120
 3910SOL    HW212630   3.673   2.134   1.060
 3911SOL     OW12631   6.818   0.785   1.554
 3911SOL    HW112632   6.818   0.719   1.480
 3911SOL    HW212633   6.803   0.877   1.517
 3912SOL     OW12634   3.979   3.339   6.886
 3912SOL    HW112635   3.919   3.291   6.950
 3912SOL    HW212636   4.071   3.346   6.925
 3913SOL     OW12637   4.201   5.602   1.692
 3913SOL    HW112638   4.165   5.684   1.737
 3913SOL    HW212639   4.254   5.629   1.612
 3914SOL     OW12640   6.684   1.940   6.762
 3914SOL    HW112641   6.782   1.931   6.744
 3914SOL    HW212642   6.671   1.979   6.853
 3915SOL     OW12643   5.421   6.797   5.197
 3915SOL    HW112644   5.430   6.888   5.155
 3915SOL    HW212645   5.497   6.740   5.167
 3916SOL     OW12646   1.889   1.973   2.593
 3916SOL    HW112647   1.954   1.922   2.537
 3916SOL    HW212648   1.937   2.023   2.665
 3917SOL     OW12649   3.842   4.842   1.403
 3917SOL    HW112650   3.878   4.820   1.494
 3917SOL    HW212651   3.744   4.856   1.408
 3918SOL     OW12652   4.680   0.522   6.779
 3918SOL    HW112653   4.732   0.540   6.695
 3918SOL    HW212654   4.586   0.497   6.754
 3919SOL     OW12655   4.201   6.191   2.689
 3919SOL    HW112656   4.282   6.148   2.648
 3919SOL    HW212657   4.230   6.267   2.748
 3920SOL     OW12658   3.171   1.721   5.495
 3920SOL    HW112659   3.149   1.773   5.412
 3920SOL    HW212660   3.090   1.715   5.553
 3921SOL     OW12661   1.022   2.655   6.576
 3921SOL    HW112662   1.090   2.595   6.534
 3921SOL    HW212663   1.055   2.749   6.573
 3922SOL     OW12664   4.884   4.520   2.843
 3922SOL    HW112665   4.798   4.506   2.793
 3922SOL    HW212666   4.930   4.601   2.809
 3923SOL     OW12667   5.005   1.412   1.695
 3923SOL    HW112668   5.001   1.378   1.789
 3923SOL    HW212669   5.019   1.511   1.696
 3924SOL     OW12670   5.221   5.270   3.990
 3924SOL    HW112671   5.189   5.332   3.919
 3924SOL    HW212672   5.229   5.178   3.952
 3925SOL     OW12673   5.239   5.202   0.977
 3925SOL    HW112674   5.234   5.115   1.025
 3925SOL    HW212675   5.209   5.190   0.882
 3926SOL     OW12676   0.914   5.395   4.595
 3926SOL    HW112677   0.869   5.484   4.600
 3926SOL    HW212678   1.003   5.406   4.549
 3927SOL     OW12679   6.037   1.763   5.539
 3927SOL    HW112680   5.979   1.697   5.491
 3927SOL    HW212681   6.059   1.729   5.630
 3928SOL     OW12682   3.620   5.763   2.227
 3928SOL    HW112683   3.705   5.744   2.277
 3928SOL    HW212684   3.615   5.860   2.206
 3929SOL     OW12685   0.920   1.328   5.679
 3929SOL    HW112686   0.894   1.400   5.614
 3929SOL    HW212687   1.017   1.338   5.702
 3930SOL     OW12688   1.447   4.467   3.823
 3930SOL    HW112689   1.491   4.534   3.882
 3930SOL    HW212690   1.496   4.380   3.829
 3931SOL     OW12691   1.246   2.551   0.331
 3931SOL    HW112692   1.272   2.550   0.427
 3931SOL    HW212693   1.273   2.638   0.289
 3932SOL     OW12694   2.446   4.389   3.440
 3932SOL    HW112695   2.438   4.487   3.460
 3932SOL    HW212696   2.455   4.376   3.341
 3933SOL     OW12697   1.829   6.304   1.230
 3933SOL    HW112698   1.788   6.215   1.212
 3933SOL    HW212699   1.817   6.327   1.327
 3934SOL     OW12700   1.612   6.610   1.161
 3934SOL    HW112701   1.619   6.538   1.093
 3934SOL    HW212702   1.688   6.674   1.150
 3935SOL     OW12703   0.323   3.982   5.214
 3935SOL    HW112704   0.412   3.997   5.170
 3935SOL    HW212705   0.309   3.884   5.228
 3936SOL     OW12706   0.138   3.945   4.745
 3936SOL    HW112707   0.218   3.976   4.796
 3936SOL    HW212708   0.156   3.855   4.704
 3937SOL     OW12709   0.409   5.928   1.314
 3937SOL    HW112710   0.387   5.963   1.405
 3937SOL    HW212711   0.347   5.853   1.290
 3938SOL     OW12712   0.678   3.238   1.035
 3938SOL    HW112713   0.752   3.206   1.094
 3938SOL    HW212714   0.608   3.167   1.028
 3939SOL     OW12715   0.754   0.389   3.326
 3939SOL    HW112716   0.826   0.434   3.273
 3939SOL    HW212717   0.792   0.309   3.372
 3940SOL     OW12718   3.066   6.011   6.950
 3940SOL    HW112719   3.008   6.093   6.956
 3940SOL    HW212720   3.039   5.946   7.021
 3941SOL     OW12721   4.936   5.929   2.239
 3941SOL    HW112722   4.851   5.969   2.274
 3941SOL    HW212723   4.960   5.974   2.153
 3942SOL     OW12724   0.022   5.804   5.868
 3942SOL    HW112725   6.995   5.722   5.900
 3942SOL    HW212726   7.000   5.885   5.908
 3943SOL     OW12727   2.255   3.197   0.278
 3943SOL    HW112728   2.210   3.108   0.271
 3943SOL    HW212729   2.350   3.190   0.249
 3944SOL     OW12730   4.556   2.926   6.751
 3944SOL    HW112731   4.572   2.837   6.794
 3944SOL    HW212732   4.613   2.995   6.797
 3945SOL     OW12733   5.868   0.305   4.025
 3945SOL    HW112734   5.770   0.312   4.040
 3945SOL    HW212735   5.916   0.323   4.111
 3946SOL     OW12736   6.956   4.134   0.583
 3946SOL    HW112737   0.020   4.186   0.577
 3946SOL    HW212738   6.921   4.137   0.677
 3947SOL     OW12739   5.715   6.017   1.913
 3947SOL    HW112740   5.672   6.010   2.003
 3947SOL    HW212741   5.691   6.105   1.871
 3948SOL     OW12742   1.655   2.793   5.482
 3948SOL    HW112743   1.657   2.697   5.452
 3948SOL    HW212744   1.561   2.820   5.501
 3949SOL     OW12745   6.237   0.442   2.081
 3949SOL    HW112746   6.219   0.436   1.983
 3949SOL    HW212747   6.173   0.508   2.121
 3950SOL     OW12748   3.078   4.370   1.635
 3950SOL    HW112749   3.045   4.394   1.544
 3950SOL    HW212750   3.015   4.406   1.704
 3951SOL     OW12751   0.717   2.587   5.058
 3951SOL    HW112752   0.698   2.501   5.011
 3951SOL    HW212753   0.699   2.664   4.997
 3952SOL     OW12754   5.772   4.006   0.391
 3952SOL    HW112755   5.791   4.102   0.371
 3952SOL    HW212756   5.722   3.965   0.315
 3953SOL     OW12757   3.221   3.795   6.655
 3953SOL    HW112758   3.277   3.737   6.714
 3953SOL    HW212759   3.138   3.746   6.628
 3954SOL     OW12760   1.127   3.379   5.206
 3954SOL    HW112761   1.124   3.456   5.142
 3954SOL    HW212762   1.094   3.297   5.160
 3955SOL     OW12763   6.420   3.938   0.702
 3955SOL    HW112764   6.433   3.984   0.789
 3955SOL    HW212765   6.322   3.927   0.683
 3956SOL     OW12766   6.822   2.925   5.480
 3956SOL    HW112767   6.859   2.887   5.565
 3956SOL    HW212768   6.761   3.002   5.502
 3957SOL     OW12769   0.765   1.766   2.692
 3957SOL    HW112770   0.727   1.747   2.783
 3957SOL    HW212771   0.752   1.862   2.671
 3958SOL     OW12772   5.670   0.256   6.952
 3958SOL    HW112773   5.639   0.270   6.858
 3958SOL    HW212774   5.627   0.323   7.012
 3959SOL     OW12775   2.259   6.076   1.120
 3959SOL    HW112776   2.335   6.016   1.145
 3959SOL    HW212777   2.256   6.153   1.183
 3960SOL     OW12778   5.424   3.550   0.815
 3960SOL    HW112779   5.462   3.606   0.888
 3960SOL    HW212780   5.334   3.585   0.790
 3961SOL     OW12781   5.726   0.443   1.302
 3961SOL    HW112782   5.809   0.483   1.264
 3961SOL    HW212783   5.715   0.350   1.267
 3962SOL     OW12784   0.501   6.317   5.594
 3962SOL    HW112785   0.501   6.401   5.541
 3962SOL    HW212786   0.586   6.311   5.647
 3963SOL     OW12787   4.458   4.852   2.952
 3963SOL    HW112788   4.396   4.782   2.917
 3963SOL    HW212789   4.429   4.880   3.043
 3964SOL     OW12790   5.988   6.064   6.615
 3964SOL    HW112791   6.087   6.071   6.630
 3964SOL    HW212792   5.965   5.970   6.588
 3965SOL     OW12793   3.502   3.308   0.840
 3965SOL    HW112794   3.545   3.280   0.925
 3965SOL    HW212795   3.548   3.391   0.805
 3966SOL     OW12796   6.498   3.926   5.186
 3966SOL    HW112797   6.555   3.927   5.103
 3966SOL    HW212798   6.488   3.832   5.218
 3967SOL     OW12799   1.883   6.833   6.960
 3967SOL    HW112800   1.819   6.908   6.980
 3967SOL    HW212801   1.866   6.757   0.002
 3968SOL     OW12802   4.595   1.394   1.298
 3968SOL    HW112803   4.529   1.452   1.250
 3968SOL    HW212804   4.549   1.313   1.334
 3969SOL     OW12805   0.572   6.260   1.511
 3969SOL    HW112806   0.587   6.358   1.500
 3969SOL    HW212807   0.627   6.227   1.589
 3970SOL     OW12808   4.824   3.785   4.241
 3970SOL    HW112809   4.897   3.736   4.194
 3970SOL    HW212810   4.835   3.774   4.340
 3971SOL     OW12811   0.737   5.894   3.804
 3971SOL    HW112812   0.643   5.925   3.822
 3971SOL    HW212813   0.799   5.972   3.810
 3972SOL     OW12814   0.944   0.216   6.724
 3972SOL    HW112815   0.848   0.204   6.749
 3972SOL    HW212816   0.977   0.134   6.678
 3973SOL     OW12817   3.155   3.077   3.933
 3973SOL    HW112818   3.143   3.175   3.949
 3973SOL    HW212819   3.196   3.035   4.014
 3974SOL     OW12820   5.570   0.478   6.602
 3974SOL    HW112821   5.610   0.432   6.523
 3974SOL    HW212822   5.482   0.519   6.576
 3975SOL     OW12823   6.910   6.025   5.167
 3975SOL    HW112824   6.928   5.928   5.182
 3975SOL    HW212825   6.864   6.063   5.248
 3976SOL     OW12826   0.745   3.113   6.978
 3976SOL    HW112827   0.838   3.141   6.953
 3976SOL    HW212828   0.684   3.191   6.969
 3977SOL     OW12829   3.542   5.417   5.258
 3977SOL    HW112830   3.553   5.359   5.339
 3977SOL    HW212831   3.445   5.432   5.241
 3978SOL     OW12832   6.411   4.249   6.342
 3978SOL    HW112833   6.504   4.215   6.341
 3978SOL    HW212834   6.347   4.174   6.360
 3979SOL     OW12835   0.868   6.810   3.333
 3979SOL    HW112836   0.777   6.812   3.375
 3979SOL    HW212837   0.906   6.718   3.339
 3980SOL     OW12838   4.883   3.531   4.675
 3980SOL    HW112839   4.905   3.435   4.660
 3980SOL    HW212840   4.855   3.544   4.770
 3981SOL     OW12841   6.644   1.698   5.332
 3981SOL    HW112842   6.577   1.655   5.391
 3981SOL    HW212843   6.715   1.742   5.387
 3982SOL     OW12844   2.390   2.796   4.029
 3982SOL    HW112845   2.432   2.734   4.096
 3982SOL    HW212846   2.363   2.881   4.075
 3983SOL     OW12847   3.264   0.322   3.622
 3983SOL    HW112848   3.268   0.244   3.685
 3983SOL    HW212849   3.201   0.300   3.547
 3984SOL     OW12850   1.770   6.791   1.749
 3984SOL    HW112851   1.865   6.761   1.746
 3984SOL    HW212852   1.758   6.856   1.824
 3985SOL     OW12853   1.756   3.308   1.766
 3985SOL    HW112854   1.707   3.247   1.703
 3985SOL    HW212855   1.816   3.368   1.714
 3986SOL     OW12856   1.624   2.144   1.898
 3986SOL    HW112857   1.576   2.161   1.812
 3986SOL    HW212858   1.719   2.117   1.878
 3987SOL     OW12859   1.424   4.282   5.401
 3987SOL    HW112860   1.442   4.261   5.497
 3987SOL    HW212861   1.441   4.201   5.345
 3988SOL     OW12862   5.084   0.697   0.136
 3988SOL    HW112863   5.008   0.645   0.174
 3988SOL    HW212864   5.146   0.725   0.209
 3989SOL     OW12865   4.576   0.930   6.155
 3989SOL    HW112866   4.501   0.995   6.146
 3989SOL    HW212867   4.616   0.938   6.247
 3990SOL     OW12868   0.934   2.472   4.282
 3990SOL    HW112869   0.917   2.474   4.183
 3990SOL    HW212870   0.966   2.562   4.312
 3991SOL     OW12871   0.613   1.442   3.908
 3991SOL    HW112872   0.540   1.387   3.868
 3991SOL    HW212873   0.597   1.539   3.890
 3992SOL     OW12874   6.015   3.894   6.482
 3992SOL    HW112875   5.961   3.911   6.399
 3992SOL    HW212876   6.040   3.797   6.486
 3993SOL     OW12877   1.450   0.422   4.532
 3993SOL    HW112878   1.480   0.328   4.552
 3993SOL    HW212879   1.475   0.481   4.608
 3994SOL     OW12880   2.697   1.958   2.687
 3994SOL    HW112881   2.671   2.052   2.664
 3994SOL    HW212882   2.633   1.921   2.754
 3995SOL     OW12883   1.195   3.474   2.578
 3995SOL    HW112884   1.138   3.394   2.598
 3995SOL    HW212885   1.288   3.458   2.611
 3996SOL     OW12886   5.617   6.543   4.073
 3996SOL    HW112887   5.559   6.624   4.070
 3996SOL    HW212888   5.567   6.468   4.116
 3997SOL     OW12889   4.893   3.518   2.456
 3997SOL    HW112890   4.965   3.588   2.448
 3997SOL    HW212891   4.861   3.514   2.551
 3998SOL     OW12892   5.224   2.424   3.133
 3998SOL    HW112893   5.312   2.471   3.136
 3998SOL    HW212894   5.178   2.446   3.048
 3999SOL     OW12895   4.489   2.794   1.271
 3999SOL    HW112896   4.440   2.850   1.204
 3999SOL    HW212897   4.511   2.850   1.351
 4000SOL     OW12898   2.705   4.954   2.492
 4000SOL    HW112899   2.681   4.989   2.401
 4000SOL    HW212900   2.623   4.916   2.536
 4001SOL     OW12901   1.308   4.889   4.097
 4001SOL    HW112902   1.311   4.973   4.042
 4001SOL    HW212903   1.214   4.856   4.101
 4002SOL     OW12904   3.522   4.189   3.721
 4002SOL    HW112905   3.433   4.149   3.701
 4002SOL    HW212906   3.561   4.228   3.638
 4003SOL     OW12907   1.904   0.759   5.274
 4003SOL    HW112908   1.843   0.727   5.346
 4003SOL    HW212909   1.995   0.722   5.288
 4004SOL     OW12910   0.685   3.306   4.079
 4004SOL    HW112911   0.747   3.267   4.148
 4004SOL    HW212912   0.697   3.257   3.992
 4005SOL     OW12913   5.193   3.325   0.240
 4005SOL    HW112914   5.182   3.227   0.227
 4005SOL    HW212915   5.289   3.347   0.255
 4006SOL     OW12916   5.823   5.277   2.563
 4006SOL    HW112917   5.900   5.319   2.515
 4006SOL    HW212918   5.743   5.337   2.556
 4007SOL     OW12919   0.034   0.379   2.726
 4007SOL    HW112920   0.114   0.439   2.734
 4007SOL    HW212921   6.971   0.433   2.728
 4008SOL     OW12922   2.963   0.837   0.910
 4008SOL    HW112923   2.872   0.879   0.917
 4008SOL    HW212924   2.966   0.779   0.829
 4009SOL     OW12925   4.908   2.143   0.942
 4009SOL    HW112926   4.961   2.063   0.969
 4009SOL    HW212927   4.940   2.223   0.993
 4010SOL     OW12928   2.348   5.099   1.621
 4010SOL    HW112929   2.311   5.074   1.711
 4010SOL    HW212930   2.374   5.016   1.572
 4011SOL     OW12931   5.138   6.373   6.410
 4011SOL    HW112932   5.174   6.465   6.392
 4011SOL    HW212933   5.170   6.342   6.500
 4012SOL     OW12934   4.863   6.956   2.599
 4012SOL    HW112935   4.789   6.892   2.619
 4012SOL    HW212936   4.930   6.913   2.539
 4013SOL     OW12937   6.962   0.947   5.702
 4013SOL    HW112938   6.878   0.900   5.674
 4013SOL    HW212939   6.966   1.036   5.657
 4014SOL     OW12940   2.894   4.945   2.722
 4014SOL    HW112941   2.836   4.956   2.642
 4014SOL    HW212942   2.950   5.027   2.734
 4015SOL     OW12943   4.073   4.638   5.909
 4015SOL    HW112944   4.052   4.729   5.872
 4015SOL    HW212945   4.153   4.600   5.862
 4016SOL     OW12946   4.699   4.884   5.193
 4016SOL    HW112947   4.701   4.786   5.172
 4016SOL    HW212948   4.732   4.898   5.286
 4017SOL     OW12949   0.910   4.889   5.630
 4017SOL    HW112950   1.008   4.871   5.641
 4017SOL    HW212951   0.858   4.806   5.652
 4018SOL     OW12952   4.019   5.894   1.273
 4018SOL    HW112953   4.074   5.961   1.323
 4018SOL    HW212954   3.946   5.942   1.223
 4019SOL     OW12955   5.392   3.776   2.832
 4019SOL    HW112956   5.451   3.697   2.844
 4019SOL    HW212957   5.377   3.821   2.920
 4020SOL     OW12958   0.192   5.461   4.469
 4020SOL    HW112959   0.182   5.370   4.509
 4020SOL    HW212960   0.265   5.510   4.516
 4021SOL     OW12961   4.418   3.694   6.438
 4021SOL    HW112962   4.516   3.710   6.432
 4021SOL    HW212963   4.384   3.661   6.350
 4022SOL     OW12964   2.233   0.197   1.550
 4022SOL    HW112965   2.191   0.235   1.633
 4022SOL    HW212966   2.249   0.271   1.485
 4023SOL     OW12967   0.520   1.144   4.377
 4023SOL    HW112968   0.555   1.206   4.446
 4023SOL    HW212969   0.566   1.163   4.289
 4024SOL     OW12970   0.875   6.237   4.591
 4024SOL    HW112971   0.912   6.228   4.498
 4024SOL    HW212972   0.946   6.215   4.658
 4025SOL     OW12973   0.094   5.659   3.471
 4025SOL    HW112974   0.018   5.608   3.510
 4025SOL    HW212975   0.150   5.599   3.414
 4026SOL     OW12976   0.220   0.542   4.044
 4026SOL    HW112977   0.306   0.572   4.084
 4026SOL    HW212978   0.214   0.442   4.049
 4027SOL     OW12979   3.287   4.295   5.972
 4027SOL    HW112980   3.217   4.225   5.955
 4027SOL    HW212981   3.270   4.341   6.059
 4028SOL     OW12982   4.755   1.577   3.543
 4028SOL    HW112983   4.733   1.666   3.583
 4028SOL    HW212984   4.825   1.588   3.472
 4029SOL     OW12985   1.542   6.213   6.739
 4029SOL    HW112986   1.453   6.170   6.755
 4029SOL    HW212987   1.529   6.298   6.688
 4030SOL     OW12988   0.192   1.214   2.669
 4030SOL    HW112989   0.139   1.246   2.747
 4030SOL    HW212990   0.172   1.271   2.589
 4031SOL     OW12991   6.110   6.081   0.466
 4031SOL    HW112992   6.207   6.107   0.469
 4031SOL    HW212993   6.095   6.019   0.388
 4032SOL     OW12994   5.303   0.955   2.241
 4032SOL    HW112995   5.313   0.856   2.243
 4032SOL    HW212996   5.215   0.978   2.199
 4033SOL     OW12997   2.234   2.411   2.768
 4033SOL    HW112998   2.321   2.414   2.719
 4033SOL    HW212999   2.241   2.467   2.850
 4034SOL     OW13000   0.167   3.197   5.560
 4034SOL    HW113001   0.093   3.222   5.497
 4034SOL    HW213002   0.239   3.266   5.556
 4035SOL     OW13003   4.372   1.829   1.732
 4035SOL    HW113004   4.301   1.757   1.734
 4035SOL    HW213005   4.449   1.800   1.788
 4036SOL     OW13006   2.867   5.636   2.782
 4036SOL    HW113007   2.958   5.622   2.820
 4036SOL    HW213008   2.857   5.732   2.753
 4037SOL     OW13009   2.756   1.958   5.893
 4037SOL    HW113010   2.724   1.901   5.969
 4037SOL    HW213011   2.683   1.966   5.825
 4038SOL     OW13012   3.448   3.701   6.072
 4038SOL    HW113013   3.366   3.655   6.037
 4038SOL    HW213014   3.523   3.688   6.007
 4039SOL     OW13015   5.771   5.125   1.794
 4039SOL    HW113016   5.710   5.051   1.766
 4039SOL    HW213017   5.800   5.110   1.889
 4040SOL     OW13018   3.218   6.283   5.039
 4040SOL    HW113019   3.229   6.294   4.940
 4040SOL    HW213020   3.180   6.367   5.077
 4041SOL     OW13021   2.548   6.462   0.605
 4041SOL    HW113022   2.460   6.475   0.651
 4041SOL    HW213023   2.621   6.461   0.673
 4042SOL     OW13024   6.483   0.858   2.997
 4042SOL    HW113025   6.431   0.774   3.013
 4042SOL    HW213026   6.525   0.855   2.906
 4043SOL     OW13027   5.744   3.480   6.658
 4043SOL    HW113028   5.842   3.480   6.674
 4043SOL    HW213029   5.704   3.563   6.698
 4044SOL     OW13030   4.779   5.131   3.236
 4044SOL    HW113031   4.878   5.124   3.224
 4044SOL    HW213032   4.748   5.220   3.202
 4045SOL     OW13033   5.067   0.717   5.523
 4045SOL    HW113034   5.025   0.794   5.570
 4045SOL    HW213035   5.162   0.739   5.501
 4046SOL     OW13036   6.108   1.778   2.433
 4046SOL    HW113037   6.187   1.776   2.494
 4046SOL    HW213038   6.039   1.714   2.467
 4047SOL     OW13039   2.561   3.539   0.069
 4047SOL    HW113040   2.657   3.533   0.045
 4047SOL    HW213041   2.507   3.479   0.010
 4048SOL     OW13042   4.398   1.881   2.430
 4048SOL    HW113043   4.395   1.888   2.331
 4048SOL    HW213044   4.427   1.788   2.456
 4049SOL     OW13045   3.968   4.612   6.868
 4049SOL    HW113046   3.974   4.662   6.955
 4049SOL    HW213047   3.872   4.598   6.844
 4050SOL     OW13048   0.656   5.720   2.266
 4050SOL    HW113049   0.737   5.765   2.304
 4050SOL    HW213050   0.603   5.678   2.339
 4051SOL     OW13051   5.355   1.111   4.927
 4051SOL    HW113052   5.437   1.080   4.880
 4051SOL    HW213053   5.337   1.207   4.905
 4052SOL     OW13054   6.212   2.234   3.342
 4052SOL    HW113055   6.181   2.311   3.287
 4052SOL    HW213056   6.134   2.173   3.361
 4053SOL     OW13057   1.836   5.042   4.223
 4053SOL    HW113058   1.736   5.049   4.221
 4053SOL    HW213059   1.863   4.959   4.273
 4054SOL     OW13060   4.052   3.986   0.850
 4054SOL    HW113061   4.047   3.932   0.934
 4054SOL    HW213062   4.103   3.934   0.781
 4055SOL     OW13063   0.599   4.556   1.432
 4055SOL    HW113064   0.558   4.584   1.518
 4055SOL    HW213065   0.592   4.457   1.423
 4056SOL     OW13066   5.350   3.686   0.457
 4056SOL    HW113067   5.302   3.605   0.489
 4056SOL    HW213068   5.343   3.692   0.357
 4057SOL     OW13069   6.953   3.688   0.020
 4057SOL    HW113070   6.907   3.775   0.003
 4057SOL    HW213071   6.891   3.613   7.019
 4058SOL     OW13072   3.173   0.050   6.063
 4058SOL    HW113073   3.242   7.004   6.092
 4058SOL    HW213074   3.169   0.053   5.963
 4059SOL     OW13075   0.768   1.957   3.934
 4059SOL    HW113076   0.826   1.911   4.001
 4059SOL    HW213077   0.768   1.906   3.849
 4060SOL     OW13078   5.783   5.745   5.446
 4060SOL    HW113079   5.750   5.834   5.415
 4060SOL    HW213080   5.882   5.740   5.432
 4061SOL     OW13081   1.905   5.344   0.745
 4061SOL    HW113082   1.858   5.265   0.785
 4061SOL    HW213083   1.908   5.332   0.645
 4062SOL     OW13084   1.487   2.729   1.411
 4062SOL    HW113085   1.587   2.735   1.412
 4062SOL    HW213086   1.459   2.639   1.378
 4063SOL     OW13087   4.744   0.781   0.124
 4063SOL    HW113088   4.686   0.831   0.060
 4063SOL    HW213089   4.769   0.693   0.085
 4064SOL     OW13090   2.254   1.649   5.447
 4064SOL    HW113091   2.218   1.739   5.473
 4064SOL    HW213092   2.215   1.623   5.358
 4065SOL     OW13093   2.597   6.517   1.091
 4065SOL    HW113094   2.694   6.496   1.106
 4065SOL    HW213095   2.584   6.548   0.997
 4066SOL     OW13096   0.224   4.317   3.554
 4066SOL    HW113097   0.247   4.355   3.464
 4066SOL    HW213098   0.305   4.316   3.612
 4067SOL     OW13099   4.915   4.902   0.507
 4067SOL    HW113100   4.839   4.838   0.514
 4067SOL    HW213101   4.998   4.852   0.482
 4068SOL     OW13102   2.287   2.445   5.164
 4068SOL    HW113103   2.343   2.527   5.166
 4068SOL    HW213104   2.243   2.437   5.075
 4069SOL     OW13105   4.109   7.015   6.745
 4069SOL    HW113106   4.184   6.964   6.786
 4069SOL    HW213107   4.022   6.976   6.776
 4070SOL     OW13108   1.369   2.742   3.793
 4070SOL    HW113109   1.348   2.837   3.770
 4070SOL    HW213110   1.461   2.719   3.759
 4071SOL     OW13111   1.195   0.451   3.990
 4071SOL    HW113112   1.198   0.436   4.089
 4071SOL    HW213113   1.120   0.398   3.950
 4072SOL     OW13114   2.750   5.797   3.197
 4072SOL    HW113115   2.691   5.875   3.220
 4072SOL    HW213116   2.698   5.732   3.141
 4073SOL     OW13117   2.783   4.755   0.218
 4073SOL    HW113118   2.791   4.855   0.212
 4073SOL    HW213119   2.821   4.714   0.135
 4074SOL     OW13120   1.639   5.687   3.085
 4074SOL    HW113121   1.713   5.738   3.041
 4074SOL    HW213122   1.658   5.589   3.077
 4075SOL     OW13123   6.014   1.139   0.940
 4075SOL    HW113124   5.954   1.113   0.864
 4075SOL    HW213125   5.991   1.084   1.021
 4076SOL     OW13126   2.605   4.127   5.320
 4076SOL    HW113127   2.529   4.075   5.281
 4076SOL    HW213128   2.595   4.132   5.420
 4077SOL     OW13129   2.361   1.167   1.738
 4077SOL    HW113130   2.348   1.198   1.833
 4077SOL    HW213131   2.292   1.209   1.680
 4078SOL     OW13132   2.663   4.756   2.827
 4078SOL    HW113133   2.616   4.825   2.771
 4078SOL    HW213134   2.722   4.700   2.768
 4079SOL     OW13135   0.902   2.454   4.628
 4079SOL    HW113136   0.849   2.439   4.545
 4079SOL    HW213137   0.844   2.493   4.699
 4080SOL     OW13138   6.043   1.696   4.846
 4080SOL    HW113139   5.969   1.734   4.791
 4080SOL    HW213140   6.055   1.599   4.824
 4081SOL     OW13141   1.944   3.205   4.058
 4081SOL    HW113142   1.992   3.204   3.970
 4081SOL    HW213143   2.007   3.234   4.130
 4082SOL     OW13144   1.313   3.483   1.006
 4082SOL    HW113145   1.268   3.404   0.966
 4082SOL    HW213146   1.360   3.535   0.934
 4083SOL     OW13147   5.425   2.532   5.063
 4083SOL    HW113148   5.336   2.493   5.038
 4083SOL    HW213149   5.497   2.487   5.011
 4084SOL     OW13150   0.584   1.149   4.106
 4084SOL    HW113151   0.539   1.235   4.131
 4084SOL    HW213152   0.676   1.168   4.071
 4085SOL     OW13153   3.594   6.595   6.941
 4085SOL    HW113154   3.612   6.499   6.961
 4085SOL    HW213155   3.496   6.613   6.951
 4086SOL     OW13156   1.643   4.733   0.676
 4086SOL    HW113157   1.625   4.726   0.774
 4086SOL    HW213158   1.683   4.822   0.655
 4087SOL     OW13159   1.538   1.543   3.245
 4087SOL    HW113160   1.610   1.477   3.224
 4087SOL    HW213161   1.459   1.495   3.283
 4088SOL     OW13162   6.624   1.602   1.213
 4088SOL    HW113163   6.657   1.696   1.208
 4088SOL    HW213164   6.594   1.572   1.122
 4089SOL     OW13165   1.097   1.034   4.490
 4089SOL    HW113166   1.006   1.066   4.465
 4089SOL    HW213167   1.113   0.944   4.450
 4090SOL     OW13168   1.880   4.370   5.646
 4090SOL    HW113169   1.978   4.385   5.634
 4090SOL    HW213170   1.838   4.351   5.558
 4091SOL     OW13171   4.562   5.754   0.158
 4091SOL    HW113172   4.537   5.761   0.061
 4091SOL    HW213173   4.584   5.845   0.193
 4092SOL     OW13174   0.005   2.927   4.783
 4092SOL    HW113175   0.059   2.973   4.714
 4092SOL    HW213176   6.931   2.959   4.778
 4093SOL     OW13177   5.758   0.815   4.044
 4093SOL    HW113178   5.751   0.909   4.010
 4093SOL    HW213179   5.676   0.764   4.019
 4094SOL     OW13180   2.164   4.213   5.123
 4094SOL    HW113181   2.224   4.137   5.098
 4094SOL    HW213182   2.079   4.177   5.162
 4095SOL     OW13183   1.352   3.515   6.315
 4095SOL    HW113184   1.356   3.497   6.413
 4095SOL    HW213185   1.276   3.464   6.274
 4096SOL     OW13186   3.782   4.210   0.651
 4096SOL    HW113187   3.704   4.266   0.622
 4096SOL    HW213188   3.866   4.253   0.619
 4097SOL     OW13189   3.264   3.538   5.540
 4097SOL    HW113190   3.267   3.538   5.440
 4097SOL    HW213191   3.330   3.471   5.575
 4098SOL     OW13192   0.526   2.018   3.102
 4098SOL    HW113193   0.442   2.004   3.155
 4098SOL    HW213194   0.503   2.038   3.007
 4099SOL     OW13195   4.248   5.776   1.957
 4099SOL    HW113196   4.310   5.829   1.898
 4099SOL    HW213197   4.269   5.793   2.053
 4100SOL     OW13198   3.909   5.845   3.656
 4100SOL    HW113199   3.835   5.901   3.694
 4100SOL    HW213200   3.997   5.882   3.684
 4101SOL     OW13201   5.947   1.474   6.206
 4101SOL    HW113202   5.977   1.569   6.208
 4101SOL    HW213203   5.847   1.470   6.204
 4102SOL     OW13204   5.966   1.480   0.219
 4102SOL    HW113205   5.970   1.428   0.304
 4102SOL    HW213206   5.887   1.541   0.221
 4103SOL     OW13207   0.739   0.285   1.979
 4103SOL    HW113208   0.832   0.279   1.945
 4103SOL    HW213209   0.740   0.304   2.078
 4104SOL     OW13210   1.102   4.942   2.561
 4104SOL    HW113211   1.080   4.981   2.651
 4104SOL    HW213212   1.018   4.924   2.511
 4105SOL     OW13213   4.226   4.931   0.239
 4105SOL    HW113214   4.273   4.957   0.323
 4105SOL    HW213215   4.201   5.013   0.188
 4106SOL     OW13216   6.862   3.594   4.639
 4106SOL    HW113217   6.783   3.654   4.638
 4106SOL    HW213218   6.900   3.591   4.732
 4107SOL     OW13219   6.784   0.644   1.335
 4107SOL    HW113220   6.740   0.650   1.245
 4107SOL    HW213221   6.822   0.553   1.348
 4108SOL     OW13222   6.464   3.554   6.259
 4108SOL    HW113223   6.422   3.464   6.253
 4108SOL    HW213224   6.484   3.575   6.355
 4109SOL     OW13225   3.170   6.177   3.583
 4109SOL    HW113226   3.117   6.260   3.602
 4109SOL    HW213227   3.123   6.122   3.515
 4110SOL     OW13228   5.083   3.509   6.050
 4110SOL    HW113229   5.024   3.588   6.033
 4110SOL    HW213230   5.087   3.452   5.967
 4111SOL     OW13231   4.153   2.993   6.799
 4111SOL    HW113232   4.235   3.005   6.855
 4111SOL    HW213233   4.164   3.041   6.712
 4112SOL     OW13234   3.315   1.367   3.797
 4112SOL    HW113235   3.331   1.438   3.864
 4112SOL    HW213236   3.249   1.301   3.833
 4113SOL     OW13237   3.527   4.930   4.767
 4113SOL    HW113238   3.471   4.848   4.754
 4113SOL    HW213239   3.623   4.907   4.749
 4114SOL     OW13240   2.892   1.928   2.946
 4114SOL    HW113241   2.887   1.965   2.853
 4114SOL    HW213242   2.843   1.841   2.950
 4115SOL     OW13243   5.080   4.980   2.054
 4115SOL    HW113244   5.121   4.908   1.998
 4115SOL    HW213245   5.117   4.975   2.147
 4116SOL     OW13246   3.306   1.740   1.899
 4116SOL    HW113247   3.343   1.824   1.859
 4116SOL    HW213248   3.227   1.709   1.846
 4117SOL     OW13249   1.389   5.278   1.377
 4117SOL    HW113250   1.304   5.322   1.405
 4117SOL    HW213251   1.423   5.320   1.293
 4118SOL     OW13252   1.858   5.857   0.487
 4118SOL    HW113253   1.924   5.925   0.455
 4118SOL    HW213254   1.807   5.821   0.409
 4119SOL     OW13255   3.629   0.705   4.108
 4119SOL    HW113256   3.538   0.732   4.075
 4119SOL    HW213257   3.695   0.776   4.083
 4120SOL     OW13258   3.453   0.283   1.506
 4120SOL    HW113259   3.445   0.315   1.601
 4120SOL    HW213260   3.383   0.326   1.450
 4121SOL     OW13261   6.718   3.310   4.935
 4121SOL    HW113262   6.657   3.383   4.965
 4121SOL    HW213263   6.791   3.298   5.001
 4122SOL     OW13264   1.473   5.542   5.801
 4122SOL    HW113265   1.382   5.504   5.815
 4122SOL    HW213266   1.489   5.616   5.867
 4123SOL     OW13267   4.918   3.949   6.448
 4123SOL    HW113268   4.934   4.035   6.496
 4123SOL    HW213269   5.004   3.900   6.438
 4124SOL     OW13270   5.564   6.983   3.916
 4124SOL    HW113271   5.656   6.946   3.927
 4124SOL    HW213272   5.522   6.995   4.006
 4125SOL     OW13273   4.116   0.896   0.913
 4125SOL    HW113274   4.073   0.977   0.873
 4125SOL    HW213275   4.214   0.913   0.924
 4126SOL     OW13276   1.994   3.935   4.631
 4126SOL    HW113277   2.006   3.916   4.729
 4126SOL    HW213278   1.930   4.011   4.620
 4127SOL     OW13279   5.610   3.348   5.727
 4127SOL    HW113280   5.575   3.440   5.744
 4127SOL    HW213281   5.674   3.350   5.650
 4128SOL     OW13282   0.931   2.814   2.467
 4128SOL    HW113283   0.850   2.767   2.433
 4128SOL    HW213284   1.011   2.755   2.457
 4129SOL     OW13285   5.678   2.459   6.041
 4129SOL    HW113286   5.765   2.458   6.090
 4129SOL    HW213287   5.694   2.473   5.943
 4130SOL     OW13288   6.158   4.143   0.149
 4130SOL    HW113289   6.124   4.051   0.130
 4130SOL    HW213290   6.225   4.139   0.223
 4131SOL     OW13291   6.310   4.953   3.987
 4131SOL    HW113292   6.372   5.022   3.950
 4131SOL    HW213293   6.358   4.865   3.991
 4132SOL     OW13294   5.488   2.563   3.292
 4132SOL    HW113295   5.424   2.614   3.351
 4132SOL    HW213296   5.482   2.466   3.314
 4133SOL     OW13297   2.810   0.885   1.291
 4133SOL    HW113298   2.771   0.925   1.374
 4133SOL    HW213299   2.902   0.851   1.311
 4134SOL     OW13300   1.328   1.761   0.113
 4134SOL    HW113301   1.365   1.692   0.175
 4134SOL    HW213302   1.397   1.831   0.096
 4135SOL     OW13303   1.946   1.302   1.830
 4135SOL    HW113304   1.956   1.376   1.764
 4135SOL    HW213305   2.013   1.313   1.903
 4136SOL     OW13306   0.491   2.004   3.976
 4136SOL    HW113307   0.586   1.972   3.973
 4136SOL    HW213308   0.472   2.045   4.065
 4137SOL     OW13309   3.173   4.071   6.768
 4137SOL    HW113310   3.182   3.976   6.735
 4137SOL    HW213311   3.264   4.107   6.788
 4138SOL     OW13312   4.128   4.919   3.458
 4138SOL    HW113313   4.098   4.945   3.550
 4138SOL    HW213314   4.048   4.898   3.402
 4139SOL     OW13315   1.823   2.158   6.159
 4139SOL    HW113316   1.826   2.100   6.078
 4139SOL    HW213317   1.847   2.252   6.134
 4140SOL     OW13318   4.426   1.133   5.017
 4140SOL    HW113319   4.436   1.232   5.006
 4140SOL    HW213320   4.455   1.106   5.109
 4141SOL     OW13321   5.488   5.607   0.473
 4141SOL    HW113322   5.573   5.556   0.470
 4141SOL    HW213323   5.489   5.679   0.403
 4142SOL     OW13324   6.972   4.196   1.237
 4142SOL    HW113325   6.972   4.105   1.279
 4142SOL    HW213326   6.964   4.266   1.309
 4143SOL     OW13327   6.618   2.859   0.775
 4143SOL    HW113328   6.622   2.888   0.679
 4143SOL    HW213329   6.524   2.868   0.808
 4144SOL     OW13330   5.043   1.014   2.465
 4144SOL    HW113331   5.049   1.101   2.416
 4144SOL    HW213332   5.103   1.016   2.545
 4145SOL     OW13333   2.039   6.720   1.743
 4145SOL    HW113334   2.049   6.732   1.644
 4145SOL    HW213335   2.106   6.654   1.776
 4146SOL     OW13336   4.728   6.946   0.213
 4146SOL    HW113337   4.828   6.941   0.205
 4146SOL    HW213338   4.695   0.010   0.172
 4147SOL     OW13339   3.609   1.590   5.608
 4147SOL    HW113340   3.537   1.628   5.666
 4147SOL    HW213341   3.574   1.579   5.514
 4148SOL     OW13342   6.414   0.404   3.591
 4148SOL    HW113343   6.428   0.327   3.653
 4148SOL    HW213344   6.493   0.465   3.595
 4149SOL     OW13345   5.968   3.715   2.114
 4149SOL    HW113346   5.871   3.727   2.092
 4149SOL    HW213347   5.978   3.650   2.189
 4150SOL     OW13348   6.032   0.394   6.723
 4150SOL    HW113349   5.974   0.338   6.663
 4150SOL    HW213350   6.127   0.387   6.693
 4151SOL     OW13351   0.348   5.547   0.963
 4151SOL    HW113352   0.400   5.517   1.042
 4151SOL    HW213353   0.284   5.475   0.936
 4152SOL     OW13354   4.029   4.621   1.579
 4152SOL    HW113355   3.979   4.549   1.627
 4152SOL    HW213356   4.095   4.579   1.516
 4153SOL     OW13357   6.232   4.901   6.276
 4153SOL    HW113358   6.242   4.967   6.201
 4153SOL    HW213359   6.319   4.854   6.292
 4154SOL     OW13360   5.811   2.958   5.631
 4154SOL    HW113361   5.747   2.890   5.595
 4154SOL    HW213362   5.808   2.956   5.731
 4155SOL     OW13363   1.281   3.299   1.728
 4155SOL    HW113364   1.350   3.367   1.706
 4155SOL    HW213365   1.318   3.235   1.796
 4156SOL     OW13366   5.784   6.737   5.350
 4156SOL    HW113367   5.871   6.704   5.387
 4156SOL    HW213368   5.800   6.779   5.260
 4157SOL     OW13369   3.712   0.494   4.834
 4157SOL    HW113370   3.735   0.566   4.767
 4157SOL    HW213371   3.797   0.452   4.866
 4158SOL     OW13372   0.700   6.353   3.653
 4158SOL    HW113373   0.703   6.285   3.580
 4158SOL    HW213374   0.790   6.362   3.695
 4159SOL     OW13375   1.072   2.802   4.953
 4159SOL    HW113376   1.110   2.871   4.890
 4159SOL    HW213377   1.146   2.763   5.007
 4160SOL     OW13378   0.596   0.714   1.395
 4160SOL    HW113379   0.517   0.769   1.421
 4160SOL    HW213380   0.631   0.746   1.306
 4161SOL     OW13381   6.503   1.795   0.527
 4161SOL    HW113382   6.595   1.831   0.541
 4161SOL    HW213383   6.442   1.871   0.502
 4162SOL     OW13384   5.972   6.917   5.194
 4162SOL    HW113385   5.939   6.952   5.107
 4162SOL    HW213386   6.013   6.827   5.180
 4163SOL     OW13387   5.841   1.549   4.398
 4163SOL    HW113388   5.805   1.516   4.486
 4163SOL    HW213389   5.878   1.642   4.410
 4164SOL     OW13390   1.849   0.461   6.899
 4164SOL    HW113391   1.804   0.458   6.810
 4164SOL    HW213392   1.929   0.520   6.895
 4165SOL     OW13393   3.942   6.684   1.611
 4165SOL    HW113394   3.992   6.666   1.696
 4165SOL    HW213395   3.844   6.678   1.629
 4166SOL     OW13396   5.071   3.058   0.629
 4166SOL    HW113397   5.070   3.136   0.692
 4166SOL    HW213398   4.990   3.002   0.645
 4167SOL     OW13399   2.446   2.799   1.512
 4167SOL    HW113400   2.368   2.749   1.551
 4167SOL    HW213401   2.414   2.886   1.475
 4168SOL     OW13402   1.396   5.117   1.642
 4168SOL    HW113403   1.298   5.105   1.629
 4168SOL    HW213404   1.436   5.160   1.560
 4169SOL     OW13405   5.427   3.245   4.105
 4169SOL    HW113406   5.352   3.179   4.105
 4169SOL    HW213407   5.464   3.254   4.013
 4170SOL     OW13408   4.106   2.847   5.795
 4170SOL    HW113409   4.143   2.779   5.732
 4170SOL    HW213410   4.014   2.819   5.823
 4171SOL     OW13411   5.074   3.694   1.308
 4171SOL    HW113412   5.005   3.637   1.353
 4171SOL    HW213413   5.033   3.780   1.278
 4172SOL     OW13414   0.992   2.055   0.880
 4172SOL    HW113415   0.966   2.079   0.973
 4172SOL    HW213416   1.032   1.963   0.879
 4173SOL     OW13417   5.198   3.288   5.307
 4173SOL    HW113418   5.126   3.316   5.243
 4173SOL    HW213419   5.161   3.225   5.374
 4174SOL     OW13420   4.752   0.828   4.348
 4174SOL    HW113421   4.790   0.916   4.320
 4174SOL    HW213422   4.818   0.781   4.407
 4175SOL     OW13423   2.896   0.643   2.914
 4175SOL    HW113424   2.916   0.593   2.998
 4175SOL    HW213425   2.877   0.739   2.936
 4176SOL     OW13426   5.111   6.460   3.228
 4176SOL    HW113427   5.130   6.420   3.318
 4176SOL    HW213428   5.133   6.558   3.230
 4177SOL     OW13429   0.428   6.431   2.607
 4177SOL    HW113430   0.441   6.341   2.649
 4177SOL    HW213431   0.364   6.484   2.661
 4178SOL     OW13432   3.567   2.146   5.539
 4178SOL    HW113433   3.600   2.078   5.605
 4178SOL    HW213434   3.485   2.190   5.575
 4179SOL     OW13435   5.650   3.879   5.294
 4179SOL    HW113436   5.729   3.877   5.233
 4179SOL    HW213437   5.650   3.798   5.351
 4180SOL     OW13438   4.509   4.108   1.425
 4180SOL    HW113439   4.458   4.028   1.394
 4180SOL    HW213440   4.559   4.086   1.509
 4181SOL     OW13441   0.976   0.976   0.534
 4181SOL    HW113442   0.888   0.992   0.580
 4181SOL    HW213443   1.000   0.879   0.544
 4182SOL     OW13444   5.714   0.536   2.504
 4182SOL    HW113445   5.693   0.443   2.472
 4182SOL    HW213446   5.630   0.581   2.534
 4183SOL     OW13447   1.451   1.794   1.710
 4183SOL    HW113448   1.396   1.711   1.722
 4183SOL    HW213449   1.543   1.779   1.747
 4184SOL     OW13450   4.171   5.339   0.325
 4184SOL    HW113451   4.101   5.377   0.386
 4184SOL    HW213452   4.231   5.412   0.294
 4185SOL     OW13453   0.366   0.436   3.647
 4185SOL    HW113454   0.460   0.412   3.624
 4185SOL    HW213455   0.341   0.390   3.733
 4186SOL     OW13456   2.815   4.118   1.052
 4186SOL    HW113457   2.841   4.193   1.113
 4186SOL    HW213458   2.754   4.055   1.101
 4187SOL     OW13459   4.114   3.479   6.547
 4187SOL    HW113460   4.091   3.487   6.450
 4187SOL    HW213461   4.143   3.567   6.582
 4188SOL     OW13462   4.945   0.136   4.741
 4188SOL    HW113463   4.905   0.084   4.817
 4188SOL    HW213464   5.043   0.149   4.758
 4189SOL     OW13465   2.348   1.980   4.118
 4189SOL    HW113466   2.371   2.060   4.172
 4189SOL    HW213467   2.426   1.955   4.060
 4190SOL     OW13468   2.438   1.140   0.701
 4190SOL    HW113469   2.367   1.077   0.732
 4190SOL    HW213470   2.478   1.106   0.615
 4191SOL     OW13471   6.744   1.851   1.960
 4191SOL    HW113472   6.721   1.753   1.957
 4191SOL    HW213473   6.843   1.862   1.961
 4192SOL     OW13474   6.208   1.032   3.285
 4192SOL    HW113475   6.141   0.985   3.343
 4192SOL    HW213476   6.186   1.016   3.189
 4193SOL     OW13477   1.868   6.859   2.208
 4193SOL    HW113478   1.917   6.854   2.295
 4193SOL    HW213479   1.934   6.864   2.133
 4194SOL     OW13480   0.482   0.634   4.127
 4194SOL    HW113481   0.564   0.576   4.128
 4194SOL    HW213482   0.504   0.721   4.084
 4195SOL     OW13483   4.652   0.332   1.492
 4195SOL    HW113484   4.669   0.270   1.569
 4195SOL    HW213485   4.725   0.323   1.425
 4196SOL     OW13486   5.028   2.402   3.465
 4196SOL    HW113487   5.063   2.481   3.515
 4196SOL    HW213488   4.949   2.431   3.410
 4197SOL     OW13489   4.690   4.247   4.300
 4197SOL    HW113490   4.641   4.304   4.235
 4197SOL    HW213491   4.786   4.239   4.272
 4198SOL     OW13492   6.422   3.409   6.997
 4198SOL    HW113493   6.360   3.413   0.055
 4198SOL    HW213494   6.443   3.314   6.977
 4199SOL     OW13495   2.956   3.609   5.732
 4199SOL    HW113496   2.986   3.661   5.652
 4199SOL    HW213497   2.985   3.657   5.815
 4200SOL     OW13498   2.102   0.223   6.739
 4200SOL    HW113499   2.095   0.131   6.777
 4200SOL    HW213500   2.047   0.286   6.794
 4201SOL     OW13501   5.677   6.134   3.891
 4201SOL    HW113502   5.582   6.147   3.861
 4201SOL    HW213503   5.714   6.051   3.849
 4202SOL     OW13504   5.539   4.660   4.682
 4202SOL    HW113505   5.440   4.676   4.681
 4202SOL    HW213506   5.581   4.715   4.754
 4203SOL     OW13507   5.320   5.709   3.442
 4203SOL    HW113508   5.415   5.739   3.451
 4203SOL    HW213509   5.299   5.696   3.345
 4204SOL     OW13510   3.494   3.427   1.387
 4204SOL    HW113511   3.521   3.384   1.301
 4204SOL    HW213512   3.489   3.526   1.374
 4205SOL     OW13513   2.807   4.888   3.657
 4205SOL    HW113514   2.905   4.875   3.641
 4205SOL    HW213515   2.781   4.839   3.741
 4206SOL     OW13516   5.475   0.376   4.703
 4206SOL    HW113517   5.464   0.329   4.616
 4206SOL    HW213518   5.386   0.396   4.742
 4207SOL     OW13519   1.281   1.252   1.692
 4207SOL    HW113520   1.334   1.336   1.686
 4207SOL    HW213521   1.320   1.183   1.630
 4208SOL     OW13522   0.840   3.720   1.011
 4208SOL    HW113523   0.925   3.736   1.061
 4208SOL    HW213524   0.861   3.704   0.915
 4209SOL     OW13525   2.979   0.858   5.070
 4209SOL    HW113526   3.018   0.849   4.978
 4209SOL    HW213527   2.888   0.898   5.063
 4210SOL     OW13528   5.249   3.016   0.432
 4210SOL    HW113529   5.176   3.014   0.500
 4210SOL    HW213530   5.262   2.925   0.394
 4211SOL     OW13531   4.427   4.924   3.206
 4211SOL    HW113532   4.496   4.863   3.247
 4211SOL    HW213533   4.339   4.876   3.201
 4212SOL     OW13534   6.100   0.719   2.801
 4212SOL    HW113535   6.005   0.707   2.772
 4212SOL    HW213536   6.126   0.643   2.862
 4213SOL     OW13537   1.144   0.722   2.448
 4213SOL    HW113538   1.161   0.637   2.498
 4213SOL    HW213539   1.126   0.796   2.512
 4214SOL     OW13540   1.303   2.924   4.563
 4214SOL    HW113541   1.296   2.832   4.524
 4214SOL    HW213542   1.291   2.992   4.490
 4215SOL     OW13543   1.038   5.260   4.117
 4215SOL    HW113544   1.093   5.336   4.151
 4215SOL    HW213545   0.964   5.241   4.181
 4216SOL     OW13546   1.502   3.191   5.385
 4216SOL    HW113547   1.420   3.228   5.429
 4216SOL    HW213548   1.481   3.099   5.349
 4217SOL     OW13549   6.983   0.211   3.016
 4217SOL    HW113550   6.978   0.287   2.952
 4217SOL    HW213551   6.988   0.125   2.965
 4218SOL     OW13552   4.192   0.151   2.162
 4218SOL    HW113553   4.216   0.058   2.134
 4218SOL    HW213554   4.182   0.209   2.081
 4219SOL     OW13555   4.321   6.474   3.175
 4219SOL    HW113556   4.229   6.505   3.198
 4219SOL    HW213557   4.388   6.535   3.218
 4220SOL     OW13558   6.331   2.886   3.247
 4220SOL    HW113559   6.334   2.986   3.253
 4220SOL    HW213560   6.357   2.847   3.336
 4221SOL     OW13561   5.357   5.480   5.927
 4221SOL    HW113562   5.288   5.487   6.000
 4221SOL    HW213563   5.441   5.442   5.965
 4222SOL     OW13564   4.581   2.278   0.700
 4222SOL    HW113565   4.577   2.193   0.647
 4222SOL    HW213566   4.601   2.256   0.796
 4223SOL     OW13567   3.587   4.082   2.740
 4223SOL    HW113568   3.644   4.127   2.671
 4223SOL    HW213569   3.634   4.080   2.827
 4224SOL     OW13570   4.396   2.339   4.873
 4224SOL    HW113571   4.338   2.260   4.893
 4224SOL    HW213572   4.402   2.397   4.955
 4225SOL     OW13573   5.864   0.580   4.862
 4225SOL    HW113574   5.903   0.591   4.771
 4225SOL    HW213575   5.776   0.533   4.855
 4226SOL     OW13576   1.176   1.161   4.175
 4226SOL    HW113577   1.173   1.241   4.235
 4226SOL    HW213578   1.134   1.083   4.221
 4227SOL     OW13579   5.919   4.044   6.950
 4227SOL    HW113580   5.972   3.975   7.000
 4227SOL    HW213581   5.976   4.124   6.933
 4228SOL     OW13582   6.059   5.447   2.132
 4228SOL    HW113583   6.109   5.532   2.112
 4228SOL    HW213584   6.106   5.370   2.088
 4229SOL     OW13585   5.530   4.594   5.778
 4229SOL    HW113586   5.507   4.685   5.743
 4229SOL    HW213587   5.495   4.524   5.716
 4230SOL     OW13588   2.986   6.902   4.637
 4230SOL    HW113589   2.965   6.816   4.683
 4230SOL    HW213590   3.062   6.947   4.684
 4231SOL     OW13591   4.315   6.667   5.679
 4231SOL    HW113592   4.290   6.619   5.596
 4231SOL    HW213593   4.240   6.728   5.707
 4232SOL     OW13594   2.087   4.373   2.072
 4232SOL    HW113595   2.057   4.310   2.144
 4232SOL    HW213596   2.164   4.427   2.105
 4233SOL     OW13597   6.039   6.899   1.034
 4233SOL    HW113598   6.050   6.909   0.935
 4233SOL    HW213599   6.126   6.919   1.079
 4234SOL     OW13600   2.909   4.683   5.504
 4234SOL    HW113601   2.906   4.739   5.421
 4234SOL    HW213602   2.912   4.587   5.478
 4235SOL     OW13603   6.472   3.750   5.668
 4235SOL    HW113604   6.379   3.772   5.637
 4235SOL    HW213605   6.513   3.684   5.605
 4236SOL     OW13606   1.407   3.392   4.379
 4236SOL    HW113607   1.373   3.460   4.314
 4236SOL    HW213608   1.488   3.428   4.426
 4237SOL     OW13609   5.239   3.318   4.888
 4237SOL    HW113610   5.162   3.304   4.950
 4237SOL    HW213611   5.276   3.410   4.903
 4238SOL     OW13612   4.555   5.112   4.094
 4238SOL    HW113613   4.539   5.091   4.190
 4238SOL    HW213614   4.467   5.118   4.046
 4239SOL     OW13615   4.981   5.439   5.706
 4239SOL    HW113616   4.979   5.416   5.803
 4239SOL    HW213617   5.049   5.510   5.690
 4240SOL     OW13618   2.646   4.838   6.643
 4240SOL    HW113619   2.686   4.824   6.552
 4240SOL    HW213620   2.578   4.767   6.661
 4241SOL     OW13621   3.900   0.759   6.436
 4241SOL    HW113622   3.950   0.838   6.400
 4241SOL    HW213623   3.807   0.760   6.401
 4242SOL     OW13624   1.732   0.477   2.485
 4242SOL    HW113625   1.758   0.400   2.543
 4242SOL    HW213626   1.633   0.481   2.477
 4243SOL     OW13627   1.811   2.612   3.119
 4243SOL    HW113628   1.888   2.674   3.132
 4243SOL    HW213629   1.741   2.657   3.063
 4244SOL     OW13630   3.502   6.395   1.704
 4244SOL    HW113631   3.407   6.384   1.734
 4244SOL    HW213632   3.563   6.381   1.782
 4245SOL     OW13633   6.439   3.763   1.282
 4245SOL    HW113634   6.344   3.787   1.304
 4245SOL    HW213635   6.476   3.704   1.353
 4246SOL     OW13636   4.752   1.807   3.722
 4246SOL    HW113637   4.767   1.739   3.793
 4246SOL    HW213638   4.665   1.853   3.736
 4247SOL     OW13639   1.507   4.993   5.974
 4247SOL    HW113640   1.431   4.951   5.924
 4247SOL    HW213641   1.592   4.978   5.923
 4248SOL     OW13642   1.927   0.886   3.613
 4248SOL    HW113643   2.016   0.918   3.582
 4248SOL    HW213644   1.869   0.965   3.635
 4249SOL     OW13645   6.335   6.868   4.750
 4249SOL    HW113646   6.338   6.961   4.789
 4249SOL    HW213647   6.414   6.856   4.689
 4250SOL     OW13648   0.120   5.444   3.949
 4250SOL    HW113649   0.167   5.491   3.875
 4250SOL    HW213650   0.126   5.498   4.033
 4251SOL     OW13651   6.468   2.527   5.492
 4251SOL    HW113652   6.387   2.562   5.444
 4251SOL    HW213653   6.511   2.601   5.544
 4252SOL     OW13654   6.811   6.730   6.905
 4252SOL    HW113655   6.747   6.806   6.911
 4252SOL    HW213656   6.897   6.762   6.864
 4253SOL     OW13657   4.796   5.385   2.429
 4253SOL    HW113658   4.734   5.307   2.433
 4253SOL    HW213659   4.752   5.460   2.380
 4254SOL     OW13660   1.748   3.323   6.949
 4254SOL    HW113661   1.809   3.246   6.969
 4254SOL    HW213662   1.713   3.360   0.014
 4255SOL     OW13663   1.394   3.289   3.377
 4255SOL    HW113664   1.405   3.375   3.328
 4255SOL    HW213665   1.314   3.240   3.342
 4256SOL     OW13666   0.670   6.109   2.039
 4256SOL    HW113667   0.622   6.105   2.126
 4256SOL    HW213668   0.768   6.122   2.055
 4257SOL     OW13669   6.160   0.160   4.360
 4257SOL    HW113670   6.132   0.098   4.285
 4257SOL    HW213671   6.198   0.106   4.435
 4258SOL     OW13672   3.331   6.017   0.849
 4258SOL    HW113673   3.397   6.074   0.900
 4258SOL    HW213674   3.338   6.038   0.752
 4259SOL     OW13675   1.260   0.068   1.379
 4259SOL    HW113676   1.351   0.036   1.353
 4259SOL    HW213677   1.268   0.159   1.422
 4260SOL     OW13678   5.366   1.424   4.792
 4260SOL    HW113679   5.394   1.453   4.883
 4260SOL    HW213680   5.392   1.494   4.725
 4261SOL     OW13681   2.296   6.166   4.150
 4261SOL    HW113682   2.353   6.127   4.221
 4261SOL    HW213683   2.341   6.157   4.061
 4262SOL     OW13684   2.473   4.280   6.586
 4262SOL    HW113685   2.385   4.278   6.540
 4262SOL    HW213686   2.516   4.190   6.581
 4263SOL     OW13687   2.510   1.293   3.774
 4263SOL    HW113688   2.466   1.205   3.755
 4263SOL    HW213689   2.477   1.361   3.709
 4264SOL     OW13690   5.054   1.601   5.672
 4264SOL    HW113691   5.078   1.645   5.585
 4264SOL    HW213692   4.980   1.535   5.656
 4265SOL     OW13693   2.897   0.089   6.597
 4265SOL    HW113694   2.989   0.126   6.588
 4265SOL    HW213695   2.882   0.060   6.692
 4266SOL     OW13696   1.187   5.451   1.126
 4266SOL    HW113697   1.285   5.469   1.118
 4266SOL    HW213698   1.137   5.511   1.064
 4267SOL     OW13699   1.389   4.598   4.788
 4267SOL    HW113700   1.335   4.556   4.860
 4267SOL    HW213701   1.407   4.531   4.716
 4268SOL     OW13702   1.152   4.246   6.792
 4268SOL    HW113703   1.053   4.253   6.789
 4268SOL    HW213704   1.189   4.246   6.699
 4269SOL     OW13705   3.120   1.413   5.033
 4269SOL    HW113706   3.058   1.453   5.100
 4269SOL    HW213707   3.095   1.317   5.017
 4270SOL     OW13708   3.638   3.024   0.960
 4270SOL    HW113709   3.614   2.937   0.917
 4270SOL    HW213710   3.737   3.030   0.971
 4271SOL     OW13711   0.233   1.096   1.703
 4271SOL    HW113712   0.188   1.012   1.673
 4271SOL    HW213713   0.165   1.156   1.746
 4272SOL     OW13714   0.329   1.173   6.907
 4272SOL    HW113715   0.391   1.101   6.938
 4272SOL    HW213716   0.382   1.244   6.859
 4273SOL     OW13717   3.058   6.175   4.524
 4273SOL    HW113718   2.961   6.192   4.506
 4273SOL    HW213719   3.069   6.135   4.614
 4274SOL     OW13720   6.799   1.579   1.878
 4274SOL    HW113721   6.771   1.546   1.968
 4274SOL    HW213722   6.891   1.618   1.884
 4275SOL     OW13723   7.016   2.525   3.585
 4275SOL    HW113724   6.984   2.607   3.632
 4275SOL    HW213725   6.973   2.444   3.626
 4276SOL     OW13726   2.264   5.823   3.402
 4276SOL    HW113727   2.321   5.772   3.466
 4276SOL    HW213728   2.193   5.872   3.453
 4277SOL     OW13729   6.039   5.789   2.651
 4277SOL    HW113730   6.025   5.747   2.561
 4277SOL    HW213731   5.990   5.736   2.720
 4278SOL     OW13732   1.707   6.888   2.007
 4278SOL    HW113733   1.613   6.891   2.040
 4278SOL    HW213734   1.769   6.866   2.083
 4279SOL     OW13735   1.120   1.403   3.505
 4279SOL    HW113736   1.176   1.454   3.440
 4279SOL    HW213737   1.121   1.306   3.482
 4280SOL     OW13738   1.278   6.883   6.516
 4280SOL    HW113739   1.243   6.800   6.560
 4280SOL    HW213740   1.236   6.894   6.426
 4281SOL     OW13741   5.228   5.756   3.170
 4281SOL    HW113742   5.232   5.841   3.118
 4281SOL    HW213743   5.132   5.732   3.187
 4282SOL     OW13744   3.821   4.396   0.903
 4282SOL    HW113745   3.874   4.475   0.873
 4282SOL    HW213746   3.783   4.350   0.823
 4283SOL     OW13747   4.906   1.287   4.722
 4283SOL    HW113748   4.834   1.218   4.736
 4283SOL    HW213749   4.904   1.317   4.626
 4284SOL     OW13750   4.676   5.260   6.237
 4284SOL    HW113751   4.592   5.301   6.204
 4284SOL    HW213752   4.670   5.247   6.336
 4285SOL     OW13753   3.569   0.668   5.634
 4285SOL    HW113754   3.525   0.604   5.697
 4285SOL    HW213755   3.507   0.690   5.559
 4286SOL     OW13756   6.021   0.443   6.108
 4286SOL    HW113757   6.026   0.344   6.091
 4286SOL    HW213758   6.066   0.492   6.034
 4287SOL     OW13759   3.920   6.981   0.449
 4287SOL    HW113760   3.893   6.975   0.353
 4287SOL    HW213761   3.990   6.912   0.468
 4288SOL     OW13762   6.862   6.579   2.592
 4288SOL    HW113763   6.935   6.579   2.524
 4288SOL    HW213764   6.827   6.671   2.604
 4289SOL     OW13765   0.259   4.299   4.046
 4289SOL    HW113766   0.227   4.393   4.062
 4289SOL    HW213767   0.260   4.249   4.132
 4290SOL     OW13768   0.800   1.477   3.430
 4290SOL    HW113769   0.864   1.496   3.504
 4290SOL    HW213770   0.723   1.424   3.466
 4291SOL     OW13771   4.650   3.512   5.958
 4291SOL    HW113772   4.587   3.550   5.890
 4291SOL    HW213773   4.705   3.440   5.916
 4292SOL     OW13774   6.189   2.247   1.254
 4292SOL    HW113775   6.270   2.211   1.207
 4292SOL    HW213776   6.112   2.186   1.237
 4293SOL     OW13777   4.080   3.641   0.241
 4293SOL    HW113778   4.023   3.606   0.167
 4293SOL    HW213779   4.022   3.676   0.314
 4294SOL     OW13780   1.891   2.322   6.692
 4294SOL    HW113781   1.871   2.322   6.594
 4294SOL    HW213782   1.886   2.416   6.726
 4295SOL     OW13783   3.889   6.156   2.964
 4295SOL    HW113784   3.797   6.190   2.986
 4295SOL    HW213785   3.906   6.166   2.866
 4296SOL     OW13786   3.034   6.656   3.348
 4296SOL    HW113787   2.968   6.633   3.276
 4296SOL    HW213788   3.126   6.634   3.317
 4297SOL     OW13789   5.726   5.179   0.235
 4297SOL    HW113790   5.765   5.087   0.228
 4297SOL    HW213791   5.779   5.232   0.301
 4298SOL     OW13792   2.048   6.678   0.672
 4298SOL    HW113793   2.027   6.597   0.617
 4298SOL    HW213794   2.144   6.702   0.662
 4299SOL     OW13795   0.645   2.870   0.050
 4299SOL    HW113796   0.545   2.879   0.056
 4299SOL    HW213797   0.685   2.960   0.029
 4300SOL     OW13798   2.574   0.697   1.360
 4300SOL    HW113799   2.639   0.769   1.334
 4300SOL    HW213800   2.497   0.738   1.408
 4301SOL     OW13801   2.772   6.127   0.287
 4301SOL    HW113802   2.713   6.167   0.358
 4301SOL    HW213803   2.716   6.072   0.225
 4302SOL     OW13804   2.303   5.775   6.006
 4302SOL    HW113805   2.223   5.802   6.061
 4302SOL    HW213806   2.274   5.761   5.912
 4303SOL     OW13807   5.868   5.507   3.074
 4303SOL    HW113808   5.922   5.428   3.046
 4303SOL    HW213809   5.927   5.587   3.081
 4304SOL     OW13810   3.769   3.599   1.234
 4304SOL    HW113811   3.791   3.562   1.144
 4304SOL    HW213812   3.671   3.620   1.238
 4305SOL     OW13813   1.378   6.621   5.590
 4305SOL    HW113814   1.408   6.572   5.508
 4305SOL    HW213815   1.299   6.678   5.567
 4306SOL     OW13816   6.040   4.130   5.220
 4306SOL    HW113817   6.097   4.071   5.163
 4306SOL    HW213818   6.092   4.212   5.246
 4307SOL     OW13819   0.438   1.397   6.021
 4307SOL    HW113820   0.517   1.340   5.998
 4307SOL    HW213821   0.371   1.393   5.947
 4308SOL     OW13822   4.800   6.032   6.462
 4308SOL    HW113823   4.765   6.121   6.433
 4308SOL    HW213824   4.723   5.973   6.485
 4309SOL     OW13825   1.045   1.674   0.753
 4309SOL    HW113826   1.073   1.731   0.830
 4309SOL    HW213827   1.100   1.697   0.672
 4310SOL     OW13828   7.017   2.121   2.702
 4310SOL    HW113829   6.961   2.196   2.737
 4310SOL    HW213830   0.005   2.051   2.773
 4311SOL     OW13831   0.747   0.291   1.629
 4311SOL    HW113832   0.694   0.212   1.598
 4311SOL    HW213833   0.767   0.351   1.551
 4312SOL     OW13834   6.904   4.898   2.317
 4312SOL    HW113835   6.941   4.973   2.372
 4312SOL    HW213836   6.901   4.814   2.372
 4313SOL     OW13837   0.190   2.841   6.620
 4313SOL    HW113838   0.196   2.742   6.605
 4313SOL    HW213839   0.249   2.867   6.696
 4314SOL     OW13840   0.587   1.204   5.928
 4314SOL    HW113841   0.560   1.235   5.837
 4314SOL    HW213842   0.564   1.108   5.940
 4315SOL     OW13843   2.887   0.920   4.321
 4315SOL    HW113844   2.837   0.889   4.402
 4315SOL    HW213845   2.827   0.977   4.265
 4316SOL     OW13846   5.037   6.036   1.383
 4316SOL    HW113847   5.094   5.985   1.318
 4316SOL    HW213848   5.000   6.118   1.339
 4317SOL     OW13849   4.749   0.932   5.942
 4317SOL    HW113850   4.838   0.913   5.984
 4317SOL    HW213851   4.679   0.939   6.013
 4318SOL     OW13852   0.849   0.006   4.332
 4318SOL    HW113853   0.947   0.006   4.312
 4318SOL    HW213854   0.797   0.027   4.249
 4319SOL     OW13855   1.592   5.065   2.766
 4319SOL    HW113856   1.675   5.019   2.796
 4319SOL    HW213857   1.512   5.010   2.790
 4320SOL     OW13858   3.136   6.827   1.202
 4320SOL    HW113859   3.222   6.816   1.153
 4320SOL    HW213860   3.066   6.768   1.161
 4321SOL     OW13861   6.543   6.847   3.042
 4321SOL    HW113862   6.524   6.815   2.949
 4321SOL    HW213863   6.461   6.890   3.080
 4322SOL     OW13864   1.737   2.920   5.045
 4322SOL    HW113865   1.793   2.899   5.125
 4322SOL    HW213866   1.698   3.011   5.054
 4323SOL     OW13867   3.995   4.825   0.019
 4323SOL    HW113868   4.016   4.849   6.945
 4323SOL    HW213869   4.067   4.859   0.079
 4324SOL     OW13870   0.579   4.361   5.914
 4324SOL    HW113871   0.679   4.361   5.917
 4324SOL    HW213872   0.548   4.408   5.831
 4325SOL     OW13873   2.374   0.748   2.620
 4325SOL    HW113874   2.407   0.812   2.551
 4325SOL    HW213875   2.447   0.726   2.684
 4326SOL     OW13876   5.242   2.329   2.697
 4326SOL    HW113877   5.270   2.262   2.629
 4326SOL    HW213878   5.144   2.320   2.715
 4327SOL     OW13879   2.788   5.996   3.560
 4327SOL    HW113880   2.838   5.972   3.477
 4327SOL    HW213881   2.796   6.094   3.577
 4328SOL     OW13882   6.527   0.069   4.577
 4328SOL    HW113883   6.505   6.995   4.555
 4328SOL    HW213884   6.443   0.117   4.606
 4329SOL     OW13885   0.215   1.660   6.162
 4329SOL    HW113886   0.245   1.754   6.180
 4329SOL    HW213887   0.249   1.601   6.235
 4330SOL     OW13888   3.198   4.989   4.480
 4330SOL    HW113889   3.203   5.088   4.488
 4330SOL    HW213890   3.217   4.947   4.569
 4331SOL     OW13891   5.522   1.107   1.990
 4331SOL    HW113892   5.580   1.112   1.909
 4331SOL    HW213893   5.514   1.197   2.032
 4332SOL     OW13894   0.447   5.231   2.084
 4332SOL    HW113895   0.531   5.281   2.062
 4332SOL    HW213896   0.461   5.133   2.073
 4333SOL     OW13897   3.965   2.167   5.702
 4333SOL    HW113898   3.980   2.265   5.719
 4333SOL    HW213899   3.911   2.129   5.777
 4334SOL     OW13900   6.852   3.097   4.537
 4334SOL    HW113901   6.808   3.011   4.510
 4334SOL    HW213902   6.808   3.134   4.619
 4335SOL     OW13903   2.691   3.790   1.490
 4335SOL    HW113904   2.626   3.716   1.469
 4335SOL    HW213905   2.698   3.800   1.590
 4336SOL     OW13906   2.569   5.534   5.697
 4336SOL    HW113907   2.500   5.529   5.770
 4336SOL    HW213908   2.572   5.447   5.649
 4337SOL     OW13909   1.249   5.119   3.978
 4337SOL    HW113910   1.233   5.120   3.879
 4337SOL    HW213911   1.170   5.160   4.025
 4338SOL     OW13912   3.728   1.313   5.610
 4338SOL    HW113913   3.824   1.294   5.587
 4338SOL    HW213914   3.713   1.412   5.610
 4339SOL     OW13915   3.987   3.800   6.263
 4339SOL    HW113916   3.914   3.793   6.332
 4339SOL    HW213917   4.052   3.726   6.275
 4340SOL     OW13918   6.176   3.966   1.121
 4340SOL    HW113919   6.107   4.026   1.080
 4340SOL    HW213920   6.136   3.875   1.136
 4341SOL     OW13921   6.572   7.002   2.379
 4341SOL    HW113922   6.641   0.050   2.398
 4341SOL    HW213923   6.617   6.913   2.367
 4342SOL     OW13924   5.067   3.736   2.436
 4342SOL    HW113925   5.082   3.789   2.520
 4342SOL    HW213926   5.022   3.795   2.369
 4343SOL     OW13927   4.085   6.572   5.911
 4343SOL    HW113928   4.046   6.655   5.871
 4343SOL    HW213929   4.161   6.597   5.971
 4344SOL     OW13930   6.899   3.376   4.014
 4344SOL    HW113931   6.905   3.475   4.025
 4344SOL    HW213932   6.803   3.349   4.004
 4345SOL     OW13933   3.058   3.260   2.637
 4345SOL    HW113934   3.023   3.350   2.665
 4345SOL    HW213935   3.046   3.248   2.539
 4346SOL     OW13936   1.463   3.304   2.766
 4346SOL    HW113937   1.448   3.255   2.852
 4346SOL    HW213938   1.551   3.276   2.727
 4347SOL     OW13939   6.424   5.718   0.448
 4347SOL    HW113940   6.337   5.761   0.424
 4347SOL    HW213941   6.495   5.747   0.384
 4348SOL     OW13942   5.491   5.114   3.795
 4348SOL    HW113943   5.551   5.087   3.719
 4348SOL    HW213944   5.396   5.114   3.764
 4349SOL     OW13945   0.092   3.699   4.162
 4349SOL    HW113946   0.052   3.703   4.254
 4349SOL    HW213947   0.147   3.617   4.153
 4350SOL     OW13948   3.934   1.541   4.847
 4350SOL    HW113949   3.982   1.528   4.934
 4350SOL    HW213950   3.982   1.490   4.775
 4351SOL     OW13951   1.260   6.237   0.425
 4351SOL    HW113952   1.269   6.284   0.513
 4351SOL    HW213953   1.186   6.170   0.430
 4352SOL     OW13954   3.697   4.129   0.954
 4352SOL    HW113955   3.755   4.173   0.886
 4352SOL    HW213956   3.613   4.181   0.965
 4353SOL     OW13957   2.913   2.750   1.181
 4353SOL    HW113958   2.924   2.760   1.280
 4353SOL    HW213959   2.832   2.695   1.162
 4354SOL     OW13960   5.843   0.147   3.390
 4354SOL    HW113961   5.864   0.072   3.452
 4354SOL    HW213962   5.927   0.193   3.363
 4355SOL     OW13963   1.919   5.750   2.704
 4355SOL    HW113964   1.943   5.669   2.758
 4355SOL    HW213965   1.856   5.723   2.631
 4356SOL     OW13966   5.442   2.409   5.744
 4356SOL    HW113967   5.364   2.400   5.805
 4356SOL    HW213968   5.433   2.492   5.690
 4357SOL     OW13969   5.860   0.517   1.979
 4357SOL    HW113970   5.805   0.598   1.961
 4357SOL    HW213971   5.819   0.464   2.053
 4358SOL     OW13972   2.710   0.033   6.816
 4358SOL    HW113973   2.643   0.079   6.757
 4358SOL    HW213974   2.682   6.959   6.830
 4359SOL     OW13975   2.613   2.050   0.239
 4359SOL    HW113976   2.590   1.976   0.176
 4359SOL    HW213977   2.633   2.012   0.329
 4360SOL     OW13978   1.747   3.868   3.799
 4360SOL    HW113979   1.670   3.897   3.742
 4360SOL    HW213980   1.717   3.795   3.861
 4361SOL     OW13981   6.456   1.793   0.828
 4361SOL    HW113982   6.452   1.791   0.728
 4361SOL    HW213983   6.514   1.869   0.858
 4362SOL     OW13984   0.905   5.539   3.216
 4362SOL    HW113985   0.944   5.564   3.305
 4362SOL    HW213986   0.848   5.457   3.226
 4363SOL     OW13987   4.757   1.028   2.655
 4363SOL    HW113988   4.746   0.943   2.707
 4363SOL    HW213989   4.672   1.081   2.660
 4364SOL     OW13990   4.012   3.452   2.560
 4364SOL    HW113991   4.062   3.535   2.533
 4364SOL    HW213992   3.961   3.470   2.644
 4365SOL     OW13993   2.344   1.986   1.501
 4365SOL    HW113994   2.379   2.079   1.495
 4365SOL    HW213995   2.333   1.960   1.597
 4366SOL     OW13996   4.573   6.033   4.979
 4366SOL    HW113997   4.518   5.982   5.046
 4366SOL    HW213998   4.532   6.024   4.888
 4367SOL     OW13999   2.822   5.480   3.123
 4367SOL    HW114000   2.793   5.533   3.043
 4367SOL    HW214001   2.855   5.542   3.194
 4368SOL     OW14002   4.837   4.149   3.433
 4368SOL    HW114003   4.851   4.150   3.532
 4368SOL    HW214004   4.758   4.206   3.410
 4369SOL     OW14005   4.586   4.490   3.353
 4369SOL    HW114006   4.681   4.501   3.325
 4369SOL    HW214007   4.575   4.517   3.448
 4370SOL     OW14008   3.802   4.515   1.682
 4370SOL    HW114009   3.779   4.424   1.715
 4370SOL    HW214010   3.736   4.581   1.718
 4371SOL     OW14011   2.971   1.838   0.648
 4371SOL    HW114012   2.925   1.777   0.584
 4371SOL    HW214013   2.904   1.901   0.688
 4372SOL     OW14014   1.886   3.328   4.854
 4372SOL    HW114015   1.985   3.327   4.870
 4372SOL    HW214016   1.867   3.302   4.760
 4373SOL     OW14017   3.826   1.325   6.113
 4373SOL    HW114018   3.906   1.272   6.085
 4373SOL    HW214019   3.857   1.411   6.155
 4374SOL     OW14020   2.288   0.392   1.377
 4374SOL    HW114021   2.342   0.387   1.293
 4374SOL    HW214022   2.250   0.484   1.386
 4375SOL     OW14023   4.268   1.611   4.436
 4375SOL    HW114024   4.320   1.528   4.413
 4375SOL    HW214025   4.203   1.631   4.363
 4376SOL     OW14026   1.783   6.156   6.981
 4376SOL    HW114027   1.793   6.094   6.903
 4376SOL    HW214028   1.706   6.125   0.017
 4377SOL     OW14029   5.894   0.022   6.550
 4377SOL    HW114030   5.856   6.998   6.630
 4377SOL    HW214031   5.911   6.975   6.478
 4378SOL     OW14032   2.576   5.467   2.366
 4378SOL    HW114033   2.551   5.540   2.429
 4378SOL    HW214034   2.674   5.474   2.344
 4379SOL     OW14035   1.205   0.410   1.671
 4379SOL    HW114036   1.127   0.400   1.733
 4379SOL    HW214037   1.277   0.461   1.717
 4380SOL     OW14038   2.243   5.253   4.444
 4380SOL    HW114039   2.164   5.279   4.390
 4380SOL    HW214040   2.303   5.333   4.456
 4381SOL     OW14041   4.270   6.093   5.733
 4381SOL    HW114042   4.221   6.055   5.655
 4381SOL    HW214043   4.225   6.177   5.763
 4382SOL     OW14044   4.864   3.622   3.428
 4382SOL    HW114045   4.913   3.705   3.451
 4382SOL    HW214046   4.765   3.640   3.430
 4383SOL     OW14047   1.411   2.363   0.194
 4383SOL    HW114048   1.348   2.428   0.237
 4383SOL    HW214049   1.370   2.327   0.111
 4384SOL     OW14050   3.782   6.222   1.369
 4384SOL    HW114051   3.686   6.250   1.371
 4384SOL    HW214052   3.839   6.294   1.409
 4385SOL     OW14053   6.894   1.861   2.484
 4385SOL    HW114054   6.992   1.873   2.499
 4385SOL    HW214055   6.850   1.832   2.569
 4386SOL     OW14056   1.199   3.641   6.863
 4386SOL    HW114057   1.212   3.648   6.962
 4386SOL    HW214058   1.131   3.708   6.833
 4387SOL     OW14059   6.623   3.099   1.941
 4387SOL    HW114060   6.621   3.015   1.887
 4387SOL    HW214061   6.655   3.175   1.884
 4388SOL     OW14062   3.344   1.503   5.413
 4388SOL    HW114063   3.285   1.580   5.439
 4388SOL    HW214064   3.353   1.500   5.314
 4389SOL     OW14065   4.631   2.342   2.681
 4389SOL    HW114066   4.567   2.396   2.736
 4389SOL    HW214067   4.584   2.263   2.642
 4390SOL     OW14068   4.712   2.543   2.247
 4390SOL    HW114069   4.776   2.550   2.170
 4390SOL    HW214070   4.717   2.627   2.302
 4391SOL     OW14071   0.547   5.921   0.892
 4391SOL    HW114072   0.581   5.973   0.813
 4391SOL    HW214073   0.484   5.978   0.944
 4392SOL     OW14074   5.422   3.226   4.699
 4392SOL    HW114075   5.506   3.272   4.729
 4392SOL    HW214076   5.348   3.247   4.763
 4393SOL     OW14077   4.856   6.707   3.174
 4393SOL    HW114078   4.935   6.766   3.155
 4393SOL    HW214079   4.873   6.653   3.256
 4394SOL     OW14080   5.094   1.023   2.039
 4394SOL    HW114081   5.022   1.063   2.095
 4394SOL    HW214082   5.053   0.970   1.965
 4395SOL     OW14083   4.627   1.793   1.868
 4395SOL    HW114084   4.666   1.851   1.939
 4395SOL    HW214085   4.620   1.699   1.902
 4396SOL     OW14086   1.630   0.488   4.340
 4396SOL    HW114087   1.573   0.516   4.262
 4396SOL    HW214088   1.573   0.439   4.406
 4397SOL     OW14089   6.426   0.585   6.321
 4397SOL    HW114090   6.446   0.600   6.224
 4397SOL    HW214091   6.327   0.592   6.335
 4398SOL     OW14092   6.461   4.877   4.474
 4398SOL    HW114093   6.430   4.899   4.567
 4398SOL    HW214094   6.388   4.829   4.425
 4399SOL     OW14095   2.407   1.624   1.814
 4399SOL    HW114096   2.496   1.605   1.773
 4399SOL    HW214097   2.414   1.705   1.873
 4400SOL     OW14098   3.347   6.041   4.750
 4400SOL    HW114099   3.258   6.080   4.774
 4400SOL    HW214100   3.334   5.954   4.703
 4401SOL     OW14101   5.315   6.457   4.760
 4401SOL    HW114102   5.325   6.556   4.768
 4401SOL    HW214103   5.230   6.435   4.713
 4402SOL     OW14104   6.723   0.463   3.525
 4402SOL    HW114105   6.688   0.499   3.612
 4402SOL    HW214106   6.695   0.368   3.514
 4403SOL     OW14107   0.909   6.923   2.802
 4403SOL    HW114108   0.891   6.968   2.890
 4403SOL    HW214109   0.824   6.918   2.749
 4404SOL     OW14110   1.507   4.032   3.367
 4404SOL    HW114111   1.445   4.098   3.408
 4404SOL    HW214112   1.561   4.077   3.296
 4405SOL     OW14113   3.774   4.264   5.973
 4405SOL    HW114114   3.680   4.280   6.003
 4405SOL    HW214115   3.785   4.167   5.952
 4406SOL     OW14116   5.209   3.996   1.352
 4406SOL    HW114117   5.137   3.966   1.415
 4406SOL    HW214118   5.167   4.044   1.275
 4407SOL     OW14119   6.469   6.729   6.955
 4407SOL    HW114120   6.500   6.655   7.015
 4407SOL    HW214121   6.456   6.694   6.862
 4408SOL     OW14122   4.921   6.062   7.008
 4408SOL    HW114123   5.021   6.056   6.999
 4408SOL    HW214124   4.896   6.157   0.008
 4409SOL     OW14125   3.437   1.414   2.320
 4409SOL    HW114126   3.521   1.467   2.330
 4409SOL    HW214127   3.382   1.452   2.246
 4410SOL     OW14128   2.408   5.339   1.831
 4410SOL    HW114129   2.312   5.349   1.804
 4410SOL    HW214130   2.463   5.320   1.750
 4411SOL     OW14131   3.700   3.188   2.405
 4411SOL    HW114132   3.771   3.118   2.408
 4411SOL    HW214133   3.650   3.189   2.491
 4412SOL     OW14134   3.515   2.455   6.496
 4412SOL    HW114135   3.418   2.475   6.505
 4412SOL    HW214136   3.547   2.403   6.575
 4413SOL     OW14137   3.799   5.591   4.467
 4413SOL    HW114138   3.779   5.649   4.388
 4413SOL    HW214139   3.733   5.611   4.540
 4414SOL     OW14140   3.557   5.183   2.281
 4414SOL    HW114141   3.586   5.088   2.270
 4414SOL    HW214142   3.480   5.187   2.345
 4415SOL     OW14143   5.323   2.800   0.323
 4415SOL    HW114144   5.412   2.763   0.347
 4415SOL    HW214145   5.313   2.803   0.224
 4416SOL     OW14146   4.095   0.774   3.482
 4416SOL    HW114147   4.108   0.706   3.554
 4416SOL    HW214148   4.109   0.865   3.520
 4417SOL     OW14149   0.220   0.284   1.398
 4417SOL    HW114150   0.266   0.365   1.362
 4417SOL    HW214151   0.220   0.212   1.329
 4418SOL     OW14152   3.811   6.919   3.433
 4418SOL    HW114153   3.821   6.825   3.463
 4418SOL    HW214154   3.884   6.975   3.473
 4419SOL     OW14155   0.440   5.177   0.014
 4419SOL    HW114156   0.423   5.079   0.004
 4419SOL    HW214157   0.539   5.193   0.010
 4420SOL     OW14158   4.992   1.244   6.631
 4420SOL    HW114159   4.952   1.193   6.554
 4420SOL    HW214160   5.036   1.179   6.693
 4421SOL     OW14161   2.260   1.665   3.541
 4421SOL    HW114162   2.186   1.701   3.597
 4421SOL    HW214163   2.225   1.591   3.483
 4422SOL     OW14164   2.502   3.945   5.898
 4422SOL    HW114165   2.494   3.902   5.988
 4422SOL    HW214166   2.490   3.876   5.827
 4423SOL     OW14167   0.894   1.879   6.562
 4423SOL    HW114168   0.836   1.844   6.635
 4423SOL    HW214169   0.853   1.856   6.473
 4424SOL     OW14170   0.241   6.828   3.284
 4424SOL    HW114171   0.334   6.832   3.247
 4424SOL    HW214172   0.177   6.808   3.210
 4425SOL     OW14173   4.736   4.335   0.051
 4425SOL    HW114174   4.828   4.301   0.069
 4425SOL    HW214175   4.701   4.294   6.987
 4426SOL     OW14176   1.045   0.572   5.620
 4426SOL    HW114177   1.039   0.591   5.522
 4426SOL    HW214178   1.134   0.603   5.654
 4427SOL     OW14179   0.840   0.069   3.652
 4427SOL    HW114180   0.874   6.996   3.647
 4427SOL    HW214181   0.778   0.079   3.730
 4428SOL     OW14182   2.971   5.911   3.369
 4428SOL    HW114183   2.969   5.868   3.279
 4428SOL    HW214184   3.035   5.863   3.428
 4429SOL     OW14185   4.155   7.017   3.003
 4429SOL    HW114186   4.236   0.009   2.947
 4429SOL    HW214187   4.113   6.929   2.981
 4430SOL     OW14188   1.403   0.836   1.695
 4430SOL    HW114189   1.486   0.878   1.657
 4430SOL    HW214190   1.326   0.854   1.633
 4431SOL     OW14191   1.910   2.017   3.115
 4431SOL    HW114192   1.909   2.053   3.208
 4431SOL    HW214193   2.004   2.022   3.079
 4432SOL     OW14194   2.943   3.478   2.986
 4432SOL    HW114195   2.948   3.553   3.051
 4432SOL    HW214196   2.935   3.391   3.034
 4433SOL     OW14197   6.449   0.300   3.271
 4433SOL    HW114198   6.532   0.329   3.222
 4433SOL    HW214199   6.420   0.372   3.334
 4434SOL     OW14200   5.525   2.204   4.506
 4434SOL    HW114201   5.458   2.155   4.561
 4434SOL    HW214202   5.478   2.263   4.440
 4435SOL     OW14203   3.485   2.828   1.765
 4435SOL    HW114204   3.555   2.765   1.800
 4435SOL    HW214205   3.404   2.824   1.823
 4436SOL     OW14206   5.112   0.738   6.879
 4436SOL    HW114207   5.085   0.720   6.974
 4436SOL    HW214208   5.063   0.675   6.819
 4437SOL     OW14209   3.681   6.875   4.773
 4437SOL    HW114210   3.655   6.959   4.725
 4437SOL    HW214211   3.780   6.875   4.789
 4438SOL     OW14212   4.059   3.467   6.274
 4438SOL    HW114213   4.109   3.381   6.267
 4438SOL    HW214214   3.981   3.465   6.211
 4439SOL     OW14215   2.371   5.487   2.192
 4439SOL    HW114216   2.451   5.485   2.251
 4439SOL    HW214217   2.396   5.526   2.103
 4440SOL     OW14218   0.245   0.685   6.147
 4440SOL    HW114219   0.277   0.647   6.233
 4440SOL    HW214220   0.146   0.700   6.151
 4441SOL     OW14221   5.980   2.579   2.923
 4441SOL    HW114222   6.049   2.560   2.993
 4441SOL    HW214223   6.001   2.527   2.841
 4442SOL     OW14224   2.744   6.589   3.051
 4442SOL    HW114225   2.697   6.546   2.973
 4442SOL    HW214226   2.757   6.686   3.032
 4443SOL     OW14227   2.503   1.661   5.368
 4443SOL    HW114228   2.513   1.752   5.327
 4443SOL    HW214229   2.409   1.651   5.403
 4444SOL     OW14230   5.178   0.504   2.369
 4444SOL    HW114231   5.138   0.413   2.380
 4444SOL    HW214232   5.107   0.574   2.379
 4445SOL     OW14233   1.511   1.283   6.458
 4445SOL    HW114234   1.528   1.378   6.486
 4445SOL    HW214235   1.427   1.279   6.403
 4446SOL     OW14236   6.740   6.258   3.922
 4446SOL    HW114237   6.707   6.236   4.013
 4446SOL    HW214238   6.744   6.358   3.911
 4447SOL     OW14239   4.900   3.191   5.255
 4447SOL    HW114240   4.962   3.133   5.307
 4447SOL    HW214241   4.828   3.226   5.315
 4448SOL     OW14242   2.741   3.008   6.281
 4448SOL    HW114243   2.811   3.002   6.352
 4448SOL    HW214244   2.722   2.916   6.246
 4449SOL     OW14245   0.937   1.417   5.225
 4449SOL    HW114246   0.991   1.499   5.206
 4449SOL    HW214247   0.843   1.444   5.250
 4450SOL     OW14248   3.769   4.028   3.364
 4450SOL    HW114249   3.679   4.055   3.399
 4450SOL    HW214250   3.765   4.023   3.264
 4451SOL     OW14251   6.259   4.335   2.073
 4451SOL    HW114252   6.340   4.391   2.090
 4451SOL    HW214253   6.193   4.350   2.146
 4452SOL     OW14254   6.126   5.771   6.407
 4452SOL    HW114255   6.075   5.688   6.427
 4452SOL    HW214256   6.221   5.747   6.383
 4453SOL     OW14257   5.563   1.820   1.471
 4453SOL    HW114258   5.642   1.807   1.532
 4453SOL    HW214259   5.588   1.791   1.379
 4454SOL     OW14260   5.002   3.203   1.532
 4454SOL    HW114261   4.931   3.135   1.553
 4454SOL    HW214262   5.013   3.265   1.609
 4455SOL     OW14263   4.206   1.622   1.806
 4455SOL    HW114264   4.244   1.545   1.858
 4455SOL    HW214265   4.106   1.624   1.818
 4456SOL     OW14266   0.863   5.719   3.008
 4456SOL    HW114267   0.881   5.676   3.097
 4456SOL    HW214268   0.946   5.764   2.976
 4457SOL     OW14269   5.129   2.033   6.519
 4457SOL    HW114270   5.098   2.127   6.514
 4457SOL    HW214271   5.200   2.024   6.589
 4458SOL     OW14272   3.870   1.556   6.228
 4458SOL    HW114273   3.777   1.591   6.242
 4458SOL    HW214274   3.931   1.631   6.203
 4459SOL     OW14275   4.788   6.068   5.426
 4459SOL    HW114276   4.874   6.117   5.422
 4459SOL    HW214277   4.764   6.033   5.336
 4460SOL     OW14278   1.835   1.764   6.453
 4460SOL    HW114279   1.905   1.811   6.399
 4460SOL    HW214280   1.762   1.828   6.477
 4461SOL     OW14281   2.435   0.114   1.937
 4461SOL    HW114282   2.418   0.079   1.844
 4461SOL    HW214283   2.378   0.194   1.953
 4462SOL     OW14284   6.781   5.659   1.824
 4462SOL    HW114285   6.801   5.616   1.735
 4462SOL    HW214286   6.865   5.660   1.879
 4463SOL     OW14287   1.692   3.548   5.851
 4463SOL    HW114288   1.766   3.481   5.863
 4463SOL    HW214289   1.604   3.502   5.859
 4464SOL     OW14290   5.888   3.300   6.351
 4464SOL    HW114291   5.807   3.356   6.368
 4464SOL    HW214292   5.913   3.250   6.434
 4465SOL     OW14293   1.405   6.175   2.321
 4465SOL    HW114294   1.418   6.078   2.301
 4465SOL    HW214295   1.379   6.224   2.238
 4466SOL     OW14296   0.742   2.315   3.782
 4466SOL    HW114297   0.643   2.318   3.789
 4466SOL    HW214298   0.769   2.263   3.701
 4467SOL     OW14299   0.972   6.752   3.050
 4467SOL    HW114300   0.923   6.839   3.056
 4467SOL    HW214301   0.942   6.692   3.124
 4468SOL     OW14302   1.497   2.763   0.505
 4468SOL    HW114303   1.588   2.727   0.483
 4468SOL    HW214304   1.502   2.861   0.520
 4469SOL     OW14305   4.317   0.267   0.199
 4469SOL    HW114306   4.277   0.359   0.199
 4469SOL    HW214307   4.294   0.221   0.284
 4470SOL     OW14308   4.757   4.557   1.284
 4470SOL    HW114309   4.675   4.518   1.325
 4470SOL    HW214310   4.749   4.556   1.184
 4471SOL     OW14311   6.390   3.540   0.657
 4471SOL    HW114312   6.473   3.571   0.612
 4471SOL    HW214313   6.355   3.613   0.716
 4472SOL     OW14314   1.744   4.707   1.850
 4472SOL    HW114315   1.693   4.650   1.785
 4472SOL    HW214316   1.826   4.657   1.879
 4473SOL     OW14317   0.482   6.553   5.441
 4473SOL    HW114318   0.552   6.536   5.372
 4473SOL    HW214319   0.406   6.602   5.399
 4474SOL     OW14320   5.371   0.826   3.617
 4474SOL    HW114321   5.310   0.752   3.644
 4474SOL    HW214322   5.447   0.788   3.563
 4475SOL     OW14323   1.808   4.223   0.426
 4475SOL    HW114324   1.874   4.177   0.367
 4475SOL    HW214325   1.845   4.310   0.457
 4476SOL     OW14326   4.692   6.713   1.973
 4476SOL    HW114327   4.673   6.616   1.985
 4476SOL    HW214328   4.790   6.730   1.987
 4477SOL     OW14329   1.310   1.366   0.558
 4477SOL    HW114330   1.354   1.432   0.619
 4477SOL    HW214331   1.336   1.385   0.464
 4478SOL     OW14332   1.712   5.541   2.023
 4478SOL    HW114333   1.657   5.489   2.089
 4478SOL    HW214334   1.673   5.531   1.932
 4479SOL     OW14335   0.511   0.118   4.948
 4479SOL    HW114336   0.500   0.140   5.044
 4479SOL    HW214337   0.530   0.021   4.937
 4480SOL     OW14338   0.636   4.457   3.367
 4480SOL    HW114339   0.726   4.423   3.340
 4480SOL    HW214340   0.634   4.475   3.465
 4481SOL     OW14341   1.170   0.101   4.574
 4481SOL    HW114342   1.198   0.170   4.507
 4481SOL    HW214343   1.129   0.024   4.526
 4482SOL     OW14344   6.869   4.110   3.890
 4482SOL    HW114345   6.837   4.157   3.972
 4482SOL    HW214346   6.969   4.114   3.886
 4483SOL     OW14347   5.415   2.646   2.207
 4483SOL    HW114348   5.504   2.601   2.211
 4483SOL    HW214349   5.375   2.634   2.116
 4484SOL     OW14350   4.168   2.584   5.656
 4484SOL    HW114351   4.197   2.627   5.570
 4484SOL    HW214352   4.133   2.492   5.636
 4485SOL     OW14353   5.083   1.491   6.561
 4485SOL    HW114354   5.040   1.401   6.567
 4485SOL    HW214355   5.012   1.560   6.546
 4486SOL     OW14356   6.397   2.418   4.447
 4486SOL    HW114357   6.481   2.372   4.418
 4486SOL    HW214358   6.420   2.510   4.480
 4487SOL     OW14359   3.134   3.285   6.488
 4487SOL    HW114360   3.234   3.279   6.477
 4487SOL    HW214361   3.099   3.360   6.432
 4488SOL     OW14362   0.654   1.432   5.348
 4488SOL    HW114363   0.612   1.462   5.262
 4488SOL    HW214364   0.637   1.335   5.361
 4489SOL     OW14365   6.348   0.129   3.959
 4489SOL    HW114366   6.301   0.042   3.972
 4489SOL    HW214367   6.447   0.114   3.963
 4490SOL     OW14368   6.773   2.097   3.847
 4490SOL    HW114369   6.801   2.151   3.927
 4490SOL    HW214370   6.841   2.025   3.831
 4491SOL     OW14371   1.698   3.101   2.854
 4491SOL    HW114372   1.696   3.171   2.783
 4491SOL    HW214373   1.651   3.134   2.936
 4492SOL     OW14374   4.569   3.584   6.691
 4492SOL    HW114375   4.583   3.643   6.611
 4492SOL    HW214376   4.629   3.504   6.684
 4493SOL     OW14377   5.856   4.990   3.811
 4493SOL    HW114378   5.787   5.002   3.739
 4493SOL    HW214379   5.861   5.073   3.866
 4494SOL     OW14380   6.150   3.926   3.756
 4494SOL    HW114381   6.073   3.863   3.750
 4494SOL    HW214382   6.199   3.911   3.842
 4495SOL     OW14383   4.962   6.437   1.020
 4495SOL    HW114384   4.874   6.390   1.027
 4495SOL    HW214385   4.969   6.481   0.931
 4496SOL     OW14386   4.856   4.156   5.563
 4496SOL    HW114387   4.932   4.217   5.542
 4496SOL    HW214388   4.875   4.108   5.649
 4497SOL     OW14389   6.094   5.030   0.535
 4497SOL    HW114390   6.191   5.052   0.525
 4497SOL    HW214391   6.041   5.079   0.466
 4498SOL     OW14392   0.074   3.968   6.755
 4498SOL    HW114393   0.049   3.977   6.852
 4498SOL    HW214394   0.149   3.903   6.746
 4499SOL     OW14395   6.947   3.028   6.268
 4499SOL    HW114396   6.981   2.935   6.277
 4499SOL    HW214397   6.919   3.063   6.357
 4500SOL     OW14398   3.642   4.153   4.262
 4500SOL    HW114399   3.547   4.127   4.281
 4500SOL    HW214400   3.647   4.191   4.169
 4501SOL     OW14401   0.695   4.237   4.939
 4501SOL    HW114402   0.654   4.257   4.850
 4501SOL    HW214403   0.638   4.173   4.989
 4502SOL     OW14404   7.020   3.478   0.253
 4502SOL    HW114405   0.053   3.558   0.280
 4502SOL    HW214406   0.024   3.451   0.160
 4503SOL     OW14407   1.543   1.742   3.507
 4503SOL    HW114408   1.535   1.792   3.421
 4503SOL    HW214409   1.578   1.803   3.578
 4504SOL     OW14410   5.126   2.122   4.804
 4504SOL    HW114411   5.033   2.087   4.800
 4504SOL    HW214412   5.125   2.221   4.818
 4505SOL     OW14413   1.837   5.306   6.034
 4505SOL    HW114414   1.818   5.358   6.118
 4505SOL    HW214415   1.758   5.310   5.973
 4506SOL     OW14416   4.022   0.341   5.380
 4506SOL    HW114417   4.065   0.415   5.431
 4506SOL    HW214418   4.063   0.335   5.289
 4507SOL     OW14419   6.410   4.312   0.810
 4507SOL    HW114420   6.401   4.214   0.827
 4507SOL    HW214421   6.505   4.334   0.791
 4508SOL     OW14422   1.471   3.606   0.587
 4508SOL    HW114423   1.423   3.525   0.552
 4508SOL    HW214424   1.564   3.607   0.550
 4509SOL     OW14425   1.542   1.475   3.923
 4509SOL    HW114426   1.475   1.448   3.992
 4509SOL    HW214427   1.634   1.458   3.957
 4510SOL     OW14428   4.023   6.343   5.152
 4510SOL    HW114429   3.951   6.314   5.215
 4510SOL    HW214430   4.016   6.442   5.137
 4511SOL     OW14431   6.038   2.547   0.266
 4511SOL    HW114432   5.982   2.468   0.242
 4511SOL    HW214433   6.009   2.582   0.355
 4512SOL     OW14434   2.575   5.054   6.971
 4512SOL    HW114435   2.621   4.995   0.017
 4512SOL    HW214436   2.537   5.134   7.019
 4513SOL     OW14437   4.971   0.794   1.866
 4513SOL    HW114438   5.046   0.735   1.897
 4513SOL    HW214439   4.978   0.807   1.767
 4514SOL     OW14440   3.673   1.448   4.858
 4514SOL    HW114441   3.622   1.528   4.829
 4514SOL    HW214442   3.769   1.472   4.871
 4515SOL     OW14443   0.578   5.006   1.122
 4515SOL    HW114444   0.502   5.044   1.069
 4515SOL    HW214445   0.547   4.987   1.215
 4516SOL     OW14446   1.102   0.452   4.900
 4516SOL    HW114447   1.009   0.419   4.910
 4516SOL    HW214448   1.125   0.512   4.977
 4517SOL     OW14449   3.552   6.791   5.202
 4517SOL    HW114450   3.584   6.710   5.251
 4517SOL    HW214451   3.615   6.812   5.127
 4518SOL     OW14452   1.067   1.783   4.466
 4518SOL    HW114453   1.006   1.754   4.392
 4518SOL    HW214454   1.036   1.872   4.501
 4519SOL     OW14455   6.362   2.723   4.022
 4519SOL    HW114456   6.263   2.719   4.039
 4519SOL    HW214457   6.390   2.819   4.017
 4520SOL     OW14458   6.889   3.957   2.784
 4520SOL    HW114459   6.960   4.018   2.749
 4520SOL    HW214460   6.914   3.862   2.765
 4521SOL     OW14461   6.091   2.067   6.406
 4521SOL    HW114462   6.103   2.116   6.493
 4521SOL    HW214463   6.176   2.074   6.352
 4522SOL     OW14464   5.984   0.691   3.955
 4522SOL    HW114465   5.899   0.737   3.978
 4522SOL    HW214466   6.003   0.620   4.023
 4523SOL     OW14467   3.813   3.255   0.078
 4523SOL    HW114468   3.839   3.330   0.139
 4523SOL    HW214469   3.759   3.188   0.128
 4524SOL     OW14470   5.893   6.971   4.907
 4524SOL    HW114471   5.937   6.926   4.829
 4524SOL    HW214472   5.895   0.049   4.893
 4525SOL     OW14473   6.911   1.517   4.966
 4525SOL    HW114474   6.894   1.608   4.928
 4525SOL    HW214475   6.833   1.490   5.024
 4526SOL     OW14476   4.093   0.548   1.089
 4526SOL    HW114477   4.028   0.621   1.112
 4526SOL    HW214478   4.097   0.483   1.165
 4527SOL     OW14479   4.657   0.984   2.977
 4527SOL    HW114480   4.566   0.960   2.942
 4527SOL    HW214481   4.648   1.022   3.069
 4528SOL     OW14482   6.229   0.779   6.525
 4528SOL    HW114483   6.159   0.829   6.575
 4528SOL    HW214484   6.197   0.759   6.432
 4529SOL     OW14485   3.556   6.363   2.880
 4529SOL    HW114486   3.554   6.263   2.875
 4529SOL    HW214487   3.600   6.391   2.966
 4530SOL     OW14488   0.581   3.514   5.720
 4530SOL    HW114489   0.681   3.513   5.726
 4530SOL    HW214490   0.545   3.583   5.782
 4531SOL     OW14491   0.181   3.951   4.155
 4531SOL    HW114492   0.254   3.985   4.095
 4531SOL    HW214493   0.164   3.854   4.135
 4532SOL     OW14494   5.832   1.795   1.142
 4532SOL    HW114495   5.816   1.858   1.218
 4532SOL    HW214496   5.888   1.718   1.174
 4533SOL     OW14497   2.698   6.287   2.650
 4533SOL    HW114498   2.604   6.283   2.682
 4533SOL    HW214499   2.733   6.381   2.661
 4534SOL     OW14500   5.826   4.224   5.570
 4534SOL    HW114501   5.827   4.176   5.482
 4534SOL    HW214502   5.757   4.297   5.567
 4535SOL     OW14503   4.869   2.995   1.726
 4535SOL    HW114504   4.957   2.997   1.773
 4535SOL    HW214505   4.799   3.034   1.786
 4536SOL     OW14506   6.415   1.215   4.317
 4536SOL    HW114507   6.475   1.156   4.262
 4536SOL    HW214508   6.372   1.160   4.389
 4537SOL     OW14509   3.607   2.879   6.334
 4537SOL    HW114510   3.507   2.883   6.339
 4537SOL    HW214511   3.636   2.784   6.322
 4538SOL     OW14512   3.096   1.258   2.848
 4538SOL    HW114513   3.162   1.269   2.774
 4538SOL    HW214514   3.139   1.214   2.927
 4539SOL     OW14515   1.802   1.547   2.746
 4539SOL    HW114516   1.885   1.545   2.802
 4539SOL    HW214517   1.761   1.637   2.751
 4540SOL     OW14518   3.638   2.948   4.645
 4540SOL    HW114519   3.548   2.975   4.680
 4540SOL    HW214520   3.629   2.864   4.592
 4541SOL     OW14521   5.066   1.449   1.344
 4541SOL    HW114522   5.138   1.476   1.407
 4541SOL    HW214523   4.991   1.405   1.394
 4542SOL     OW14524   4.703   0.388   3.135
 4542SOL    HW114525   4.727   0.372   3.039
 4542SOL    HW214526   4.722   0.484   3.159
 4543SOL     OW14527   5.549   1.628   1.881
 4543SOL    HW114528   5.561   1.727   1.891
 4543SOL    HW214529   5.454   1.604   1.897
 4544SOL     OW14530   3.627   4.780   6.228
 4544SOL    HW114531   3.628   4.750   6.132
 4544SOL    HW214532   3.582   4.869   6.234
 4545SOL     OW14533   4.118   2.222   5.497
 4545SOL    HW114534   4.057   2.179   5.564
 4545SOL    HW214535   4.147   2.154   5.430
 4546SOL     OW14536   1.378   6.826   6.046
 4546SOL    HW114537   1.471   6.856   6.028
 4546SOL    HW214538   1.352   6.852   6.139
 4547SOL     OW14539   4.689   1.952   2.079
 4547SOL    HW114540   4.590   1.958   2.089
 4547SOL    HW214541   4.734   1.991   2.159
 4548SOL     OW14542   0.786   3.295   3.805
 4548SOL    HW114543   0.806   3.279   3.709
 4548SOL    HW214544   0.800   3.211   3.857
 4549SOL     OW14545   6.219   2.665   2.631
 4549SOL    HW114546   6.220   2.621   2.721
 4549SOL    HW214547   6.210   2.595   2.560
 4550SOL     OW14548   1.270   6.062   4.360
 4550SOL    HW114549   1.206   5.987   4.352
 4550SOL    HW214550   1.344   6.051   4.293
 4551SOL     OW14551   1.053   3.230   5.822
 4551SOL    HW114552   0.957   3.216   5.798
 4551SOL    HW214553   1.087   3.149   5.871
 4552SOL     OW14554   0.046   3.315   4.709
 4552SOL    HW114555   6.981   3.278   4.744
 4552SOL    HW214556   0.039   3.330   4.611
 4553SOL     OW14557   4.930   4.908   0.141
 4553SOL    HW114558   4.969   4.932   0.052
 4553SOL    HW214559   4.875   4.825   0.132
 4554SOL     OW14560   5.285   0.021   2.605
 4554SOL    HW114561   5.379   0.051   2.589
 4554SOL    HW214562   5.243   7.016   2.518
 4555SOL     OW14563   5.405   1.787   7.019
 4555SOL    HW114564   5.458   1.711   6.981
 4555SOL    HW214565   5.311   1.757   0.017
 4556SOL     OW14566   4.891   1.160   4.035
 4556SOL    HW114567   4.836   1.077   4.033
 4556SOL    HW214568   4.842   1.234   3.988
 4557SOL     OW14569   4.919   0.102   5.529
 4557SOL    HW114570   4.948   0.115   5.623
 4557SOL    HW214571   4.925   0.005   5.506
 4558SOL     OW14572   6.309   2.778   6.277
 4558SOL    HW114573   6.322   2.782   6.376
 4558SOL    HW214574   6.254   2.856   6.248
 4559SOL     OW14575   1.160   6.881   1.037
 4559SOL    HW114576   1.257   6.857   1.027
 4559SOL    HW214577   1.145   6.975   1.005
 4560SOL     OW14578   4.855   3.481   2.730
 4560SOL    HW114579   4.757   3.474   2.750
 4560SOL    HW214580   4.900   3.394   2.753
 4561SOL     OW14581   3.114   0.236   6.547
 4561SOL    HW114582   3.083   0.330   6.537
 4561SOL    HW214583   3.209   0.235   6.580
 4562SOL     OW14584   2.962   4.792   6.516
 4562SOL    HW114585   2.882   4.807   6.458
 4562SOL    HW214586   3.020   4.873   6.515
 4563SOL     OW14587   6.139   2.505   6.614
 4563SOL    HW114588   6.193   2.531   6.695
 4563SOL    HW214589   6.200   2.468   6.544
 4564SOL     OW14590   1.467   5.703   0.224
 4564SOL    HW114591   1.428   5.611   0.223
 4564SOL    HW214592   1.468   5.739   0.131
 4565SOL     OW14593   2.645   0.311   5.114
 4565SOL    HW114594   2.568   0.289   5.054
 4565SOL    HW214595   2.718   0.354   5.060
 4566SOL     OW14596   6.947   1.848   6.738
 4566SOL    HW114597   0.017   1.821   6.704
 4566SOL    HW214598   6.951   1.864   6.836
 4567SOL     OW14599   0.252   0.984   0.677
 4567SOL    HW114600   0.316   0.947   0.744
 4567SOL    HW214601   0.266   1.083   0.667
 4568SOL     OW14602   3.705   4.458   5.399
 4568SOL    HW114603   3.678   4.479   5.493
 4568SOL    HW214604   3.762   4.533   5.364
 4569SOL     OW14605   0.410   2.100   4.826
 4569SOL    HW114606   0.372   2.164   4.892
 4569SOL    HW214607   0.501   2.131   4.798
 4570SOL     OW14608   0.581   5.035   3.971
 4570SOL    HW114609   0.617   5.128   3.967
 4570SOL    HW214610   0.518   5.020   3.895
 4571SOL     OW14611   3.449   3.011   4.831
 4571SOL    HW114612   3.450   3.000   4.930
 4571SOL    HW214613   3.367   3.062   4.803
 4572SOL     OW14614   1.647   5.975   0.902
 4572SOL    HW114615   1.637   5.953   0.805
 4572SOL    HW214616   1.719   5.918   0.943
 4573SOL     OW14617   4.984   0.188   0.869
 4573SOL    HW114618   4.995   0.160   0.964
 4573SOL    HW214619   5.037   0.127   0.810
 4574SOL     OW14620   0.319   4.482   2.507
 4574SOL    HW114621   0.321   4.385   2.533
 4574SOL    HW214622   0.301   4.490   2.409
 4575SOL     OW14623   6.141   0.189   2.640
 4575SOL    HW114624   6.147   0.091   2.656
 4575SOL    HW214625   6.045   0.217   2.633
 4576SOL     OW14626   2.777   5.815   5.244
 4576SOL    HW114627   2.824   5.901   5.227
 4576SOL    HW214628   2.817   5.743   5.186
 4577SOL     OW14629   0.877   3.059   3.396
 4577SOL    HW114630   0.886   3.111   3.481
 4577SOL    HW214631   0.958   3.002   3.383
 4578SOL     OW14632   6.436   4.182   4.060
 4578SOL    HW114633   6.529   4.194   4.096
 4578SOL    HW214634   6.382   4.128   4.124
 4579SOL     OW14635   5.675   1.871   3.825
 4579SOL    HW114636   5.696   1.965   3.800
 4579SOL    HW214637   5.717   1.808   3.759
 4580SOL     OW14638   6.922   5.706   0.725
 4580SOL    HW114639   7.011   5.671   0.698
 4580SOL    HW214640   6.851   5.640   0.701
 4581SOL     OW14641   3.449   5.884   2.906
 4581SOL    HW114642   3.475   5.857   2.814
 4581SOL    HW214643   3.353   5.911   2.907
 4582SOL     OW14644   4.520   6.515   2.103
 4582SOL    HW114645   4.475   6.567   2.176
 4582SOL    HW214646   4.456   6.502   2.028
 4583SOL     OW14647   4.526   1.608   5.662
 4583SOL    HW114648   4.439   1.656   5.671
 4583SOL    HW214649   4.509   1.510   5.657
 4584SOL     OW14650   0.561   5.435   5.626
 4584SOL    HW114651   0.497   5.365   5.598
 4584SOL    HW214652   0.514   5.503   5.683
 4585SOL     OW14653   3.998   6.540   2.607
 4585SOL    HW114654   3.900   6.524   2.594
 4585SOL    HW214655   4.012   6.633   2.642
 4586SOL     OW14656   3.361   5.200   2.603
 4586SOL    HW114657   3.284   5.198   2.539
 4586SOL    HW214658   3.382   5.107   2.633
 4587SOL     OW14659   2.177   4.092   1.729
 4587SOL    HW114660   2.265   4.104   1.683
 4587SOL    HW214661   2.150   4.178   1.772
 4588SOL     OW14662   4.324   3.698   5.209
 4588SOL    HW114663   4.288   3.723   5.119
 4588SOL    HW214664   4.275   3.748   5.280
 4589SOL     OW14665   6.728   2.349   4.699
 4589SOL    HW114666   6.682   2.340   4.787
 4589SOL    HW214667   6.746   2.258   4.661
 4590SOL     OW14668   4.716   5.602   2.290
 4590SOL    HW114669   4.803   5.637   2.255
 4590SOL    HW214670   4.647   5.604   2.217
 4591SOL     OW14671   5.573   5.980   5.538
 4591SOL    HW114672   5.543   6.022   5.624
 4591SOL    HW214673   5.501   5.921   5.503
 4592SOL     OW14674   4.017   1.982   6.219
 4592SOL    HW114675   3.919   1.967   6.202
 4592SOL    HW214676   4.036   2.080   6.218
 4593SOL     OW14677   3.827   5.805   2.791
 4593SOL    HW114678   3.805   5.708   2.784
 4593SOL    HW214679   3.804   5.838   2.883
 4594SOL     OW14680   2.669   0.807   1.910
 4594SOL    HW114681   2.719   0.752   1.976
 4594SOL    HW214682   2.573   0.780   1.910
 4595SOL     OW14683   4.005   2.426   5.827
 4595SOL    HW114684   3.992   2.427   5.926
 4595SOL    HW214685   4.072   2.494   5.801
 4596SOL     OW14686   5.549   0.124   1.606
 4596SOL    HW114687   5.580   0.209   1.650
 4596SOL    HW214688   5.476   0.145   1.542
 4597SOL     OW14689   6.270   4.862   6.857
 4597SOL    HW114690   6.208   4.822   6.924
 4597SOL    HW214691   6.320   4.938   6.899
 4598SOL     OW14692   2.719   4.782   6.935
 4598SOL    HW114693   2.659   4.758   6.858
 4598SOL    HW214694   2.799   4.722   6.935
 4599SOL     OW14695   1.217   4.534   0.512
 4599SOL    HW114696   1.249   4.616   0.464
 4599SOL    HW214697   1.205   4.555   0.609
 4600SOL     OW14698   3.231   5.651   1.450
 4600SOL    HW114699   3.301   5.716   1.418
 4600SOL    HW214700   3.141   5.687   1.429
 4601SOL     OW14701   2.112   6.382   5.171
 4601SOL    HW114702   2.076   6.414   5.083
 4601SOL    HW214703   2.210   6.398   5.175
 4602SOL     OW14704   1.746   0.598   1.185
 4602SOL    HW114705   1.768   0.694   1.175
 4602SOL    HW214706   1.653   0.581   1.152
 4603SOL     OW14707   3.673   6.608   1.615
 4603SOL    HW114708   3.618   6.677   1.569
 4603SOL    HW214709   3.628   6.519   1.608
 4604SOL     OW14710   3.418   6.509   2.271
 4604SOL    HW114711   3.454   6.592   2.228
 4604SOL    HW214712   3.384   6.532   2.363
 4605SOL     OW14713   5.122   6.874   4.787
 4605SOL    HW114714   5.171   6.961   4.781
 4605SOL    HW214715   5.080   6.866   4.877
 4606SOL     OW14716   0.028   6.140   5.462
 4606SOL    HW114717   0.084   6.219   5.488
 4606SOL    HW214718   0.006   6.087   5.544
 4607SOL     OW14719   2.970   2.077   1.033
 4607SOL    HW114720   2.890   2.130   1.004
 4607SOL    HW214721   2.947   2.025   1.115
 4608SOL     OW14722   1.580   3.847   5.631
 4608SOL    HW114723   1.620   3.890   5.550
 4608SOL    HW214724   1.638   3.771   5.660
 4609SOL     OW14725   4.507   6.542   6.271
 4609SOL    HW114726   4.595   6.549   6.318
 4609SOL    HW214727   4.440   6.501   6.333
 4610SOL     OW14728   0.733   3.165   6.543
 4610SOL    HW114729   0.715   3.078   6.589
 4610SOL    HW214730   0.663   3.181   6.473
 4611SOL     OW14731   0.706   4.101   0.015
 4611SOL    HW114732   0.721   4.199   0.004
 4611SOL    HW214733   0.686   4.082   0.111
 4612SOL     OW14734   2.195   6.872   6.680
 4612SOL    HW114735   2.203   6.917   6.769
 4612SOL    HW214736   2.285   6.865   6.638
 4613SOL     OW14737   3.190   5.086   2.162
 4613SOL    HW114738   3.232   5.025   2.096
 4613SOL    HW214739   3.255   5.158   2.187
 4614SOL     OW14740   1.522   5.778   6.985
 4614SOL    HW114741   1.471   5.760   6.901
 4614SOL    HW214742   1.618   5.753   6.972
 4615SOL     OW14743   0.216   2.540   0.392
 4615SOL    HW114744   0.129   2.528   0.344
 4615SOL    HW214745   0.274   2.603   0.341
 4616SOL     OW14746   5.812   1.083   6.707
 4616SOL    HW114747   5.826   1.043   6.616
 4616SOL    HW214748   5.763   1.170   6.697
 4617SOL     OW14749   0.090   2.893   2.602
 4617SOL    HW114750   0.137   2.976   2.573
 4617SOL    HW214751   7.016   2.895   2.570
 4618SOL     OW14752   0.869   2.169   6.051
 4618SOL    HW114753   0.892   2.074   6.069
 4618SOL    HW214754   0.845   2.214   6.137
 4619SOL     OW14755   3.541   0.697   3.705
 4619SOL    HW114756   3.554   0.622   3.770
 4619SOL    HW214757   3.537   0.784   3.754
 4620SOL     OW14758   2.319   3.929   6.453
 4620SOL    HW114759   2.374   3.943   6.535
 4620SOL    HW214760   2.288   4.017   6.417
 4621SOL     OW14761   0.113   5.836   6.441
 4621SOL    HW114762   0.173   5.828   6.521
 4621SOL    HW214763   0.019   5.855   6.472
 4622SOL     OW14764   2.252   3.818   1.368
 4622SOL    HW114765   2.162   3.792   1.404
 4622SOL    HW214766   2.300   3.875   1.435
 4623SOL     OW14767   5.936   4.391   2.220
 4623SOL    HW114768   6.011   4.425   2.276
 4623SOL    HW214769   5.942   4.431   2.128
 4624SOL     OW14770   4.777   6.645   4.955
 4624SOL    HW114771   4.742   6.567   4.904
 4624SOL    HW214772   4.716   6.665   5.032
 4625SOL     OW14773   0.876   3.527   6.754
 4625SOL    HW114774   0.922   3.574   6.679
 4625SOL    HW214775   0.830   3.595   6.812
 4626SOL     OW14776   6.214   5.130   1.386
 4626SOL    HW114777   6.272   5.086   1.317
 4626SOL    HW214778   6.227   5.085   1.474
 4627SOL     OW14779   2.994   0.036   6.329
 4627SOL    HW114780   2.943   0.049   6.414
 4627SOL    HW214781   2.937   0.061   6.251
 4628SOL     OW14782   0.323   3.832   1.771
 4628SOL    HW114783   0.248   3.778   1.733
 4628SOL    HW214784   0.293   3.874   1.857
 4629SOL     OW14785   2.750   5.178   5.440
 4629SOL    HW114786   2.806   5.160   5.359
 4629SOL    HW214787   2.702   5.095   5.467
 4630SOL     OW14788   1.919   6.789   2.776
 4630SOL    HW114789   1.897   6.726   2.851
 4630SOL    HW214790   1.991   6.851   2.805
 4631SOL     OW14791   3.166   6.989   2.378
 4631SOL    HW114792   3.104   6.914   2.355
 4631SOL    HW214793   3.169   0.034   2.303
 4632SOL     OW14794   5.117   5.613   4.053
 4632SOL    HW114795   5.154   5.565   3.974
 4632SOL    HW214796   5.023   5.583   4.069
 4633SOL     OW14797   6.541   2.338   4.906
 4633SOL    HW114798   6.589   2.412   4.954
 4633SOL    HW214799   6.455   2.373   4.869
 4634SOL     OW14800   3.185   4.144   0.688
 4634SOL    HW114801   3.132   4.060   0.681
 4634SOL    HW214802   3.221   4.169   0.598
 4635SOL     OW14803   5.373   3.970   1.560
 4635SOL    HW114804   5.460   3.923   1.545
 4635SOL    HW214805   5.315   3.959   1.479
 4636SOL     OW14806   2.301   5.168   0.638
 4636SOL    HW114807   2.359   5.220   0.700
 4636SOL    HW214808   2.279   5.079   0.679
 4637SOL     OW14809   1.423   1.115   5.252
 4637SOL    HW114810   1.461   1.173   5.179
 4637SOL    HW214811   1.451   1.020   5.237
 4638SOL     OW14812   5.397   3.518   5.475
 4638SOL    HW114813   5.371   3.579   5.550
 4638SOL    HW214814   5.341   3.435   5.479
 4639SOL     OW14815   6.911   3.844   5.136
 4639SOL    HW114816   6.937   3.909   5.064
 4639SOL    HW214817   6.874   3.894   5.215
 4640SOL     OW14818   5.933   3.824   2.690
 4640SOL    HW114819   5.864   3.893   2.667
 4640SOL    HW214820   6.000   3.863   2.754
 4641SOL     OW14821   2.224   4.857   5.585
 4641SOL    HW114822   2.288   4.872   5.509
 4641SOL    HW214823   2.190   4.764   5.582
 4642SOL     OW14824   5.478   6.342   4.170
 4642SOL    HW114825   5.411   6.328   4.098
 4642SOL    HW214826   5.510   6.254   4.205
 4643SOL     OW14827   4.105   1.924   1.327
 4643SOL    HW114828   4.124   1.947   1.232
 4643SOL    HW214829   4.115   2.005   1.385
 4644SOL     OW14830   2.176   5.614   4.810
 4644SOL    HW114831   2.171   5.518   4.783
 4644SOL    HW214832   2.185   5.621   4.909
 4645SOL     OW14833   2.164   6.122   4.958
 4645SOL    HW114834   2.178   6.111   5.056
 4645SOL    HW214835   2.089   6.063   4.928
 4646SOL     OW14836   3.717   0.547   1.576
 4646SOL    HW114837   3.716   0.448   1.589
 4646SOL    HW214838   3.641   0.574   1.517
 4647SOL     OW14839   6.693   0.447   4.540
 4647SOL    HW114840   6.642   0.426   4.623
 4647SOL    HW214841   6.696   0.366   4.482
 4648SOL     OW14842   2.219   5.941   2.771
 4648SOL    HW114843   2.202   5.966   2.867
 4648SOL    HW214844   2.146   5.978   2.713
 4649SOL     OW14845   5.752   0.006   5.608
 4649SOL    HW114846   5.806   0.004   5.692
 4649SOL    HW214847   5.811   7.005   5.530
 4650SOL     OW14848   6.398   4.590   2.349
 4650SOL    HW114849   6.488   4.553   2.327
 4650SOL    HW214850   6.408   4.682   2.385
 4651SOL     OW14851   0.001   2.355   1.595
 4651SOL    HW114852   0.028   2.426   1.660
 4651SOL    HW214853   0.027   2.383   1.503
 4652SOL     OW14854   0.052   6.126   6.055
 4652SOL    HW114855   0.032   6.222   6.033
 4652SOL    HW214856   7.012   6.096   6.128
 4653SOL     OW14857   0.549   5.756   6.861
 4653SOL    HW114858   0.637   5.775   6.818
 4653SOL    HW214859   0.562   5.739   6.958
 4654SOL     OW14860   1.137   1.101   6.742
 4654SOL    HW114861   1.091   1.124   6.828
 4654SOL    HW214862   1.103   1.162   6.670
 4655SOL     OW14863   0.268   5.074   3.553
 4655SOL    HW114864   0.188   5.132   3.572
 4655SOL    HW214865   0.271   5.053   3.456
 4656SOL     OW14866   1.874   6.483   3.303
 4656SOL    HW114867   1.940   6.415   3.271
 4656SOL    HW214868   1.888   6.501   3.400
 4657SOL     OW14869   6.151   0.420   0.305
 4657SOL    HW114870   6.100   0.338   0.329
 4657SOL    HW214871   6.248   0.406   0.323
 4658SOL     OW14872   5.538   0.748   3.423
 4658SOL    HW114873   5.634   0.754   3.451
 4658SOL    HW214874   5.529   0.771   3.326
 4659SOL     OW14875   2.327   2.367   4.860
 4659SOL    HW114876   2.292   2.460   4.859
 4659SOL    HW214877   2.262   2.306   4.814
 4660SOL     OW14878   0.212   0.351   6.196
 4660SOL    HW114879   0.197   0.265   6.148
 4660SOL    HW214880   0.136   0.413   6.179
 4661SOL     OW14881   4.110   3.671   3.364
 4661SOL    HW114882   4.061   3.745   3.411
 4661SOL    HW214883   4.164   3.710   3.290
 4662SOL     OW14884   4.886   0.541   5.090
 4662SOL    HW114885   4.865   0.444   5.082
 4662SOL    HW214886   4.808   0.594   5.056
 4663SOL     OW14887   0.256   2.258   2.611
 4663SOL    HW114888   0.322   2.285   2.681
 4663SOL    HW214889   0.163   2.263   2.648
 4664SOL     OW14890   3.081   2.048   6.799
 4664SOL    HW114891   3.058   2.145   6.794
 4664SOL    HW214892   3.031   2.006   6.875
 4665SOL     OW14893   5.548   0.725   0.165
 4665SOL    HW114894   5.564   0.681   0.077
 4665SOL    HW214895   5.473   0.791   0.156
 4666SOL     OW14896   1.910   1.411   0.774
 4666SOL    HW114897   1.986   1.465   0.739
 4666SOL    HW214898   1.876   1.453   0.858
 4667SOL     OW14899   0.853   5.579   6.116
 4667SOL    HW114900   0.915   5.566   6.038
 4667SOL    HW214901   0.859   5.499   6.177
 4668SOL     OW14902   6.226   1.590   4.035
 4668SOL    HW114903   6.137   1.621   4.069
 4668SOL    HW214904   6.236   1.492   4.055
 4669SOL     OW14905   2.510   0.353   0.581
 4669SOL    HW114906   2.566   0.289   0.529
 4669SOL    HW214907   2.503   0.323   0.676
 4670SOL     OW14908   2.033   1.400   4.098
 4670SOL    HW114909   2.054   1.431   4.191
 4670SOL    HW214910   2.104   1.336   4.068
 4671SOL     OW14911   5.618   3.720   0.926
 4671SOL    HW114912   5.532   3.771   0.926
 4671SOL    HW214913   5.684   3.767   0.867
 4672SOL     OW14914   2.305   3.740   5.755
 4672SOL    HW114915   2.404   3.733   5.750
 4672SOL    HW214916   2.268   3.763   5.664
 4673SOL     OW14917   3.946   0.545   2.679
 4673SOL    HW114918   4.030   0.600   2.678
 4673SOL    HW214919   3.908   0.545   2.772
 4674SOL     OW14920   4.507   5.848   6.302
 4674SOL    HW114921   4.588   5.833   6.244
 4674SOL    HW214922   4.536   5.877   6.393
 4675SOL     OW14923   0.756   4.365   0.032
 4675SOL    HW114924   0.726   4.456   0.002
 4675SOL    HW214925   0.842   4.373   0.083
 4676SOL     OW14926   0.988   5.677   4.105
 4676SOL    HW114927   1.031   5.749   4.158
 4676SOL    HW214928   1.057   5.632   4.048
 4677SOL     OW14929   1.249   3.041   0.331
 4677SOL    HW114930   1.272   3.111   0.264
 4677SOL    HW214931   1.292   3.063   0.419
 4678SOL     OW14932   2.639   4.597   2.250
 4678SOL    HW114933   2.711   4.555   2.307
 4678SOL    HW214934   2.678   4.672   2.198
 4679SOL     OW14935   5.145   0.168   1.461
 4679SOL    HW114936   5.189   0.248   1.420
 4679SOL    HW214937   5.081   0.197   1.532
 4680SOL     OW14938   2.203   1.324   1.562
 4680SOL    HW114939   2.117   1.280   1.537
 4680SOL    HW214940   2.187   1.421   1.580
 4681SOL     OW14941   4.911   5.017   1.199
 4681SOL    HW114942   4.921   4.965   1.284
 4681SOL    HW214943   4.963   5.103   1.206
 4682SOL     OW14944   3.773   3.740   6.681
 4682SOL    HW114945   3.683   3.777   6.656
 4682SOL    HW214946   3.845   3.800   6.646
 4683SOL     OW14947   6.317   4.430   3.388
 4683SOL    HW114948   6.287   4.361   3.323
 4683SOL    HW214949   6.243   4.495   3.405
 4684SOL     OW14950   5.300   6.990   6.938
 4684SOL    HW114951   5.258   0.025   7.010
 4684SOL    HW214952   5.234   6.922   6.906
 4685SOL     OW14953   3.117   3.389   5.812
 4685SOL    HW114954   3.111   3.318   5.742
 4685SOL    HW214955   3.068   3.470   5.781
 4686SOL     OW14956   2.845   5.395   0.156
 4686SOL    HW114957   2.925   5.440   0.116
 4686SOL    HW214958   2.767   5.406   0.095
 4687SOL     OW14959   2.756   0.858   3.225
 4687SOL    HW114960   2.663   0.896   3.225
 4687SOL    HW214961   2.817   0.919   3.177
 4688SOL     OW14962   5.803   3.179   5.459
 4688SOL    HW114963   5.822   3.108   5.527
 4688SOL    HW214964   5.829   3.145   5.368
 4689SOL     OW14965   5.757   1.126   1.783
 4689SOL    HW114966   5.833   1.187   1.807
 4689SOL    HW214967   5.761   1.105   1.685
 4690SOL     OW14968   2.404   1.925   0.558
 4690SOL    HW114969   2.497   1.897   0.535
 4690SOL    HW214970   2.339   1.854   0.532
 4691SOL     OW14971   6.949   4.205   2.135
 4691SOL    HW114972   6.968   4.107   2.144
 4691SOL    HW214973   6.859   4.225   2.174
 4692SOL     OW14974   5.561   3.866   2.024
 4692SOL    HW114975   5.605   3.950   1.995
 4692SOL    HW214976   5.467   3.885   2.051
 4693SOL     OW14977   1.755   1.005   3.931
 4693SOL    HW114978   1.784   0.915   3.963
 4693SOL    HW214979   1.732   1.062   4.011
 4694SOL     OW14980   1.813   1.296   0.253
 4694SOL    HW114981   1.784   1.325   0.344
 4694SOL    HW214982   1.746   1.232   0.215
 4695SOL     OW14983   1.059   6.013   1.702
 4695SOL    HW114984   1.071   6.071   1.621
 4695SOL    HW214985   0.963   5.984   1.707
 4696SOL     OW14986   1.157   5.317   5.492
 4696SOL    HW114987   1.175   5.415   5.496
 4696SOL    HW214988   1.060   5.300   5.511
 4697SOL     OW14989   3.791   4.838   0.781
 4697SOL    HW114990   3.817   4.866   0.874
 4697SOL    HW214991   3.693   4.817   0.779
 4698SOL     OW14992   5.676   1.159   3.100
 4698SOL    HW114993   5.724   1.214   3.168
 4698SOL    HW214994   5.605   1.215   3.057
 4699SOL     OW14995   1.250   0.063   2.858
 4699SOL    HW114996   1.176   0.012   2.815
 4699SOL    HW214997   1.336   0.041   2.812
 4700SOL     OW14998   6.507   2.052   2.564
 4700SOL    HW114999   6.442   2.049   2.641
 4700SOL    HW215000   6.472   2.113   2.493
 4701SOL     OW15001   3.176   2.210   1.726
 4701SOL    HW115002   3.144   2.288   1.673
 4701SOL    HW215003   3.258   2.236   1.777
 4702SOL     OW15004   5.612   4.568   6.422
 4702SOL    HW115005   5.702   4.534   6.446
 4702SOL    HW215006   5.566   4.503   6.362
 4703SOL     OW15007   0.725   5.135   3.572
 4703SOL    HW115008   0.744   5.067   3.502
 4703SOL    HW215009   0.697   5.221   3.529
 4704SOL     OW15010   0.933   4.768   4.934
 4704SOL    HW115011   0.879   4.689   4.964
 4704SOL    HW215012   0.900   4.850   4.980
 4705SOL     OW15013   3.417   2.399   1.681
 4705SOL    HW115014   3.488   2.362   1.741
 4705SOL    HW215015   3.427   2.360   1.590
 4706SOL     OW15016   2.092   0.295   0.542
 4706SOL    HW115017   2.159   0.301   0.468
 4706SOL    HW215018   2.006   0.258   0.507
 4707SOL     OW15019   1.844   5.798   1.616
 4707SOL    HW115020   1.897   5.751   1.687
 4707SOL    HW215021   1.771   5.851   1.660
 4708SOL     OW15022   0.668   3.110   4.424
 4708SOL    HW115023   0.603   3.035   4.430
 4708SOL    HW215024   0.697   3.137   4.515
 4709SOL     OW15025   4.759   3.878   5.230
 4709SOL    HW115026   4.806   3.931   5.159
 4709SOL    HW215027   4.741   3.786   5.197
 4710SOL     OW15028   6.355   6.390   4.390
 4710SOL    HW115029   6.312   6.379   4.300
 4710SOL    HW215030   6.286   6.384   4.461
 4711SOL     OW15031   5.724   3.285   3.383
 4711SOL    HW115032   5.820   3.263   3.369
 4711SOL    HW215033   5.715   3.383   3.405
 4712SOL     OW15034   4.571   4.058   5.365
 4712SOL    HW115035   4.527   4.000   5.433
 4712SOL    HW215036   4.615   4.000   5.295
 4713SOL     OW15037   6.120   4.335   1.288
 4713SOL    HW115038   6.023   4.354   1.271
 4713SOL    HW215039   6.129   4.287   1.375
 4714SOL     OW15040   5.697   1.537   6.203
 4714SOL    HW115041   5.696   1.584   6.115
 4714SOL    HW215042   5.607   1.497   6.221
 4715SOL     OW15043   6.598   1.293   2.130
 4715SOL    HW115044   6.505   1.319   2.103
 4715SOL    HW215045   6.596   1.249   2.219
 4716SOL     OW15046   4.063   4.363   5.962
 4716SOL    HW115047   3.974   4.324   5.984
 4716SOL    HW215048   4.055   4.463   5.955
 4717SOL     OW15049   2.710   5.375   5.091
 4717SOL    HW115050   2.762   5.297   5.126
 4717SOL    HW215051   2.619   5.344   5.062
 4718SOL     OW15052   4.755   4.611   0.501
 4718SOL    HW115053   4.702   4.657   0.430
 4718SOL    HW215054   4.826   4.555   0.458
 4719SOL     OW15055   0.133   4.154   3.821
 4719SOL    HW115056   0.124   4.204   3.907
 4719SOL    HW215057   0.197   4.200   3.761
 4720SOL     OW15058   2.671   3.938   6.931
 4720SOL    HW115059   2.771   3.941   6.925
 4720SOL    HW215060   2.638   4.024   6.971
 4721SOL     OW15061   6.153   3.200   3.482
 4721SOL    HW115062   6.164   3.211   3.580
 4721SOL    HW215063   6.081   3.134   3.463
 4722SOL     OW15064   1.737   4.465   6.800
 4722SOL    HW115065   1.782   4.395   6.855
 4722SOL    HW215066   1.654   4.427   6.759
 4723SOL     OW15067   3.883   4.182   6.853
 4723SOL    HW115068   3.933   4.229   6.925
 4723SOL    HW215069   3.945   4.162   6.777
 4724SOL     OW15070   1.298   6.613   4.858
 4724SOL    HW115071   1.221   6.560   4.893
 4724SOL    HW215072   1.264   6.696   4.815
 4725SOL     OW15073   5.146   6.074   0.375
 4725SOL    HW115074   5.074   6.006   0.364
 4725SOL    HW215075   5.235   6.032   0.355
 4726SOL     OW15076   1.247   3.408   5.744
 4726SOL    HW115077   1.310   3.427   5.820
 4726SOL    HW215078   1.171   3.352   5.777
 4727SOL     OW15079   0.736   5.722   0.869
 4727SOL    HW115080   0.727   5.666   0.952
 4727SOL    HW215081   0.673   5.799   0.874
 4728SOL     OW15082   6.588   2.071   4.797
 4728SOL    HW115083   6.668   2.051   4.853
 4728SOL    HW215084   6.560   2.166   4.810
 4729SOL     OW15085   5.943   1.289   1.876
 4729SOL    HW115086   5.924   1.387   1.867
 4729SOL    HW215087   6.022   1.265   1.820
 4730SOL     OW15088   3.294   6.921   4.986
 4730SOL    HW115089   3.385   6.961   4.976
 4730SOL    HW215090   3.245   6.969   5.059
 4731SOL     OW15091   3.498   0.307   0.281
 4731SOL    HW115092   3.513   0.370   0.358
 4731SOL    HW215093   3.566   0.324   0.210
 4732SOL     OW15094   0.291   4.744   3.947
 4732SOL    HW115095   0.248   4.823   3.904
 4732SOL    HW215096   0.373   4.718   3.896
 4733SOL     OW15097   1.853   3.768   3.516
 4733SOL    HW115098   1.823   3.715   3.595
 4733SOL    HW215099   1.938   3.730   3.480
 4734SOL     OW15100   4.898   3.146   0.069
 4734SOL    HW115101   4.934   3.214   0.005
 4734SOL    HW215102   4.971   3.117   0.131
 4735SOL     OW15103   0.060   0.231   5.215
 4735SOL    HW115104   0.092   0.137   5.230
 4735SOL    HW215105   0.132   0.284   5.172
 4736SOL     OW15106   6.773   2.026   3.486
 4736SOL    HW115107   6.747   2.092   3.416
 4736SOL    HW215108   6.691   1.975   3.515
 4737SOL     OW15109   2.347   4.610   1.004
 4737SOL    HW115110   2.297   4.672   1.065
 4737SOL    HW215111   2.283   4.548   0.959
 4738SOL     OW15112   1.783   6.359   3.832
 4738SOL    HW115113   1.801   6.347   3.929
 4738SOL    HW215114   1.730   6.443   3.817
 4739SOL     OW15115   5.670   3.573   3.791
 4739SOL    HW115116   5.737   3.589   3.863
 4739SOL    HW215117   5.578   3.590   3.827
 4740SOL     OW15118   0.724   1.291   1.450
 4740SOL    HW115119   0.709   1.274   1.547
 4740SOL    HW215120   0.706   1.207   1.398
 4741SOL     OW15121   4.205   4.390   1.728
 4741SOL    HW115122   4.260   4.316   1.765
 4741SOL    HW215123   4.214   4.471   1.785
 4742SOL     OW15124   2.824   6.148   1.798
 4742SOL    HW115125   2.829   6.150   1.698
 4742SOL    HW215126   2.743   6.097   1.826
 4743SOL     OW15127   2.435   2.498   0.475
 4743SOL    HW115128   2.430   2.417   0.415
 4743SOL    HW215129   2.518   2.549   0.454
 4744SOL     OW15130   1.791   3.234   5.398
 4744SOL    HW115131   1.693   3.250   5.385
 4744SOL    HW215132   1.841   3.262   5.316
 4745SOL     OW15133   3.097   5.631   5.117
 4745SOL    HW115134   3.120   5.712   5.172
 4745SOL    HW215135   2.999   5.632   5.096
 4746SOL     OW15136   6.349   0.898   0.602
 4746SOL    HW115137   6.410   0.827   0.639
 4746SOL    HW215138   6.316   0.955   0.677
 4747SOL     OW15139   6.196   2.371   0.976
 4747SOL    HW115140   6.180   2.358   1.074
 4747SOL    HW215141   6.114   2.410   0.934
 4748SOL     OW15142   1.436   0.602   1.864
 4748SOL    HW115143   1.530   0.581   1.889
 4748SOL    HW215144   1.432   0.693   1.822
 4749SOL     OW15145   1.518   6.883   6.735
 4749SOL    HW115146   1.448   6.951   6.715
 4749SOL    HW215147   1.497   6.838   6.821
 4750SOL     OW15148   0.043   1.120   4.473
 4750SOL    HW115149   6.966   1.131   4.456
 4750SOL    HW215150   0.060   1.031   4.516
 4751SOL     OW15151   1.240   3.753   6.390
 4751SOL    HW115152   1.298   3.686   6.344
 4751SOL    HW215153   1.189   3.805   6.321
 4752SOL     OW15154   2.983   5.783   1.368
 4752SOL    HW115155   2.923   5.716   1.413
 4752SOL    HW215156   2.955   5.794   1.273
 4753SOL     OW15157   6.620   6.493   5.212
 4753SOL    HW115158   6.609   6.450   5.123
 4753SOL    HW215159   6.644   6.423   5.280
 4754SOL     OW15160   1.094   0.260   5.596
 4754SOL    HW115161   1.125   0.342   5.547
 4754SOL    HW215162   1.062   0.286   5.687
 4755SOL     OW15163   2.718   2.093   6.718
 4755SOL    HW115164   2.719   2.153   6.798
 4755SOL    HW215165   2.675   2.141   6.641
 4756SOL     OW15166   5.046   2.961   1.219
 4756SOL    HW115167   5.013   3.047   1.258
 4756SOL    HW215168   5.104   2.980   1.140
 4757SOL     OW15169   1.905   2.242   1.052
 4757SOL    HW115170   1.995   2.203   1.032
 4757SOL    HW215171   1.856   2.258   0.966
 4758SOL     OW15172   5.495   4.838   5.676
 4758SOL    HW115173   5.520   4.932   5.698
 4758SOL    HW215174   5.418   4.838   5.612
 4759SOL     OW15175   5.576   5.484   5.347
 4759SOL    HW115176   5.641   5.541   5.296
 4759SOL    HW215177   5.586   5.389   5.319
 4760SOL     OW15178   1.363   1.954   1.382
 4760SOL    HW115179   1.456   1.946   1.420
 4760SOL    HW215180   1.358   1.901   1.297
 4761SOL     OW15181   0.805   6.114   5.884
 4761SOL    HW115182   0.723   6.163   5.913
 4761SOL    HW215183   0.877   6.180   5.862
 4762SOL     OW15184   2.878   5.893   2.699
 4762SOL    HW115185   2.897   5.922   2.793
 4762SOL    HW215186   2.788   5.925   2.671
 4763SOL     OW15187   6.118   5.742   4.244
 4763SOL    HW115188   6.038   5.789   4.280
 4763SOL    HW215189   6.110   5.644   4.261
 4764SOL     OW15190   3.681   3.595   4.019
 4764SOL    HW115191   3.743   3.566   3.946
 4764SOL    HW215192   3.727   3.585   4.107
 4765SOL     OW15193   5.608   5.757   4.727
 4765SOL    HW115194   5.590   5.855   4.737
 4765SOL    HW215195   5.559   5.706   4.797
 4766SOL     OW15196   3.289   0.716   2.779
 4766SOL    HW115197   3.267   0.621   2.758
 4766SOL    HW215198   3.380   0.738   2.742
 4767SOL     OW15199   4.100   5.783   6.652
 4767SOL    HW115200   4.129   5.832   6.570
 4767SOL    HW215201   4.159   5.807   6.729
 4768SOL     OW15202   6.930   0.730   5.379
 4768SOL    HW115203   6.912   0.778   5.293
 4768SOL    HW215204   6.980   0.646   5.361
 4769SOL     OW15205   3.691   0.007   1.626
 4769SOL    HW115206   3.626   7.019   1.551
 4769SOL    HW215207   3.778   6.987   1.599
 4770SOL     OW15208   2.571   0.431   3.241
 4770SOL    HW115209   2.598   0.491   3.166
 4770SOL    HW215210   2.482   0.391   3.221
 4771SOL     OW15211   3.880   4.185   5.266
 4771SOL    HW115212   3.813   4.257   5.251
 4771SOL    HW215213   3.902   4.141   5.179
 4772SOL     OW15214   2.619   2.300   1.531
 4772SOL    HW115215   2.626   2.304   1.631
 4772SOL    HW215216   2.624   2.392   1.494
 4773SOL     OW15217   0.124   6.010   3.766
 4773SOL    HW115218   0.073   5.925   3.753
 4773SOL    HW215219   0.205   5.992   3.821
 4774SOL     OW15220   0.571   4.280   1.385
 4774SOL    HW115221   0.645   4.230   1.339
 4774SOL    HW215222   0.500   4.303   1.318
 4775SOL     OW15223   3.456   0.999   1.957
 4775SOL    HW115224   3.426   0.908   1.930
 4775SOL    HW215225   3.491   1.047   1.876
 4776SOL     OW15226   3.171   5.438   2.159
 4776SOL    HW115227   3.077   5.405   2.166
 4776SOL    HW215228   3.209   5.448   2.251
 4777SOL     OW15229   3.203   4.365   1.228
 4777SOL    HW115230   3.126   4.421   1.257
 4777SOL    HW215231   3.173   4.298   1.161
 4778SOL     OW15232   4.971   4.170   2.013
 4778SOL    HW115233   4.915   4.234   1.961
 4778SOL    HW215234   4.923   4.144   2.097
 4779SOL     OW15235   5.482   0.804   2.879
 4779SOL    HW115236   5.493   0.891   2.831
 4779SOL    HW215237   5.528   0.809   2.967
 4780SOL     OW15238   1.336   6.530   6.092
 4780SOL    HW115239   1.416   6.472   6.075
 4780SOL    HW215240   1.349   6.618   6.047
 4781SOL     OW15241   2.133   5.342   1.824
 4781SOL    HW115242   2.100   5.250   1.842
 4781SOL    HW215243   2.101   5.404   1.897
 4782SOL     OW15244   5.795   6.503   6.416
 4782SOL    HW115245   5.870   6.436   6.418
 4782SOL    HW215246   5.724   6.471   6.354
 4783SOL     OW15247   5.720   4.633   1.508
 4783SOL    HW115248   5.780   4.566   1.551
 4783SOL    HW215249   5.756   4.656   1.417
 4784SOL     OW15250   5.827   5.387   4.527
 4784SOL    HW115251   5.796   5.452   4.596
 4784SOL    HW215252   5.794   5.415   4.437
 4785SOL     OW15253   6.414   0.766   1.154
 4785SOL    HW115254   6.352   0.797   1.226
 4785SOL    HW215255   6.368   0.769   1.066
 4786SOL     OW15256   1.734   2.806   1.891
 4786SOL    HW115257   1.698   2.780   1.980
 4786SOL    HW215258   1.834   2.804   1.893
 4787SOL     OW15259   3.796   2.046   2.832
 4787SOL    HW115260   3.822   2.025   2.738
 4787SOL    HW215261   3.708   2.093   2.833
 4788SOL     OW15262   1.524   5.029   4.221
 4788SOL    HW115263   1.562   5.052   4.131
 4788SOL    HW215264   1.458   4.955   4.211
 4789SOL     OW15265   5.843   0.655   0.635
 4789SOL    HW115266   5.873   0.694   0.722
 4789SOL    HW215267   5.892   0.699   0.560
 4790SOL     OW15268   5.525   1.750   6.529
 4790SOL    HW115269   5.474   1.823   6.574
 4790SOL    HW215270   5.552   1.681   6.596
 4791SOL     OW15271   5.101   6.905   2.393
 4791SOL    HW115272   5.019   6.873   2.345
 4791SOL    HW215273   5.183   6.881   2.340
 4792SOL     OW15274   2.439   2.459   1.769
 4792SOL    HW115275   2.398   2.409   1.845
 4792SOL    HW215276   2.531   2.423   1.752
 4793SOL     OW15277   1.152   6.934   6.204
 4793SOL    HW115278   1.085   6.979   6.146
 4793SOL    HW215279   1.127   6.838   6.217
 4794SOL     OW15280   2.957   0.750   2.274
 4794SOL    HW115281   3.028   0.691   2.313
 4794SOL    HW215282   3.001   0.829   2.230
 4795SOL     OW15283   6.097   3.044   4.366
 4795SOL    HW115284   6.087   3.138   4.399
 4795SOL    HW215285   6.160   3.042   4.288
 4796SOL     OW15286   5.501   4.515   1.207
 4796SOL    HW115287   5.412   4.473   1.223
 4796SOL    HW215288   5.570   4.467   1.261
 4797SOL     OW15289   0.326   5.154   4.828
 4797SOL    HW115290   0.340   5.150   4.927
 4797SOL    HW215291   0.283   5.241   4.804
 4798SOL     OW15292   6.698   4.225   4.106
 4798SOL    HW115293   6.732   4.248   4.197
 4798SOL    HW215294   6.682   4.310   4.055
 4799SOL     OW15295   3.796   1.782   4.775
 4799SOL    HW115296   3.841   1.853   4.828
 4799SOL    HW215297   3.838   1.693   4.797
 4800SOL     OW15298   2.005   2.124   4.751
 4800SOL    HW115299   1.999   2.175   4.836
 4800SOL    HW215300   1.980   2.183   4.674
 4801SOL     OW15301   0.578   2.191   0.981
 4801SOL    HW115302   0.629   2.275   0.965
 4801SOL    HW215303   0.536   2.160   0.895
 4802SOL     OW15304   2.815   0.654   2.077
 4802SOL    HW115305   2.849   0.560   2.068
 4802SOL    HW215306   2.867   0.702   2.148
 4803SOL     OW15307   0.950   6.507   0.533
 4803SOL    HW115308   1.039   6.468   0.559
 4803SOL    HW215309   0.960   6.557   0.447
 4804SOL     OW15310   3.952   5.089   6.557
 4804SOL    HW115311   3.999   5.088   6.645
 4804SOL    HW215312   3.866   5.039   6.564
 4805SOL     OW15313   6.864   1.706   0.792
 4805SOL    HW115314   6.805   1.746   0.722
 4805SOL    HW215315   6.840   1.610   0.805
 4806SOL     OW15316   0.795   2.768   2.857
 4806SOL    HW115317   0.700   2.797   2.841
 4806SOL    HW215318   0.813   2.767   2.955
 4807SOL     OW15319   6.865   0.088   1.522
 4807SOL    HW115320   6.839   0.022   1.592
 4807SOL    HW215321   6.962   0.110   1.532
 4808SOL     OW15322   4.912   3.227   1.273
 4808SOL    HW115323   4.819   3.258   1.289
 4808SOL    HW215324   4.959   3.216   1.361
 4809SOL     OW15325   4.043   5.509   6.689
 4809SOL    HW115326   4.002   5.457   6.613
 4809SOL    HW215327   4.052   5.605   6.662
 4810SOL     OW15328   0.789   0.083   1.287
 4810SOL    HW115329   0.731   0.155   1.326
 4810SOL    HW215330   0.882   0.118   1.276
 4811SOL     OW15331   4.052   5.600   2.064
 4811SOL    HW115332   4.114   5.672   2.033
 4811SOL    HW215333   3.960   5.620   2.033
 4812SOL     OW15334   6.692   5.934   4.395
 4812SOL    HW115335   6.767   5.945   4.460
 4812SOL    HW215336   6.680   6.019   4.344
 4813SOL     OW15337   5.755   2.624   3.380
 4813SOL    HW115338   5.706   2.618   3.294
 4813SOL    HW215339   5.694   2.599   3.456
 4814SOL     OW15340   6.947   3.153   1.966
 4814SOL    HW115341   6.916   3.185   2.056
 4814SOL    HW215342   6.939   3.054   1.961
 4815SOL     OW15343   4.536   6.265   1.419
 4815SOL    HW115344   4.593   6.196   1.463
 4815SOL    HW215345   4.542   6.254   1.319
 4816SOL     OW15346   5.326   4.960   3.494
 4816SOL    HW115347   5.424   4.961   3.473
 4816SOL    HW215348   5.277   4.906   3.426
 4817SOL     OW15349   0.495   1.557   6.632
 4817SOL    HW115350   0.587   1.518   6.626
 4817SOL    HW215351   0.454   1.532   6.720
 4818SOL     OW15352   0.692   0.499   4.374
 4818SOL    HW115353   0.682   0.482   4.276
 4818SOL    HW215354   0.789   0.510   4.396
 4819SOL     OW15355   1.696   3.295   0.548
 4819SOL    HW115356   1.738   3.223   0.493
 4819SOL    HW215357   1.705   3.272   0.645
 4820SOL     OW15358   6.531   2.845   1.808
 4820SOL    HW115359   6.454   2.835   1.745
 4820SOL    HW215360   6.615   2.816   1.763
 4821SOL     OW15361   6.972   5.648   2.382
 4821SOL    HW115362   7.002   5.585   2.310
 4821SOL    HW215363   6.889   5.694   2.353
 4822SOL     OW15364   1.284   3.558   4.208
 4822SOL    HW115365   1.222   3.491   4.167
 4822SOL    HW215366   1.234   3.642   4.230
 4823SOL     OW15367   1.865   3.163   1.444
 4823SOL    HW115368   1.816   3.167   1.357
 4823SOL    HW215369   1.957   3.199   1.433
 4824SOL     OW15370   6.663   1.559   5.704
 4824SOL    HW115371   6.698   1.649   5.677
 4824SOL    HW215372   6.721   1.488   5.663
 4825SOL     OW15373   1.762   6.929   3.950
 4825SOL    HW115374   1.700   6.932   4.029
 4825SOL    HW215375   1.856   6.936   3.981
 4826SOL     OW15376   3.945   0.646   1.704
 4826SOL    HW115377   3.966   0.743   1.717
 4826SOL    HW215378   3.867   0.637   1.643
 4827SOL     OW15379   6.590   1.856   1.391
 4827SOL    HW115380   6.608   1.840   1.488
 4827SOL    HW215381   6.617   1.949   1.368
 4828SOL     OW15382   5.121   0.855   4.054
 4828SOL    HW115383   5.158   0.948   4.050
 4828SOL    HW215384   5.105   0.829   4.150
 4829SOL     OW15385   4.352   6.704   4.911
 4829SOL    HW115386   4.391   6.693   4.819
 4829SOL    HW215387   4.296   6.786   4.913
 4830SOL     OW15388   3.278   6.070   3.151
 4830SOL    HW115389   3.239   6.161   3.163
 4830SOL    HW215390   3.218   6.002   3.195
 4831SOL     OW15391   3.190   4.688   5.271
 4831SOL    HW115392   3.130   4.668   5.194
 4831SOL    HW215393   3.211   4.604   5.320
 4832SOL     OW15394   3.920   3.064   4.560
 4832SOL    HW115395   3.989   3.094   4.494
 4832SOL    HW215396   3.937   2.968   4.585
 4833SOL     OW15397   6.689   3.441   4.387
 4833SOL    HW115398   6.782   3.410   4.405
 4833SOL    HW215399   6.677   3.533   4.423
 4834SOL     OW15400   1.114   5.347   1.365
 4834SOL    HW115401   1.141   5.374   1.273
 4834SOL    HW215402   1.019   5.317   1.365
 4835SOL     OW15403   6.817   2.040   5.311
 4835SOL    HW115404   6.722   2.009   5.313
 4835SOL    HW215405   6.821   2.136   5.282
 4836SOL     OW15406   5.181   1.134   5.589
 4836SOL    HW115407   5.249   1.076   5.544
 4836SOL    HW215408   5.159   1.096   5.679
 4837SOL     OW15409   0.387   4.265   3.809
 4837SOL    HW115410   0.480   4.294   3.832
 4837SOL    HW215411   0.332   4.262   3.892
 4838SOL     OW15412   2.515   4.459   6.268
 4838SOL    HW115413   2.560   4.489   6.184
 4838SOL    HW215414   2.455   4.532   6.301
 4839SOL     OW15415   2.376   1.410   0.494
 4839SOL    HW115416   2.403   1.374   0.583
 4839SOL    HW215417   2.319   1.343   0.447
 4840SOL     OW15418   5.824   3.881   4.294
 4840SOL    HW115419   5.800   3.949   4.224
 4840SOL    HW215420   5.838   3.792   4.251
 4841SOL     OW15421   3.324   6.440   2.788
 4841SOL    HW115422   3.420   6.434   2.815
 4841SOL    HW215423   3.266   6.420   2.867
 4842SOL     OW15424   3.184   5.349   3.002
 4842SOL    HW115425   3.254   5.317   2.937
 4842SOL    HW215426   3.229   5.390   3.081
 4843SOL     OW15427   0.189   1.925   0.843
 4843SOL    HW115428   0.233   1.888   0.925
 4843SOL    HW215429   0.100   1.882   0.831
 4844SOL     OW15430   1.719   5.524   5.292
 4844SOL    HW115431   1.675   5.555   5.376
 4844SOL    HW215432   1.651   5.519   5.219
 4845SOL     OW15433   4.932   3.851   4.812
 4845SOL    HW115434   4.901   3.863   4.717
 4845SOL    HW215435   4.875   3.783   4.857
 4846SOL     OW15436   6.585   3.684   4.597
 4846SOL    HW115437   6.518   3.687   4.671
 4846SOL    HW215438   6.562   3.755   4.529
 4847SOL     OW15439   2.733   5.887   6.266
 4847SOL    HW115440   2.683   5.965   6.302
 4847SOL    HW215441   2.668   5.816   6.239
 4848SOL     OW15442   3.408   0.638   4.658
 4848SOL    HW115443   3.423   0.737   4.665
 4848SOL    HW215444   3.438   0.606   4.569
 4849SOL     OW15445   2.073   6.712   1.485
 4849SOL    HW115446   1.984   6.679   1.451
 4849SOL    HW215447   2.075   6.812   1.479
 4850SOL     OW15448   4.201   0.213   0.461
 4850SOL    HW115449   4.260   0.239   0.536
 4850SOL    HW215450   4.119   0.270   0.461
 4851SOL     OW15451   4.008   4.103   6.564
 4851SOL    HW115452   4.042   4.194   6.588
 4851SOL    HW215453   3.943   4.110   6.488
 4852SOL     OW15454   5.410   5.137   4.720
 4852SOL    HW115455   5.332   5.175   4.669
 4852SOL    HW215456   5.483   5.113   4.656
 4853SOL     OW15457   4.053   6.874   2.141
 4853SOL    HW115458   4.066   6.776   2.152
 4853SOL    HW215459   4.125   6.911   2.082
 4854SOL     OW15460   5.138   6.750   1.724
 4854SOL    HW115461   5.213   6.745   1.659
 4854SOL    HW215462   5.127   6.662   1.770
 4855SOL     OW15463   5.347   4.877   6.135
 4855SOL    HW115464   5.329   4.971   6.108
 4855SOL    HW215465   5.431   4.845   6.092
 4856SOL     OW15466   0.058   3.507   2.824
 4856SOL    HW115467   7.019   3.578   2.787
 4856SOL    HW215468   0.140   3.500   2.767
 4857SOL     OW15469   2.473   1.786   4.703
 4857SOL    HW115470   2.488   1.757   4.609
 4857SOL    HW215471   2.429   1.876   4.704
 4858SOL     OW15472   0.690   5.930   4.782
 4858SOL    HW115473   0.724   6.001   4.843
 4858SOL    HW215474   0.629   5.869   4.834
 4859SOL     OW15475   0.685   6.507   2.588
 4859SOL    HW115476   0.586   6.495   2.582
 4859SOL    HW215477   0.707   6.570   2.663
 4860SOL     OW15478   4.589   5.176   1.148
 4860SOL    HW115479   4.631   5.222   1.226
 4860SOL    HW215480   4.659   5.141   1.087
 4861SOL     OW15481   0.289   4.215   6.271
 4861SOL    HW115482   0.190   4.198   6.265
 4861SOL    HW215483   0.322   4.250   6.184
 4862SOL     OW15484   2.256   5.633   5.060
 4862SOL    HW115485   2.345   5.678   5.053
 4862SOL    HW215486   2.208   5.668   5.141
 4863SOL     OW15487   4.405   2.148   3.265
 4863SOL    HW115488   4.405   2.056   3.303
 4863SOL    HW215489   4.315   2.189   3.276
 4864SOL     OW15490   1.849   1.432   1.282
 4864SOL    HW115491   1.758   1.475   1.281
 4864SOL    HW215492   1.919   1.502   1.287
 4865SOL     OW15493   3.940   6.064   5.576
 4865SOL    HW115494   3.960   6.100   5.667
 4865SOL    HW215495   3.951   5.965   5.576
 4866SOL     OW15496   0.077   4.367   2.305
 4866SOL    HW115497   0.029   4.310   2.239
 4866SOL    HW215498   0.118   4.310   2.376
 4867SOL     OW15499   4.732   5.773   3.218
 4867SOL    HW115500   4.685   5.699   3.265
 4867SOL    HW215501   4.669   5.850   3.206
 4868SOL     OW15502   0.820   6.073   1.411
 4868SOL    HW115503   0.783   6.154   1.364
 4868SOL    HW215504   0.825   5.997   1.346
 4869SOL     OW15505   6.296   1.108   1.297
 4869SOL    HW115506   6.328   1.186   1.244
 4869SOL    HW215507   6.337   1.024   1.262
 4870SOL     OW15508   6.523   0.077   1.680
 4870SOL    HW115509   6.507   6.999   1.681
 4870SOL    HW215510   6.609   0.097   1.632
 4871SOL     OW15511   0.870   3.217   4.243
 4871SOL    HW115512   0.937   3.146   4.221
 4871SOL    HW215513   0.804   3.180   4.309
 4872SOL     OW15514   0.815   0.634   3.448
 4872SOL    HW115515   0.883   0.626   3.521
 4872SOL    HW215516   0.726   0.603   3.482
 4873SOL     OW15517   1.066   6.179   4.932
 4873SOL    HW115518   1.135   6.127   4.882
 4873SOL    HW215519   1.111   6.251   4.985
 4874SOL     OW15520   5.074   3.429   3.457
 4874SOL    HW115521   5.003   3.498   3.445
 4874SOL    HW215522   5.037   3.352   3.510
 4875SOL     OW15523   6.196   3.055   6.429
 4875SOL    HW115524   6.170   3.027   6.337
 4875SOL    HW215525   6.263   2.991   6.466
 4876SOL     OW15526   0.630   1.253   6.753
 4876SOL    HW115527   0.700   1.303   6.702
 4876SOL    HW215528   0.673   1.184   6.811
 4877SOL     OW15529   6.389   1.289   0.957
 4877SOL    HW115530   6.454   1.365   0.963
 4877SOL    HW215531   6.305   1.321   0.912
 4878SOL     OW15532   6.682   2.144   1.469
 4878SOL    HW115533   6.667   2.243   1.471
 4878SOL    HW215534   6.627   2.101   1.541
 4879SOL     OW15535   4.118   6.064   3.112
 4879SOL    HW115536   4.046   6.093   3.049
 4879SOL    HW215537   4.091   6.084   3.206
 4880SOL     OW15538   5.914   2.079   6.185
 4880SOL    HW115539   5.820   2.065   6.217
 4880SOL    HW215540   5.976   2.077   6.264
 4881SOL     OW15541   3.322   5.832   6.635
 4881SOL    HW115542   3.313   5.827   6.735
 4881SOL    HW215543   3.401   5.777   6.606
 4882SOL     OW15544   5.103   0.720   5.982
 4882SOL    HW115545   5.062   0.638   5.942
 4882SOL    HW215546   5.190   0.696   6.025
 4883SOL     OW15547   6.908   6.211   0.913
 4883SOL    HW115548   6.996   6.166   0.900
 4883SOL    HW215549   6.852   6.158   0.977
 4884SOL     OW15550   3.201   6.424   2.127
 4884SOL    HW115551   3.289   6.423   2.173
 4884SOL    HW215552   3.133   6.374   2.182
 4885SOL     OW15553   2.056   0.105   1.924
 4885SOL    HW115554   2.037   0.129   2.019
 4885SOL    HW215555   2.084   0.187   1.873
 4886SOL     OW15556   6.312   0.713   6.005
 4886SOL    HW115557   6.229   0.674   5.965
 4886SOL    HW215558   6.390   0.689   5.947
 4887SOL     OW15559   0.806   2.156   5.198
 4887SOL    HW115560   0.874   2.174   5.127
 4887SOL    HW215561   0.726   2.111   5.157
 4888SOL     OW15562   2.908   5.352   1.927
 4888SOL    HW115563   2.832   5.406   1.961
 4888SOL    HW215564   2.885   5.255   1.932
 4889SOL     OW15565   1.443   2.576   6.825
 4889SOL    HW115566   1.404   2.639   6.893
 4889SOL    HW215567   1.518   2.525   6.867
 4890SOL     OW15568   1.369   0.406   4.880
 4890SOL    HW115569   1.276   0.441   4.868
 4890SOL    HW215570   1.427   0.441   4.806
 4891SOL     OW15571   1.137   3.835   0.848
 4891SOL    HW115572   1.116   3.810   0.942
 4891SOL    HW215573   1.234   3.860   0.842
 4892SOL     OW15574   1.645   6.058   1.185
 4892SOL    HW115575   1.617   6.027   1.094
 4892SOL    HW215576   1.661   5.978   1.244
 4893SOL     OW15577   1.264   3.271   6.494
 4893SOL    HW115578   1.184   3.225   6.455
 4893SOL    HW215579   1.274   3.244   6.590
 4894SOL     OW15580   2.064   1.331   3.726
 4894SOL    HW115581   1.992   1.270   3.694
 4894SOL    HW215582   2.115   1.287   3.799
 4895SOL     OW15583   6.431   3.656   0.130
 4895SOL    HW115584   6.335   3.658   0.102
 4895SOL    HW215585   6.450   3.571   0.180
 4896SOL     OW15586   4.421   5.867   3.411
 4896SOL    HW115587   4.335   5.917   3.423
 4896SOL    HW215588   4.449   5.872   3.315
 4897SOL     OW15589   2.989   5.686   5.724
 4897SOL    HW115590   2.990   5.660   5.628
 4897SOL    HW215591   3.080   5.718   5.751
 4898SOL     OW15592   5.390   2.617   5.545
 4898SOL    HW115593   5.485   2.646   5.534
 4898SOL    HW215594   5.370   2.544   5.480
 4899SOL     OW15595   5.331   4.222   5.038
 4899SOL    HW115596   5.413   4.281   5.036
 4899SOL    HW215597   5.334   4.158   4.962
 4900SOL     OW15598   1.206   6.708   5.192
 4900SOL    HW115599   1.226   6.759   5.275
 4900SOL    HW215600   1.120   6.741   5.153
 4901SOL     OW15601   1.227   6.455   3.358
 4901SOL    HW115602   1.269   6.498   3.279
 4901SOL    HW215603   1.258   6.500   3.442
 4902SOL     OW15604   3.012   4.822   1.842
 4902SOL    HW115605   3.100   4.794   1.802
 4902SOL    HW215606   2.967   4.742   1.881
 4903SOL     OW15607   4.922   6.332   6.246
 4903SOL    HW115608   4.998   6.352   6.307
 4903SOL    HW215609   4.843   6.302   6.300
 4904SOL     OW15610   3.443   6.514   3.453
 4904SOL    HW115611   3.354   6.545   3.485
 4904SOL    HW215612   3.495   6.477   3.530
 4905SOL     OW15613   6.331   3.153   3.291
 4905SOL    HW115614   6.277   3.171   3.373
 4905SOL    HW215615   6.298   3.210   3.216
 4906SOL     OW15616   5.723   1.048   1.512
 4906SOL    HW115617   5.735   0.953   1.540
 4906SOL    HW215618   5.791   1.072   1.444
 4907SOL     OW15619   2.762   1.126   2.338
 4907SOL    HW115620   2.768   1.145   2.436
 4907SOL    HW215621   2.667   1.104   2.314
 4908SOL     OW15622   3.643   5.530   6.776
 4908SOL    HW115623   3.585   5.461   6.819
 4908SOL    HW215624   3.588   5.592   6.720
 4909SOL     OW15625   6.505   0.341   5.287
 4909SOL    HW115626   6.556   0.312   5.206
 4909SOL    HW215627   6.445   0.267   5.318
 4910SOL     OW15628   6.185   0.540   5.436
 4910SOL    HW115629   6.107   0.477   5.441
 4910SOL    HW215630   6.170   0.616   5.499
 4911SOL     OW15631   0.663   3.042   6.181
 4911SOL    HW115632   0.668   3.141   6.196
 4911SOL    HW215633   0.633   2.997   6.265
 4912SOL     OW15634   2.565   2.417   2.075
 4912SOL    HW115635   2.657   2.454   2.060
 4912SOL    HW215636   2.528   2.453   2.161
 4913SOL     OW15637   2.876   3.472   2.443
 4913SOL    HW115638   2.894   3.483   2.541
 4913SOL    HW215639   2.918   3.547   2.393
 4914SOL     OW15640   1.560   6.292   3.410
 4914SOL    HW115641   1.470   6.321   3.375
 4914SOL    HW215642   1.620   6.272   3.333
 4915SOL     OW15643   3.505   5.931   3.184
 4915SOL    HW115644   3.434   6.002   3.188
 4915SOL    HW215645   3.465   5.845   3.153
 4916SOL     OW15646   2.216   1.578   2.433
 4916SOL    HW115647   2.139   1.530   2.475
 4916SOL    HW215648   2.274   1.512   2.386
 4917SOL     OW15649   1.514   5.113   6.910
 4917SOL    HW115650   1.564   5.047   6.965
 4917SOL    HW215651   1.578   5.179   6.869
 4918SOL     OW15652   2.554   0.166   2.257
 4918SOL    HW115653   2.473   0.123   2.218
 4918SOL    HW215654   2.614   0.095   2.294
 4919SOL     OW15655   2.548   2.763   1.777
 4919SOL    HW115656   2.511   2.765   1.684
 4919SOL    HW215657   2.626   2.700   1.780
 4920SOL     OW15658   4.300   0.622   0.001
 4920SOL    HW115659   4.249   0.547   6.979
 4920SOL    HW215660   4.236   0.691   0.034
 4921SOL     OW15661   1.663   4.546   1.621
 4921SOL    HW115662   1.753   4.506   1.602
 4921SOL    HW215663   1.599   4.473   1.645
 4922SOL     OW15664   1.126   2.940   5.884
 4922SOL    HW115665   1.207   2.917   5.938
 4922SOL    HW215666   1.045   2.938   5.942
 4923SOL     OW15667   3.674   1.376   0.870
 4923SOL    HW115668   3.661   1.470   0.840
 4923SOL    HW215669   3.723   1.375   0.957
 4924SOL     OW15670   0.410   4.007   4.368
 4924SOL    HW115671   0.453   3.993   4.457
 4924SOL    HW215672   0.481   4.009   4.297
 4925SOL     OW15673   4.525   5.634   6.046
 4925SOL    HW115674   4.528   5.541   6.084
 4925SOL    HW215675   4.561   5.633   5.953
 4926SOL     OW15676   4.482   2.520   1.728
 4926SOL    HW115677   4.529   2.596   1.772
 4926SOL    HW215678   4.481   2.441   1.790
 4927SOL     OW15679   3.930   3.953   2.892
 4927SOL    HW115680   3.953   3.965   2.989
 4927SOL    HW215681   3.832   3.967   2.880
 4928SOL     OW15682   0.773   6.368   0.977
 4928SOL    HW115683   0.751   6.272   0.996
 4928SOL    HW215684   0.801   6.377   0.881
 4929SOL     OW15685   0.691   5.001   4.269
 4929SOL    HW115686   0.723   4.943   4.344
 4929SOL    HW215687   0.704   4.954   4.182
 4930SOL     OW15688   6.616   2.114   0.733
 4930SOL    HW115689   6.542   2.143   0.794
 4930SOL    HW215690   6.675   2.192   0.711
 4931SOL     OW15691   0.235   0.680   1.544
 4931SOL    HW115692   0.298   0.704   1.619
 4931SOL    HW215693   0.278   0.613   1.484
 4932SOL     OW15694   3.692   1.933   0.789
 4932SOL    HW115695   3.760   2.007   0.785
 4932SOL    HW215696   3.609   1.962   0.743
 4933SOL     OW15697   2.543   0.977   5.383
 4933SOL    HW115698   2.471   1.046   5.375
 4933SOL    HW215699   2.507   0.895   5.427
 4934SOL     OW15700   1.380   6.197   5.090
 4934SOL    HW115701   1.292   6.178   5.133
 4934SOL    HW215702   1.393   6.295   5.082
 4935SOL     OW15703   1.571   1.068   0.726
 4935SOL    HW115704   1.512   1.048   0.648
 4935SOL    HW215705   1.566   1.165   0.748
 4936SOL     OW15706   3.858   5.849   0.579
 4936SOL    HW115707   3.834   5.843   0.676
 4936SOL    HW215708   3.953   5.876   0.570
 4937SOL     OW15709   1.093   3.078   6.345
 4937SOL    HW115710   1.058   2.987   6.326
 4937SOL    HW215711   1.084   3.136   6.264
 4938SOL     OW15712   3.570   4.744   1.441
 4938SOL    HW115713   3.585   4.746   1.540
 4938SOL    HW215714   3.481   4.702   1.422
 4939SOL     OW15715   1.166   1.923   2.352
 4939SOL    HW115716   1.147   1.849   2.416
 4939SOL    HW215717   1.147   2.011   2.396
 4940SOL     OW15718   0.001   2.221   4.732
 4940SOL    HW115719   0.067   2.283   4.775
 4940SOL    HW215720   6.964   2.180   4.802
 4941SOL     OW15721   4.143   1.904   5.499
 4941SOL    HW115722   4.165   1.913   5.402
 4941SOL    HW215723   4.052   1.863   5.508
 4942SOL     OW15724   0.276   1.556   3.430
 4942SOL    HW115725   0.291   1.541   3.332
 4942SOL    HW215726   0.181   1.535   3.453
 4943SOL     OW15727   4.889   3.043   6.701
 4943SOL    HW115728   4.804   3.049   6.754
 4943SOL    HW215729   4.943   3.125   6.715
 4944SOL     OW15730   0.989   4.789   0.423
 4944SOL    HW115731   0.899   4.766   0.387
 4944SOL    HW215732   0.982   4.869   0.482
 4945SOL     OW15733   2.180   0.676   5.307
 4945SOL    HW115734   2.232   0.744   5.359
 4945SOL    HW215735   2.244   0.620   5.254
 4946SOL     OW15736   2.767   5.043   0.202
 4946SOL    HW115737   2.859   5.081   0.189
 4946SOL    HW215738   2.734   5.066   0.294
 4947SOL     OW15739   1.135   0.629   1.935
 4947SOL    HW115740   1.108   0.695   1.864
 4947SOL    HW215741   1.232   0.608   1.926
 4948SOL     OW15742   1.721   2.617   1.707
 4948SOL    HW115743   1.794   2.638   1.641
 4948SOL    HW215744   1.717   2.690   1.776
 4949SOL     OW15745   0.208   4.850   6.797
 4949SOL    HW115746   0.228   4.832   6.700
 4949SOL    HW215747   0.189   4.764   6.844
 4950SOL     OW15748   3.032   3.743   5.971
 4950SOL    HW115749   2.946   3.794   5.964
 4950SOL    HW215750   3.080   3.771   6.054
 4951SOL     OW15751   5.214   5.300   3.394
 4951SOL    HW115752   5.167   5.316   3.481
 4951SOL    HW215753   5.147   5.279   3.323
 4952SOL     OW15754   0.751   6.920   6.424
 4952SOL    HW115755   0.816   6.952   6.493
 4952SOL    HW215756   0.675   6.985   6.418
 4953SOL     OW15757   0.784   1.939   4.821
 4953SOL    HW115758   0.757   1.872   4.891
 4953SOL    HW215759   0.715   2.011   4.816
 4954SOL     OW15760   3.346   4.040   5.024
 4954SOL    HW115761   3.288   4.057   4.944
 4954SOL    HW215762   3.289   4.017   5.102
 4955SOL     OW15763   4.131   4.923   5.890
 4955SOL    HW115764   4.143   5.009   5.840
 4955SOL    HW215765   4.035   4.912   5.914
 4956SOL     OW15766   2.984   0.255   4.683
 4956SOL    HW115767   2.950   0.349   4.679
 4956SOL    HW215768   3.083   0.255   4.672
 4957SOL     OW15769   5.863   4.506   6.528
 4957SOL    HW115770   5.902   4.505   6.436
 4957SOL    HW215771   5.891   4.424   6.578
 4958SOL     OW15772   3.584   6.406   0.389
 4958SOL    HW115773   3.552   6.313   0.402
 4958SOL    HW215774   3.652   6.409   0.316
 4959SOL     OW15775   0.909   2.136   2.895
 4959SOL    HW115776   0.853   2.144   2.977
 4959SOL    HW215777   0.975   2.211   2.892
 4960SOL     OW15778   4.425   4.668   4.011
 4960SOL    HW115779   4.436   4.660   4.110
 4960SOL    HW215780   4.409   4.764   3.987
 4961SOL     OW15781   3.433   1.047   0.718
 4961SOL    HW115782   3.403   1.099   0.638
 4961SOL    HW215783   3.397   1.090   0.801
 4962SOL     OW15784   1.398   3.911   0.897
 4962SOL    HW115785   1.405   3.927   0.995
 4962SOL    HW215786   1.441   3.986   0.847
 4963SOL     OW15787   1.457   3.755   6.201
 4963SOL    HW115788   1.405   3.734   6.119
 4963SOL    HW215789   1.484   3.670   6.246
 4964SOL     OW15790   2.558   7.000   4.629
 4964SOL    HW115791   2.650   7.014   4.592
 4964SOL    HW215792   2.528   6.907   4.610
 4965SOL     OW15793   1.881   6.070   3.341
 4965SOL    HW115794   1.957   6.007   3.322
 4965SOL    HW215795   1.845   6.051   3.433
 4966SOL     OW15796   2.780   6.991   4.502
 4966SOL    HW115797   2.785   6.938   4.418
 4966SOL    HW215798   2.864   6.979   4.555
 4967SOL     OW15799   4.330   4.820   5.058
 4967SOL    HW115800   4.400   4.887   5.034
 4967SOL    HW215801   4.338   4.740   4.997
 4968SOL     OW15802   6.434   2.647   3.136
 4968SOL    HW115803   6.471   2.606   3.220
 4968SOL    HW215804   6.399   2.738   3.156
 4969SOL     OW15805   0.702   6.236   3.393
 4969SOL    HW115806   0.718   6.317   3.336
 4969SOL    HW215807   0.744   6.156   3.350
 4970SOL     OW15808   0.580   1.658   1.214
 4970SOL    HW115809   0.573   1.717   1.295
 4970SOL    HW215810   0.533   1.572   1.231
 4971SOL     OW15811   6.834   5.973   2.505
 4971SOL    HW115812   6.921   6.020   2.494
 4971SOL    HW215813   6.849   5.875   2.516
 4972SOL     OW15814   0.642   4.236   1.079
 4972SOL    HW115815   0.678   4.297   1.008
 4972SOL    HW215816   0.544   4.225   1.068
 4973SOL     OW15817   6.743   0.836   0.781
 4973SOL    HW115818   6.789   0.920   0.750
 4973SOL    HW215819   6.733   0.839   0.880
 4974SOL     OW15820   3.618   5.721   5.241
 4974SOL    HW115821   3.561   5.778   5.182
 4974SOL    HW215822   3.561   5.658   5.293
 4975SOL     OW15823   5.786   4.651   0.890
 4975SOL    HW115824   5.843   4.731   0.906
 4975SOL    HW215825   5.692   4.679   0.871
 4976SOL     OW15826   1.684   6.689   3.168
 4976SOL    HW115827   1.732   6.612   3.209
 4976SOL    HW215828   1.638   6.659   3.084
 4977SOL     OW15829   1.968   4.694   5.726
 4977SOL    HW115830   1.882   4.646   5.745
 4977SOL    HW215831   1.948   4.792   5.712
 4978SOL     OW15832   5.045   4.234   4.502
 4978SOL    HW115833   4.967   4.216   4.563
 4978SOL    HW215834   5.057   4.333   4.492
 4979SOL     OW15835   2.626   6.982   5.966
 4979SOL    HW115836   2.587   0.045   6.003
 4979SOL    HW215837   2.616   6.908   6.033
 4980SOL     OW15838   5.237   3.572   3.605
 4980SOL    HW115839   5.325   3.576   3.558
 4980SOL    HW215840   5.172   3.519   3.550
 4981SOL     OW15841   3.302   4.875   2.337
 4981SOL    HW115842   3.251   4.873   2.423
 4981SOL    HW215843   3.241   4.854   2.261
 4982SOL     OW15844   4.050   1.475   5.844
 4982SOL    HW115845   3.969   1.506   5.793
 4982SOL    HW215846   4.086   1.551   5.898
 4983SOL     OW15847   5.886   5.655   2.816
 4983SOL    HW115848   5.875   5.584   2.885
 4983SOL    HW215849   5.869   5.745   2.856
 4984SOL     OW15850   4.636   4.255   3.211
 4984SOL    HW115851   4.571   4.324   3.243
 4984SOL    HW215852   4.614   4.229   3.117
 4985SOL     OW15853   5.190   6.509   2.560
 4985SOL    HW115854   5.137   6.467   2.634
 4985SOL    HW215855   5.171   6.460   2.475
 4986SOL     OW15856   0.319   5.114   2.312
 4986SOL    HW115857   0.331   5.172   2.232
 4986SOL    HW215858   0.369   5.152   2.389
 4987SOL     OW15859   0.825   0.919   2.394
 4987SOL    HW115860   0.873   1.006   2.394
 4987SOL    HW215861   0.876   0.853   2.339
 4988SOL     OW15862   6.216   6.503   3.233
 4988SOL    HW115863   6.237   6.517   3.329
 4988SOL    HW215864   6.300   6.508   3.179
 4989SOL     OW15865   4.446   6.862   2.796
 4989SOL    HW115866   4.433   6.816   2.883
 4989SOL    HW215867   4.398   6.950   2.798
 4990SOL     OW15868   4.634   2.230   5.148
 4990SOL    HW115869   4.552   2.284   5.168
 4990SOL    HW215870   4.715   2.287   5.159
 4991SOL     OW15871   1.414   5.160   5.145
 4991SOL    HW115872   1.345   5.124   5.208
 4991SOL    HW215873   1.408   5.260   5.142
 4992SOL     OW15874   0.671   2.876   4.076
 4992SOL    HW115875   0.582   2.922   4.078
 4992SOL    HW215876   0.668   2.796   4.136
 4993SOL     OW15877   3.278   6.026   3.808
 4993SOL    HW115878   3.205   5.961   3.830
 4993SOL    HW215879   3.261   6.067   3.718
 4994SOL     OW15880   3.246   4.456   5.430
 4994SOL    HW115881   3.269   4.500   5.517
 4994SOL    HW215882   3.276   4.361   5.432
 4995SOL     OW15883   0.705   0.233   5.847
 4995SOL    HW115884   0.801   0.256   5.828
 4995SOL    HW215885   0.693   0.222   5.945
 4996SOL     OW15886   6.764   1.375   4.264
 4996SOL    HW115887   6.856   1.350   4.233
 4996SOL    HW215888   6.715   1.420   4.189
 4997SOL     OW15889   3.838   1.933   1.437
 4997SOL    HW115890   3.768   1.974   1.377
 4997SOL    HW215891   3.926   1.932   1.390
 4998SOL     OW15892   0.092   3.980   3.596
 4998SOL    HW115893   0.111   4.030   3.681
 4998SOL    HW215894   0.160   4.005   3.527
 4999SOL     OW15895   0.647   3.380   4.459
 4999SOL    HW115896   0.599   3.380   4.546
 4999SOL    HW215897   0.653   3.287   4.423
 5000SOL     OW15898   3.017   5.412   2.640
 5000SOL    HW115899   2.971   5.364   2.565
 5000SOL    HW215900   2.982   5.506   2.646
 5001SOL     OW15901   0.216   5.520   3.274
 5001SOL    HW115902   0.270   5.437   3.280
 5001SOL    HW215903   0.277   5.599   3.263
 5002SOL     OW15904   0.331   3.173   3.471
 5002SOL    HW115905   0.389   3.252   3.491
 5002SOL    HW215906   0.320   3.164   3.372
 5003SOL     OW15907   4.283   0.274   3.943
 5003SOL    HW115908   4.237   0.281   3.854
 5003SOL    HW215909   4.226   0.220   4.005
 5004SOL     OW15910   2.341   5.619   6.750
 5004SOL    HW115911   2.261   5.560   6.738
 5004SOL    HW215912   2.312   5.715   6.752
 5005SOL     OW15913   3.300   2.169   0.362
 5005SOL    HW115914   3.399   2.170   0.346
 5005SOL    HW215915   3.277   2.093   0.423
 5006SOL     OW15916   5.271   1.729   2.226
 5006SOL    HW115917   5.229   1.720   2.316
 5006SOL    HW215918   5.200   1.736   2.156
 5007SOL     OW15919   5.874   6.606   1.917
 5007SOL    HW115920   5.913   6.698   1.908
 5007SOL    HW215921   5.905   6.565   2.003
 5008SOL     OW15922   5.624   6.602   2.315
 5008SOL    HW115923   5.598   6.555   2.231
 5008SOL    HW215924   5.660   6.535   2.380
 5009SOL     OW15925   6.707   2.400   0.776
 5009SOL    HW115926   6.651   2.458   0.836
 5009SOL    HW215927   6.803   2.427   0.785
 5010SOL     OW15928   3.724   3.525   0.744
 5010SOL    HW115929   3.787   3.588   0.700
 5010SOL    HW215930   3.634   3.568   0.753
 5011SOL     OW15931   2.023   3.316   6.787
 5011SOL    HW115932   1.962   3.394   6.770
 5011SOL    HW215933   2.055   3.279   6.700
 5012SOL     OW15934   6.044   2.340   5.081
 5012SOL    HW115935   5.998   2.334   4.992
 5012SOL    HW215936   6.089   2.253   5.101
 5013SOL     OW15937   6.172   0.360   5.699
 5013SOL    HW115938   6.198   0.266   5.718
 5013SOL    HW215939   6.112   0.362   5.619
 5014SOL     OW15940   6.702   3.700   1.664
 5014SOL    HW115941   6.735   3.759   1.738
 5014SOL    HW215942   6.777   3.644   1.629
 5015SOL     OW15943   5.196   6.547   3.986
 5015SOL    HW115944   5.183   6.593   3.898
 5015SOL    HW215945   5.265   6.596   4.039
 5016SOL     OW15946   1.830   3.929   5.498
 5016SOL    HW115947   1.909   3.983   5.528
 5016SOL    HW215948   1.837   3.837   5.535
 5017SOL     OW15949   0.528   2.950   1.618
 5017SOL    HW115950   0.470   3.028   1.643
 5017SOL    HW215951   0.614   2.954   1.669
 5018SOL     OW15952   0.681   0.027   0.888
 5018SOL    HW115953   0.763   6.994   0.869
 5018SOL    HW215954   0.630   7.004   0.963
 5019SOL     OW15955   0.899   5.247   5.259
 5019SOL    HW115956   0.876   5.191   5.339
 5019SOL    HW215957   0.829   5.317   5.247
 5020SOL     OW15958   2.210   0.017   4.348
 5020SOL    HW115959   2.206   0.074   4.266
 5020SOL    HW215960   2.299   0.028   4.392
 5021SOL     OW15961   1.385   1.482   1.119
 5021SOL    HW115962   1.412   1.401   1.067
 5021SOL    HW215963   1.290   1.474   1.146
 5022SOL     OW15964   0.438   3.308   1.433
 5022SOL    HW115965   0.406   3.253   1.511
 5022SOL    HW215966   0.491   3.386   1.467
 5023SOL     OW15967   6.812   4.609   2.788
 5023SOL    HW115968   6.851   4.549   2.719
 5023SOL    HW215969   6.761   4.555   2.855
 5024SOL     OW15970   4.555   3.536   1.488
 5024SOL    HW115971   4.480   3.600   1.471
 5024SOL    HW215972   4.639   3.571   1.447
 5025SOL     OW15973   4.044   0.956   3.930
 5025SOL    HW115974   4.140   0.982   3.926
 5025SOL    HW215975   3.988   1.039   3.926
 5026SOL     OW15976   4.338   0.139   4.958
 5026SOL    HW115977   4.399   0.092   5.022
 5026SOL    HW215978   4.386   0.153   4.871
 5027SOL     OW15979   5.245   0.356   0.008
 5027SOL    HW115980   5.231   0.454   0.009
 5027SOL    HW215981   5.309   0.332   6.955
 5028SOL     OW15982   0.503   2.055   2.824
 5028SOL    HW115983   0.568   2.041   2.749
 5028SOL    HW215984   0.486   2.153   2.835
 5029SOL     OW15985   6.236   1.795   2.796
 5029SOL    HW115986   6.158   1.767   2.741
 5029SOL    HW215987   6.215   1.781   2.893
 5030SOL     OW15988   0.138   4.502   6.532
 5030SOL    HW115989   0.208   4.532   6.467
 5030SOL    HW215990   0.140   4.403   6.540
 5031SOL     OW15991   6.685   0.278   6.647
 5031SOL    HW115992   6.677   0.300   6.744
 5031SOL    HW215993   6.596   0.288   6.603
 5032SOL     OW15994   3.060   3.344   5.291
 5032SOL    HW115995   3.131   3.407   5.261
 5032SOL    HW215996   2.984   3.395   5.329
 5033SOL     OW15997   1.565   1.190   0.141
 5033SOL    HW115998   1.502   1.202   0.063
 5033SOL    HW215999   1.569   1.094   0.165
 5034SOL     OW16000   4.406   6.770   3.758
 5034SOL    HW116001   4.336   6.773   3.687
 5034SOL    HW216002   4.459   6.855   3.756
 5035SOL     OW16003   1.241   4.367   3.685
 5035SOL    HW116004   1.317   4.406   3.738
 5035SOL    HW216005   1.247   4.267   3.687
 5036SOL     OW16006   6.275   2.878   5.374
 5036SOL    HW116007   6.264   2.816   5.296
 5036SOL    HW216008   6.248   2.971   5.347
 5037SOL     OW16009   4.694   4.348   0.631
 5037SOL    HW116010   4.725   4.439   0.603
 5037SOL    HW216011   4.613   4.356   0.689
 5038SOL     OW16012   3.576   3.839   3.963
 5038SOL    HW116013   3.478   3.853   3.978
 5038SOL    HW216014   3.602   3.748   3.996
 5039SOL     OW16015   0.674   3.340   6.757
 5039SOL    HW116016   0.706   3.286   6.679
 5039SOL    HW216017   0.739   3.413   6.775
 5040SOL     OW16018   0.518   6.272   6.627
 5040SOL    HW116019   0.492   6.349   6.569
 5040SOL    HW216020   0.491   6.186   6.583
 5041SOL     OW16021   0.132   3.473   2.085
 5041SOL    HW116022   0.137   3.374   2.096
 5041SOL    HW216023   0.037   3.501   2.075
 5042SOL     OW16024   0.800   2.885   6.026
 5042SOL    HW116025   0.780   2.787   6.021
 5042SOL    HW216026   0.734   2.928   6.088
 5043SOL     OW16027   3.777   6.626   0.723
 5043SOL    HW116028   3.795   6.717   0.759
 5043SOL    HW216029   3.764   6.562   0.798
 5044SOL     OW16030   5.882   5.329   0.730
 5044SOL    HW116031   5.828   5.334   0.814
 5044SOL    HW216032   5.975   5.301   0.752
 5045SOL     OW16033   6.468   3.506   5.884
 5045SOL    HW116034   6.410   3.519   5.964
 5045SOL    HW216035   6.451   3.579   5.818
 5046SOL     OW16036   3.601   3.024   3.363
 5046SOL    HW116037   3.606   3.116   3.323
 5046SOL    HW216038   3.626   3.028   3.460
 5047SOL     OW16039   1.319   4.033   3.009
 5047SOL    HW116040   1.318   3.977   3.093
 5047SOL    HW216041   1.375   4.115   3.024
 5048SOL     OW16042   1.402   0.935   5.900
 5048SOL    HW116043   1.416   1.016   5.957
 5048SOL    HW216044   1.315   0.891   5.923
 5049SOL     OW16045   5.731   0.623   6.286
 5049SOL    HW116046   5.769   0.714   6.266
 5049SOL    HW216047   5.771   0.588   6.370
 5050SOL     OW16048   1.876   0.907   1.420
 5050SOL    HW116049   1.832   0.887   1.332
 5050SOL    HW216050   1.861   0.830   1.483
 5051SOL     OW16051   3.967   5.197   1.194
 5051SOL    HW116052   3.877   5.171   1.228
 5051SOL    HW216053   4.033   5.194   1.268
 5052SOL     OW16054   2.904   1.165   5.945
 5052SOL    HW116055   2.857   1.251   5.926
 5052SOL    HW216056   3.002   1.181   5.950
 5053SOL     OW16057   0.668   6.468   2.187
 5053SOL    HW116058   0.641   6.518   2.269
 5053SOL    HW216059   0.715   6.384   2.213
 5054SOL     OW16060   4.150   4.901   4.117
 5054SOL    HW116061   4.186   4.876   4.207
 5054SOL    HW216062   4.112   4.994   4.121
 5055SOL     OW16063   6.598   2.949   6.437
 5055SOL    HW116064   6.621   2.910   6.526
 5055SOL    HW216065   6.513   2.908   6.404
 5056SOL     OW16066   5.332   4.217   5.317
 5056SOL    HW116067   5.359   4.125   5.343
 5056SOL    HW216068   5.313   4.219   5.219
 5057SOL     OW16069   1.126   6.650   2.870
 5057SOL    HW116070   1.093   6.594   2.794
 5057SOL    HW216071   1.049   6.693   2.916
 5058SOL     OW16072   2.908   4.717   6.034
 5058SOL    HW116073   2.846   4.647   6.069
 5058SOL    HW216074   2.859   4.775   5.968
 5059SOL     OW16075   0.629   0.985   2.550
 5059SOL    HW116076   0.657   1.013   2.641
 5059SOL    HW216077   0.708   0.949   2.500
 5060SOL     OW16078   6.570   1.978   5.483
 5060SOL    HW116079   6.595   2.062   5.531
 5060SOL    HW216080   6.504   1.926   5.538
 5061SOL     OW16081   5.581   3.908   0.187
 5061SOL    HW116082   5.601   3.984   0.125
 5061SOL    HW216083   5.485   3.911   0.214
 5062SOL     OW16084   0.256   6.817   1.134
 5062SOL    HW116085   0.182   6.763   1.094
 5062SOL    HW216086   0.221   6.905   1.166
 5063SOL     OW16087   1.044   6.596   1.948
 5063SOL    HW116088   1.098   6.653   1.887
 5063SOL    HW216089   1.060   6.499   1.927
 5064SOL     OW16090   4.566   2.952   0.119
 5064SOL    HW116091   4.539   2.984   0.210
 5064SOL    HW216092   4.646   2.893   0.127
 5065SOL     OW16093   2.310   6.581   5.967
 5065SOL    HW116094   2.213   6.563   5.982
 5065SOL    HW216095   2.363   6.547   6.045
 5066SOL     OW16096   5.639   5.116   1.115
 5066SOL    HW116097   5.571   5.129   1.187
 5066SOL    HW216098   5.718   5.067   1.152
 5067SOL     OW16099   4.846   1.265   0.591
 5067SOL    HW116100   4.787   1.249   0.670
 5067SOL    HW216101   4.832   1.192   0.524
 5068SOL     OW16102   2.733   4.875   0.876
 5068SOL    HW116103   2.796   4.950   0.897
 5068SOL    HW216104   2.774   4.788   0.902
 5069SOL     OW16105   0.376   4.747   2.872
 5069SOL    HW116106   0.319   4.665   2.879
 5069SOL    HW216107   0.449   4.742   2.940
 5070SOL     OW16108   5.636   2.811   3.736
 5070SOL    HW116109   5.596   2.900   3.716
 5070SOL    HW216110   5.618   2.786   3.831
 5071SOL     OW16111   4.639   1.731   6.991
 5071SOL    HW116112   4.712   1.773   6.937
 5071SOL    HW216113   4.564   1.797   7.003
 5072SOL     OW16114   0.979   4.393   1.450
 5072SOL    HW116115   0.943   4.304   1.477
 5072SOL    HW216116   0.954   4.461   1.519
 5073SOL     OW16117   4.544   0.777   3.237
 5073SOL    HW116118   4.484   0.794   3.316
 5073SOL    HW216119   4.518   0.837   3.162
 5074SOL     OW16120   2.532   4.171   6.126
 5074SOL    HW116121   2.600   4.164   6.053
 5074SOL    HW216122   2.480   4.256   6.116
 5075SOL     OW16123   0.486   5.870   4.574
 5075SOL    HW116124   0.444   5.890   4.662
 5075SOL    HW216125   0.422   5.895   4.501
 5076SOL     OW16126   3.162   0.079   1.258
 5076SOL    HW116127   3.160   7.000   1.252
 5076SOL    HW216128   3.139   0.108   1.351
 5077SOL     OW16129   0.276   2.283   3.378
 5077SOL    HW116130   0.225   2.264   3.462
 5077SOL    HW216131   0.350   2.346   3.398
 5078SOL     OW16132   1.105   1.726   3.884
 5078SOL    HW116133   1.114   1.706   3.786
 5078SOL    HW216134   1.186   1.774   3.915
 5079SOL     OW16135   3.829   5.074   5.705
 5079SOL    HW116136   3.810   5.066   5.608
 5079SOL    HW216137   3.922   5.108   5.718
 5080SOL     OW16138   6.091   6.773   5.538
 5080SOL    HW116139   6.138   6.780   5.450
 5080SOL    HW216140   6.029   6.850   5.549
 5081SOL     OW16141   3.740   3.557   3.664
 5081SOL    HW116142   3.687   3.494   3.608
 5081SOL    HW216143   3.747   3.646   3.617
 5082SOL     OW16144   5.516   6.019   4.751
 5082SOL    HW116145   5.538   6.103   4.701
 5082SOL    HW216146   5.483   6.043   4.843
 5083SOL     OW16147   2.067   6.094   1.665
 5083SOL    HW116148   2.062   6.187   1.702
 5083SOL    HW216149   2.103   6.032   1.735
 5084SOL     OW16150   1.652   5.864   3.351
 5084SOL    HW116151   1.659   5.815   3.264
 5084SOL    HW216152   1.572   5.924   3.349
 5085SOL     OW16153   6.529   2.673   6.619
 5085SOL    HW116154   6.545   2.582   6.581
 5085SOL    HW216155   6.617   2.718   6.635
 5086SOL     OW16156   6.696   5.044   3.337
 5086SOL    HW116157   6.706   4.952   3.374
 5086SOL    HW216158   6.772   5.063   3.274
 5087SOL     OW16159   0.035   5.215   5.873
 5087SOL    HW116160   0.089   5.167   5.804
 5087SOL    HW216161   0.092   5.283   5.918
 5088SOL     OW16162   5.623   0.369   6.346
 5088SOL    HW116163   5.550   0.302   6.338
 5088SOL    HW216164   5.610   0.441   6.278
 5089SOL     OW16165   5.457   3.587   3.426
 5089SOL    HW116166   5.547   3.544   3.437
 5089SOL    HW216167   5.441   3.604   3.328
 5090SOL     OW16168   1.466   5.260   0.939
 5090SOL    HW116169   1.437   5.349   0.905
 5090SOL    HW216170   1.397   5.224   1.002
 5091SOL     OW16171   1.633   6.163   2.711
 5091SOL    HW116172   1.581   6.206   2.785
 5091SOL    HW216173   1.635   6.064   2.725
 5092SOL     OW16174   4.166   2.369   1.289
 5092SOL    HW116175   4.237   2.341   1.354
 5092SOL    HW216176   4.132   2.460   1.313
 5093SOL     OW16177   0.780   2.103   1.737
 5093SOL    HW116178   0.777   2.048   1.821
 5093SOL    HW216179   0.876   2.120   1.712
 5094SOL     OW16180   0.759   0.033   5.514
 5094SOL    HW116181   0.731   0.034   5.610
 5094SOL    HW216182   0.732   6.967   5.473
 5095SOL     OW16183   2.798   7.003   5.084
 5095SOL    HW116184   2.785   0.046   5.161
 5095SOL    HW216185   2.793   0.033   4.998
 5096SOL     OW16186   4.071   4.251   0.863
 5096SOL    HW116187   3.988   4.271   0.915
 5096SOL    HW216188   4.071   4.155   0.835
 5097SOL     OW16189   1.731   6.962   6.253
 5097SOL    HW116190   1.648   6.937   6.303
 5097SOL    HW216191   1.780   0.013   6.303
 5098SOL     OW16192   0.484   1.869   2.520
 5098SOL    HW116193   0.548   1.842   2.448
 5098SOL    HW216194   0.463   1.967   2.511
 5099SOL     OW16195   1.246   0.236   5.255
 5099SOL    HW116196   1.257   0.154   5.311
 5099SOL    HW216197   1.326   0.246   5.195
 5100SOL     OW16198   5.305   7.010   6.225
 5100SOL    HW116199   5.263   7.010   6.134
 5100SOL    HW216200   5.252   0.047   6.287
 5101SOL     OW16201   3.942   6.165   0.356
 5101SOL    HW116202   3.859   6.116   0.382
 5101SOL    HW216203   3.961   6.237   0.423
 5102SOL     OW16204   3.497   6.391   5.214
 5102SOL    HW116205   3.511   6.330   5.136
 5102SOL    HW216206   3.473   6.337   5.295
 5103SOL     OW16207   0.786   0.803   4.203
 5103SOL    HW116208   0.805   0.901   4.202
 5103SOL    HW216209   0.728   0.781   4.282
 5104SOL     OW16210   1.413   0.288   1.197
 5104SOL    HW116211   1.374   0.304   1.287
 5104SOL    HW216212   1.435   0.376   1.154
 5105SOL     OW16213   3.324   3.993   6.492
 5105SOL    HW116214   3.267   3.938   6.553
 5105SOL    HW216215   3.268   4.034   6.420
 5106SOL     OW16216   3.350   0.398   2.402
 5106SOL    HW116217   3.275   0.463   2.402
 5106SOL    HW216218   3.409   0.416   2.323
 5107SOL     OW16219   1.816   6.714   5.818
 5107SOL    HW116220   1.904   6.714   5.771
 5107SOL    HW216221   1.801   6.803   5.861
 5108SOL     OW16222   3.478   3.398   4.097
 5108SOL    HW116223   3.529   3.477   4.063
 5108SOL    HW216224   3.394   3.429   4.143
 5109SOL     OW16225   0.025   1.240   1.303
 5109SOL    HW116226   6.992   1.256   1.386
 5109SOL    HW216227   0.069   1.151   1.310
 5110SOL     OW16228   2.246   5.917   5.445
 5110SOL    HW116229   2.168   5.953   5.496
 5110SOL    HW216230   2.326   5.913   5.506
 5111SOL     OW16231   1.472   0.848   1.164
 5111SOL    HW116232   1.451   0.898   1.080
 5111SOL    HW216233   1.395   0.857   1.227
 5112SOL     OW16234   0.355   5.993   3.938
 5112SOL    HW116235   0.327   6.079   3.980
 5112SOL    HW216236   0.423   5.948   3.997
 5113SOL     OW16237   1.400   7.011   0.020
 5113SOL    HW116238   1.429   0.080   0.053
 5113SOL    HW216239   1.347   0.000   6.957
 5114SOL     OW16240   3.919   4.927   0.335
 5114SOL    HW116241   3.965   4.839   0.322
 5114SOL    HW216242   3.966   4.997   0.282
 5115SOL     OW16243   1.984   3.439   5.499
 5115SOL    HW116244   1.991   3.500   5.420
 5115SOL    HW216245   1.924   3.362   5.475
 5116SOL     OW16246   6.706   4.357   0.797
 5116SOL    HW116247   6.704   4.386   0.893
 5116SOL    HW216248   6.740   4.263   0.792
 5117SOL     OW16249   2.495   4.499   4.341
 5117SOL    HW116250   2.588   4.464   4.330
 5117SOL    HW216251   2.430   4.433   4.303
 5118SOL     OW16252   4.408   6.474   1.024
 5118SOL    HW116253   4.449   6.387   1.050
 5118SOL    HW216254   4.439   6.500   0.932
 5119SOL     OW16255   5.647   0.139   2.058
 5119SOL    HW116256   5.660   0.197   1.977
 5119SOL    HW216257   5.562   0.167   2.104
 5120SOL     OW16258   5.361   1.662   2.757
 5120SOL    HW116259   5.292   1.708   2.814
 5120SOL    HW216260   5.366   1.566   2.781
 5121SOL     OW16261   0.558   3.761   5.322
 5121SOL    HW116262   0.612   3.688   5.280
 5121SOL    HW216263   0.612   3.845   5.324
 5122SOL     OW16264   1.907   6.218   3.610
 5122SOL    HW116265   1.864   6.267   3.686
 5122SOL    HW216266   1.962   6.283   3.557
 5123SOL     OW16267   5.722   4.739   2.472
 5123SOL    HW116268   5.632   4.695   2.470
 5123SOL    HW216269   5.710   4.838   2.462
 5124SOL     OW16270   2.865   6.512   6.921
 5124SOL    HW116271   2.906   6.560   6.999
 5124SOL    HW216272   2.766   6.525   6.922
 5125SOL     OW16273   0.170   3.005   5.281
 5125SOL    HW116274   0.180   2.995   5.380
 5125SOL    HW216275   0.075   2.989   5.256
 5126SOL     OW16276   5.519   3.626   6.134
 5126SOL    HW116277   5.582   3.674   6.194
 5126SOL    HW216278   5.530   3.527   6.145
 5127SOL     OW16279   6.016   3.185   6.607
 5127SOL    HW116280   5.931   3.134   6.621
 5127SOL    HW216281   6.081   3.129   6.555
 5128SOL     OW16282   0.346   0.826   6.744
 5128SOL    HW116283   0.394   0.907   6.710
 5128SOL    HW216284   0.269   0.855   6.801
 5129SOL     OW16285   4.197   2.111   2.423
 5129SOL    HW116286   4.268   2.060   2.471
 5129SOL    HW216287   4.154   2.052   2.354
 5130SOL     OW16288   1.224   6.344   4.737
 5130SOL    HW116289   1.217   6.246   4.753
 5130SOL    HW216290   1.188   6.394   4.816
 5131SOL     OW16291   3.079   4.961   3.610
 5131SOL    HW116292   3.140   4.930   3.683
 5131SOL    HW216293   3.127   5.028   3.552
 5132SOL     OW16294   3.570   1.419   6.732
 5132SOL    HW116295   3.513   1.362   6.674
 5132SOL    HW216296   3.641   1.363   6.775
 5133SOL     OW16297   4.876   4.456   6.678
 5133SOL    HW116298   4.869   4.485   6.773
 5133SOL    HW216299   4.785   4.455   6.636
 5134SOL     OW16300   6.318   6.142   1.107
 5134SOL    HW116301   6.349   6.209   1.175
 5134SOL    HW216302   6.393   6.120   1.045
 5135SOL     OW16303   6.340   3.208   2.078
 5135SOL    HW116304   6.378   3.121   2.110
 5135SOL    HW216305   6.354   3.216   1.980
 5136SOL     OW16306   1.130   0.828   5.989
 5136SOL    HW116307   1.051   0.885   5.967
 5136SOL    HW216308   1.178   0.867   6.068
 5137SOL     OW16309   6.196   1.187   4.555
 5137SOL    HW116310   6.109   1.234   4.545
 5137SOL    HW216311   6.268   1.254   4.574
 5138SOL     OW16312   2.961   3.406   3.960
 5138SOL    HW116313   3.055   3.372   3.953
 5138SOL    HW216314   2.920   3.406   3.869
 5139SOL     OW16315   2.814   0.152   5.763
 5139SOL    HW116316   2.831   0.059   5.796
 5139SOL    HW216317   2.878   0.215   5.807
 5140SOL     OW16318   3.951   2.643   6.605
 5140SOL    HW116319   4.042   2.662   6.642
 5140SOL    HW216320   3.952   2.552   6.563
 5141SOL     OW16321   6.680   2.758   1.540
 5141SOL    HW116322   6.721   2.750   1.449
 5141SOL    HW216323   6.606   2.692   1.549
 5142SOL     OW16324   0.236   0.111   2.299
 5142SOL    HW116325   0.140   0.106   2.270
 5142SOL    HW216326   0.258   0.205   2.324
 5143SOL     OW16327   6.960   6.212   2.929
 5143SOL    HW116328   6.951   6.220   3.028
 5143SOL    HW216329   6.971   6.115   2.904
 5144SOL     OW16330   2.422   2.839   5.341
 5144SOL    HW116331   2.458   2.921   5.297
 5144SOL    HW216332   2.332   2.859   5.380
 5145SOL     OW16333   2.105   5.538   6.631
 5145SOL    HW116334   2.017   5.541   6.679
 5145SOL    HW216335   2.147   5.448   6.645
 5146SOL     OW16336   5.700   5.401   6.393
 5146SOL    HW116337   5.613   5.402   6.345
 5146SOL    HW216338   5.773   5.431   6.331
 5147SOL     OW16339   4.746   2.622   3.620
 5147SOL    HW116340   4.686   2.626   3.540
 5147SOL    HW216341   4.829   2.674   3.602
 5148SOL     OW16342   0.804   0.332   6.369
 5148SOL    HW116343   0.848   0.281   6.294
 5148SOL    HW216344   0.706   0.309   6.371
 5149SOL     OW16345   4.731   4.829   3.895
 5149SOL    HW116346   4.740   4.877   3.982
 5149SOL    HW216347   4.772   4.738   3.903
 5150SOL     OW16348   0.260   6.236   4.054
 5150SOL    HW116349   0.296   6.308   4.112
 5150SOL    HW216350   0.172   6.264   4.016
 5151SOL     OW16351   6.341   5.516   2.135
 5151SOL    HW116352   6.349   5.504   2.036
 5151SOL    HW216353   6.432   5.537   2.173
 5152SOL     OW16354   1.460   1.073   0.480
 5152SOL    HW116355   1.451   1.172   0.486
 5152SOL    HW216356   1.376   1.034   0.442
 5153SOL     OW16357   1.114   1.830   0.978
 5153SOL    HW116358   1.204   1.834   1.020
 5153SOL    HW216359   1.046   1.799   1.045
 5154SOL     OW16360   0.114   3.016   0.336
 5154SOL    HW116361   0.097   2.961   0.418
 5154SOL    HW216362   0.051   3.094   0.336
 5155SOL     OW16363   1.599   1.330   0.822
 5155SOL    HW116364   1.555   1.412   0.786
 5155SOL    HW216365   1.696   1.348   0.838
 5156SOL     OW16366   5.205   6.134   5.721
 5156SOL    HW116367   5.106   6.137   5.731
 5156SOL    HW216368   5.245   6.072   5.788
 5157SOL     OW16369   3.217   0.056   1.542
 5157SOL    HW116370   3.287   0.088   1.606
 5157SOL    HW216371   3.127   0.085   1.573
 5158SOL     OW16372   1.881   2.261   1.580
 5158SOL    HW116373   1.835   2.330   1.523
 5158SOL    HW216374   1.902   2.301   1.669
 5159SOL     OW16375   6.406   2.998   5.854
 5159SOL    HW116376   6.340   3.073   5.860
 5159SOL    HW216377   6.407   2.960   5.761
 5160SOL     OW16378   6.223   6.472   3.528
 5160SOL    HW116379   6.177   6.528   3.596
 5160SOL    HW216380   6.194   6.377   3.537
 5161SOL     OW16381   1.269   3.439   0.508
 5161SOL    HW116382   1.193   3.394   0.556
 5161SOL    HW216383   1.232   3.503   0.441
 5162SOL     OW16384   0.018   0.397   3.832
 5162SOL    HW116385   6.987   0.393   3.747
 5162SOL    HW216386   0.043   0.493   3.851
 5163SOL     OW16387   3.168   0.528   1.821
 5163SOL    HW116388   3.121   0.511   1.734
 5163SOL    HW216389   3.170   0.626   1.839
 5164SOL     OW16390   3.072   3.392   0.160
 5164SOL    HW116391   3.001   3.426   0.223
 5164SOL    HW216392   3.091   3.296   0.181
 5165SOL     OW16393   1.842   4.393   6.123
 5165SOL    HW116394   1.883   4.431   6.040
 5165SOL    HW216395   1.904   4.325   6.162
 5166SOL     OW16396   1.399   5.324   0.509
 5166SOL    HW116397   1.482   5.374   0.535
 5166SOL    HW216398   1.345   5.304   0.591
 5167SOL     OW16399   5.575   3.232   5.077
 5167SOL    HW116400   5.522   3.308   5.040
 5167SOL    HW216401   5.603   3.171   5.003
 5168SOL     OW16402   4.231   2.237   2.977
 5168SOL    HW116403   4.194   2.236   3.070
 5168SOL    HW216404   4.156   2.246   2.912
 5169SOL     OW16405   4.232   5.691   4.374
 5169SOL    HW116406   4.326   5.672   4.346
 5169SOL    HW216407   4.206   5.629   4.448
 5170SOL     OW16408   2.270   3.491   6.200
 5170SOL    HW116409   2.321   3.563   6.153
 5170SOL    HW216410   2.174   3.495   6.172
 5171SOL     OW16411   2.052   6.029   5.658
 5171SOL    HW116412   2.104   6.114   5.649
 5171SOL    HW216413   2.003   6.030   5.746
 5172SOL     OW16414   6.215   5.749   4.659
 5172SOL    HW116415   6.251   5.788   4.575
 5172SOL    HW216416   6.171   5.661   4.639
 5173SOL     OW16417   4.380   4.241   5.937
 5173SOL    HW116418   4.288   4.265   5.970
 5173SOL    HW216419   4.388   4.265   5.840
 5174SOL     OW16420   2.433   6.372   3.402
 5174SOL    HW116421   2.486   6.430   3.339
 5174SOL    HW216422   2.481   6.286   3.416
 5175SOL     OW16423   3.263   3.318   6.939
 5175SOL    HW116424   3.169   3.284   6.942
 5175SOL    HW216425   3.309   3.294   0.004
 5176SOL     OW16426   6.249   6.468   0.037
 5176SOL    HW116427   6.233   6.459   0.135
 5176SOL    HW216428   6.187   6.538   7.020
 5177SOL     OW16429   6.381   0.115   0.360
 5177SOL    HW116430   6.460   0.054   0.361
 5177SOL    HW216431   6.310   0.076   0.302
 5178SOL     OW16432   0.355   4.536   2.241
 5178SOL    HW116433   0.362   4.557   2.143
 5178SOL    HW216434   0.397   4.447   2.258
 5179SOL     OW16435   4.713   6.258   2.447
 5179SOL    HW116436   4.773   6.242   2.525
 5179SOL    HW216437   4.754   6.327   2.387
 5180SOL     OW16438   2.390   6.315   2.663
 5180SOL    HW116439   2.372   6.216   2.668
 5180SOL    HW216440   2.346   6.352   2.581
 5181SOL     OW16441   0.081   0.136   6.068
 5181SOL    HW116442   0.113   0.157   5.975
 5181SOL    HW216443   0.061   0.038   6.073
 5182SOL     OW16444   2.787   6.251   3.302
 5182SOL    HW116445   2.737   6.338   3.293
 5182SOL    HW216446   2.739   6.193   3.368
 5183SOL     OW16447   4.128   1.497   3.837
 5183SOL    HW116448   4.203   1.534   3.891
 5183SOL    HW216449   4.048   1.483   3.896
 5184SOL     OW16450   3.098   1.220   3.898
 5184SOL    HW116451   3.079   1.171   3.813
 5184SOL    HW216452   3.022   1.281   3.919
 5185SOL     OW16453   6.658   0.380   1.673
 5185SOL    HW116454   6.742   0.415   1.713
 5185SOL    HW216455   6.679   0.303   1.613
 5186SOL     OW16456   0.287   3.359   6.562
 5186SOL    HW116457   0.213   3.291   6.557
 5186SOL    HW216458   0.291   3.410   6.476
 5187SOL     OW16459   1.437   4.667   5.279
 5187SOL    HW116460   1.359   4.697   5.222
 5187SOL    HW216461   1.444   4.726   5.359
 5188SOL     OW16462   5.778   0.005   2.457
 5188SOL    HW116463   5.871   6.993   2.473
 5188SOL    HW216464   5.713   6.952   2.477
 5189SOL     OW16465   5.474   6.939   5.972
 5189SOL    HW116466   5.459   7.009   6.043
 5189SOL    HW216467   5.452   6.977   5.883
 5190SOL     OW16468   2.016   4.050   0.640
 5190SOL    HW116469   2.060   4.073   0.553
 5190SOL    HW216470   1.969   3.962   0.631
 5191SOL     OW16471   2.937   5.016   2.024
 5191SOL    HW116472   3.025   5.057   2.050
 5191SOL    HW216473   2.952   4.943   1.958
 5192SOL     OW16474   1.987   5.346   2.331
 5192SOL    HW116475   2.061   5.316   2.390
 5192SOL    HW216476   1.904   5.295   2.353
 5193SOL     OW16477   5.055   6.859   5.036
 5193SOL    HW116478   4.959   6.841   5.015
 5193SOL    HW216479   5.088   6.790   5.101
 5194SOL     OW16480   5.430   1.501   6.246
 5194SOL    HW116481   5.338   1.476   6.216
 5194SOL    HW216482   5.433   1.599   6.269
 5195SOL     OW16483   0.045   0.972   4.838
 5195SOL    HW116484   0.111   0.952   4.765
 5195SOL    HW216485   0.041   0.894   4.900
 5196SOL     OW16486   5.684   6.832   3.139
 5196SOL    HW116487   5.680   6.763   3.066
 5196SOL    HW216488   5.745   6.906   3.111
 5197SOL     OW16489   1.114   3.617   5.051
 5197SOL    HW116490   1.121   3.714   5.073
 5197SOL    HW216491   1.020   3.597   5.022
 5198SOL     OW16492   5.690   5.499   3.456
 5198SOL    HW116493   5.687   5.556   3.374
 5198SOL    HW216494   5.614   5.434   3.455
 5199SOL     OW16495   0.537   4.682   1.668
 5199SOL    HW116496   0.576   4.696   1.759
 5199SOL    HW216497   0.459   4.620   1.674
 5200SOL     OW16498   0.217   3.809   4.463
 5200SOL    HW116499   0.279   3.866   4.409
 5200SOL    HW216500   0.128   3.805   4.418
 5201SOL     OW16501   1.257   4.781   4.361
 5201SOL    HW116502   1.184   4.712   4.364
 5201SOL    HW216503   1.276   4.806   4.266
 5202SOL     OW16504   0.754   5.029   2.064
 5202SOL    HW116505   0.691   4.963   2.106
 5202SOL    HW216506   0.750   5.020   1.964
 5203SOL     OW16507   0.677   3.134   0.550
 5203SOL    HW116508   0.715   3.108   0.461
 5203SOL    HW216509   0.577   3.132   0.545
 5204SOL     OW16510   4.876   4.542   6.918
 5204SOL    HW116511   4.952   4.579   6.973
 5204SOL    HW216512   4.820   4.483   6.975
 5205SOL     OW16513   1.492   0.016   1.215
 5205SOL    HW116514   1.465   6.974   1.142
 5205SOL    HW216515   1.474   0.110   1.187
 5206SOL     OW16516   0.267   4.088   4.971
 5206SOL    HW116517   0.234   4.044   5.055
 5206SOL    HW216518   0.299   4.181   4.993
 5207SOL     OW16519   1.775   4.284   4.040
 5207SOL    HW116520   1.789   4.235   3.954
 5207SOL    HW216521   1.859   4.332   4.065
 5208SOL     OW16522   4.359   1.308   6.833
 5208SOL    HW116523   4.454   1.297   6.805
 5208SOL    HW216524   4.320   1.389   6.789
 5209SOL     OW16525   5.162   6.320   2.951
 5209SOL    HW116526   5.249   6.341   2.908
 5209SOL    HW216527   5.170   6.327   3.050
 5210SOL     OW16528   4.511   5.210   3.365
 5210SOL    HW116529   4.420   5.171   3.352
 5210SOL    HW216530   4.572   5.178   3.292
 5211SOL     OW16531   3.950   3.958   2.616
 5211SOL    HW116532   3.952   3.971   2.715
 5211SOL    HW216533   3.901   4.034   2.573
 5212SOL     OW16534   1.017   1.714   0.465
 5212SOL    HW116535   0.954   1.791   0.456
 5212SOL    HW216536   0.978   1.633   0.421
 5213SOL     OW16537   4.012   1.660   6.589
 5213SOL    HW116538   3.986   1.756   6.578
 5213SOL    HW216539   3.931   1.603   6.591
 5214SOL     OW16540   5.679   1.647   5.952
 5214SOL    HW116541   5.601   1.689   5.906
 5214SOL    HW216542   5.762   1.701   5.935
 5215SOL     OW16543   5.082   5.379   2.356
 5215SOL    HW116544   5.148   5.404   2.426
 5215SOL    HW216545   4.989   5.390   2.392
 5216SOL     OW16546   4.960   5.444   1.226
 5216SOL    HW116547   4.973   5.533   1.181
 5216SOL    HW216548   4.868   5.411   1.207
 5217SOL     OW16549   2.709   4.760   3.869
 5217SOL    HW116550   2.618   4.742   3.831
 5217SOL    HW216551   2.715   4.722   3.962
 5218SOL     OW16552   1.582   6.888   4.137
 5218SOL    HW116553   1.511   6.912   4.204
 5218SOL    HW216554   1.601   6.790   4.143
 5219SOL     OW16555   2.375   5.700   0.064
 5219SOL    HW116556   2.332   5.706   6.994
 5219SOL    HW216557   2.310   5.662   0.129
 5220SOL     OW16558   0.628   6.715   2.368
 5220SOL    HW116559   0.634   6.804   2.324
 5220SOL    HW216560   0.718   6.688   2.402
 5221SOL     OW16561   4.802   1.300   5.337
 5221SOL    HW116562   4.703   1.317   5.341
 5221SOL    HW216563   4.822   1.239   5.260
 5222SOL     OW16564   1.232   0.367   2.402
 5222SOL    HW116565   1.161   0.385   2.334
 5222SOL    HW216566   1.196   0.379   2.494
 5223SOL     OW16567   5.449   6.869   1.100
 5223SOL    HW116568   5.463   6.952   1.153
 5223SOL    HW216569   5.538   6.829   1.077
 5224SOL     OW16570   5.879   1.998   2.537
 5224SOL    HW116571   5.916   1.909   2.566
 5224SOL    HW216572   5.821   2.035   2.609
 5225SOL     OW16573   5.271   5.856   5.429
 5225SOL    HW116574   5.298   5.948   5.457
 5225SOL    HW216575   5.173   5.843   5.444
 5226SOL     OW16576   1.302   6.329   4.276
 5226SOL    HW116577   1.267   6.255   4.334
 5226SOL    HW216578   1.251   6.413   4.297
 5227SOL     OW16579   6.155   4.797   3.291
 5227SOL    HW116580   6.246   4.832   3.312
 5227SOL    HW216581   6.111   4.858   3.225
 5228SOL     OW16582   5.401   1.258   0.829
 5228SOL    HW116583   5.466   1.272   0.754
 5228SOL    HW216584   5.403   1.337   0.890
 5229SOL     OW16585   1.212   4.512   4.959
 5229SOL    HW116586   1.237   4.459   5.041
 5229SOL    HW216587   1.117   4.492   4.935
 5230SOL     OW16588   1.098   6.958   6.983
 5230SOL    HW116589   1.156   7.017   6.927
 5230SOL    HW216590   1.093   6.994   0.055
 5231SOL     OW16591   3.985   3.041   3.481
 5231SOL    HW116592   4.029   2.952   3.470
 5231SOL    HW216593   3.928   3.040   3.563
 5232SOL     OW16594   4.833   2.705   6.242
 5232SOL    HW116595   4.922   2.749   6.236
 5232SOL    HW216596   4.761   2.775   6.243
 5233SOL     OW16597   0.593   0.706   2.585
 5233SOL    HW116598   0.602   0.804   2.565
 5233SOL    HW216599   0.662   0.679   2.651
 5234SOL     OW16600   3.727   6.964   1.093
 5234SOL    HW116601   3.818   6.930   1.071
 5234SOL    HW216602   3.697   0.007   1.021
 5235SOL     OW16603   0.921   3.452   1.189
 5235SOL    HW116604   0.895   3.496   1.103
 5235SOL    HW216605   0.895   3.356   1.186
 5236SOL     OW16606   4.855   2.924   0.715
 5236SOL    HW116607   4.800   2.946   0.796
 5236SOL    HW216608   4.879   2.827   0.717
 5237SOL     OW16609   2.593   1.731   4.941
 5237SOL    HW116610   2.547   1.767   4.860
 5237SOL    HW216611   2.559   1.638   4.959
 5238SOL     OW16612   2.003   4.357   1.045
 5238SOL    HW116613   2.054   4.388   0.965
 5238SOL    HW216614   2.030   4.411   1.125
 5239SOL     OW16615   3.055   3.729   4.417
 5239SOL    HW116616   3.152   3.719   4.442
 5239SOL    HW216617   3.046   3.723   4.318
 5240SOL     OW16618   3.367   2.116   4.841
 5240SOL    HW116619   3.321   2.188   4.894
 5240SOL    HW216620   3.386   2.038   4.901
 5241SOL     OW16621   2.077   5.747   6.448
 5241SOL    HW116622   2.109   5.668   6.499
 5241SOL    HW216623   2.084   5.729   6.350
 5242SOL     OW16624   5.713   0.841   5.869
 5242SOL    HW116625   5.748   0.764   5.922
 5242SOL    HW216626   5.772   0.856   5.789
 5243SOL     OW16627   1.096   4.684   1.080
 5243SOL    HW116628   1.109   4.657   1.175
 5243SOL    HW216629   1.159   4.632   1.022
 5244SOL     OW16630   5.369   4.131   6.138
 5244SOL    HW116631   5.451   4.146   6.083
 5244SOL    HW216632   5.302   4.203   6.119
 5245SOL     OW16633   4.918   3.655   6.607
 5245SOL    HW116634   4.936   3.592   6.682
 5245SOL    HW216635   4.927   3.749   6.639
 5246SOL     OW16636   1.085   3.216   2.594
 5246SOL    HW116637   1.179   3.206   2.562
 5246SOL    HW216638   1.074   3.169   2.682
 5247SOL     OW16639   0.882   5.039   1.231
 5247SOL    HW116640   0.793   5.015   1.194
 5247SOL    HW216641   0.871   5.103   1.307
 5248SOL     OW16642   4.994   0.945   6.070
 5248SOL    HW116643   5.026   0.861   6.026
 5248SOL    HW216644   5.070   1.011   6.073
 5249SOL     OW16645   0.918   5.245   4.818
 5249SOL    HW116646   0.962   5.164   4.778
 5249SOL    HW216647   0.894   5.309   4.745
 5250SOL     OW16648   0.620   1.194   6.302
 5250SOL    HW116649   0.615   1.117   6.237
 5250SOL    HW216650   0.560   1.175   6.379
 5251SOL     OW16651   6.925   3.087   0.999
 5251SOL    HW116652   6.886   3.003   0.962
 5251SOL    HW216653   7.018   3.069   1.031
 5252SOL     OW16654   4.120   5.935   0.497
 5252SOL    HW116655   4.094   5.978   0.410
 5252SOL    HW216656   4.128   6.005   0.567
 5253SOL     OW16657   5.678   3.304   3.656
 5253SOL    HW116658   5.663   3.398   3.686
 5253SOL    HW216659   5.701   3.303   3.558
 5254SOL     OW16660   4.737   0.959   3.980
 5254SOL    HW116661   4.787   0.932   3.898
 5254SOL    HW216662   4.710   0.877   4.031
 5255SOL     OW16663   3.375   6.361   4.795
 5255SOL    HW116664   3.294   6.420   4.791
 5255SOL    HW216665   3.416   6.355   4.704
 5256SOL     OW16666   5.805   6.457   3.566
 5256SOL    HW116667   5.850   6.526   3.509
 5256SOL    HW216668   5.829   6.366   3.533
 5257SOL     OW16669   3.068   0.762   1.381
 5257SOL    HW116670   3.103   0.699   1.313
 5257SOL    HW216671   2.990   0.721   1.428
 5258SOL     OW16672   5.620   2.998   2.326
 5258SOL    HW116673   5.628   2.939   2.406
 5258SOL    HW216674   5.656   2.950   2.246
 5259SOL     OW16675   4.848   4.987   2.309
 5259SOL    HW116676   4.754   5.015   2.289
 5259SOL    HW216677   4.855   4.887   2.302
 5260SOL     OW16678   5.410   3.164   1.315
 5260SOL    HW116679   5.355   3.128   1.390
 5260SOL    HW216680   5.350   3.192   1.240
 5261SOL     OW16681   1.592   2.616   4.593
 5261SOL    HW116682   1.513   2.560   4.617
 5261SOL    HW216683   1.609   2.684   4.664
 5262SOL     OW16684   2.516   6.631   2.597
 5262SOL    HW116685   2.593   6.691   2.619
 5262SOL    HW216686   2.430   6.680   2.609
 5263SOL     OW16687   0.908   6.417   7.010
 5263SOL    HW116688   0.823   6.383   6.970
 5263SOL    HW216689   0.886   6.486   0.059
 5264SOL     OW16690   0.244   2.311   0.868
 5264SOL    HW116691   0.319   2.247   0.852
 5264SOL    HW216692   0.157   2.266   0.850
 5265SOL     OW16693   5.186   4.767   1.958
 5265SOL    HW116694   5.120   4.728   1.894
 5265SOL    HW216695   5.270   4.793   1.909
 5266SOL     OW16696   1.680   6.388   1.023
 5266SOL    HW116697   1.638   6.303   0.992
 5266SOL    HW216698   1.739   6.369   1.102
 5267SOL     OW16699   4.904   4.663   4.659
 5267SOL    HW116700   4.925   4.741   4.600
 5267SOL    HW216701   4.858   4.592   4.605
 5268SOL     OW16702   5.695   4.604   4.479
 5268SOL    HW116703   5.780   4.657   4.485
 5268SOL    HW216704   5.645   4.612   4.565
 5269SOL     OW16705   1.720   5.942   3.766
 5269SOL    HW116706   1.731   5.853   3.720
 5269SOL    HW216707   1.787   6.007   3.729
 5270SOL     OW16708   5.901   2.587   2.052
 5270SOL    HW116709   5.950   2.503   2.029
 5270SOL    HW216710   5.961   2.665   2.039
 5271SOL     OW16711   5.093   4.554   4.852
 5271SOL    HW116712   5.022   4.591   4.792
 5271SOL    HW216713   5.054   4.487   4.914
 5272SOL     OW16714   1.714   0.811   4.928
 5272SOL    HW116715   1.647   0.879   4.899
 5272SOL    HW216716   1.771   0.785   4.849
 5273SOL     OW16717   0.512   0.876   4.031
 5273SOL    HW116718   0.548   0.848   3.942
 5273SOL    HW216719   0.536   0.972   4.047
 5274SOL     OW16720   6.490   5.156   3.853
 5274SOL    HW116721   6.456   5.169   3.760
 5274SOL    HW216722   6.503   5.246   3.896
 5275SOL     OW16723   2.085   7.019   6.881
 5275SOL    HW116724   2.144   0.008   6.961
 5275SOL    HW216725   2.020   6.945   6.896
 5276SOL     OW16726   0.183   6.519   1.477
 5276SOL    HW116727   0.165   6.465   1.559
 5276SOL    HW216728   0.118   6.594   1.471
 5277SOL     OW16729   1.173   2.048   3.166
 5277SOL    HW116730   1.075   2.027   3.173
 5277SOL    HW216731   1.216   1.985   3.102
 5278SOL     OW16732   1.097   5.417   5.174
 5278SOL    HW116733   1.053   5.445   5.089
 5278SOL    HW216734   1.039   5.352   5.222
 5279SOL     OW16735   1.702   5.736   6.459
 5279SOL    HW116736   1.614   5.690   6.451
 5279SOL    HW216737   1.688   5.829   6.494
 5280SOL     OW16738   4.393   5.958   5.227
 5280SOL    HW116739   4.430   5.872   5.262
 5280SOL    HW216740   4.294   5.948   5.214
 5281SOL     OW16741   2.348   1.197   4.836
 5281SOL    HW116742   2.344   1.269   4.905
 5281SOL    HW216743   2.271   1.134   4.849
 5282SOL     OW16744   1.341   0.206   1.808
 5282SOL    HW116745   1.268   0.257   1.762
 5282SOL    HW216746   1.424   0.211   1.753
 5283SOL     OW16747   0.511   0.873   4.331
 5283SOL    HW116748   0.516   0.970   4.354
 5283SOL    HW216749   0.476   0.863   4.238
 5284SOL     OW16750   4.584   2.253   1.775
 5284SOL    HW116751   4.551   2.192   1.703
 5284SOL    HW216752   4.656   2.207   1.828
 5285SOL     OW16753   1.152   2.310   4.343
 5285SOL    HW116754   1.162   2.282   4.438
 5285SOL    HW216755   1.061   2.349   4.329
 5286SOL     OW16756   6.101   2.845   0.976
 5286SOL    HW116757   6.011   2.817   1.008
 5286SOL    HW216758   6.128   2.929   1.023
 5287SOL     OW16759   2.813   5.199   1.113
 5287SOL    HW116760   2.845   5.292   1.132
 5287SOL    HW216761   2.725   5.184   1.157
 5288SOL     OW16762   4.484   0.788   2.259
 5288SOL    HW116763   4.424   0.809   2.336
 5288SOL    HW216764   4.560   0.731   2.290
 5289SOL     OW16765   2.189   4.671   6.169
 5289SOL    HW116766   2.179   4.725   6.085
 5289SOL    HW216767   2.248   4.720   6.233
 5290SOL     OW16768   1.421   2.909   5.584
 5290SOL    HW116769   1.450   2.971   5.657
 5290SOL    HW216770   1.339   2.947   5.540
 5291SOL     OW16771   2.786   4.752   4.732
 5291SOL    HW116772   2.729   4.697   4.672
 5291SOL    HW216773   2.792   4.709   4.822
 5292SOL     OW16774   6.901   4.363   6.383
 5292SOL    HW116775   6.866   4.456   6.372
 5292SOL    HW216776   6.975   4.363   6.451
 5293SOL     OW16777   2.027   5.905   4.428
 5293SOL    HW116778   2.023   5.834   4.499
 5293SOL    HW216779   2.054   5.864   4.341
 5294SOL     OW16780   3.710   0.526   5.154
 5294SOL    HW116781   3.667   0.595   5.096
 5294SOL    HW216782   3.808   0.520   5.132
 5295SOL     OW16783   2.791   1.297   2.068
 5295SOL    HW116784   2.860   1.352   2.116
 5295SOL    HW216785   2.772   1.214   2.120
 5296SOL     OW16786   4.527   4.909   1.259
 5296SOL    HW116787   4.579   4.992   1.242
 5296SOL    HW216788   4.519   4.856   1.174
 5297SOL     OW16789   2.413   4.561   0.654
 5297SOL    HW116790   2.479   4.507   0.707
 5297SOL    HW216791   2.337   4.502   0.626
 5298SOL     OW16792   2.090   0.207   0.803
 5298SOL    HW116793   2.055   0.273   0.869
 5298SOL    HW216794   2.114   0.255   0.718
 5299SOL     OW16795   2.856   1.699   0.410
 5299SOL    HW116796   2.851   1.690   0.311
 5299SOL    HW216797   2.849   1.608   0.452
 5300SOL     OW16798   1.948   4.113   0.225
 5300SOL    HW116799   1.909   4.178   0.160
 5300SOL    HW216800   1.922   4.020   0.198
 5301SOL     OW16801   4.843   0.515   5.868
 5301SOL    HW116802   4.908   0.487   5.797
 5301SOL    HW216803   4.752   0.526   5.827
 5302SOL     OW16804   5.468   5.721   3.063
 5302SOL    HW116805   5.381   5.687   3.101
 5302SOL    HW216806   5.478   5.686   2.969
 5303SOL     OW16807   6.820   4.801   5.848
 5303SOL    HW116808   6.912   4.816   5.813
 5303SOL    HW216809   6.764   4.756   5.778
 5304SOL     OW16810   6.833   1.020   1.425
 5304SOL    HW116811   6.843   1.041   1.328
 5304SOL    HW216812   6.743   1.048   1.457
 5305SOL     OW16813   1.384   5.418   2.851
 5305SOL    HW116814   1.359   5.323   2.870
 5305SOL    HW216815   1.442   5.452   2.925
 5306SOL     OW16816   6.505   4.067   5.606
 5306SOL    HW116817   6.464   3.979   5.630
 5306SOL    HW216818   6.460   4.104   5.525
 5307SOL     OW16819   5.100   2.653   1.003
 5307SOL    HW116820   5.183   2.672   0.950
 5307SOL    HW216821   5.020   2.662   0.943
 5308SOL     OW16822   1.579   4.605   2.849
 5308SOL    HW116823   1.495   4.647   2.885
 5308SOL    HW216824   1.567   4.586   2.752
 5309SOL     OW16825   4.809   6.480   3.007
 5309SOL    HW116826   4.710   6.493   3.016
 5309SOL    HW216827   4.857   6.554   3.054
 5310SOL     OW16828   6.093   2.989   3.116
 5310SOL    HW116829   6.048   2.942   3.040
 5310SOL    HW216830   6.180   2.944   3.136
 5311SOL     OW16831   5.869   0.383   0.722
 5311SOL    HW116832   5.859   0.481   0.706
 5311SOL    HW216833   5.965   0.358   0.715
 5312SOL     OW16834   6.931   6.630   1.463
 5312SOL    HW116835   6.926   6.712   1.407
 5312SOL    HW216836   6.856   6.631   1.530
 5313SOL     OW16837   6.968   5.115   4.989
 5313SOL    HW116838   6.945   5.099   4.893
 5313SOL    HW216839   6.906   5.063   5.047
 5314SOL     OW16840   5.969   0.025   1.413
 5314SOL    HW116841   5.922   0.005   1.500
 5314SOL    HW216842   5.980   0.124   1.404
 5315SOL     OW16843   4.362   0.894   3.882
 5315SOL    HW116844   4.424   0.930   3.813
 5315SOL    HW216845   4.387   0.931   3.972
 5316SOL     OW16846   0.819   2.806   4.899
 5316SOL    HW116847   0.783   2.892   4.933
 5316SOL    HW216848   0.919   2.809   4.897
 5317SOL     OW16849   6.745   1.945   5.758
 5317SOL    HW116850   6.803   2.020   5.725
 5317SOL    HW216851   6.797   1.886   5.819
 5318SOL     OW16852   6.270   2.878   7.020
 5318SOL    HW116853   6.255   2.806   0.067
 5318SOL    HW216854   6.186   2.894   6.969
 5319SOL     OW16855   4.093   6.799   1.181
 5319SOL    HW116856   4.189   6.783   1.160
 5319SOL    HW216857   4.060   6.727   1.242
 5320SOL     OW16858   3.328   5.911   1.395
 5320SOL    HW116859   3.379   5.959   1.323
 5320SOL    HW216860   3.269   5.976   1.442
 5321SOL     OW16861   1.987   4.718   4.598
 5321SOL    HW116862   2.084   4.719   4.573
 5321SOL    HW216863   1.964   4.629   4.638
 5322SOL     OW16864   5.671   6.807   1.723
 5322SOL    HW116865   5.704   6.715   1.702
 5322SOL    HW216866   5.749   6.870   1.726
 5323SOL     OW16867   4.831   1.448   5.624
 5323SOL    HW116868   4.819   1.462   5.526
 5323SOL    HW216869   4.745   1.418   5.665
 5324SOL     OW16870   2.347   2.198   0.649
 5324SOL    HW116871   2.264   2.244   0.620
 5324SOL    HW216872   2.348   2.104   0.615
 5325SOL     OW16873   2.582   2.110   4.835
 5325SOL    HW116874   2.546   2.141   4.923
 5325SOL    HW216875   2.518   2.134   4.762
 5326SOL     OW16876   6.072   6.480   2.941
 5326SOL    HW116877   6.162   6.516   2.917
 5326SOL    HW216878   6.083   6.403   3.004
 5327SOL     OW16879   5.404   2.820   4.975
 5327SOL    HW116880   5.318   2.854   4.935
 5327SOL    HW216881   5.393   2.724   5.001
 5328SOL     OW16882   4.437   4.244   6.906
 5328SOL    HW116883   4.423   4.287   6.995
 5328SOL    HW216884   4.421   4.145   6.913
 5329SOL     OW16885   1.290   6.248   6.510
 5329SOL    HW116886   1.383   6.283   6.526
 5329SOL    HW216887   1.271   6.246   6.412
 5330SOL     OW16888   2.982   3.161   0.547
 5330SOL    HW116889   3.012   3.229   0.614
 5330SOL    HW216890   2.883   3.165   0.538
 5331SOL     OW16891   6.732   0.894   6.734
 5331SOL    HW116892   6.646   0.893   6.684
 5331SOL    HW216893   6.736   0.814   6.795
 5332SOL     OW16894   1.048   4.610   2.152
 5332SOL    HW116895   1.050   4.525   2.100
 5332SOL    HW216896   1.000   4.595   2.239
 5333SOL     OW16897   1.053   6.553   4.321
 5333SOL    HW116898   1.078   6.539   4.416
 5333SOL    HW216899   1.133   6.583   4.269
 5334SOL     OW16900   2.940   6.922   4.189
 5334SOL    HW116901   2.930   7.011   4.145
 5334SOL    HW216902   3.018   6.925   4.253
 5335SOL     OW16903   6.863   5.408   0.933
 5335SOL    HW116904   6.860   5.487   0.994
 5335SOL    HW216905   6.822   5.329   0.979
 5336SOL     OW16906   1.554   3.589   2.088
 5336SOL    HW116907   1.533   3.546   2.000
 5336SOL    HW216908   1.644   3.560   2.118
 5337SOL     OW16909   5.052   4.297   1.234
 5337SOL    HW116910   4.955   4.286   1.257
 5337SOL    HW216911   5.106   4.295   1.318
 5338SOL     OW16912   6.648   2.274   6.765
 5338SOL    HW116913   6.724   2.299   6.706
 5338SOL    HW216914   6.681   2.258   6.858
 5339SOL     OW16915   6.557   1.836   3.591
 5339SOL    HW116916   6.578   1.770   3.518
 5339SOL    HW216917   6.497   1.793   3.658
 5340SOL     OW16918   5.393   2.837   6.901
 5340SOL    HW116919   5.441   2.897   6.838
 5340SOL    HW216920   5.355   2.759   6.851
 5341SOL     OW16921   4.746   0.632   6.509
 5341SOL    HW116922   4.700   0.565   6.451
 5341SOL    HW216923   4.837   0.651   6.472
 5342SOL     OW16924   4.316   0.793   5.822
 5342SOL    HW116925   4.232   0.752   5.785
 5342SOL    HW216926   4.379   0.811   5.746
 5343SOL     OW16927   3.907   3.338   2.312
 5343SOL    HW116928   3.940   3.370   2.401
 5343SOL    HW216929   3.829   3.277   2.326
 5344SOL     OW16930   1.906   2.534   3.364
 5344SOL    HW116931   1.852   2.551   3.281
 5344SOL    HW216932   1.972   2.608   3.376
 5345SOL     OW16933   4.353   6.691   1.168
 5345SOL    HW116934   4.362   6.614   1.105
 5345SOL    HW216935   4.442   6.731   1.187
 5346SOL     OW16936   3.061   6.181   3.308
 5346SOL    HW116937   2.997   6.107   3.325
 5346SOL    HW216938   3.019   6.268   3.331
 5347SOL     OW16939   6.925   1.982   0.835
 5347SOL    HW116940   6.874   1.897   0.845
 5347SOL    HW216941   6.949   2.018   0.925
 5348SOL     OW16942   1.158   1.358   0.235
 5348SOL    HW116943   1.249   1.398   0.249
 5348SOL    HW216944   1.165   1.282   0.171
 5349SOL     OW16945   6.817   1.291   1.158
 5349SOL    HW116946   6.907   1.253   1.179
 5349SOL    HW216947   6.811   1.384   1.195
 5350SOL     OW16948   2.495   1.145   6.275
 5350SOL    HW116949   2.470   1.184   6.364
 5350SOL    HW216950   2.591   1.168   6.255
 5351SOL     OW16951   4.764   6.622   0.885
 5351SOL    HW116952   4.725   6.638   0.976
 5351SOL    HW216953   4.832   6.692   0.865
 5352SOL     OW16954   3.215   5.875   3.523
 5352SOL    HW116955   3.240   5.782   3.549
 5352SOL    HW216956   3.293   5.920   3.480
 5353SOL     OW16957   5.125   5.680   5.140
 5353SOL    HW116958   5.179   5.615   5.194
 5353SOL    HW216959   5.161   5.685   5.047
 5354SOL     OW16960   1.504   4.797   1.590
 5354SOL    HW116961   1.572   4.724   1.596
 5354SOL    HW216962   1.532   4.873   1.649
 5355SOL     OW16963   4.318   1.598   3.995
 5355SOL    HW116964   4.382   1.530   4.033
 5355SOL    HW216965   4.370   1.676   3.960
 5356SOL     OW16966   6.209   3.742   1.461
 5356SOL    HW116967   6.118   3.784   1.459
 5356SOL    HW216968   6.265   3.788   1.530
 5357SOL     OW16969   3.626   0.036   0.017
 5357SOL    HW116970   3.589   0.113   6.985
 5357SOL    HW216971   3.552   7.014   0.069
 5358SOL     OW16972   4.457   2.899   0.670
 5358SOL    HW116973   4.518   2.969   0.633
 5358SOL    HW216974   4.491   2.808   0.647
 5359SOL     OW16975   1.991   1.816   0.558
 5359SOL    HW116976   2.083   1.777   0.556
 5359SOL    HW216977   1.956   1.823   0.464
 5360SOL     OW16978   3.914   6.442   6.189
 5360SOL    HW116979   3.852   6.518   6.204
 5360SOL    HW216980   4.009   6.473   6.199
 5361SOL     OW16981   2.148   1.009   4.908
 5361SOL    HW116982   2.123   1.003   4.812
 5361SOL    HW216983   2.066   1.017   4.964
 5362SOL     OW16984   4.874   5.018   2.563
 5362SOL    HW116985   4.871   5.025   2.463
 5362SOL    HW216986   4.807   5.081   2.603
 5363SOL     OW16987   0.946   5.002   6.522
 5363SOL    HW116988   0.874   5.027   6.457
 5363SOL    HW216989   0.918   5.031   6.614
 5364SOL     OW16990   6.794   6.798   0.682
 5364SOL    HW116991   6.826   6.705   0.666
 5364SOL    HW216992   6.819   6.827   0.774
 5365SOL     OW16993   4.722   1.769   5.690
 5365SOL    HW116994   4.799   1.711   5.663
 5365SOL    HW216995   4.646   1.713   5.721
 5366SOL     OW16996   4.556   4.194   0.251
 5366SOL    HW116997   4.580   4.111   0.301
 5366SOL    HW216998   4.627   4.215   0.184
 5367SOL     OW16999   0.123   4.365   1.456
 5367SOL    HW117000   0.087   4.411   1.537
 5367SOL    HW217001   0.145   4.270   1.478
 5368SOL     OW17002   5.627   2.174   3.143
 5368SOL    HW117003   5.531   2.154   3.121
 5368SOL    HW217004   5.687   2.123   3.081
 5369SOL     OW17005   2.274   4.407   2.942
 5369SOL    HW117006   2.347   4.474   2.950
 5369SOL    HW217007   2.218   4.409   3.025
 5370SOL     OW17008   3.802   2.666   1.298
 5370SOL    HW117009   3.785   2.586   1.241
 5370SOL    HW217010   3.808   2.637   1.394
 5371SOL     OW17011   1.373   4.049   4.603
 5371SOL    HW117012   1.287   4.090   4.634
 5371SOL    HW217013   1.352   3.969   4.546
 5372SOL     OW17014   2.832   5.005   3.003
 5372SOL    HW117015   2.880   5.088   3.031
 5372SOL    HW217016   2.842   4.992   2.904
 5373SOL     OW17017   3.302   4.922   4.033
 5373SOL    HW117018   3.208   4.889   4.028
 5373SOL    HW217019   3.328   4.937   4.128
 5374SOL     OW17020   1.869   2.389   6.406
 5374SOL    HW117021   1.878   2.399   6.307
 5374SOL    HW217022   1.822   2.468   6.444
 5375SOL     OW17023   1.281   4.457   4.366
 5375SOL    HW117024   1.327   4.396   4.430
 5375SOL    HW217025   1.201   4.498   4.411
 5376SOL     OW17026   1.312   3.853   1.547
 5376SOL    HW117027   1.321   3.915   1.469
 5376SOL    HW217028   1.401   3.839   1.589
 5377SOL     OW17029   0.363   0.524   1.373
 5377SOL    HW117030   0.460   0.546   1.358
 5377SOL    HW217031   0.307   0.576   1.309
 5378SOL     OW17032   5.875   0.956   0.090
 5378SOL    HW117033   5.813   0.909   0.152
 5378SOL    HW217034   5.868   0.917   7.020
 5379SOL     OW17035   0.200   5.380   2.936
 5379SOL    HW117036   0.114   5.397   2.985
 5379SOL    HW217037   0.187   5.400   2.839
 5380SOL     OW17038   2.465   7.018   3.354
 5380SOL    HW117039   2.394   6.953   3.381
 5380SOL    HW217040   2.535   0.003   3.425
 5381SOL     OW17041   5.766   4.183   1.604
 5381SOL    HW117042   5.697   4.221   1.666
 5381SOL    HW217043   5.782   4.087   1.627
 5382SOL     OW17044   3.036   1.232   1.197
 5382SOL    HW117045   2.942   1.202   1.212
 5382SOL    HW217046   3.055   1.312   1.254
 5383SOL     OW17047   2.510   1.950   5.304
 5383SOL    HW117048   2.594   2.004   5.311
 5383SOL    HW217049   2.431   2.011   5.311
 5384SOL     OW17050   6.230   6.778   4.118
 5384SOL    HW117051   6.153   6.719   4.143
 5384SOL    HW217052   6.265   6.824   4.199
 5385SOL     OW17053   3.735   4.097   2.483
 5385SOL    HW117054   3.660   4.163   2.474
 5385SOL    HW217055   3.738   4.039   2.402
 5386SOL     OW17056   5.141   6.214   4.375
 5386SOL    HW117057   5.137   6.138   4.440
 5386SOL    HW217058   5.193   6.187   4.294
 5387SOL     OW17059   2.729   5.045   2.223
 5387SOL    HW117060   2.804   5.046   2.157
 5387SOL    HW217061   2.643   5.029   2.175
 5388SOL     OW17062   5.435   6.680   2.605
 5388SOL    HW117063   5.361   6.625   2.566
 5388SOL    HW217064   5.415   6.697   2.702
 5389SOL     OW17065   4.386   1.239   1.410
 5389SOL    HW117066   4.404   1.142   1.421
 5389SOL    HW217067   4.327   1.253   1.330
 5390SOL     OW17068   5.915   5.332   5.423
 5390SOL    HW117069   5.907   5.394   5.345
 5390SOL    HW217070   5.846   5.356   5.492
 5391SOL     OW17071   2.806   3.153   0.159
 5391SOL    HW117072   2.784   3.229   0.220
 5391SOL    HW217073   2.811   3.068   0.212
 5392SOL     OW17074   5.904   3.020   1.335
 5392SOL    HW117075   5.952   3.073   1.404
 5392SOL    HW217076   5.967   2.994   1.262
 5393SOL     OW17077   6.701   0.104   0.195
 5393SOL    HW117078   6.677   0.056   0.279
 5393SOL    HW217079   6.761   0.182   0.216
 5394SOL     OW17080   0.709   3.730   5.564
 5394SOL    HW117081   0.682   3.634   5.566
 5394SOL    HW217082   0.746   3.752   5.474
 5395SOL     OW17083   3.741   0.719   0.726
 5395SOL    HW117084   3.841   0.709   0.727
 5395SOL    HW217085   3.701   0.653   0.790
 5396SOL     OW17086   5.748   3.699   1.935
 5396SOL    HW117087   5.672   3.751   1.973
 5396SOL    HW217088   5.759   3.720   1.838
 5397SOL     OW17089   6.990   3.371   1.303
 5397SOL    HW117090   7.011   3.284   1.347
 5397SOL    HW217091   6.890   3.383   1.299
 5398SOL     OW17092   3.015   2.442   1.661
 5398SOL    HW117093   2.935   2.408   1.611
 5398SOL    HW217094   2.994   2.443   1.759
 5399SOL     OW17095   2.011   6.078   1.391
 5399SOL    HW117096   2.079   6.122   1.332
 5399SOL    HW217097   2.017   6.117   1.483
 5400SOL     OW17098   2.877   4.513   0.053
 5400SOL    HW117099   2.956   4.480   0.001
 5400SOL    HW217100   2.793   4.473   0.015
 5401SOL     OW17101   5.693   3.167   1.725
 5401SOL    HW117102   5.760   3.103   1.686
 5401SOL    HW217103   5.687   3.153   1.824
 5402SOL     OW17104   1.785   5.807   2.062
 5402SOL    HW117105   1.765   5.712   2.087
 5402SOL    HW217106   1.830   5.853   2.138
 5403SOL     OW17107   0.324   3.661   6.489
 5403SOL    HW117108   0.413   3.636   6.528
 5403SOL    HW217109   0.311   3.760   6.497
 5404SOL     OW17110   1.708   2.696   4.054
 5404SOL    HW117111   1.737   2.790   4.033
 5404SOL    HW217112   1.674   2.692   4.149
 5405SOL     OW17113   6.342   5.119   5.626
 5405SOL    HW117114   6.258   5.131   5.574
 5405SOL    HW217115   6.324   5.063   5.707
 5406SOL     OW17116   1.423   0.998   6.775
 5406SOL    HW117117   1.381   0.985   6.865
 5406SOL    HW217118   1.365   1.059   6.720
 5407SOL     OW17119   3.916   3.061   0.974
 5407SOL    HW117120   3.964   2.976   0.995
 5407SOL    HW217121   3.896   3.110   1.059
 5408SOL     OW17122   2.182   0.831   6.884
 5408SOL    HW117123   2.120   0.909   6.872
 5408SOL    HW217124   2.248   0.852   6.956
 5409SOL     OW17125   4.788   0.297   2.851
 5409SOL    HW117126   4.851   0.250   2.913
 5409SOL    HW217127   4.735   0.230   2.800
 5410SOL     OW17128   3.023   2.102   1.919
 5410SOL    HW117129   3.006   2.163   1.996
 5410SOL    HW217130   3.080   2.149   1.851
 5411SOL     OW17131   0.384   5.173   5.253
 5411SOL    HW117132   0.477   5.138   5.244
 5411SOL    HW217133   0.366   5.198   5.348
 5412SOL     OW17134   5.910   2.778   0.732
 5412SOL    HW117135   5.821   2.808   0.767
 5412SOL    HW217136   5.946   2.705   0.790
 5413SOL     OW17137   2.957   1.797   2.080
 5413SOL    HW117138   2.884   1.849   2.123
 5413SOL    HW217139   2.990   1.844   1.999
 5414SOL     OW17140   4.664   1.199   4.870
 5414SOL    HW117141   4.640   1.147   4.789
 5414SOL    HW217142   4.611   1.284   4.873
 5415SOL     OW17143   0.165   5.745   1.563
 5415SOL    HW117144   0.095   5.674   1.564
 5415SOL    HW217145   0.241   5.716   1.622
 5416SOL     OW17146   4.266   5.121   5.008
 5416SOL    HW117147   4.216   5.207   5.006
 5416SOL    HW217148   4.339   5.123   4.940
 5417SOL     OW17149   3.428   6.700   4.704
 5417SOL    HW117150   3.486   6.772   4.742
 5417SOL    HW217151   3.382   6.651   4.779
 5418SOL     OW17152   3.647   0.268   2.785
 5418SOL    HW117153   3.653   0.273   2.885
 5418SOL    HW217154   3.603   0.351   2.751
 5419SOL     OW17155   3.262   4.884   6.238
 5419SOL    HW117156   3.250   4.785   6.246
 5419SOL    HW217157   3.360   4.906   6.245
 5420SOL     OW17158   2.019   2.146   2.769
 5420SOL    HW117159   2.056   2.090   2.843
 5420SOL    HW217160   2.067   2.233   2.766
 5421SOL     OW17161   1.789   4.056   1.673
 5421SOL    HW117162   1.852   4.012   1.609
 5421SOL    HW217163   1.840   4.084   1.755
 5422SOL     OW17164   1.440   4.304   1.301
 5422SOL    HW117165   1.525   4.267   1.337
 5422SOL    HW217166   1.370   4.233   1.302
 5423SOL     OW17167   5.765   2.941   6.470
 5423SOL    HW117168   5.731   2.954   6.377
 5423SOL    HW217169   5.845   2.882   6.469
 5424SOL     OW17170   4.874   3.225   4.606
 5424SOL    HW117171   4.915   3.149   4.555
 5424SOL    HW217172   4.810   3.190   4.674
 5425SOL     OW17173   4.554   0.842   5.262
 5425SOL    HW117174   4.631   0.830   5.325
 5425SOL    HW217175   4.520   0.936   5.268
 5426SOL     OW17176   5.852   6.649   4.943
 5426SOL    HW117177   5.918   6.724   4.939
 5426SOL    HW217178   5.892   6.568   4.901
 5427SOL     OW17179   4.220   6.136   6.509
 5427SOL    HW117180   4.226   6.096   6.417
 5427SOL    HW217181   4.304   6.187   6.528
 5428SOL     OW17182   0.772   0.275   0.846
 5428SOL    HW117183   0.750   0.179   0.828
 5428SOL    HW217184   0.871   0.288   0.843
 5429SOL     OW17185   0.876   2.118   6.725
 5429SOL    HW117186   0.852   2.204   6.771
 5429SOL    HW217187   0.805   2.095   6.659
 5430SOL     OW17188   1.012   2.330   6.335
 5430SOL    HW117189   0.962   2.244   6.345
 5430SOL    HW217190   1.048   2.358   6.424
 5431SOL     OW17191   3.415   6.544   5.972
 5431SOL    HW117192   3.362   6.623   6.002
 5431SOL    HW217193   3.382   6.513   5.883
 5432SOL     OW17194   4.999   6.929   0.172
 5432SOL    HW117195   5.024   6.856   0.236
 5432SOL    HW217196   5.073   6.995   0.166
 5433SOL     OW17197   0.111   1.743   5.188
 5433SOL    HW117198   0.155   1.804   5.253
 5433SOL    HW217199   0.137   1.648   5.208
 5434SOL     OW17200   2.907   0.584   6.448
 5434SOL    HW117201   2.869   0.495   6.474
 5434SOL    HW217202   2.845   0.629   6.383
 5435SOL     OW17203   4.055   0.390   1.621
 5435SOL    HW117204   4.028   0.483   1.647
 5435SOL    HW217205   4.008   0.324   1.679
 5436SOL     OW17206   4.860   4.499   3.202
 5436SOL    HW117207   4.822   4.585   3.167
 5436SOL    HW217208   4.838   4.425   3.138
 5437SOL     OW17209   2.899   4.075   0.110
 5437SOL    HW117210   2.934   4.006   0.047
 5437SOL    HW217211   2.954   4.158   0.101
 5438SOL     OW17212   5.825   1.865   1.591
 5438SOL    HW117213   5.818   1.766   1.585
 5438SOL    HW217214   5.895   1.889   1.658
 5439SOL     OW17215   0.958   2.535   1.219
 5439SOL    HW117216   0.880   2.569   1.272
 5439SOL    HW217217   0.937   2.544   1.121
 5440SOL     OW17218   1.231   2.303   1.398
 5440SOL    HW117219   1.167   2.316   1.323
 5440SOL    HW217220   1.281   2.217   1.385
 5441SOL     OW17221   3.213   1.885   3.764
 5441SOL    HW117222   3.186   1.864   3.858
 5441SOL    HW217223   3.185   1.979   3.742
 5442SOL     OW17224   3.796   0.371   2.063
 5442SOL    HW117225   3.765   0.452   2.015
 5442SOL    HW217226   3.896   0.369   2.065
 5443SOL     OW17227   2.904   6.785   5.439
 5443SOL    HW117228   2.957   6.863   5.406
 5443SOL    HW217229   2.812   6.789   5.402
 5444SOL     OW17230   0.333   6.488   4.160
 5444SOL    HW117231   0.273   6.495   4.239
 5444SOL    HW217232   0.308   6.558   4.093
 5445SOL     OW17233   6.263   3.465   2.866
 5445SOL    HW117234   6.168   3.433   2.857
 5445SOL    HW217235   6.306   3.466   2.776
 5446SOL     OW17236   5.964   5.483   4.835
 5446SOL    HW117237   5.890   5.464   4.899
 5446SOL    HW217238   6.020   5.558   4.870
 5447SOL     OW17239   3.894   2.064   0.130
 5447SOL    HW117240   3.943   1.983   0.163
 5447SOL    HW217241   3.959   2.137   0.110
 5448SOL     OW17242   4.973   2.587   5.224
 5448SOL    HW117243   4.985   2.686   5.224
 5448SOL    HW217244   4.877   2.566   5.241
 5449SOL     OW17245   0.682   3.551   6.989
 5449SOL    HW117246   0.645   3.459   7.000
 5449SOL    HW217247   0.657   3.607   0.047
 5450SOL     OW17248   2.008   7.018   1.191
 5450SOL    HW117249   2.034   6.982   1.281
 5450SOL    HW217250   2.082   7.000   1.126
 5451SOL     OW17251   0.625   5.992   2.977
 5451SOL    HW117252   0.634   5.939   3.061
 5451SOL    HW217253   0.542   5.963   2.928
 5452SOL     OW17254   2.348   4.393   6.802
 5452SOL    HW117255   2.267   4.340   6.825
 5452SOL    HW217256   2.406   4.341   6.740
 5453SOL     OW17257   6.090   4.398   0.296
 5453SOL    HW117258   6.122   4.307   0.270
 5453SOL    HW217259   6.061   4.448   0.215
 5454SOL     OW17260   6.907   4.693   6.844
 5454SOL    HW117261   6.818   4.682   6.889
 5454SOL    HW217262   6.912   4.784   6.803
 5455SOL     OW17263   6.726   3.432   1.281
 5455SOL    HW117264   6.685   3.459   1.194
 5455SOL    HW217265   6.669   3.465   1.356
 5456SOL     OW17266   3.125   0.345   6.910
 5456SOL    HW117267   3.129   0.292   6.995
 5456SOL    HW217268   3.035   0.332   6.868
 5457SOL     OW17269   5.851   2.841   1.063
 5457SOL    HW117270   5.822   2.810   1.153
 5457SOL    HW217271   5.773   2.882   1.015
 5458SOL     OW17272   1.673   4.338   6.428
 5458SOL    HW117273   1.760   4.380   6.451
 5458SOL    HW217274   1.687   4.243   6.399
 5459SOL     OW17275   1.997   4.525   6.823
 5459SOL    HW117276   1.900   4.545   6.813
 5459SOL    HW217277   2.050   4.605   6.795
 5460SOL     OW17278   2.970   0.467   1.324
 5460SOL    HW117279   2.992   0.374   1.295
 5460SOL    HW217280   2.969   0.527   1.244
 5461SOL     OW17281   4.839   0.018   4.962
 5461SOL    HW117282   4.809   7.013   5.054
 5461SOL    HW217283   4.781   6.995   4.894
 5462SOL     OW17284   1.355   6.863   0.571
 5462SOL    HW117285   1.444   6.871   0.617
 5462SOL    HW217286   1.348   6.773   0.527
 5463SOL     OW17287   6.378   2.772   0.379
 5463SOL    HW117288   6.349   2.729   0.465
 5463SOL    HW217289   6.355   2.713   0.302
 5464SOL     OW17290   2.242   0.717   4.256
 5464SOL    HW117291   2.166   0.666   4.215
 5464SOL    HW217292   2.319   0.655   4.270
 5465SOL     OW17293   3.277   0.272   4.632
 5465SOL    HW117294   3.374   0.296   4.624
 5465SOL    HW217295   3.250   0.217   4.554
 5466SOL     OW17296   4.851   4.045   5.012
 5466SOL    HW117297   4.934   4.084   5.052
 5466SOL    HW217298   4.876   3.979   4.941
 5467SOL     OW17299   5.280   1.407   2.456
 5467SOL    HW117300   5.209   1.463   2.499
 5467SOL    HW217301   5.238   1.334   2.403
 5468SOL     OW17302   4.843   2.005   4.851
 5468SOL    HW117303   4.761   2.059   4.870
 5468SOL    HW217304   4.817   1.923   4.799
 5469SOL     OW17305   3.382   4.369   5.734
 5469SOL    HW117306   3.330   4.451   5.709
 5469SOL    HW217307   3.359   4.342   5.827
 5470SOL     OW17308   2.096   4.919   3.829
 5470SOL    HW117309   2.162   4.883   3.895
 5470SOL    HW217310   2.017   4.958   3.878
 5471SOL     OW17311   0.051   5.672   1.912
 5471SOL    HW117312   0.043   5.614   1.993
 5471SOL    HW217313   0.124   5.738   1.925
 5472SOL     OW17314   4.091   4.012   5.869
 5472SOL    HW117315   4.156   3.945   5.834
 5472SOL    HW217316   4.141   4.088   5.911
 5473SOL     OW17317   1.241   3.259   3.606
 5473SOL    HW117318   1.270   3.319   3.681
 5473SOL    HW217319   1.313   3.256   3.536
 5474SOL     OW17320   1.775   5.931   4.245
 5474SOL    HW117321   1.832   6.013   4.239
 5474SOL    HW217322   1.820   5.855   4.197
 5475SOL     OW17323   3.166   1.991   0.877
 5475SOL    HW117324   3.097   2.017   0.945
 5475SOL    HW217325   3.124   1.936   0.805
 5476SOL     OW17326   1.473   3.002   6.681
 5476SOL    HW117327   1.538   2.944   6.632
 5476SOL    HW217328   1.381   2.963   6.672
 5477SOL     OW17329   2.005   2.796   3.182
 5477SOL    HW117330   1.971   2.825   3.272
 5477SOL    HW217331   2.062   2.869   3.144
 5478SOL     OW17332   5.392   5.741   5.844
 5478SOL    HW117333   5.313   5.742   5.782
 5478SOL    HW217334   5.431   5.649   5.846
 5479SOL     OW17335   4.974   0.422   4.534
 5479SOL    HW117336   4.979   0.330   4.573
 5479SOL    HW217337   5.064   0.448   4.497
 5480SOL     OW17338   1.048   3.685   4.344
 5480SOL    HW117339   0.990   3.700   4.264
 5480SOL    HW217340   1.005   3.618   4.405
 5481SOL     OW17341   3.500   6.737   4.358
 5481SOL    HW117342   3.401   6.729   4.371
 5481SOL    HW217343   3.526   6.833   4.357
 5482SOL     OW17344   2.664   5.030   1.560
 5482SOL    HW117345   2.654   5.130   1.559
 5482SOL    HW217346   2.754   5.007   1.595
 5483SOL     OW17347   0.306   2.845   5.892
 5483SOL    HW117348   0.341   2.930   5.852
 5483SOL    HW217349   0.364   2.816   5.967
 5484SOL     OW17350   4.635   0.755   4.629
 5484SOL    HW117351   4.651   0.784   4.534
 5484SOL    HW217352   4.720   0.763   4.681
 5485SOL     OW17353   3.113   6.662   5.785
 5485SOL    HW117354   3.017   6.650   5.759
 5485SOL    HW217355   3.162   6.709   5.712
 5486SOL     OW17356   2.679   6.032   4.776
 5486SOL    HW117357   2.593   6.046   4.824
 5486SOL    HW217358   2.748   5.999   4.840
 5487SOL     OW17359   3.040   4.941   5.329
 5487SOL    HW117360   2.962   4.896   5.287
 5487SOL    HW217361   3.117   4.877   5.331
 5488SOL     OW17362   5.893   1.112   1.276
 5488SOL    HW117363   5.846   1.047   1.216
 5488SOL    HW217364   5.847   1.201   1.270
 5489SOL     OW17365   6.723   3.950   2.501
 5489SOL    HW117366   6.780   3.928   2.580
 5489SOL    HW217367   6.635   3.903   2.509
 5490SOL     OW17368   1.545   6.599   2.924
 5490SOL    HW117369   1.619   6.544   2.886
 5490SOL    HW217370   1.487   6.632   2.850
 5491SOL     OW17371   6.658   4.425   0.530
 5491SOL    HW117372   6.652   4.415   0.630
 5491SOL    HW217373   6.659   4.334   0.488
 5492SOL     OW17374   0.358   1.483   5.538
 5492SOL    HW117375   0.320   1.445   5.453
 5492SOL    HW217376   0.385   1.578   5.523
 5493SOL     OW17377   3.979   3.663   1.444
 5493SOL    HW117378   3.898   3.670   1.386
 5493SOL    HW217379   3.987   3.570   1.480
 5494SOL     OW17380   6.441   4.168   5.335
 5494SOL    HW117381   6.413   4.075   5.311
 5494SOL    HW217382   6.466   4.218   5.252
 5495SOL     OW17383   5.749   0.661   0.898
 5495SOL    HW117384   5.669   0.699   0.852
 5495SOL    HW217385   5.737   0.562   0.909
 5496SOL     OW17386   3.919   0.465   4.592
 5496SOL    HW117387   3.864   0.548   4.582
 5496SOL    HW217388   3.952   0.459   4.687
 5497SOL     OW17389   0.924   0.588   6.252
 5497SOL    HW117390   0.877   0.502   6.274
 5497SOL    HW217391   1.020   0.569   6.230
 5498SOL     OW17392   0.560   5.253   1.668
 5498SOL    HW117393   0.574   5.158   1.695
 5498SOL    HW217394   0.576   5.312   1.746
 5499SOL     OW17395   1.618   0.505   4.741
 5499SOL    HW117396   1.679   0.553   4.804
 5499SOL    HW217397   1.647   0.410   4.730
 5500SOL     OW17398   2.463   0.746   0.581
 5500SOL    HW117399   2.535   0.696   0.629
 5500SOL    HW217400   2.378   0.694   0.587
 5501SOL     OW17401   3.792   3.188   6.687
 5501SOL    HW117402   3.723   3.190   6.615
 5501SOL    HW217403   3.797   3.096   6.726
 5502SOL     OW17404   4.278   2.306   6.913
 5502SOL    HW117405   4.294   2.232   6.848
 5502SOL    HW217406   4.205   2.281   6.976
 5503SOL     OW17407   6.698   4.160   0.501
 5503SOL    HW117408   6.660   4.069   0.490
 5503SOL    HW217409   6.797   4.153   0.513
 5504SOL     OW17410   3.245   1.647   6.312
 5504SOL    HW117411   3.216   1.715   6.244
 5504SOL    HW217412   3.183   1.569   6.311
 5505SOL     OW17413   2.255   4.682   4.018
 5505SOL    HW117414   2.239   4.700   4.115
 5505SOL    HW217415   2.320   4.606   4.008
 5506SOL     OW17416   0.849   3.431   6.381
 5506SOL    HW117417   0.773   3.376   6.417
 5506SOL    HW217418   0.877   3.497   6.451
 5507SOL     OW17419   2.960   6.667   0.101
 5507SOL    HW117420   2.877   6.720   0.119
 5507SOL    HW217421   3.001   6.639   0.188
 5508SOL     OW17422   0.263   0.651   6.417
 5508SOL    HW117423   0.211   0.567   6.431
 5508SOL    HW217424   0.214   0.728   6.458
 5509SOL     OW17425   0.133   5.367   0.938
 5509SOL    HW117426   0.153   5.315   0.855
 5509SOL    HW217427   0.049   5.420   0.926
 5510SOL     OW17428   3.902   5.222   6.853
 5510SOL    HW117429   3.875   5.319   6.852
 5510SOL    HW217430   3.998   5.214   6.827
 5511SOL     OW17431   0.842   1.539   5.538
 5511SOL    HW117432   0.763   1.494   5.496
 5511SOL    HW217433   0.881   1.605   5.474
 5512SOL     OW17434   3.581   1.005   2.547
 5512SOL    HW117435   3.661   0.976   2.493
 5512SOL    HW217436   3.592   1.102   2.571
 5513SOL     OW17437   3.998   4.274   0.049
 5513SOL    HW117438   4.045   4.254   0.136
 5513SOL    HW217439   3.915   4.326   0.067
 5514SOL     OW17440   2.911   0.526   0.217
 5514SOL    HW117441   2.992   0.471   0.197
 5514SOL    HW217442   2.888   0.517   0.314
 5515SOL     OW17443   2.614   5.948   2.111
 5515SOL    HW117444   2.516   5.934   2.126
 5515SOL    HW217445   2.635   6.045   2.115
 5516SOL     OW17446   2.692   2.490   5.241
 5516SOL    HW117447   2.629   2.543   5.185
 5516SOL    HW217448   2.752   2.552   5.291
 5517SOL     OW17449   1.631   3.162   3.422
 5517SOL    HW117450   1.580   3.076   3.418
 5517SOL    HW217451   1.568   3.239   3.433
 5518SOL     OW17452   4.497   4.222   6.177
 5518SOL    HW117453   4.448   4.257   6.097
 5518SOL    HW217454   4.516   4.124   6.165
 5519SOL     OW17455   4.596   2.656   3.891
 5519SOL    HW117456   4.530   2.580   3.891
 5519SOL    HW217457   4.645   2.657   3.803
 5520SOL     OW17458   5.114   6.930   1.231
 5520SOL    HW117459   5.076   6.838   1.229
 5520SOL    HW217460   5.175   6.939   1.310
 5521SOL     OW17461   5.814   5.507   1.958
 5521SOL    HW117462   5.850   5.453   2.035
 5521SOL    HW217463   5.877   5.582   1.938
 5522SOL     OW17464   6.152   5.683   0.498
 5522SOL    HW117465   6.063   5.698   0.541
 5522SOL    HW217466   6.186   5.592   0.521
 5523SOL     OW17467   5.558   1.031   2.358
 5523SOL    HW117468   5.465   1.040   2.320
 5523SOL    HW217469   5.595   1.122   2.376
 5524SOL     OW17470   3.392   1.129   4.484
 5524SOL    HW117471   3.294   1.112   4.485
 5524SOL    HW217472   3.409   1.227   4.470
 5525SOL     OW17473   5.958   1.452   1.326
 5525SOL    HW117474   5.988   1.409   1.411
 5525SOL    HW217475   6.015   1.531   1.307
 5526SOL     OW17476   4.633   4.738   3.540
 5526SOL    HW117477   4.536   4.712   3.546
 5526SOL    HW217478   4.641   4.837   3.550
 5527SOL     OW17479   5.834   1.570   3.800
 5527SOL    HW117480   5.873   1.488   3.842
 5527SOL    HW217481   5.901   1.644   3.803
 5528SOL     OW17482   1.092   1.218   0.869
 5528SOL    HW117483   1.073   1.261   0.781
 5528SOL    HW217484   1.182   1.247   0.902
 5529SOL     OW17485   3.848   0.792   2.009
 5529SOL    HW117486   3.943   0.786   2.039
 5529SOL    HW217487   3.795   0.843   2.077
 5530SOL     OW17488   6.267   1.932   1.189
 5530SOL    HW117489   6.242   1.892   1.101
 5530SOL    HW217490   6.351   1.986   1.179
 5531SOL     OW17491   2.024   3.982   1.533
 5531SOL    HW117492   2.068   4.036   1.604
 5531SOL    HW217493   2.033   4.029   1.445
 5532SOL     OW17494   1.220   3.271   0.858
 5532SOL    HW117495   1.270   3.190   0.826
 5532SOL    HW217496   1.161   3.304   0.784
 5533SOL     OW17497   3.769   2.089   3.820
 5533SOL    HW117498   3.722   2.001   3.826
 5533SOL    HW217499   3.748   2.144   3.901
 5534SOL     OW17500   1.224   0.657   4.645
 5534SOL    HW117501   1.149   0.657   4.710
 5534SOL    HW217502   1.208   0.728   4.576
 5535SOL     OW17503   0.432   2.044   3.541
 5535SOL    HW117504   0.401   2.053   3.636
 5535SOL    HW217505   0.352   2.037   3.480
 5536SOL     OW17506   3.721   6.415   4.218
 5536SOL    HW117507   3.636   6.430   4.168
 5536SOL    HW217508   3.779   6.352   4.166
 5537SOL     OW17509   3.243   1.218   3.430
 5537SOL    HW117510   3.335   1.244   3.399
 5537SOL    HW217511   3.250   1.145   3.498
 5538SOL     OW17512   4.306   5.431   4.604
 5538SOL    HW117513   4.226   5.416   4.661
 5538SOL    HW217514   4.298   5.377   4.520
 5539SOL     OW17515   2.185   4.111   0.403
 5539SOL    HW117516   2.142   4.095   0.315
 5539SOL    HW217517   2.283   4.090   0.397
 5540SOL     OW17518   5.249   5.236   1.974
 5540SOL    HW117519   5.193   5.154   1.959
 5540SOL    HW217520   5.194   5.307   2.016
 5541SOL     OW17521   4.474   1.330   5.656
 5541SOL    HW117522   4.538   1.264   5.695
 5541SOL    HW217523   4.381   1.307   5.685
 5542SOL     OW17524   5.378   4.913   6.418
 5542SOL    HW117525   5.455   4.908   6.354
 5542SOL    HW217526   5.292   4.907   6.367
 5543SOL     OW17527   6.941   1.851   5.937
 5543SOL    HW117528   6.934   1.881   6.032
 5543SOL    HW217529   6.957   1.752   5.934
 5544SOL     OW17530   5.523   1.327   6.452
 5544SOL    HW117531   5.490   1.382   6.375
 5544SOL    HW217532   5.551   1.236   6.419
 5545SOL     OW17533   2.715   2.318   1.781
 5545SOL    HW117534   2.790   2.369   1.823
 5545SOL    HW217535   2.666   2.267   1.852
 5546SOL     OW17536   2.131   5.076   5.763
 5546SOL    HW117537   2.153   4.992   5.713
 5546SOL    HW217538   2.190   5.150   5.731
 5547SOL     OW17539   3.954   6.217   4.887
 5547SOL    HW117540   4.040   6.171   4.867
 5547SOL    HW217541   3.969   6.287   4.957
 5548SOL     OW17542   0.270   3.245   5.100
 5548SOL    HW117543   0.230   3.171   5.154
 5548SOL    HW217544   0.245   3.234   5.004
 5549SOL     OW17545   3.457   4.303   6.551
 5549SOL    HW117546   3.504   4.239   6.490
 5549SOL    HW217547   3.509   4.388   6.557
 5550SOL     OW17548   3.815   6.690   1.993
 5550SOL    HW117549   3.724   6.703   1.955
 5550SOL    HW217550   3.823   6.741   2.079
 5551SOL     OW17551   0.965   1.078   3.282
 5551SOL    HW117552   1.039   1.052   3.220
 5551SOL    HW217553   0.932   0.997   3.331
 5552SOL     OW17554   0.569   2.731   0.964
 5552SOL    HW117555   0.661   2.693   0.954
 5552SOL    HW217556   0.534   2.712   1.055
 5553SOL     OW17557   5.348   6.535   0.129
 5553SOL    HW117558   5.393   6.476   0.062
 5553SOL    HW217559   5.373   6.630   0.111
 5554SOL     OW17560   2.593   1.422   4.662
 5554SOL    HW117561   2.651   1.482   4.607
 5554SOL    HW217562   2.530   1.372   4.602
 5555SOL     OW17563   0.076   6.125   2.514
 5555SOL    HW117564   0.167   6.086   2.527
 5555SOL    HW217565   0.084   6.218   2.477
 5556SOL     OW17566   0.528   1.390   4.221
 5556SOL    HW117567   0.545   1.466   4.159
 5556SOL    HW217568   0.430   1.384   4.241
 5557SOL     OW17569   2.869   0.628   3.521
 5557SOL    HW117570   2.878   0.643   3.423
 5557SOL    HW217571   2.794   0.564   3.539
 5558SOL     OW17572   4.731   2.251   4.482
 5558SOL    HW117573   4.826   2.224   4.462
 5558SOL    HW217574   4.675   2.169   4.492
 5559SOL     OW17575   2.069   0.267   1.126
 5559SOL    HW117576   2.002   0.193   1.134
 5559SOL    HW217577   2.137   0.258   1.198
 5560SOL     OW17578   0.168   0.682   4.416
 5560SOL    HW117579   0.140   0.688   4.321
 5560SOL    HW217580   0.244   0.617   4.424
 5561SOL     OW17581   1.442   3.702   2.998
 5561SOL    HW117582   1.365   3.762   3.019
 5561SOL    HW217583   1.527   3.753   3.007
 5562SOL     OW17584   2.581   2.566   5.777
 5562SOL    HW117585   2.570   2.601   5.684
 5562SOL    HW217586   2.668   2.597   5.814
 5563SOL     OW17587   4.151   4.311   1.483
 5563SOL    HW117588   4.159   4.331   1.581
 5563SOL    HW217589   4.183   4.390   1.430
 5564SOL     OW17590   6.391   4.272   1.532
 5564SOL    HW117591   6.434   4.264   1.623
 5564SOL    HW217592   6.392   4.182   1.488
 5565SOL     OW17593   2.881   3.135   5.690
 5565SOL    HW117594   2.919   3.152   5.599
 5565SOL    HW217595   2.867   3.222   5.737
 5566SOL     OW17596   2.170   4.475   0.832
 5566SOL    HW117597   2.114   4.540   0.781
 5566SOL    HW217598   2.195   4.399   0.773
 5567SOL     OW17599   2.002   5.551   2.880
 5567SOL    HW117600   2.096   5.540   2.848
 5567SOL    HW217601   2.001   5.557   2.980
 5568SOL     OW17602   3.789   1.792   0.963
 5568SOL    HW117603   3.822   1.853   1.036
 5568SOL    HW217604   3.752   1.847   0.888
 5569SOL     OW17605   5.879   2.359   6.842
 5569SOL    HW117606   5.931   2.435   6.881
 5569SOL    HW217607   5.785   2.387   6.826
 5570SOL     OW17608   0.021   3.993   6.039
 5570SOL    HW117609   6.989   4.026   6.117
 5570SOL    HW217610   0.082   4.066   6.007
 5571SOL     OW17611   0.101   4.727   6.305
 5571SOL    HW117612   0.015   4.691   6.340
 5571SOL    HW217613   0.115   4.694   6.212
 5572SOL     OW17614   5.255   2.840   5.594
 5572SOL    HW117615   5.300   2.754   5.573
 5572SOL    HW217616   5.211   2.834   5.684
 5573SOL     OW17617   0.665   4.073   0.312
 5573SOL    HW117618   0.763   4.082   0.330
 5573SOL    HW217619   0.629   3.996   0.365
 5574SOL     OW17620   0.614   6.157   4.580
 5574SOL    HW117621   0.708   6.192   4.583
 5574SOL    HW217622   0.608   6.072   4.633
 5575SOL     OW17623   1.622   0.959   1.603
 5575SOL    HW117624   1.661   0.995   1.688
 5575SOL    HW217625   1.694   0.911   1.552
 5576SOL     OW17626   6.506   5.775   0.181
 5576SOL    HW117627   6.597   5.736   0.165
 5576SOL    HW217628   6.480   5.833   0.105
 5577SOL     OW17629   2.196   3.846   5.225
 5577SOL    HW117630   2.277   3.903   5.211
 5577SOL    HW217631   2.122   3.876   5.165
 5578SOL     OW17632   3.540   1.065   6.273
 5578SOL    HW117633   3.517   1.151   6.227
 5578SOL    HW217634   3.606   1.083   6.345
 5579SOL     OW17635   5.150   4.525   1.103
 5579SOL    HW117636   5.142   4.431   1.135
 5579SOL    HW217637   5.134   4.588   1.179
 5580SOL     OW17638   5.077   0.630   1.303
 5580SOL    HW117639   4.998   0.691   1.311
 5580SOL    HW217640   5.148   0.674   1.249
 5581SOL     OW17641   2.563   2.664   0.716
 5581SOL    HW117642   2.570   2.658   0.816
 5581SOL    HW217643   2.627   2.599   0.675
 5582SOL     OW17644   3.865   3.592   3.177
 5582SOL    HW117645   3.837   3.548   3.262
 5582SOL    HW217646   3.951   3.552   3.146
 5583SOL     OW17647   3.298   0.597   0.400
 5583SOL    HW117648   3.304   0.518   0.462
 5583SOL    HW217649   3.390   0.627   0.375
 5584SOL     OW17650   5.467   2.958   2.967
 5584SOL    HW117651   5.374   2.957   3.004
 5584SOL    HW217652   5.533   2.955   3.042
 5585SOL     OW17653   6.718   6.585   4.309
 5585SOL    HW117654   6.808   6.611   4.275
 5585SOL    HW217655   6.724   6.494   4.351
 5586SOL     OW17656   2.223   1.759   6.357
 5586SOL    HW117657   2.288   1.833   6.371
 5586SOL    HW217658   2.166   1.780   6.277
 5587SOL     OW17659   3.604   0.196   3.828
 5587SOL    HW117660   3.697   0.185   3.791
 5587SOL    HW217661   3.589   0.128   3.900
 5588SOL     OW17662   4.382   7.001   5.900
 5588SOL    HW117663   4.429   0.024   5.977
 5588SOL    HW217664   4.447   6.990   5.824
 5589SOL     OW17665   3.507   3.375   6.666
 5589SOL    HW117666   3.544   3.354   6.756
 5589SOL    HW217667   3.418   3.419   6.675
 5590SOL     OW17668   0.036   6.780   3.123
 5590SOL    HW117669   0.003   6.706   3.065
 5590SOL    HW217670   6.982   6.844   3.142
 5591SOL     OW17671   4.889   0.865   6.692
 5591SOL    HW117672   4.954   0.882   6.618
 5591SOL    HW217673   4.939   0.833   6.773
 5592SOL     OW17674   2.736   2.272   2.604
 5592SOL    HW117675   2.781   2.287   2.516
 5592SOL    HW217676   2.805   2.261   2.676
 5593SOL     OW17677   2.153   3.379   4.892
 5593SOL    HW117678   2.148   3.461   4.835
 5593SOL    HW217679   2.188   3.402   4.982
 5594SOL     OW17680   2.411   1.471   6.616
 5594SOL    HW117681   2.337   1.532   6.642
 5594SOL    HW217682   2.483   1.523   6.569
 5595SOL     OW17683   0.296   1.637   5.893
 5595SOL    HW117684   0.272   1.656   5.988
 5595SOL    HW217685   0.219   1.593   5.847
 5596SOL     OW17686   5.230   1.558   3.062
 5596SOL    HW117687   5.243   1.657   3.062
 5596SOL    HW217688   5.305   1.514   3.013
 5597SOL     OW17689   0.325   1.061   6.112
 5597SOL    HW117690   0.382   1.017   6.042
 5597SOL    HW217691   0.294   0.992   6.177
 5598SOL     OW17692   6.904   2.413   4.314
 5598SOL    HW117693   6.978   2.457   4.263
 5598SOL    HW217694   6.941   2.335   4.365
 5599SOL     OW17695   5.027   2.781   3.508
 5599SOL    HW117696   4.942   2.823   3.476
 5599SOL    HW217697   5.055   2.824   3.593
 5600SOL     OW17698   2.428   1.787   2.058
 5600SOL    HW117699   2.423   1.759   2.154
 5600SOL    HW217700   2.417   1.886   2.052
 5601SOL     OW17701   6.158   2.880   5.943
 5601SOL    HW117702   6.246   2.912   5.908
 5601SOL    HW217703   6.096   2.864   5.867
 5602SOL     OW17704   6.379   2.275   2.195
 5602SOL    HW117705   6.443   2.315   2.260
 5602SOL    HW217706   6.286   2.280   2.231
 5603SOL     OW17707   4.499   1.219   6.011
 5603SOL    HW117708   4.467   1.310   5.984
 5603SOL    HW217709   4.570   1.228   6.080
 5604SOL     OW17710   1.294   6.541   3.619
 5604SOL    HW117711   1.265   6.465   3.677
 5604SOL    HW217712   1.290   6.626   3.672
 5605SOL     OW17713   4.341   6.768   4.266
 5605SOL    HW117714   4.284   6.687   4.257
 5605SOL    HW217715   4.287   6.845   4.299
 5606SOL     OW17716   4.940   3.442   0.202
 5606SOL    HW117717   4.864   3.436   0.268
 5606SOL    HW217718   5.023   3.404   0.243
 5607SOL     OW17719   0.021   2.646   3.319
 5607SOL    HW117720   0.025   2.612   3.413
 5607SOL    HW217721   6.948   2.673   3.297
 5608SOL     OW17722   5.057   0.768   3.242
 5608SOL    HW117723   5.152   0.736   3.239
 5608SOL    HW217724   5.052   0.862   3.209
 5609SOL     OW17725   6.789   0.373   0.656
 5609SOL    HW117726   6.831   0.292   0.616
 5609SOL    HW217727   6.692   0.355   0.674
 5610SOL     OW17728   5.242   5.670   0.328
 5610SOL    HW117729   5.241   5.667   0.428
 5610SOL    HW217730   5.171   5.611   0.291
 5611SOL     OW17731   5.911   4.538   1.980
 5611SOL    HW117732   5.834   4.574   1.927
 5611SOL    HW217733   5.991   4.529   1.920
 5612SOL     OW17734   3.697   1.798   6.897
 5612SOL    HW117735   3.699   1.897   6.908
 5612SOL    HW217736   3.604   1.764   6.915
 5613SOL     OW17737   6.101   5.217   5.979
 5613SOL    HW117738   6.053   5.203   5.893
 5613SOL    HW217739   6.184   5.161   5.980
 5614SOL     OW17740   4.831   2.803   4.223
 5614SOL    HW117741   4.753   2.741   4.233
 5614SOL    HW217742   4.847   2.822   4.126
 5615SOL     OW17743   0.549   2.471   3.011
 5615SOL    HW117744   0.631   2.451   3.063
 5615SOL    HW217745   0.521   2.566   3.026
 5616SOL     OW17746   1.836   3.089   2.506
 5616SOL    HW117747   1.817   3.152   2.582
 5616SOL    HW217748   1.921   3.115   2.461
 5617SOL     OW17749   1.340   4.678   6.707
 5617SOL    HW117750   1.413   4.740   6.680
 5617SOL    HW217751   1.288   4.650   6.627
 5618SOL     OW17752   5.183   6.373   2.307
 5618SOL    HW117753   5.204   6.276   2.301
 5618SOL    HW217754   5.212   6.420   2.224
 5619SOL     OW17755   3.319   3.147   3.681
 5619SOL    HW117756   3.242   3.188   3.632
 5619SOL    HW217757   3.389   3.217   3.696
 5620SOL     OW17758   4.905   4.621   4.230
 5620SOL    HW117759   4.830   4.670   4.274
 5620SOL    HW217760   4.925   4.537   4.280
 5621SOL     OW17761   0.186   2.585   6.461
 5621SOL    HW117762   0.238   2.570   6.378
 5621SOL    HW217763   0.224   2.530   6.536
 5622SOL     OW17764   4.772   5.759   3.804
 5622SOL    HW117765   4.684   5.767   3.756
 5622SOL    HW217766   4.775   5.670   3.851
 5623SOL     OW17767   4.970   4.899   4.531
 5623SOL    HW117768   4.992   4.988   4.573
 5623SOL    HW217769   5.033   4.882   4.455
 5624SOL     OW17770   5.057   4.720   3.077
 5624SOL    HW117771   5.005   4.639   3.049
 5624SOL    HW217772   4.996   4.784   3.123
 5625SOL     OW17773   2.095   5.979   6.184
 5625SOL    HW117774   2.017   5.964   6.245
 5625SOL    HW217775   2.177   5.999   6.238
 5626SOL     OW17776   0.842   4.668   6.973
 5626SOL    HW117777   0.748   4.662   6.939
 5626SOL    HW217778   0.861   4.761   7.004
 5627SOL     OW17779   1.137   5.125   6.771
 5627SOL    HW117780   1.037   5.126   6.776
 5627SOL    HW217781   1.175   5.096   6.859
 5628SOL     OW17782   2.163   3.564   0.518
 5628SOL    HW117783   2.142   3.541   0.423
 5628SOL    HW217784   2.118   3.650   0.541
 5629SOL     OW17785   6.352   3.292   2.548
 5629SOL    HW117786   6.280   3.243   2.500
 5629SOL    HW217787   6.368   3.248   2.637
 5630SOL     OW17788   0.490   4.205   6.857
 5630SOL    HW117789   0.475   4.147   6.776
 5630SOL    HW217790   0.556   4.160   6.917
 5631SOL     OW17791   3.938   1.615   1.894
 5631SOL    HW117792   3.877   1.610   1.815
 5631SOL    HW217793   3.931   1.530   1.947
 5632SOL     OW17794   4.977   6.817   5.732
 5632SOL    HW117795   5.053   6.831   5.795
 5632SOL    HW217796   4.913   6.750   5.771
 5633SOL     OW17797   1.060   5.684   5.276
 5633SOL    HW117798   1.094   5.742   5.202
 5633SOL    HW217799   1.085   5.589   5.257
 5634SOL     OW17800   2.625   0.445   1.292
 5634SOL    HW117801   2.649   0.396   1.376
 5634SOL    HW217802   2.592   0.536   1.314
 5635SOL     OW17803   3.268   0.501   1.441
 5635SOL    HW117804   3.185   0.507   1.496
 5635SOL    HW217805   3.246   0.511   1.344
 5636SOL     OW17806   4.980   1.284   6.188
 5636SOL    HW117807   4.984   1.218   6.264
 5636SOL    HW217808   4.904   1.260   6.128
 5637SOL     OW17809   4.748   6.707   4.651
 5637SOL    HW117810   4.774   6.635   4.716
 5637SOL    HW217811   4.819   6.717   4.582
 5638SOL     OW17812   6.299   5.216   1.097
 5638SOL    HW117813   6.390   5.174   1.097
 5638SOL    HW217814   6.303   5.304   1.144
 5639SOL     OW17815   2.133   0.319   1.774
 5639SOL    HW117816   2.060   0.371   1.730
 5639SOL    HW217817   2.181   0.376   1.840
 5640SOL     OW17818   3.071   0.126   2.991
 5640SOL    HW117819   3.105   0.210   3.032
 5640SOL    HW217820   3.022   0.147   2.907
 5641SOL     OW17821   6.658   4.317   3.701
 5641SOL    HW117822   6.696   4.231   3.666
 5641SOL    HW217823   6.704   4.341   3.786
 5642SOL     OW17824   2.082   3.508   6.481
 5642SOL    HW117825   2.163   3.457   6.512
 5642SOL    HW217826   2.110   3.599   6.451
 5643SOL     OW17827   5.644   2.379   5.002
 5643SOL    HW117828   5.710   2.418   4.939
 5643SOL    HW217829   5.625   2.284   4.977
 5644SOL     OW17830   4.214   0.529   4.550
 5644SOL    HW117831   4.138   0.576   4.505
 5644SOL    HW217832   4.292   0.591   4.559
 5645SOL     OW17833   6.624   5.855   4.046
 5645SOL    HW117834   6.719   5.853   4.016
 5645SOL    HW217835   6.619   5.829   4.143
 5646SOL     OW17836   0.300   6.446   3.651
 5646SOL    HW117837   0.385   6.440   3.703
 5646SOL    HW217838   0.225   6.475   3.712
 5647SOL     OW17839   6.553   5.402   6.361
 5647SOL    HW117840   6.608   5.403   6.445
 5647SOL    HW217841   6.470   5.349   6.376
 5648SOL     OW17842   2.087   1.047   5.314
 5648SOL    HW117843   2.073   1.015   5.221
 5648SOL    HW217844   2.039   1.135   5.326
 5649SOL     OW17845   1.475   0.288   5.090
 5649SOL    HW117846   1.560   0.237   5.075
 5649SOL    HW217847   1.439   0.321   5.003
 5650SOL     OW17848   6.393   5.060   7.018
 5650SOL    HW117849   6.461   5.073   6.946
 5650SOL    HW217850   6.319   5.126   7.007
 5651SOL     OW17851   6.331   1.355   2.821
 5651SOL    HW117852   6.299   1.414   2.747
 5651SOL    HW217853   6.394   1.287   2.785
 5652SOL     OW17854   5.828   4.275   0.317
 5652SOL    HW117855   5.917   4.319   0.325
 5652SOL    HW217856   5.814   4.245   0.223
 5653SOL     OW17857   1.817   6.495   6.509
 5653SOL    HW117858   1.801   6.592   6.525
 5653SOL    HW217859   1.844   6.450   6.594
 5654SOL     OW17860   0.633   5.838   5.934
 5654SOL    HW117861   0.673   5.929   5.938
 5654SOL    HW217862   0.705   5.770   5.921
 5655SOL     OW17863   7.016   4.172   3.082
 5655SOL    HW117864   0.021   4.076   3.098
 5655SOL    HW217865   6.963   4.205   3.159
 5656SOL     OW17866   3.058   4.953   6.063
 5656SOL    HW117867   2.990   4.881   6.073
 5656SOL    HW217868   3.136   4.935   6.123
 5657SOL     OW17869   4.050   6.047   1.690
 5657SOL    HW117870   4.031   6.140   1.722
 5657SOL    HW217871   3.965   5.994   1.689
 5658SOL     OW17872   5.016   6.480   5.028
 5658SOL    HW117873   5.089   6.510   4.967
 5658SOL    HW217874   4.929   6.517   4.996
 5659SOL     OW17875   3.312   3.795   2.946
 5659SOL    HW117876   3.363   3.803   2.860
 5659SOL    HW217877   3.308   3.699   2.974
 5660SOL     OW17878   6.085   6.960   0.743
 5660SOL    HW117879   6.016   0.006   0.772
 5660SOL    HW217880   6.140   6.998   0.669
 5661SOL     OW17881   6.348   5.929   4.822
 5661SOL    HW117882   6.323   5.843   4.778
 5661SOL    HW217883   6.407   5.982   4.762
 5662SOL     OW17884   2.071   3.535   4.067
 5662SOL    HW117885   2.123   3.462   4.112
 5662SOL    HW217886   2.066   3.516   3.969
 5663SOL     OW17887   1.946   3.665   0.288
 5663SOL    HW117888   1.904   3.629   0.371
 5663SOL    HW217889   1.882   3.726   0.242
 5664SOL     OW17890   0.016   4.781   2.827
 5664SOL    HW117891   0.084   4.714   2.856
 5664SOL    HW217892   6.953   4.734   2.800
 5665SOL     OW17893   1.902   1.411   6.114
 5665SOL    HW117894   1.832   1.421   6.043
 5665SOL    HW217895   1.859   1.413   6.204
 5666SOL     OW17896   5.875   5.277   0.457
 5666SOL    HW117897   5.851   5.286   0.554
 5666SOL    HW217898   5.973   5.292   0.445
 5667SOL     OW17899   0.035   5.736   3.760
 5667SOL    HW117900   0.134   5.728   3.761
 5667SOL    HW217901   7.017   5.671   3.694
 5668SOL     OW17902   5.610   2.764   5.620
 5668SOL    HW117903   5.563   2.838   5.572
 5668SOL    HW217904   5.596   2.774   5.719
 5669SOL     OW17905   6.915   3.494   5.450
 5669SOL    HW117906   6.912   3.594   5.445
 5669SOL    HW217907   6.992   3.460   5.396
 5670SOL     OW17908   1.827   4.196   3.315
 5670SOL    HW117909   1.835   4.287   3.357
 5670SOL    HW217910   1.889   4.189   3.237
 5671SOL     OW17911   1.803   1.071   5.383
 5671SOL    HW117912   1.850   1.046   5.468
 5671SOL    HW217913   1.795   0.990   5.325
 5672SOL     OW17914   5.461   4.424   5.593
 5672SOL    HW117915   5.372   4.396   5.630
 5672SOL    HW217916   5.480   4.374   5.509
 5673SOL     OW17917   1.578   0.220   1.647
 5673SOL    HW117918   1.640   0.281   1.598
 5673SOL    HW217919   1.601   0.125   1.627
 5674SOL     OW17920   6.793   3.745   1.217
 5674SOL    HW117921   6.797   3.684   1.296
 5674SOL    HW217922   6.720   3.813   1.231
 5675SOL     OW17923   4.317   1.753   5.690
 5675SOL    HW117924   4.282   1.783   5.778
 5675SOL    HW217925   4.262   1.794   5.616
 5676SOL     OW17926   3.519   6.738   1.429
 5676SOL    HW117927   3.428   6.701   1.451
 5676SOL    HW217928   3.515   6.838   1.433
 5677SOL     OW17929   0.038   0.721   4.152
 5677SOL    HW117930   0.078   0.631   4.139
 5677SOL    HW217931   6.959   0.715   4.146
 5678SOL     OW17932   2.009   5.070   3.184
 5678SOL    HW117933   2.052   4.980   3.174
 5678SOL    HW217934   2.080   5.138   3.201
 5679SOL     OW17935   2.436   6.036   4.912
 5679SOL    HW117936   2.387   6.028   4.999
 5679SOL    HW217937   2.391   5.980   4.843
 5680SOL     OW17938   2.355   0.044   6.310
 5680SOL    HW117939   2.325   0.109   6.241
 5680SOL    HW217940   2.419   6.999   6.269
 5681SOL     OW17941   1.855   3.845   0.601
 5681SOL    HW117942   1.771   3.850   0.546
 5681SOL    HW217943   1.863   3.755   0.643
 5682SOL     OW17944   0.274   3.497   3.688
 5682SOL    HW117945   0.190   3.459   3.727
 5682SOL    HW217946   0.253   3.540   3.600
 5683SOL     OW17947   3.669   2.766   5.434
 5683SOL    HW117948   3.767   2.763   5.420
 5683SOL    HW217949   3.624   2.800   5.352
 5684SOL     OW17950   3.190   3.546   2.990
 5684SOL    HW117951   3.098   3.542   2.952
 5684SOL    HW217952   3.203   3.471   3.054
 5685SOL     OW17953   1.015   5.585   2.597
 5685SOL    HW117954   1.079   5.662   2.602
 5685SOL    HW217955   0.923   5.620   2.582
 5686SOL     OW17956   3.254   5.561   0.245
 5686SOL    HW117957   3.242   5.660   0.237
 5686SOL    HW217958   3.318   5.529   0.176
 5687SOL     OW17959   4.832   5.351   5.492
 5687SOL    HW117960   4.746   5.389   5.527
 5687SOL    HW217961   4.905   5.365   5.559
 5688SOL     OW17962   6.106   2.009   2.284
 5688SOL    HW117963   6.060   2.093   2.314
 5688SOL    HW217964   6.066   1.931   2.331
 5689SOL     OW17965   4.190   2.442   6.684
 5689SOL    HW117966   4.206   2.395   6.771
 5689SOL    HW217967   4.195   2.541   6.697
 5690SOL     OW17968   4.594   6.888   1.538
 5690SOL    HW117969   4.694   6.895   1.534
 5690SOL    HW217970   4.566   6.795   1.513
 5691SOL     OW17971   2.071   0.164   2.195
 5691SOL    HW117972   2.090   0.262   2.201
 5691SOL    HW217973   1.976   0.148   2.223
 5692SOL     OW17974   6.014   2.954   0.261
 5692SOL    HW117975   5.963   2.945   0.347
 5692SOL    HW217976   5.968   2.902   0.189
 5693SOL     OW17977   4.828   2.743   3.201
 5693SOL    HW117978   4.891   2.789   3.138
 5693SOL    HW217979   4.752   2.703   3.149
 5694SOL     OW17980   0.790   1.965   4.282
 5694SOL    HW117981   0.705   1.926   4.318
 5694SOL    HW217982   0.833   1.901   4.219
 5695SOL     OW17983   2.086   3.518   3.793
 5695SOL    HW117984   2.126   3.609   3.798
 5695SOL    HW217985   1.990   3.526   3.767
 5696SOL     OW17986   3.199   0.250   5.664
 5696SOL    HW117987   3.271   0.199   5.615
 5696SOL    HW217988   3.156   0.189   5.730
 5697SOL     OW17989   6.851   3.416   6.645
 5697SOL    HW117990   6.916   3.357   6.693
 5697SOL    HW217991   6.806   3.363   6.573
 5698SOL     OW17992   0.710   3.831   2.212
 5698SOL    HW117993   0.702   3.736   2.182
 5698SOL    HW217994   0.734   3.889   2.134
 5699SOL     OW17995   6.238   0.921   4.890
 5699SOL    HW117996   6.310   0.904   4.957
 5699SOL    HW217997   6.149   0.922   4.936
 5700SOL     OW17998   1.005   5.266   3.409
 5700SOL    HW117999   0.971   5.224   3.494
 5700SOL    HW218000   1.077   5.331   3.432
 5701SOL     OW18001   5.833   5.086   2.043
 5701SOL    HW118002   5.815   5.140   2.125
 5701SOL    HW218003   5.818   4.989   2.063
 5702SOL     OW18004   2.022   0.320   6.486
 5702SOL    HW118005   2.054   0.305   6.579
 5702SOL    HW218006   2.090   0.374   6.436
 5703SOL     OW18007   3.955   4.643   0.902
 5703SOL    HW118008   3.921   4.693   0.822
 5703SOL    HW218009   4.054   4.659   0.911
 5704SOL     OW18010   4.020   5.375   3.716
 5704SOL    HW118011   4.054   5.392   3.623
 5704SOL    HW218012   3.958   5.448   3.743
 5705SOL     OW18013   6.426   1.679   1.915
 5705SOL    HW118014   6.471   1.602   1.871
 5705SOL    HW218015   6.433   1.670   2.014
 5706SOL     OW18016   1.731   1.506   6.827
 5706SOL    HW118017   1.763   1.526   6.920
 5706SOL    HW218018   1.685   1.417   6.827
 5707SOL     OW18019   3.223   2.432   6.455
 5707SOL    HW118020   3.218   2.389   6.364
 5707SOL    HW218021   3.141   2.410   6.507
 5708SOL     OW18022   5.485   6.997   1.845
 5708SOL    HW118023   5.543   6.939   1.903
 5708SOL    HW218024   5.513   0.071   1.854
 5709SOL     OW18025   1.153   0.967   3.118
 5709SOL    HW118026   1.164   1.036   3.047
 5709SOL    HW218027   1.193   0.881   3.088
 5710SOL     OW18028   3.159   4.106   6.290
 5710SOL    HW118029   3.181   4.060   6.205
 5710SOL    HW218030   3.196   4.199   6.288
 5711SOL     OW18031   3.969   1.131   4.184
 5711SOL    HW118032   3.934   1.151   4.276
 5711SOL    HW218033   4.065   1.157   4.177
 5712SOL     OW18034   6.943   5.871   6.984
 5712SOL    HW118035   7.017   5.910   6.928
 5712SOL    HW218036   6.938   5.772   6.968
 5713SOL     OW18037   6.951   1.807   3.475
 5713SOL    HW118038   6.919   1.754   3.554
 5713SOL    HW218039   6.888   1.882   3.458
 5714SOL     OW18040   1.761   0.722   7.007
 5714SOL    HW118041   1.786   0.633   6.969
 5714SOL    HW218042   1.733   0.783   6.933
 5715SOL     OW18043   1.609   0.267   3.588
 5715SOL    HW118044   1.580   0.236   3.679
 5715SOL    HW218045   1.535   0.318   3.545
 5716SOL     OW18046   2.477   2.967   5.793
 5716SOL    HW118047   2.554   2.914   5.760
 5716SOL    HW218048   2.510   3.049   5.841
 5717SOL     OW18049   0.484   3.980   0.626
 5717SOL    HW118050   0.442   3.926   0.698
 5717SOL    HW218051   0.498   4.074   0.659
 5718SOL     OW18052   2.372   4.907   5.382
 5718SOL    HW118053   2.348   4.995   5.340
 5718SOL    HW218054   2.351   4.833   5.319
 5719SOL     OW18055   3.031   0.776   6.600
 5719SOL    HW118056   3.031   0.860   6.545
 5719SOL    HW218057   2.989   0.702   6.547
 5720SOL     OW18058   2.091   4.936   4.149
 5720SOL    HW118059   2.010   4.993   4.137
 5720SOL    HW218060   2.125   4.945   4.243
 5721SOL     OW18061   0.719   4.765   1.882
 5721SOL    HW118062   0.703   4.822   1.963
 5721SOL    HW218063   0.816   4.739   1.879
 5722SOL     OW18064   5.585   0.455   4.338
 5722SOL    HW118065   5.597   0.373   4.282
 5722SOL    HW218066   5.639   0.447   4.422
 5723SOL     OW18067   1.629   4.791   0.953
 5723SOL    HW118068   1.724   4.820   0.962
 5723SOL    HW218069   1.580   4.814   1.037
 5724SOL     OW18070   5.145   1.729   6.843
 5724SOL    HW118071   5.119   1.643   6.888
 5724SOL    HW218072   5.107   1.731   6.750
 5725SOL     OW18073   5.014   5.751   6.248
 5725SOL    HW118074   5.056   5.838   6.274
 5725SOL    HW218075   4.936   5.769   6.187
 5726SOL     OW18076   4.828   3.386   6.350
 5726SOL    HW118077   4.891   3.455   6.315
 5726SOL    HW218078   4.865   3.295   6.332
 5727SOL     OW18079   6.017   2.120   3.807
 5727SOL    HW118080   6.003   2.078   3.897
 5727SOL    HW218081   6.113   2.113   3.782
 5728SOL     OW18082   6.118   0.630   6.311
 5728SOL    HW118083   6.056   0.697   6.270
 5728SOL    HW218084   6.105   0.541   6.268
 5729SOL     OW18085   0.905   2.918   5.393
 5729SOL    HW118086   0.912   2.904   5.492
 5729SOL    HW218087   0.900   2.830   5.347
 5730SOL     OW18088   4.625   4.777   6.771
 5730SOL    HW118089   4.691   4.846   6.742
 5730SOL    HW218090   4.672   4.706   6.824
 5731SOL     OW18091   3.437   0.908   4.659
 5731SOL    HW118092   3.424   1.004   4.634
 5731SOL    HW218093   3.492   0.903   4.743
 5732SOL     OW18094   5.499   4.191   4.246
 5732SOL    HW118095   5.411   4.184   4.293
 5732SOL    HW218096   5.553   4.265   4.286
 5733SOL     OW18097   2.771   0.442   0.839
 5733SOL    HW118098   2.847   0.389   0.877
 5733SOL    HW218099   2.732   0.500   0.911
 5734SOL     OW18100   2.315   5.951   6.424
 5734SOL    HW118101   2.231   5.918   6.467
 5734SOL    HW218102   2.394   5.912   6.471
 5735SOL     OW18103   4.390   0.505   1.666
 5735SOL    HW118104   4.338   0.533   1.586
 5735SOL    HW218105   4.385   0.406   1.677
 5736SOL     OW18106   5.398   4.198   0.079
 5736SOL    HW118107   5.487   4.227   0.115
 5736SOL    HW218108   5.363   4.122   0.133
 5737SOL     OW18109   4.125   5.131   1.001
 5737SOL    HW118110   4.080   5.134   0.912
 5737SOL    HW218111   4.061   5.161   1.072
 5738SOL     OW18112   2.791   0.515   0.453
 5738SOL    HW118113   2.732   0.596   0.448
 5738SOL    HW218114   2.735   0.434   0.474
 5739SOL     OW18115   1.919   0.804   6.130
 5739SOL    HW118116   1.993   0.832   6.068
 5739SOL    HW218117   1.849   0.875   6.132
 5740SOL     OW18118   5.240   3.422   2.187
 5740SOL    HW118119   5.166   3.356   2.199
 5740SOL    HW218120   5.326   3.382   2.218
 5741SOL     OW18121   0.176   3.445   4.169
 5741SOL    HW118122   0.271   3.417   4.154
 5741SOL    HW218123   0.153   3.432   4.266
 5742SOL     OW18124   5.393   0.496   3.541
 5742SOL    HW118125   5.398   0.416   3.481
 5742SOL    HW218126   5.435   0.575   3.495
 5743SOL     OW18127   4.189   4.523   0.008
 5743SOL    HW118128   4.096   4.508   6.994
 5743SOL    HW218129   4.241   4.438   0.003
 5744SOL     OW18130   5.395   6.685   2.875
 5744SOL    HW118131   5.345   6.771   2.887
 5744SOL    HW218132   5.376   6.624   2.952
 5745SOL     OW18133   1.821   2.371   1.821
 5745SOL    HW118134   1.779   2.450   1.777
 5745SOL    HW218135   1.752   2.320   1.872
 5746SOL     OW18136   4.464   6.959   3.327
 5746SOL    HW118137   4.543   6.918   3.281
 5746SOL    HW218138   4.453   0.033   3.297
 5747SOL     OW18139   0.447   6.081   1.084
 5747SOL    HW118140   0.432   6.180   1.091
 5747SOL    HW218141   0.435   6.039   1.174
 5748SOL     OW18142   0.135   6.107   0.851
 5748SOL    HW118143   0.232   6.132   0.847
 5748SOL    HW218144   0.105   6.073   0.762
 5749SOL     OW18145   1.465   5.776   5.955
 5749SOL    HW118146   1.539   5.796   6.019
 5749SOL    HW218147   1.377   5.786   6.003
 5750SOL     OW18148   6.469   4.058   3.811
 5750SOL    HW118149   6.444   4.128   3.743
 5750SOL    HW218150   6.461   4.097   3.903
 5751SOL     OW18151   1.659   3.485   4.469
 5751SOL    HW118152   1.654   3.427   4.550
 5751SOL    HW218153   1.751   3.482   4.431
 5752SOL     OW18154   4.606   0.402   0.635
 5752SOL    HW118155   4.619   0.311   0.674
 5752SOL    HW218156   4.671   0.466   0.677
 5753SOL     OW18157   4.009   3.863   5.173
 5753SOL    HW118158   3.971   3.945   5.130
 5753SOL    HW218159   4.059   3.810   5.105
 5754SOL     OW18160   0.788   5.943   1.639
 5754SOL    HW118161   0.774   5.844   1.634
 5754SOL    HW218162   0.792   5.981   1.547
 5755SOL     OW18163   0.913   2.358   6.855
 5755SOL    HW118164   1.003   2.400   6.865
 5755SOL    HW218165   0.842   2.423   6.883
 5756SOL     OW18166   5.785   6.064   1.174
 5756SOL    HW118167   5.760   6.072   1.270
 5756SOL    HW218168   5.884   6.062   1.165
 5757SOL     OW18169   6.594   0.264   4.374
 5757SOL    HW118170   6.573   0.192   4.440
 5757SOL    HW218171   6.527   0.261   4.299
 5758SOL     OW18172   6.141   6.939   2.737
 5758SOL    HW118173   6.116   6.880   2.813
 5758SOL    HW218174   6.240   6.946   2.730
 5759SOL     OW18175   3.780   0.336   1.075
 5759SOL    HW118176   3.692   0.374   1.100
 5759SOL    HW218177   3.842   0.339   1.153
 5760SOL     OW18178   0.520   2.990   1.014
 5760SOL    HW118179   0.422   2.986   1.033
 5760SOL    HW218180   0.550   2.905   0.971
 5761SOL     OW18181   5.819   6.925   4.468
 5761SOL    HW118182   5.867   6.841   4.491
 5761SOL    HW218183   5.747   6.942   4.535
 5762SOL     OW18184   6.688   5.495   6.866
 5762SOL    HW118185   6.625   5.419   6.882
 5762SOL    HW218186   6.774   5.461   6.830
 5763SOL     OW18187   5.924   0.018   0.233
 5763SOL    HW118188   5.850   7.005   0.290
 5763SOL    HW218189   5.907   7.013   0.138
 5764SOL     OW18190   4.562   6.683   4.127
 5764SOL    HW118191   4.644   6.725   4.167
 5764SOL    HW218192   4.483   6.703   4.184
 5765SOL     OW18193   6.227   4.988   1.720
 5765SOL    HW118194   6.145   4.938   1.748
 5765SOL    HW218195   6.247   5.059   1.788
 5766SOL     OW18196   0.498   1.712   4.159
 5766SOL    HW118197   0.549   1.741   4.078
 5766SOL    HW218198   0.400   1.709   4.137
 5767SOL     OW18199   3.276   0.228   0.135
 5767SOL    HW118200   3.347   0.253   0.201
 5767SOL    HW218201   3.289   0.133   0.107
 5768SOL     OW18202   0.372   0.289   4.474
 5768SOL    HW118203   0.362   0.386   4.455
 5768SOL    HW218204   0.464   0.271   4.510
 5769SOL     OW18205   1.353   4.243   6.579
 5769SOL    HW118206   1.283   4.275   6.516
 5769SOL    HW218207   1.390   4.156   6.548
 5770SOL     OW18208   2.077   4.697   1.566
 5770SOL    HW118209   2.145   4.731   1.631
 5770SOL    HW218210   2.122   4.675   1.479
 5771SOL     OW18211   2.964   5.393   3.443
 5771SOL    HW118212   2.921   5.306   3.417
 5771SOL    HW218213   2.957   5.404   3.542
 5772SOL     OW18214   3.492   0.549   2.061
 5772SOL    HW118215   3.556   0.583   1.992
 5772SOL    HW218216   3.507   0.597   2.147
 5773SOL     OW18217   4.330   1.839   3.184
 5773SOL    HW118218   4.279   1.875   3.105
 5773SOL    HW218219   4.407   1.784   3.151
 5774SOL     OW18220   0.249   6.873   2.212
 5774SOL    HW118221   0.263   6.961   2.258
 5774SOL    HW218222   0.275   6.799   2.274
 5775SOL     OW18223   6.345   5.853   2.110
 5775SOL    HW118224   6.396   5.785   2.058
 5775SOL    HW218225   6.377   5.854   2.205
 5776SOL     OW18226   2.817   0.761   3.766
 5776SOL    HW118227   2.776   0.681   3.810
 5776SOL    HW218228   2.835   0.741   3.670
 5777SOL     OW18229   1.657   6.144   3.182
 5777SOL    HW118230   1.719   6.092   3.240
 5777SOL    HW218231   1.582   6.085   3.151
 5778SOL     OW18232   0.535   1.792   0.508
 5778SOL    HW118233   0.592   1.798   0.590
 5778SOL    HW218234   0.441   1.814   0.530
 5779SOL     OW18235   5.989   1.753   6.196
 5779SOL    HW118236   5.936   1.782   6.276
 5779SOL    HW218237   6.080   1.795   6.199
 5780SOL     OW18238   5.079   5.962   3.756
 5780SOL    HW118239   5.037   5.924   3.838
 5780SOL    HW218240   5.035   5.924   3.675
 5781SOL     OW18241   0.749   4.418   5.178
 5781SOL    HW118242   0.844   4.449   5.172
 5781SOL    HW218243   0.730   4.354   5.103
 5782SOL     OW18244   0.529   1.229   0.253
 5782SOL    HW118245   0.433   1.208   0.231
 5782SOL    HW218246   0.552   1.189   0.342
 5783SOL     OW18247   1.630   1.804   1.466
 5783SOL    HW118248   1.718   1.793   1.512
 5783SOL    HW218249   1.556   1.782   1.531
 5784SOL     OW18250   6.698   6.591   6.038
 5784SOL    HW118251   6.683   6.667   5.975
 5784SOL    HW218252   6.783   6.545   6.016
 5785SOL     OW18253   1.333   1.800   1.129
 5785SOL    HW118254   1.420   1.762   1.099
 5785SOL    HW218255   1.289   1.737   1.193
 5786SOL     OW18256   5.945   4.414   0.983
 5786SOL    HW118257   6.025   4.447   0.933
 5786SOL    HW218258   5.869   4.477   0.969
 5787SOL     OW18259   2.927   2.085   5.666
 5787SOL    HW118260   2.894   2.047   5.753
 5787SOL    HW218261   2.919   2.015   5.595
 5788SOL     OW18262   2.768   1.214   3.539
 5788SOL    HW118263   2.744   1.117   3.536
 5788SOL    HW218264   2.780   1.242   3.634
 5789SOL     OW18265   4.089   4.918   6.404
 5789SOL    HW118266   4.042   4.833   6.428
 5789SOL    HW218267   4.057   4.992   6.462
 5790SOL     OW18268   0.474   2.463   3.491
 5790SOL    HW118269   0.418   2.446   3.572
 5790SOL    HW218270   0.468   2.559   3.466
 5791SOL     OW18271   2.498   0.361   2.442
 5791SOL    HW118272   2.572   0.421   2.472
 5791SOL    HW218273   2.533   0.293   2.378
 5792SOL     OW18274   0.081   2.427   3.181
 5792SOL    HW118275   0.156   2.375   3.222
 5792SOL    HW218276   0.068   2.512   3.231
 5793SOL     OW18277   6.736   0.899   3.477
 5793SOL    HW118278   6.730   0.927   3.573
 5793SOL    HW218279   6.648   0.916   3.433
 5794SOL     OW18280   3.910   3.891   0.037
 5794SOL    HW118281   3.935   3.986   0.022
 5794SOL    HW218282   3.960   3.832   6.994
 5795SOL     OW18283   6.075   4.254   6.183
 5795SOL    HW118284   6.117   4.184   6.241
 5795SOL    HW218285   6.071   4.220   6.089
 5796SOL     OW18286   3.562   1.396   0.443
 5796SOL    HW118287   3.613   1.404   0.358
 5796SOL    HW218288   3.615   1.342   0.509
 5797SOL     OW18289   3.312   1.768   4.681
 5797SOL    HW118290   3.332   1.853   4.730
 5797SOL    HW218291   3.229   1.727   4.718
 5798SOL     OW18292   0.083   4.722   4.685
 5798SOL    HW118293   0.081   4.652   4.756
 5798SOL    HW218294   0.116   4.808   4.724
 5799SOL     OW18295   5.588   0.290   3.957
 5799SOL    HW118296   5.580   0.194   3.928
 5799SOL    HW218297   5.518   0.344   3.910
 5800SOL     OW18298   5.978   4.835   0.396
 5800SOL    HW118299   6.022   4.909   0.447
 5800SOL    HW218300   5.979   4.752   0.452
 5801SOL     OW18301   1.842   1.137   3.703
 5801SOL    HW118302   1.818   1.098   3.792
 5801SOL    HW218303   1.760   1.165   3.655
 5802SOL     OW18304   0.313   4.082   5.561
 5802SOL    HW118305   0.344   3.991   5.535
 5802SOL    HW218306   0.218   4.094   5.534
 5803SOL     OW18307   0.837   4.589   0.697
 5803SOL    HW118308   0.822   4.688   0.694
 5803SOL    HW218309   0.808   4.548   0.610
 5804SOL     OW18310   6.267   4.473   4.557
 5804SOL    HW118311   6.193   4.467   4.623
 5804SOL    HW218312   6.313   4.561   4.565
 5805SOL     OW18313   4.756   3.395   6.617
 5805SOL    HW118314   4.842   3.407   6.666
 5805SOL    HW218315   4.773   3.400   6.519
 5806SOL     OW18316   0.514   6.376   0.051
 5806SOL    HW118317   0.452   6.304   0.019
 5806SOL    HW218318   0.576   6.402   6.998
 5807SOL     OW18319   1.605   3.171   1.578
 5807SOL    HW118320   1.682   3.141   1.522
 5807SOL    HW218321   1.529   3.107   1.568
 5808SOL     OW18322   6.232   3.605   2.308
 5808SOL    HW118323   6.292   3.526   2.319
 5808SOL    HW218324   6.180   3.619   2.392
 5809SOL     OW18325   6.978   3.721   4.397
 5809SOL    HW118326   6.915   3.797   4.378
 5809SOL    HW218327   6.962   3.688   4.490
 5810SOL     OW18328   3.010   1.740   2.372
 5810SOL    HW118329   3.001   1.830   2.329
 5810SOL    HW218330   2.999   1.669   2.303
 5811SOL     OW18331   2.919   0.536   4.204
 5811SOL    HW118332   2.896   0.495   4.116
 5811SOL    HW218333   2.954   0.466   4.266
 5812SOL     OW18334   4.922   0.616   4.038
 5812SOL    HW118335   4.896   0.601   3.943
 5812SOL    HW218336   4.994   0.685   4.043
 5813SOL     OW18337   1.727   0.684   5.483
 5813SOL    HW118338   1.629   0.701   5.468
 5813SOL    HW218339   1.745   0.586   5.472
 5814SOL     OW18340   0.265   5.045   1.825
 5814SOL    HW118341   0.212   5.121   1.863
 5814SOL    HW218342   0.234   5.027   1.732
 5815SOL     OW18343   4.063   1.197   3.291
 5815SOL    HW118344   3.987   1.241   3.338
 5815SOL    HW218345   4.027   1.132   3.224
 5816SOL     OW18346   4.589   0.707   0.503
 5816SOL    HW118347   4.549   0.639   0.442
 5816SOL    HW218348   4.516   0.766   0.540
 5817SOL     OW18349   4.807   3.092   5.592
 5817SOL    HW118350   4.897   3.058   5.564
 5817SOL    HW218351   4.746   3.016   5.611
 5818SOL     OW18352   6.226   6.965   6.471
 5818SOL    HW118353   6.270   7.009   6.550
 5818SOL    HW218354   6.291   6.904   6.426
 5819SOL     OW18355   5.664   0.539   1.702
 5819SOL    HW118356   5.620   0.570   1.787
 5819SOL    HW218357   5.600   0.551   1.626
 5820SOL     OW18358   5.642   6.196   3.413
 5820SOL    HW118359   5.590   6.138   3.476
 5820SOL    HW218360   5.737   6.202   3.444
 5821SOL     OW18361   2.932   1.125   1.884
 5821SOL    HW118362   2.943   1.029   1.913
 5821SOL    HW218363   2.855   1.166   1.934
 5822SOL     OW18364   7.001   1.764   1.936
 5822SOL    HW118365   0.031   1.704   1.997
 5822SOL    HW218366   0.042   1.828   1.892
 5823SOL     OW18367   2.199   1.766   4.185
 5823SOL    HW118368   2.100   1.756   4.171
 5823SOL    HW218369   2.224   1.862   4.176
 5824SOL     OW18370   5.593   0.030   3.658
 5824SOL    HW118371   5.678   6.999   3.648
 5824SOL    HW218372   5.562   0.024   3.753
 5825SOL     OW18373   2.082   0.358   0.065
 5825SOL    HW118374   1.991   0.318   0.062
 5825SOL    HW218375   2.075   0.454   0.094
 5826SOL     OW18376   6.444   0.096   4.883
 5826SOL    HW118377   6.514   0.129   4.947
 5826SOL    HW218378   6.360   0.076   4.933
 5827SOL     OW18379   1.048   5.679   4.781
 5827SOL    HW118380   1.015   5.660   4.873
 5827SOL    HW218381   0.982   5.645   4.714
 5828SOL     OW18382   0.446   3.165   2.006
 5828SOL    HW118383   0.493   3.228   1.944
 5828SOL    HW218384   0.348   3.188   2.009
 5829SOL     OW18385   2.191   1.610   1.629
 5829SOL    HW118386   2.241   1.620   1.543
 5829SOL    HW218387   2.255   1.616   1.705
 5830SOL     OW18388   3.216   1.374   6.166
 5830SOL    HW118389   3.205   1.393   6.068
 5830SOL    HW218390   3.286   1.435   6.204
 5831SOL     OW18391   5.453   6.736   3.286
 5831SOL    HW118392   5.422   6.663   3.346
 5831SOL    HW218393   5.515   6.699   3.217
 5832SOL     OW18394   3.996   3.724   5.439
 5832SOL    HW118395   4.027   3.783   5.364
 5832SOL    HW218396   3.962   3.780   5.514
 5833SOL     OW18397   3.260   3.501   4.274
 5833SOL    HW118398   3.223   3.497   4.367
 5833SOL    HW218399   3.196   3.550   4.215
 5834SOL     OW18400   5.719   1.441   1.159
 5834SOL    HW118401   5.748   1.490   1.077
 5834SOL    HW218402   5.776   1.469   1.236
 5835SOL     OW18403   4.997   2.175   3.653
 5835SOL    HW118404   5.014   2.258   3.600
 5835SOL    HW218405   5.083   2.126   3.667
 5836SOL     OW18406   3.618   6.134   2.377
 5836SOL    HW118407   3.686   6.078   2.424
 5836SOL    HW218408   3.587   6.087   2.294
 5837SOL     OW18409   4.705   4.007   0.097
 5837SOL    HW118410   4.745   3.917   0.117
 5837SOL    HW218411   4.722   4.029   0.001
 5838SOL     OW18412   1.408   1.190   5.520
 5838SOL    HW118413   1.420   1.179   5.421
 5838SOL    HW218414   1.340   1.124   5.552
 5839SOL     OW18415   6.479   3.197   2.778
 5839SOL    HW118416   6.461   3.103   2.804
 5839SOL    HW218417   6.567   3.226   2.817
 5840SOL     OW18418   1.314   5.371   6.888
 5840SOL    HW118419   1.231   5.418   6.917
 5840SOL    HW218420   1.309   5.274   6.915
 5841SOL     OW18421   6.561   2.418   3.621
 5841SOL    HW118422   6.473   2.374   3.604
 5841SOL    HW218423   6.547   2.501   3.674
 5842SOL     OW18424   4.053   2.780   1.150
 5842SOL    HW118425   4.055   2.850   1.222
 5842SOL    HW218426   3.961   2.741   1.145
 5843SOL     OW18427   1.751   3.427   2.416
 5843SOL    HW118428   1.778   3.352   2.354
 5843SOL    HW218429   1.826   3.493   2.421
 5844SOL     OW18430   0.867   6.399   6.382
 5844SOL    HW118431   0.860   6.498   6.379
 5844SOL    HW218432   0.920   6.371   6.462
 5845SOL     OW18433   0.443   2.433   4.136
 5845SOL    HW118434   0.519   2.497   4.124
 5845SOL    HW218435   0.476   2.351   4.183
 5846SOL     OW18436   0.208   2.529   5.409
 5846SOL    HW118437   0.217   2.618   5.454
 5846SOL    HW218438   0.170   2.541   5.317
 5847SOL     OW18439   2.204   2.635   2.242
 5847SOL    HW118440   2.144   2.577   2.186
 5847SOL    HW218441   2.196   2.729   2.211
 5848SOL     OW18442   1.170   4.619   3.257
 5848SOL    HW118443   1.254   4.593   3.305
 5848SOL    HW218444   1.164   4.568   3.171
 5849SOL     OW18445   2.519   0.225   5.784
 5849SOL    HW118446   2.619   0.220   5.783
 5849SOL    HW218447   2.491   0.321   5.781
 5850SOL     OW18448   0.391   4.606   1.976
 5850SOL    HW118449   0.417   4.526   1.921
 5850SOL    HW218450   0.334   4.667   1.921
 5851SOL     OW18451   6.597   3.905   2.046
 5851SOL    HW118452   6.583   3.999   2.077
 5851SOL    HW218453   6.509   3.861   2.031
 5852SOL     OW18454   4.126   5.946   2.241
 5852SOL    HW118455   4.200   6.013   2.252
 5852SOL    HW218456   4.158   5.856   2.273
 5853SOL     OW18457   3.204   4.584   6.122
 5853SOL    HW118458   3.211   4.645   6.044
 5853SOL    HW218459   3.108   4.572   6.146
 5854SOL     OW18460   0.064   0.966   6.009
 5854SOL    HW118461   0.121   0.949   5.929
 5854SOL    HW218462   6.989   0.949   5.988
 5855SOL     OW18463   1.347   1.150   4.435
 5855SOL    HW118464   1.250   1.128   4.431
 5855SOL    HW218465   1.360   1.233   4.489
 5856SOL     OW18466   1.349   4.704   3.737
 5856SOL    HW118467   1.429   4.758   3.712
 5856SOL    HW218468   1.377   4.626   3.792
 5857SOL     OW18469   6.656   3.133   5.544
 5857SOL    HW118470   6.607   3.179   5.618
 5857SOL    HW218471   6.705   3.201   5.489
 5858SOL     OW18472   3.969   1.036   3.104
 5858SOL    HW118473   3.873   1.022   3.126
 5858SOL    HW218474   3.977   1.115   3.043
 5859SOL     OW18475   6.020   6.694   0.784
 5859SOL    HW118476   6.093   6.662   0.845
 5859SOL    HW218477   6.041   6.786   0.753
 5860SOL     OW18478   1.221   4.324   1.544
 5860SOL    HW118479   1.134   4.373   1.532
 5860SOL    HW218480   1.276   4.332   1.461
 5861SOL     OW18481   5.984   2.361   4.136
 5861SOL    HW118482   6.028   2.353   4.225
 5861SOL    HW218483   5.934   2.448   4.131
 5862SOL     OW18484   4.017   4.963   3.044
 5862SOL    HW118485   4.075   4.882   3.053
 5862SOL    HW218486   3.921   4.935   3.043
 5863SOL     OW18487   2.070   1.082   6.337
 5863SOL    HW118488   2.059   1.167   6.388
 5863SOL    HW218489   2.081   1.103   6.240
 5864SOL     OW18490   4.532   4.374   1.427
 5864SOL    HW118491   4.536   4.274   1.426
 5864SOL    HW218492   4.514   4.405   1.520
 5865SOL     OW18493   4.964   1.016   3.560
 5865SOL    HW118494   4.891   0.977   3.505
 5865SOL    HW218495   5.047   1.023   3.504
 5866SOL     OW18496   4.072   6.818   5.712
 5866SOL    HW118497   3.995   6.755   5.705
 5866SOL    HW218498   4.048   6.894   5.772
 5867SOL     OW18499   0.386   3.183   1.681
 5867SOL    HW118500   0.440   3.210   1.761
 5867SOL    HW218501   0.288   3.192   1.702
 5868SOL     OW18502   1.633   6.796   5.310
 5868SOL    HW118503   1.563   6.806   5.239
 5868SOL    HW218504   1.721   6.777   5.267
 5869SOL     OW18505   2.929   4.911   4.515
 5869SOL    HW118506   3.024   4.937   4.496
 5869SOL    HW218507   2.923   4.872   4.607
 5870SOL     OW18508   4.784   5.390   4.739
 5870SOL    HW118509   4.838   5.316   4.778
 5870SOL    HW218510   4.688   5.378   4.764
 5871SOL     OW18511   3.598   3.232   0.378
 5871SOL    HW118512   3.593   3.183   0.466
 5871SOL    HW218513   3.655   3.179   0.315
 5872SOL     OW18514   3.236   5.808   5.748
 5872SOL    HW118515   3.263   5.858   5.830
 5872SOL    HW218516   3.315   5.760   5.711
 5873SOL     OW18517   3.466   3.507   0.121
 5873SOL    HW118518   3.481   3.592   0.172
 5873SOL    HW218519   3.412   3.444   0.176
 5874SOL     OW18520   1.935   3.454   1.593
 5874SOL    HW118521   2.011   3.502   1.637
 5874SOL    HW218522   1.971   3.395   1.521
 5875SOL     OW18523   2.844   1.423   0.180
 5875SOL    HW118524   2.768   1.406   0.243
 5875SOL    HW218525   2.840   1.517   0.147
 5876SOL     OW18526   3.241   3.680   6.385
 5876SOL    HW118527   3.258   3.736   6.467
 5876SOL    HW218528   3.325   3.631   6.361
 5877SOL     OW18529   6.731   0.150   2.523
 5877SOL    HW118530   6.824   0.187   2.520
 5877SOL    HW218531   6.710   0.122   2.617
 5878SOL     OW18532   4.301   4.954   2.488
 5878SOL    HW118533   4.327   4.979   2.581
 5878SOL    HW218534   4.202   4.942   2.483
 5879SOL     OW18535   3.896   3.205   6.106
 5879SOL    HW118536   3.964   3.182   6.036
 5879SOL    HW218537   3.817   3.143   6.097
 5880SOL     OW18538   4.514   2.754   6.045
 5880SOL    HW118539   4.524   2.674   5.985
 5880SOL    HW218540   4.603   2.799   6.055
 5881SOL     OW18541   1.339   6.292   2.084
 5881SOL    HW118542   1.406   6.366   2.087
 5881SOL    HW218543   1.319   6.269   1.989
 5882SOL     OW18544   1.878   5.695   5.984
 5882SOL    HW118545   1.898   5.684   5.887
 5882SOL    HW218546   1.813   5.770   5.996
 5883SOL     OW18547   0.295   4.731   1.401
 5883SOL    HW118548   0.323   4.671   1.326
 5883SOL    HW218549   0.282   4.678   1.484
 5884SOL     OW18550   6.176   1.874   3.606
 5884SOL    HW118551   6.159   1.862   3.509
 5884SOL    HW218552   6.202   1.968   3.625
 5885SOL     OW18553   0.346   5.150   6.476
 5885SOL    HW118554   0.335   5.143   6.575
 5885SOL    HW218555   0.404   5.075   6.444
 5886SOL     OW18556   1.873   4.040   3.567
 5886SOL    HW118557   1.838   4.091   3.488
 5886SOL    HW218558   1.853   3.943   3.556
 5887SOL     OW18559   2.154   2.513   1.141
 5887SOL    HW118560   2.122   2.562   1.222
 5887SOL    HW218561   2.195   2.426   1.169
 5888SOL     OW18562   3.356   6.881   1.062
 5888SOL    HW118563   3.391   6.829   0.985
 5888SOL    HW218564   3.432   6.916   1.117
 5889SOL     OW18565   6.353   0.967   1.782
 5889SOL    HW118566   6.431   0.930   1.732
 5889SOL    HW218567   6.331   0.907   1.859
 5890SOL     OW18568   2.778   6.537   2.750
 5890SOL    HW118569   2.874   6.557   2.771
 5890SOL    HW218570   2.727   6.623   2.743
 5891SOL     OW18571   2.825   3.500   0.927
 5891SOL    HW118572   2.747   3.548   0.966
 5891SOL    HW218573   2.884   3.466   1.000
 5892SOL     OW18574   1.039   4.006   1.226
 5892SOL    HW118575   1.048   3.915   1.267
 5892SOL    HW218576   1.091   4.009   1.141
 5893SOL     OW18577   0.567   6.090   2.297
 5893SOL    HW118578   0.579   6.003   2.345
 5893SOL    HW218579   0.614   6.163   2.348
 5894SOL     OW18580   2.179   5.766   5.735
 5894SOL    HW118581   2.093   5.817   5.736
 5894SOL    HW218582   2.172   5.692   5.669
 5895SOL     OW18583   5.379   2.825   4.599
 5895SOL    HW118584   5.354   2.915   4.634
 5895SOL    HW218585   5.466   2.796   4.639
 5896SOL     OW18586   5.442   2.198   2.087
 5896SOL    HW118587   5.460   2.110   2.130
 5896SOL    HW218588   5.369   2.246   2.136
 5897SOL     OW18589   4.229   2.248   0.728
 5897SOL    HW118590   4.148   2.305   0.739
 5897SOL    HW218591   4.300   2.278   0.791
 5898SOL     OW18592   2.041   1.333   5.777
 5898SOL    HW118593   1.965   1.288   5.825
 5898SOL    HW218594   2.099   1.264   5.734
 5899SOL     OW18595   6.514   5.292   5.834
 5899SOL    HW118596   6.480   5.241   5.755
 5899SOL    HW218597   6.498   5.389   5.819
 5900SOL     OW18598   5.867   6.168   3.540
 5900SOL    HW118599   5.963   6.194   3.555
 5900SOL    HW218600   5.836   6.112   3.616
 5901SOL     OW18601   2.144   0.525   5.761
 5901SOL    HW118602   2.127   0.427   5.764
 5901SOL    HW218603   2.242   0.542   5.759
 5902SOL     OW18604   4.625   4.285   5.559
 5902SOL    HW118605   4.541   4.235   5.576
 5902SOL    HW218606   4.703   4.224   5.567
 5903SOL     OW18607   6.438   2.256   5.537
 5903SOL    HW118608   6.370   2.212   5.595
 5903SOL    HW218609   6.428   2.355   5.542
 5904SOL     OW18610   1.819   4.430   2.106
 5904SOL    HW118611   1.868   4.443   2.192
 5904SOL    HW218612   1.883   4.442   2.030
 5905SOL     OW18613   6.214   1.752   4.461
 5905SOL    HW118614   6.283   1.806   4.412
 5905SOL    HW218615   6.232   1.655   4.448
 5906SOL     OW18616   4.714   0.802   5.512
 5906SOL    HW118617   4.721   0.703   5.525
 5906SOL    HW218618   4.780   0.847   5.571
 5907SOL     OW18619   1.975   3.325   6.289
 5907SOL    HW118620   1.981   3.378   6.374
 5907SOL    HW218621   1.975   3.388   6.211
 5908SOL     OW18622   4.679   2.520   5.978
 5908SOL    HW118623   4.739   2.542   6.055
 5908SOL    HW218624   4.615   2.448   6.005
 5909SOL     OW18625   6.971   5.447   4.313
 5909SOL    HW118626   6.983   5.363   4.259
 5909SOL    HW218627   0.021   5.451   4.383
 5910SOL     OW18628   1.988   3.734   1.445
 5910SOL    HW118629   1.971   3.820   1.492
 5910SOL    HW218630   1.932   3.662   1.485
 5911SOL     OW18631   5.940   6.641   6.695
 5911SOL    HW118632   5.884   6.562   6.671
 5911SOL    HW218633   6.027   6.637   6.646
 5912SOL     OW18634   6.724   3.469   6.950
 5912SOL    HW118635   6.747   3.393   6.889
 5912SOL    HW218636   6.625   3.483   6.948
 5913SOL     OW18637   1.648   1.411   5.912
 5913SOL    HW118638   1.693   1.461   5.838
 5913SOL    HW218639   1.595   1.475   5.967
 5914SOL     OW18640   2.169   6.231   0.518
 5914SOL    HW118641   2.196   6.206   0.611
 5914SOL    HW218642   2.222   6.178   0.453
 5915SOL     OW18643   4.869   3.199   2.715
 5915SOL    HW118644   4.963   3.165   2.721
 5915SOL    HW218645   4.814   3.157   2.787
 5916SOL     OW18646   3.360   0.783   5.892
 5916SOL    HW118647   3.421   0.835   5.952
 5916SOL    HW218648   3.339   0.695   5.934
 5917SOL     OW18649   3.001   3.116   3.344
 5917SOL    HW118650   3.068   3.171   3.393
 5917SOL    HW218651   3.024   3.019   3.353
 5918SOL     OW18652   2.284   3.005   4.505
 5918SOL    HW118653   2.287   3.071   4.580
 5918SOL    HW218654   2.290   3.053   4.417
 5919SOL     OW18655   1.566   3.010   6.931
 5919SOL    HW118656   1.659   3.043   6.950
 5919SOL    HW218657   1.538   3.041   6.840
 5920SOL     OW18658   3.819   6.419   6.727
 5920SOL    HW118659   3.856   6.335   6.766
 5920SOL    HW218660   3.742   6.397   6.667
 5921SOL     OW18661   3.982   5.253   5.235
 5921SOL    HW118662   3.918   5.330   5.233
 5921SOL    HW218663   4.075   5.288   5.223
 5922SOL     OW18664   5.674   4.115   1.957
 5922SOL    HW118665   5.638   4.151   1.871
 5922SOL    HW218666   5.774   4.125   1.959
 5923SOL     OW18667   0.142   6.926   4.263
 5923SOL    HW118668   0.088   6.978   4.197
 5923SOL    HW218669   0.185   6.989   4.328
 5924SOL     OW18670   5.490   1.870   4.453
 5924SOL    HW118671   5.429   1.935   4.499
 5924SOL    HW218672   5.555   1.920   4.396
 5925SOL     OW18673   5.621   6.306   1.081
 5925SOL    HW118674   5.665   6.372   1.142
 5925SOL    HW218675   5.671   6.219   1.084
 5926SOL     OW18676   3.573   5.108   1.672
 5926SOL    HW118677   3.601   5.187   1.618
 5926SOL    HW218678   3.532   5.138   1.758
 5927SOL     OW18679   2.866   5.965   2.975
 5927SOL    HW118680   2.949   6.019   2.958
 5927SOL    HW218681   2.870   5.925   3.067
 5928SOL     OW18682   1.231   6.714   1.772
 5928SOL    HW118683   1.226   6.708   1.673
 5928SOL    HW218684   1.259   6.806   1.799
 5929SOL     OW18685   1.323   0.135   6.186
 5929SOL    HW118686   1.327   0.186   6.272
 5929SOL    HW218687   1.254   0.064   6.193
 5930SOL     OW18688   6.797   1.876   4.728
 5930SOL    HW118689   6.729   1.803   4.733
 5930SOL    HW218690   6.870   1.858   4.794
 5931SOL     OW18691   6.451   5.354   1.540
 5931SOL    HW118692   6.363   5.400   1.525
 5931SOL    HW218693   6.499   5.346   1.453
 5932SOL     OW18694   2.893   6.579   0.525
 5932SOL    HW118695   2.813   6.520   0.527
 5932SOL    HW218696   2.885   6.649   0.595
 5933SOL     OW18697   6.677   3.737   2.754
 5933SOL    HW118698   6.622   3.807   2.800
 5933SOL    HW218699   6.616   3.675   2.705
 5934SOL     OW18700   2.932   3.673   3.158
 5934SOL    HW118701   2.994   3.732   3.209
 5934SOL    HW218702   2.910   3.717   3.070
 5935SOL     OW18703   3.887   3.385   3.951
 5935SOL    HW118704   3.829   3.354   4.026
 5935SOL    HW218705   3.836   3.377   3.865
 5936SOL     OW18706   5.053   6.020   6.305
 5936SOL    HW118707   5.001   6.064   6.379
 5936SOL    HW218708   5.028   6.061   6.218
 5937SOL     OW18709   1.926   3.621   0.762
 5937SOL    HW118710   2.017   3.636   0.801
 5937SOL    HW218711   1.866   3.581   0.832
 5938SOL     OW18712   2.006   4.606   1.850
 5938SOL    HW118713   2.096   4.566   1.866
 5938SOL    HW218714   2.011   4.669   1.772
 5939SOL     OW18715   3.303   0.590   3.556
 5939SOL    HW118716   3.376   0.628   3.613
 5939SOL    HW218717   3.300   0.491   3.569
 5940SOL     OW18718   3.668   6.018   3.363
 5940SOL    HW118719   3.602   6.072   3.416
 5940SOL    HW218720   3.621   5.973   3.287
 5941SOL     OW18721   6.048   4.700   2.157
 5941SOL    HW118722   6.029   4.643   2.077
 5941SOL    HW218723   6.095   4.645   2.226
 5942SOL     OW18724   4.809   2.181   5.722
 5942SOL    HW118725   4.727   2.144   5.766
 5942SOL    HW218726   4.884   2.116   5.732
 5943SOL     OW18727   1.405   5.900   0.430
 5943SOL    HW118728   1.306   5.886   0.430
 5943SOL    HW218729   1.449   5.833   0.371
 5944SOL     OW18730   4.982   1.787   2.603
 5944SOL    HW118731   4.936   1.741   2.527
 5944SOL    HW218732   5.078   1.760   2.605
 5945SOL     OW18733   0.003   4.825   5.660
 5945SOL    HW118734   6.954   4.839   5.590
 5945SOL    HW218735   0.019   4.727   5.672
 5946SOL     OW18736   4.089   3.151   5.448
 5946SOL    HW118737   4.091   3.156   5.547
 5946SOL    HW218738   3.995   3.144   5.416
 5947SOL     OW18739   4.340   3.332   1.714
 5947SOL    HW118740   4.432   3.370   1.724
 5947SOL    HW218741   4.272   3.404   1.731
 5948SOL     OW18742   3.554   4.896   2.255
 5948SOL    HW118743   3.579   4.830   2.183
 5948SOL    HW218744   3.456   4.889   2.274
 5949SOL     OW18745   4.442   4.832   1.700
 5949SOL    HW118746   4.377   4.766   1.737
 5949SOL    HW218747   4.514   4.851   1.768
 5950SOL     OW18748   6.245   2.401   4.052
 5950SOL    HW118749   6.157   2.370   4.089
 5950SOL    HW218750   6.231   2.487   4.002
 5951SOL     OW18751   1.749   5.356   3.493
 5951SOL    HW118752   1.830   5.343   3.551
 5951SOL    HW218753   1.752   5.447   3.451
 5952SOL     OW18754   0.224   6.876   4.623
 5952SOL    HW118755   0.233   6.829   4.710
 5952SOL    HW218756   0.129   6.871   4.591
 5953SOL     OW18757   0.501   3.204   6.393
 5953SOL    HW118758   0.425   3.149   6.359
 5953SOL    HW218759   0.468   3.295   6.418
 5954SOL     OW18760   0.496   5.144   6.736
 5954SOL    HW118761   0.466   5.065   6.788
 5954SOL    HW218762   0.467   5.228   6.783
 5955SOL     OW18763   5.533   5.612   2.129
 5955SOL    HW118764   5.517   5.514   2.143
 5955SOL    HW218765   5.625   5.636   2.160
 5956SOL     OW18766   5.641   2.307   0.006
 5956SOL    HW118767   5.580   2.230   0.022
 5956SOL    HW218768   5.624   2.345   6.936
 5957SOL     OW18769   6.180   6.814   6.098
 5957SOL    HW118770   6.123   6.732   6.090
 5957SOL    HW218771   6.193   6.855   6.008
 5958SOL     OW18772   6.776   4.981   1.897
 5958SOL    HW118773   6.720   4.900   1.914
 5958SOL    HW218774   6.861   4.975   1.951
 5959SOL     OW18775   2.101   1.894   6.044
 5959SOL    HW118776   2.094   1.852   5.953
 5959SOL    HW218777   2.138   1.986   6.035
 5960SOL     OW18778   3.094   0.718   3.652
 5960SOL    HW118779   3.167   0.681   3.595
 5960SOL    HW218780   3.006   0.684   3.620
 5961SOL     OW18781   2.884   0.799   5.732
 5961SOL    HW118782   2.937   0.715   5.734
 5961SOL    HW218783   2.944   0.876   5.708
 5962SOL     OW18784   4.798   5.351   2.132
 5962SOL    HW118785   4.809   5.364   2.231
 5962SOL    HW218786   4.709   5.308   2.114
 5963SOL     OW18787   3.976   3.602   2.248
 5963SOL    HW118788   3.921   3.522   2.272
 5963SOL    HW218789   3.947   3.680   2.303
 5964SOL     OW18790   0.643   5.053   5.279
 5964SOL    HW118791   0.599   5.032   5.367
 5964SOL    HW218792   0.717   4.988   5.262
 5965SOL     OW18793   2.871   2.408   5.591
 5965SOL    HW118794   2.880   2.471   5.668
 5965SOL    HW218795   2.921   2.444   5.512
 5966SOL     OW18796   2.780   6.022   3.839
 5966SOL    HW118797   2.852   6.074   3.885
 5966SOL    HW218798   2.785   6.037   3.741
 5967SOL     OW18799   4.843   6.816   2.291
 5967SOL    HW118800   4.799   6.732   2.323
 5967SOL    HW218801   4.777   6.870   2.238
 5968SOL     OW18802   0.142   2.971   4.525
 5968SOL    HW118803   0.162   2.885   4.479
 5968SOL    HW218804   0.211   3.039   4.502
 5969SOL     OW18805   5.961   3.648   3.686
 5969SOL    HW118806   5.898   3.653   3.764
 5969SOL    HW218807   6.030   3.577   3.703
 5970SOL     OW18808   1.300   2.919   3.201
 5970SOL    HW118809   1.388   2.874   3.212
 5970SOL    HW218810   1.262   2.895   3.111
 5971SOL     OW18811   2.274   6.901   2.400
 5971SOL    HW118812   2.290   6.954   2.316
 5971SOL    HW218813   2.356   6.905   2.457
 5972SOL     OW18814   4.840   6.309   0.093
 5972SOL    HW118815   4.824   6.309   0.192
 5972SOL    HW218816   4.793   6.386   0.051
 5973SOL     OW18817   1.070   4.402   3.488
 5973SOL    HW118818   1.121   4.419   3.403
 5973SOL    HW218819   1.134   4.384   3.562
 5974SOL     OW18820   0.849   4.033   6.630
 5974SOL    HW118821   0.832   4.027   6.531
 5974SOL    HW218822   0.832   4.126   6.661
 5975SOL     OW18823   2.672   3.030   0.711
 5975SOL    HW118824   2.724   2.982   0.781
 5975SOL    HW218825   2.664   3.127   0.734
 5976SOL     OW18826   3.159   2.953   5.028
 5976SOL    HW118827   3.178   2.875   4.968
 5976SOL    HW218828   3.177   3.038   4.979
 5977SOL     OW18829   0.674   3.777   2.466
 5977SOL    HW118830   0.751   3.714   2.474
 5977SOL    HW218831   0.675   3.820   2.376
 5978SOL     OW18832   5.296   5.388   1.746
 5978SOL    HW118833   5.325   5.478   1.780
 5978SOL    HW218834   5.273   5.329   1.823
 5979SOL     OW18835   0.218   0.405   3.399
 5979SOL    HW118836   0.262   0.382   3.485
 5979SOL    HW218837   0.119   0.396   3.408
 5980SOL     OW18838   6.181   3.870   6.744
 5980SOL    HW118839   6.200   3.853   6.647
 5980SOL    HW218840   6.259   3.917   6.785
 5981SOL     OW18841   4.807   0.921   2.403
 5981SOL    HW118842   4.902   0.951   2.413
 5981SOL    HW218843   4.761   0.923   2.492
 5982SOL     OW18844   6.564   2.016   5.968
 5982SOL    HW118845   6.470   1.991   5.947
 5982SOL    HW218846   6.624   1.984   5.894
 5983SOL     OW18847   1.529   1.040   4.839
 5983SOL    HW118848   1.505   1.132   4.808
 5983SOL    HW218849   1.451   0.998   4.885
 5984SOL     OW18850   0.148   6.591   5.038
 5984SOL    HW118851   0.066   6.630   5.080
 5984SOL    HW218852   0.173   6.507   5.086
 5985SOL     OW18853   4.276   1.880   4.157
 5985SOL    HW118854   4.276   1.788   4.196
 5985SOL    HW218855   4.304   1.946   4.228
 5986SOL     OW18856   3.487   3.232   2.250
 5986SOL    HW118857   3.524   3.222   2.157
 5986SOL    HW218858   3.559   3.211   2.317
 5987SOL     OW18859   3.518   0.044   4.969
 5987SOL    HW118860   3.504   0.142   4.954
 5987SOL    HW218861   3.596   0.013   4.915
 5988SOL     OW18862   4.130   0.082   4.102
 5988SOL    HW118863   4.189   0.025   4.045
 5988SOL    HW218864   4.134   0.049   4.196
 5989SOL     OW18865   3.036   0.600   6.096
 5989SOL    HW118866   3.000   0.661   6.167
 5989SOL    HW218867   2.966   0.586   6.026
 5990SOL     OW18868   3.235   4.678   1.454
 5990SOL    HW118869   3.139   4.661   1.476
 5990SOL    HW218870   3.292   4.649   1.530
 5991SOL     OW18871   2.756   5.012   4.819
 5991SOL    HW118872   2.778   4.923   4.780
 5991SOL    HW218873   2.664   5.039   4.792
 5992SOL     OW18874   4.730   0.309   3.712
 5992SOL    HW118875   4.732   0.253   3.629
 5992SOL    HW218876   4.803   0.279   3.774
 5993SOL     OW18877   2.516   5.711   5.200
 5993SOL    HW118878   2.451   5.705   5.277
 5993SOL    HW218879   2.605   5.740   5.234
 5994SOL     OW18880   6.876   2.158   2.471
 5994SOL    HW118881   6.904   2.121   2.559
 5994SOL    HW218882   6.892   2.090   2.399
 5995SOL     OW18883   7.018   4.433   1.682
 5995SOL    HW118884   0.006   4.365   1.754
 5995SOL    HW218885   6.922   4.452   1.665
 5996SOL     OW18886   0.371   5.216   5.622
 5996SOL    HW118887   0.431   5.146   5.583
 5996SOL    HW218888   0.276   5.197   5.596
 5997SOL     OW18889   0.335   6.673   2.374
 5997SOL    HW118890   0.329   6.617   2.457
 5997SOL    HW218891   0.431   6.695   2.356
 5998SOL     OW18892   5.458   2.187   2.831
 5998SOL    HW118893   5.414   2.136   2.905
 5998SOL    HW218894   5.391   2.248   2.788
 5999SOL     OW18895   1.396   1.551   2.996
 5999SOL    HW118896   1.299   1.571   3.011
 5999SOL    HW218897   1.443   1.549   3.085
 6000SOL     OW18898   4.793   5.668   1.976
 6000SOL    HW118899   4.833   5.632   1.892
 6000SOL    HW218900   4.848   5.639   2.054
 6001SOL     OW18901   6.811   2.222   7.012
 6001SOL    HW118902   6.899   2.221   6.965
 6001SOL    HW218903   6.809   2.296   0.058
 6002SOL     OW18904   1.878   0.081   1.695
 6002SOL    HW118905   1.907   0.102   1.789
 6002SOL    HW218906   1.795   0.026   1.698
 6003SOL     OW18907   4.735   4.142   4.593
 6003SOL    HW118908   4.671   4.121   4.518
 6003SOL    HW218909   4.687   4.135   4.680
 6004SOL     OW18910   0.173   3.158   2.528
 6004SOL    HW118911   0.133   3.184   2.616
 6004SOL    HW218912   0.268   3.187   2.525
 6005SOL     OW18913   3.157   6.019   2.913
 6005SOL    HW118914   3.188   6.071   2.992
 6005SOL    HW218915   3.182   6.068   2.829
 6006SOL     OW18916   2.611   6.591   6.897
 6006SOL    HW118917   2.631   6.648   6.818
 6006SOL    HW218918   2.519   6.611   6.931
 6007SOL     OW18919   5.861   2.616   4.188
 6007SOL    HW118920   5.900   2.699   4.227
 6007SOL    HW218921   5.764   2.629   4.168
 6008SOL     OW18922   2.988   4.428   6.750
 6008SOL    HW118923   3.041   4.380   6.680
 6008SOL    HW218924   2.896   4.446   6.715
 6009SOL     OW18925   2.736   1.954   4.375
 6009SOL    HW118926   2.825   1.914   4.397
 6009SOL    HW218927   2.664   1.886   4.393
 6010SOL     OW18928   1.307   3.844   3.220
 6010SOL    HW118929   1.373   3.875   3.289
 6010SOL    HW218930   1.257   3.765   3.255
 6011SOL     OW18931   5.827   3.511   3.095
 6011SOL    HW118932   5.848   3.562   3.012
 6011SOL    HW218933   5.906   3.456   3.121
 6012SOL     OW18934   6.502   3.263   0.693
 6012SOL    HW118935   6.601   3.258   0.701
 6012SOL    HW218936   6.473   3.359   0.690
 6013SOL     OW18937   5.363   1.210   2.659
 6013SOL    HW118938   5.451   1.162   2.654
 6013SOL    HW218939   5.361   1.283   2.590
 6014SOL     OW18940   5.608   0.069   0.944
 6014SOL    HW118941   5.676   0.046   1.013
 6014SOL    HW218942   5.649   0.062   0.853
 6015SOL     OW18943   6.132   2.069   4.425
 6015SOL    HW118944   6.202   2.013   4.381
 6015SOL    HW218945   6.150   2.074   4.524
 6016SOL     OW18946   1.716   0.159   5.112
 6016SOL    HW118947   1.770   0.080   5.081
 6016SOL    HW218948   1.777   0.236   5.130
 6017SOL     OW18949   6.431   4.986   2.696
 6017SOL    HW118950   6.341   4.952   2.669
 6017SOL    HW218951   6.488   4.997   2.614
 6018SOL     OW18952   2.450   4.191   0.952
 6018SOL    HW118953   2.511   4.116   0.975
 6018SOL    HW218954   2.376   4.158   0.894
 6019SOL     OW18955   3.509   7.006   4.361
 6019SOL    HW118956   3.570   0.028   4.427
 6019SOL    HW218957   3.470   0.056   4.301
 6020SOL     OW18958   3.835   0.539   2.915
 6020SOL    HW118959   3.811   0.487   2.998
 6020SOL    HW218960   3.804   0.634   2.925
 6021SOL     OW18961   4.466   1.280   2.984
 6021SOL    HW118962   4.400   1.328   2.926
 6021SOL    HW218963   4.549   1.337   2.993
 6022SOL     OW18964   4.354   1.867   4.522
 6022SOL    HW118965   4.326   1.783   4.474
 6022SOL    HW218966   4.275   1.908   4.566
 6023SOL     OW18967   6.944   1.385   2.605
 6023SOL    HW118968   6.903   1.303   2.644
 6023SOL    HW218969   7.003   1.429   2.673
 6024SOL     OW18970   0.655   4.546   2.500
 6024SOL    HW118971   0.566   4.530   2.543
 6024SOL    HW218972   0.683   4.641   2.515
 6025SOL     OW18973   4.734   1.761   1.391
 6025SOL    HW118974   4.745   1.860   1.384
 6025SOL    HW218975   4.749   1.719   1.301
 6026SOL     OW18976   0.204   4.980   5.147
 6026SOL    HW118977   0.262   5.049   5.190
 6026SOL    HW218978   0.146   4.938   5.217
 6027SOL     OW18979   2.858   3.587   0.170
 6027SOL    HW118980   2.812   3.610   0.256
 6027SOL    HW218981   2.944   3.637   0.165
 6028SOL     OW18982   1.471   3.745   0.109
 6028SOL    HW118983   1.559   3.754   0.063
 6028SOL    HW218984   1.449   3.830   0.158
 6029SOL     OW18985   2.086   5.777   1.287
 6029SOL    HW118986   2.056   5.840   1.359
 6029SOL    HW218987   2.033   5.795   1.204
 6030SOL     OW18988   1.802   0.374   1.376
 6030SOL    HW118989   1.804   0.290   1.322
 6030SOL    HW218990   1.758   0.447   1.324
 6031SOL     OW18991   5.257   0.098   4.804
 6031SOL    HW118992   5.284   0.192   4.783
 6031SOL    HW218993   5.282   0.077   4.899
 6032SOL     OW18994   0.539   3.369   2.717
 6032SOL    HW118995   0.626   3.413   2.737
 6032SOL    HW218996   0.471   3.397   2.785
 6033SOL     OW18997   1.088   0.862   4.082
 6033SOL    HW118998   1.060   0.814   3.999
 6033SOL    HW218999   1.020   0.931   4.105
 6034SOL     OW19000   1.991   4.081   5.288
 6034SOL    HW119001   2.049   4.118   5.361
 6034SOL    HW219002   1.944   3.999   5.321
 6035SOL     OW19003   6.189   1.342   4.123
 6035SOL    HW119004   6.177   1.401   4.203
 6035SOL    HW219005   6.109   1.283   4.113
 6036SOL     OW19006   0.091   0.058   4.910
 6036SOL    HW119007   0.132   0.139   4.952
 6036SOL    HW219008   0.029   0.086   4.836
 6037SOL     OW19009   5.832   5.856   4.921
 6037SOL    HW119010   5.757   5.804   4.879
 6037SOL    HW219011   5.834   5.948   4.882
 6038SOL     OW19012   5.190   3.789   6.459
 6038SOL    HW119013   5.225   3.862   6.400
 6038SOL    HW219014   5.168   3.710   6.403
 6039SOL     OW19015   3.484   3.818   2.718
 6039SOL    HW119016   3.494   3.917   2.716
 6039SOL    HW219017   3.525   3.778   2.636
 6040SOL     OW19018   0.323   1.612   0.271
 6040SOL    HW119019   0.226   1.595   0.251
 6040SOL    HW219020   0.379   1.547   0.221
 6041SOL     OW19021   0.887   2.577   0.518
 6041SOL    HW119022   0.934   2.525   0.447
 6041SOL    HW219023   0.809   2.524   0.553
 6042SOL     OW19024   4.607   5.555   3.348
 6042SOL    HW119025   4.628   5.540   3.444
 6042SOL    HW219026   4.624   5.471   3.296
 6043SOL     OW19027   0.972   4.430   4.048
 6043SOL    HW119028   1.030   4.480   3.983
 6043SOL    HW219029   0.877   4.463   4.040
 6044SOL     OW19030   0.902   0.687   1.266
 6044SOL    HW119031   0.868   0.781   1.268
 6044SOL    HW219032   0.951   0.667   1.350
 6045SOL     OW19033   7.005   4.026   1.698
 6045SOL    HW119034   6.933   3.970   1.738
 6045SOL    HW219035   0.008   4.100   1.762
 6046SOL     OW19036   2.891   2.421   0.504
 6046SOL    HW119037   2.936   2.340   0.466
 6046SOL    HW219038   2.853   2.399   0.594
 6047SOL     OW19039   6.887   0.028   4.177
 6047SOL    HW119040   6.904   0.074   4.264
 6047SOL    HW219041   6.867   0.097   4.106
 6048SOL     OW19042   4.551   6.651   5.417
 6048SOL    HW119043   4.640   6.670   5.376
 6048SOL    HW219044   4.552   6.678   5.513
 6049SOL     OW19045   6.380   4.819   0.686
 6049SOL    HW119046   6.353   4.836   0.781
 6049SOL    HW219047   6.346   4.730   0.657
 6050SOL     OW19048   5.025   4.542   5.449
 6050SOL    HW119049   4.981   4.577   5.532
 6050SOL    HW219050   5.056   4.448   5.464
 6051SOL     OW19051   2.321   1.527   2.912
 6051SOL    HW119052   2.387   1.601   2.923
 6051SOL    HW219053   2.355   1.462   2.843
 6052SOL     OW19054   6.953   1.034   0.691
 6052SOL    HW119055   6.873   1.092   0.708
 6052SOL    HW219056   0.013   1.074   0.732
 6053SOL     OW19057   1.967   6.715   6.704
 6053SOL    HW119058   1.929   6.737   6.794
 6053SOL    HW219059   2.051   6.766   6.690
 6054SOL     OW19060   2.188   4.374   0.488
 6054SOL    HW119061   2.192   4.275   0.474
 6054SOL    HW219062   2.096   4.407   0.467
 6055SOL     OW19063   4.970   0.493   4.826
 6055SOL    HW119064   4.959   0.483   4.924
 6055SOL    HW219065   4.882   0.515   4.784
 6056SOL     OW19066   4.780   2.125   6.595
 6056SOL    HW119067   4.815   2.195   6.657
 6056SOL    HW219068   4.739   2.051   6.649
 6057SOL     OW19069   3.397   1.286   5.618
 6057SOL    HW119070   3.464   1.252   5.552
 6057SOL    HW219071   3.339   1.355   5.574
 6058SOL     OW19072   5.957   2.428   4.560
 6058SOL    HW119073   6.024   2.405   4.490
 6058SOL    HW219074   5.887   2.357   4.564
 6059SOL     OW19075   6.415   5.004   6.572
 6059SOL    HW119076   6.353   4.943   6.523
 6059SOL    HW219077   6.489   4.951   6.614
 6060SOL     OW19078   4.460   6.058   5.937
 6060SOL    HW119079   4.492   6.153   5.937
 6060SOL    HW219080   4.386   6.048   5.870
 6061SOL     OW19081   2.400   1.977   6.399
 6061SOL    HW119082   2.325   2.042   6.406
 6061SOL    HW219083   2.439   1.961   6.490
 6062SOL     OW19084   2.321   0.345   4.434
 6062SOL    HW119085   2.373   0.261   4.416
 6062SOL    HW219086   2.358   0.419   4.379
 6063SOL     OW19087   4.506   0.667   6.194
 6063SOL    HW119088   4.545   0.756   6.172
 6063SOL    HW219089   4.570   0.614   6.249
 6064SOL     OW19090   1.556   5.232   3.651
 6064SOL    HW119091   1.460   5.256   3.632
 6064SOL    HW219092   1.614   5.269   3.579
 6065SOL     OW19093   0.290   0.507   0.954
 6065SOL    HW119094   0.235   0.494   1.037
 6065SOL    HW219095   0.237   0.559   0.887
 6066SOL     OW19096   4.283   2.761   0.307
 6066SOL    HW119097   4.274   2.686   0.372
 6066SOL    HW219098   4.244   2.733   0.219
 6067SOL     OW19099   6.520   1.871   6.562
 6067SOL    HW119100   6.580   1.895   6.639
 6067SOL    HW219101   6.552   1.785   6.521
 6068SOL     OW19102   4.607   2.590   4.774
 6068SOL    HW119103   4.551   2.613   4.854
 6068SOL    HW219104   4.649   2.673   4.738
 6069SOL     OW19105   6.400   4.909   4.726
 6069SOL    HW119106   6.370   4.841   4.794
 6069SOL    HW219107   6.355   4.996   4.746
 6070SOL     OW19108   4.400   2.099   6.207
 6070SOL    HW119109   4.400   2.085   6.306
 6070SOL    HW219110   4.308   2.083   6.171
 6071SOL     OW19111   4.158   5.815   5.244
 6071SOL    HW119112   4.175   5.734   5.301
 6071SOL    HW219113   4.060   5.823   5.226
 6072SOL     OW19114   0.326   1.824   1.081
 6072SOL    HW119115   0.346   1.727   1.096
 6072SOL    HW219116   0.291   1.864   1.165
 6073SOL     OW19117   6.586   2.619   0.906
 6073SOL    HW119118   6.519   2.652   0.972
 6073SOL    HW219119   6.622   2.695   0.853
 6074SOL     OW19120   0.636   0.302   4.780
 6074SOL    HW119121   0.579   0.234   4.826
 6074SOL    HW219122   0.631   0.288   4.681
 6075SOL     OW19123   5.825   3.946   6.706
 6075SOL    HW119124   5.908   3.953   6.651
 6075SOL    HW219125   5.845   3.969   6.801
 6076SOL     OW19126   2.051   5.759   4.182
 6076SOL    HW119127   2.077   5.816   4.104
 6076SOL    HW219128   1.966   5.711   4.161
 6077SOL     OW19129   6.177   6.442   2.109
 6077SOL    HW119130   6.217   6.519   2.059
 6077SOL    HW219131   6.078   6.441   2.094
 6078SOL     OW19132   2.471   4.412   3.740
 6078SOL    HW119133   2.530   4.442   3.666
 6078SOL    HW219134   2.424   4.327   3.713
 6079SOL     OW19135   1.955   2.026   6.745
 6079SOL    HW119136   1.997   2.117   6.744
 6079SOL    HW219137   2.014   1.963   6.795
 6080SOL     OW19138   5.688   2.513   1.679
 6080SOL    HW119139   5.662   2.591   1.736
 6080SOL    HW219140   5.676   2.429   1.730
 6081SOL     OW19141   6.967   3.807   3.760
 6081SOL    HW119142   0.000   3.872   3.707
 6081SOL    HW219143   6.871   3.814   3.733
 6082SOL     OW19144   4.225   1.236   4.042
 6082SOL    HW119145   4.304   1.296   4.048
 6082SOL    HW219146   4.155   1.279   3.985
 6083SOL     OW19147   1.559   6.031   0.085
 6083SOL    HW119148   1.463   6.052   0.099
 6083SOL    HW219149   1.568   5.948   0.030
 6084SOL     OW19150   0.188   5.006   5.708
 6084SOL    HW119151   0.114   4.949   5.673
 6084SOL    HW219152   0.247   4.952   5.767
 6085SOL     OW19153   5.648   4.163   0.893
 6085SOL    HW119154   5.562   4.207   0.866
 6085SOL    HW219155   5.692   4.125   0.812
 6086SOL     OW19156   3.071   2.050   3.470
 6086SOL    HW119157   3.063   2.135   3.420
 6086SOL    HW219158   3.119   1.982   3.414
 6087SOL     OW19159   5.268   6.980   6.552
 6087SOL    HW119160   5.182   6.932   6.568
 6087SOL    HW219161   5.249   0.056   6.534
 6088SOL     OW19162   0.959   0.088   4.790
 6088SOL    HW119163   1.037   0.026   4.786
 6088SOL    HW219164   0.889   0.059   4.725
 6089SOL     OW19165   6.755   3.473   0.226
 6089SOL    HW119166   6.710   3.429   0.149
 6089SOL    HW219167   6.854   3.477   0.209
 6090SOL     OW19168   0.791   5.641   4.617
 6090SOL    HW119169   0.702   5.644   4.661
 6090SOL    HW219170   0.800   5.720   4.556
 6091SOL     OW19171   6.004   1.750   1.947
 6091SOL    HW119172   6.089   1.761   1.998
 6091SOL    HW219173   5.989   1.830   1.889
 6092SOL     OW19174   1.863   2.069   1.865
 6092SOL    HW119175   1.935   2.087   1.799
 6092SOL    HW219176   1.857   1.970   1.881
 6093SOL     OW19177   0.957   3.101   0.911
 6093SOL    HW119178   1.035   3.162   0.907
 6093SOL    HW219179   0.952   3.058   1.001
 6094SOL     OW19180   1.184   0.893   1.538
 6094SOL    HW119181   1.190   0.876   1.439
 6094SOL    HW219182   1.102   0.850   1.575
 6095SOL     OW19183   6.199   3.706   5.886
 6095SOL    HW119184   6.232   3.779   5.946
 6095SOL    HW219185   6.212   3.733   5.790
 6096SOL     OW19186   3.397   2.063   3.594
 6096SOL    HW119187   3.430   1.976   3.559
 6096SOL    HW219188   3.402   2.063   3.694
 6097SOL     OW19189   2.858   2.025   1.712
 6097SOL    HW119190   2.936   2.019   1.774
 6097SOL    HW219191   2.832   2.121   1.701
 6098SOL     OW19192   2.050   2.258   5.864
 6098SOL    HW119193   2.088   2.207   5.941
 6098SOL    HW219194   2.122   2.313   5.822
 6099SOL     OW19195   5.705   5.927   5.188
 6099SOL    HW119196   5.618   5.905   5.144
 6099SOL    HW219197   5.779   5.917   5.122
 6100SOL     OW19198   6.519   2.908   6.952
 6100SOL    HW119199   6.421   2.899   6.974
 6100SOL    HW219200   6.569   2.833   6.995
 6101SOL     OW19201   6.123   1.215   4.982
 6101SOL    HW119202   6.084   1.125   4.964
 6101SOL    HW219203   6.078   1.257   5.060
 6102SOL     OW19204   2.722   0.442   5.373
 6102SOL    HW119205   2.697   0.392   5.289
 6102SOL    HW219206   2.802   0.500   5.354
 6103SOL     OW19207   6.520   6.401   5.711
 6103SOL    HW119208   6.462   6.475   5.680
 6103SOL    HW219209   6.500   6.380   5.807
 6104SOL     OW19210   6.961   2.569   6.630
 6104SOL    HW119211   7.019   2.567   6.549
 6104SOL    HW219212   6.929   2.477   6.651
 6105SOL     OW19213   3.178   6.009   4.353
 6105SOL    HW119214   3.222   5.936   4.404
 6105SOL    HW219215   3.134   6.073   4.416
 6106SOL     OW19216   3.190   5.487   5.529
 6106SOL    HW119217   3.110   5.540   5.504
 6106SOL    HW219218   3.163   5.413   5.590
 6107SOL     OW19219   1.908   4.764   5.438
 6107SOL    HW119220   1.938   4.851   5.477
 6107SOL    HW219221   1.951   4.688   5.488
 6108SOL     OW19222   0.804   2.428   5.297
 6108SOL    HW119223   0.816   2.341   5.250
 6108SOL    HW219224   0.813   2.503   5.231
 6109SOL     OW19225   6.167   4.656   1.265
 6109SOL    HW119226   6.143   4.561   1.242
 6109SOL    HW219227   6.181   4.707   1.180
 6110SOL     OW19228   3.453   1.406   4.693
 6110SOL    HW119229   3.485   1.487   4.645
 6110SOL    HW219230   3.512   1.388   4.772
 6111SOL     OW19231   1.432   4.799   3.090
 6111SOL    HW119232   1.528   4.811   3.116
 6111SOL    HW219233   1.375   4.862   3.142
 6112SOL     OW19234   0.767   1.531   2.528
 6112SOL    HW119235   0.674   1.525   2.494
 6112SOL    HW219236   0.775   1.609   2.590
 6113SOL     OW19237   1.307   6.428   5.787
 6113SOL    HW119238   1.382   6.444   5.851
 6113SOL    HW219239   1.329   6.468   5.699
 6114SOL     OW19240   5.210   5.743   0.592
 6114SOL    HW119241   5.299   5.716   0.630
 6114SOL    HW219242   5.169   5.813   0.650
 6115SOL     OW19243   5.404   5.213   2.628
 6115SOL    HW119244   5.390   5.143   2.698
 6115SOL    HW219245   5.418   5.169   2.540
 6116SOL     OW19246   4.320   1.382   1.857
 6116SOL    HW119247   4.333   1.283   1.866
 6116SOL    HW219248   4.335   1.409   1.762
 6117SOL     OW19249   5.410   6.960   4.456
 6117SOL    HW119250   5.324   6.958   4.406
 6117SOL    HW219251   5.436   0.034   4.474
 6118SOL     OW19252   6.011   0.598   3.318
 6118SOL    HW119253   6.081   0.556   3.375
 6118SOL    HW219254   6.054   0.662   3.254
 6119SOL     OW19255   6.768   5.481   4.477
 6119SOL    HW119256   6.759   5.569   4.521
 6119SOL    HW219257   6.840   5.485   4.408
 6120SOL     OW19258   2.472   0.818   3.031
 6120SOL    HW119259   2.537   0.742   3.035
 6120SOL    HW219260   2.470   0.864   3.120
 6121SOL     OW19261   6.826   2.827   4.495
 6121SOL    HW119262   6.905   2.782   4.538
 6121SOL    HW219263   6.785   2.766   4.427
 6122SOL     OW19264   4.738   5.797   2.949
 6122SOL    HW119265   4.644   5.775   2.924
 6122SOL    HW219266   4.749   5.793   3.048
 6123SOL     OW19267   5.857   1.447   2.404
 6123SOL    HW119268   5.891   1.391   2.480
 6123SOL    HW219269   5.912   1.430   2.323
 6124SOL     OW19270   3.841   0.245   5.764
 6124SOL    HW119271   3.774   0.284   5.700
 6124SOL    HW219272   3.842   0.300   5.848
 6125SOL     OW19273   2.240   5.721   1.687
 6125SOL    HW119274   2.159   5.774   1.712
 6125SOL    HW219275   2.305   5.780   1.638
 6126SOL     OW19276   5.264   5.415   2.555
 6126SOL    HW119277   5.230   5.447   2.644
 6126SOL    HW219278   5.321   5.334   2.568
 6127SOL     OW19279   1.914   5.315   1.614
 6127SOL    HW119280   1.854   5.283   1.687
 6127SOL    HW219281   2.007   5.327   1.649
 6128SOL     OW19282   5.395   1.681   0.854
 6128SOL    HW119283   5.358   1.669   0.762
 6128SOL    HW219284   5.463   1.754   0.853
 6129SOL     OW19285   5.884   4.501   3.445
 6129SOL    HW119286   5.813   4.571   3.441
 6129SOL    HW219287   5.973   4.544   3.459
 6130SOL     OW19288   5.630   3.749   2.315
 6130SOL    HW119289   5.567   3.801   2.374
 6130SOL    HW219290   5.602   3.760   2.220
 6131SOL     OW19291   5.882   1.317   5.113
 6131SOL    HW119292   5.798   1.285   5.069
 6131SOL    HW219293   5.915   1.248   5.177
 6132SOL     OW19294   4.888   2.629   1.177
 6132SOL    HW119295   4.975   2.639   1.129
 6132SOL    HW219296   4.832   2.560   1.132
 6133SOL     OW19297   0.763   4.456   0.935
 6133SOL    HW119298   0.779   4.531   0.998
 6133SOL    HW219299   0.783   4.486   0.842
 6134SOL     OW19300   4.677   3.767   6.516
 6134SOL    HW119301   4.697   3.768   6.418
 6134SOL    HW219302   4.749   3.718   6.565
 6135SOL     OW19303   5.711   0.215   1.165
 6135SOL    HW119304   5.708   0.228   1.066
 6135SOL    HW219305   5.749   0.124   1.185
 6136SOL     OW19306   0.656   2.206   1.511
 6136SOL    HW119307   0.745   2.226   1.470
 6136SOL    HW219308   0.670   2.162   1.600
 6137SOL     OW19309   2.973   6.853   6.133
 6137SOL    HW119310   3.021   6.922   6.187
 6137SOL    HW219311   2.963   6.886   6.039
 6138SOL     OW19312   4.218   6.722   2.940
 6138SOL    HW119313   4.149   6.718   2.868
 6138SOL    HW219314   4.173   6.722   3.029
 6139SOL     OW19315   1.968   4.493   4.063
 6139SOL    HW119316   1.991   4.537   3.976
 6139SOL    HW219317   2.052   4.467   4.111
 6140SOL     OW19318   2.312   6.412   0.745
 6140SOL    HW119319   2.366   6.425   0.828
 6140SOL    HW219320   2.215   6.405   0.768
 6141SOL     OW19321   6.437   5.800   6.022
 6141SOL    HW119322   6.346   5.823   5.987
 6141SOL    HW219323   6.435   5.801   6.122
 6142SOL     OW19324   0.013   4.236   1.887
 6142SOL    HW119325   0.110   4.211   1.887
 6142SOL    HW219326   6.996   4.226   1.979
 6143SOL     OW19327   6.068   5.477   6.812
 6143SOL    HW119328   6.051   5.571   6.840
 6143SOL    HW219329   6.001   5.451   6.742
 6144SOL     OW19330   0.629   4.317   3.904
 6144SOL    HW119331   0.671   4.233   3.939
 6144SOL    HW219332   0.607   4.378   3.980
 6145SOL     OW19333   5.461   6.040   3.552
 6145SOL    HW119334   5.389   6.029   3.484
 6145SOL    HW219335   5.520   5.959   3.552
 6146SOL     OW19336   5.773   1.427   2.988
 6146SOL    HW119337   5.781   1.424   3.088
 6146SOL    HW219338   5.834   1.358   2.948
 6147SOL     OW19339   1.824   3.353   3.351
 6147SOL    HW119340   1.762   3.430   3.368
 6147SOL    HW219341   1.778   3.268   3.375
 6148SOL     OW19342   6.473   6.634   4.394
 6148SOL    HW119343   6.562   6.626   4.348
 6148SOL    HW219344   6.426   6.546   4.391
 6149SOL     OW19345   2.322   6.463   3.650
 6149SOL    HW119346   2.343   6.425   3.560
 6149SOL    HW219347   2.364   6.407   3.721
 6150SOL     OW19348   4.717   5.321   5.835
 6150SOL    HW119349   4.738   5.304   5.739
 6150SOL    HW219350   4.618   5.311   5.850
 6151SOL     OW19351   4.922   2.547   5.818
 6151SOL    HW119352   4.831   2.542   5.860
 6151SOL    HW219353   4.935   2.469   5.757
 6152SOL     OW19354   6.637   4.511   6.840
 6152SOL    HW119355   6.677   4.579   6.778
 6152SOL    HW219356   6.595   4.438   6.787
 6153SOL     OW19357   4.579   3.233   1.141
 6153SOL    HW119358   4.608   3.283   1.222
 6153SOL    HW219359   4.500   3.176   1.163
 6154SOL     OW19360   5.266   2.961   3.172
 6154SOL    HW119361   5.283   2.906   3.253
 6154SOL    HW219362   5.179   2.934   3.130
 6155SOL     OW19363   0.538   4.016   5.020
 6155SOL    HW119364   0.559   3.918   5.026
 6155SOL    HW219365   0.451   4.029   4.973
 6156SOL     OW19366   6.569   0.236   3.745
 6156SOL    HW119367   6.556   0.266   3.840
 6156SOL    HW219368   6.653   0.182   3.739
 6157SOL     OW19369   2.487   1.308   4.065
 6157SOL    HW119370   2.431   1.383   4.101
 6157SOL    HW219371   2.499   1.320   3.967
 6158SOL     OW19372   5.250   1.076   6.063
 6158SOL    HW119373   5.276   1.068   6.160
 6158SOL    HW219374   5.286   1.163   6.027
 6159SOL     OW19375   5.111   3.247   6.701
 6159SOL    HW119376   5.128   3.346   6.697
 6159SOL    HW219377   5.136   3.206   6.613
 6160SOL     OW19378   6.001   5.826   1.624
 6160SOL    HW119379   6.070   5.885   1.666
 6160SOL    HW219380   6.019   5.731   1.647
 6161SOL     OW19381   5.844   0.615   5.954
 6161SOL    HW119382   5.858   0.650   6.046
 6161SOL    HW219383   5.786   0.534   5.957
 6162SOL     OW19384   6.263   4.761   4.339
 6162SOL    HW119385   6.187   4.826   4.332
 6162SOL    HW219386   6.281   4.721   4.249
 6163SOL     OW19387   6.455   4.160   2.379
 6163SOL    HW119388   6.458   4.069   2.421
 6163SOL    HW219389   6.452   4.229   2.451
 6164SOL     OW19390   4.086   2.414   0.533
 6164SOL    HW119391   3.991   2.408   0.564
 6164SOL    HW219392   4.092   2.383   0.438
 6165SOL     OW19393   4.039   5.994   0.060
 6165SOL    HW119394   4.066   6.085   0.029
 6165SOL    HW219395   3.952   6.000   0.108
 6166SOL     OW19396   2.935   1.989   6.243
 6166SOL    HW119397   2.848   2.035   6.223
 6166SOL    HW219398   2.945   1.979   6.342
 6167SOL     OW19399   6.874   4.139   3.383
 6167SOL    HW119400   6.819   4.108   3.460
 6167SOL    HW219401   6.955   4.081   3.374
 6168SOL     OW19402   0.161   3.181   2.844
 6168SOL    HW119403   0.132   3.086   2.828
 6168SOL    HW219404   0.097   3.224   2.909
 6169SOL     OW19405   2.029   4.189   2.250
 6169SOL    HW119406   1.930   4.172   2.246
 6169SOL    HW219407   2.078   4.104   2.230
 6170SOL     OW19408   0.253   3.209   4.839
 6170SOL    HW119409   0.192   3.235   4.764
 6170SOL    HW219410   0.348   3.213   4.808
 6171SOL     OW19411   0.288   0.181   6.397
 6171SOL    HW119412   0.281   0.179   6.497
 6171SOL    HW219413   0.239   0.261   6.362
 6172SOL     OW19414   0.633   3.479   3.274
 6172SOL    HW119415   0.572   3.556   3.292
 6172SOL    HW219416   0.711   3.510   3.220
 6173SOL     OW19417   0.026   6.270   3.434
 6173SOL    HW119418   0.105   6.240   3.488
 6173SOL    HW219419   7.001   6.346   3.480
 6174SOL     OW19420   6.145   3.946   2.465
 6174SOL    HW119421   6.073   3.878   2.453
 6174SOL    HW219422   6.124   4.026   2.410
 6175SOL     OW19423   2.996   2.413   5.892
 6175SOL    HW119424   2.934   2.352   5.942
 6175SOL    HW219425   3.039   2.362   5.817
 6176SOL     OW19426   4.505   3.781   5.749
 6176SOL    HW119427   4.526   3.712   5.680
 6176SOL    HW219428   4.586   3.797   5.806
 6177SOL     OW19429   6.188   1.178   1.778
 6177SOL    HW119430   6.139   1.102   1.820
 6177SOL    HW219431   6.256   1.143   1.714
 6178SOL     OW19432   3.847   4.535   1.375
 6178SOL    HW119433   3.770   4.585   1.416
 6178SOL    HW219434   3.933   4.568   1.413
 6179SOL     OW19435   5.817   4.913   3.335
 6179SOL    HW119436   5.878   4.873   3.267
 6179SOL    HW219437   5.786   4.842   3.398
 6180SOL     OW19438   3.073   3.988   0.319
 6180SOL    HW119439   2.989   3.983   0.265
 6180SOL    HW219440   3.099   3.895   0.348
 6181SOL     OW19441   5.728   5.894   6.469
 6181SOL    HW119442   5.690   5.804   6.446
 6181SOL    HW219443   5.682   5.964   6.414
 6182SOL     OW19444   3.585   2.431   0.687
 6182SOL    HW119445   3.509   2.477   0.641
 6182SOL    HW219446   3.549   2.364   0.752
 6183SOL     OW19447   0.760   0.516   0.658
 6183SOL    HW119448   0.758   0.463   0.573
 6183SOL    HW219449   0.755   0.455   0.736
 6184SOL     OW19450   2.428   0.502   5.716
 6184SOL    HW119451   2.504   0.522   5.778
 6184SOL    HW219452   2.457   0.518   5.622
 6185SOL     OW19453   3.549   3.074   5.667
 6185SOL    HW119454   3.526   3.096   5.762
 6185SOL    HW219455   3.648   3.079   5.655
 6186SOL     OW19456   0.105   2.092   2.049
 6186SOL    HW119457   0.019   2.136   2.023
 6186SOL    HW219458   0.139   2.038   1.972
 6187SOL     OW19459   5.441   1.718   5.836
 6187SOL    HW119460   5.364   1.769   5.873
 6187SOL    HW219461   5.416   1.622   5.824
 6188SOL     OW19462   1.143   1.630   4.887
 6188SOL    HW119463   1.230   1.656   4.844
 6188SOL    HW219464   1.162   1.572   4.966
 6189SOL     OW19465   6.406   6.601   1.451
 6189SOL    HW119466   6.488   6.657   1.460
 6189SOL    HW219467   6.375   6.574   1.542
 6190SOL     OW19468   0.562   2.572   5.272
 6190SOL    HW119469   0.497   2.498   5.249
 6190SOL    HW219470   0.613   2.597   5.190
 6191SOL     OW19471   3.938   3.622   6.897
 6191SOL    HW119472   3.872   3.653   6.828
 6191SOL    HW219473   3.937   3.522   6.902
 6192SOL     OW19474   2.805   1.492   0.603
 6192SOL    HW119475   2.761   1.529   0.684
 6192SOL    HW219476   2.870   1.421   0.629
 6193SOL     OW19477   4.546   5.913   6.570
 6193SOL    HW119478   4.465   5.951   6.613
 6193SOL    HW219479   4.558   5.818   6.600
 6194SOL     OW19480   6.484   0.286   6.040
 6194SOL    HW119481   6.441   0.337   5.965
 6194SOL    HW219482   6.417   0.224   6.081
 6195SOL     OW19483   6.893   6.331   5.865
 6195SOL    HW119484   6.846   6.334   5.953
 6195SOL    HW219485   6.990   6.353   5.878
 6196SOL     OW19486   5.723   3.694   3.249
 6196SOL    HW119487   5.758   3.638   3.174
 6196SOL    HW219488   5.627   3.715   3.232
 6197SOL     OW19489   3.070   5.882   2.027
 6197SOL    HW119490   3.134   5.858   2.100
 6197SOL    HW219491   3.075   5.981   2.010
 6198SOL     OW19492   6.439   0.622   0.048
 6198SOL    HW119493   6.447   0.719   0.073
 6198SOL    HW219494   6.343   0.596   0.046
 6199SOL     OW19495   1.097   0.034   0.269
 6199SOL    HW119496   1.161   0.034   0.346
 6199SOL    HW219497   1.088   0.127   0.234
 6200SOL     OW19498   2.111   1.743   2.034
 6200SOL    HW119499   2.206   1.738   2.004
 6200SOL    HW219500   2.103   1.809   2.109
 6201SOL     OW19501   6.975   4.357   3.561
 6201SOL    HW119502   0.053   4.356   3.570
 6201SOL    HW219503   6.944   4.270   3.521
 6202SOL     OW19504   6.330   1.438   2.401
 6202SOL    HW119505   6.261   1.463   2.333
 6202SOL    HW219506   6.397   1.512   2.410
 6203SOL     OW19507   6.836   6.977   1.965
 6203SOL    HW119508   6.919   7.004   2.014
 6203SOL    HW219509   6.765   0.024   1.981
 6204SOL     OW19510   2.434   0.313   4.939
 6204SOL    HW119511   2.402   0.344   4.849
 6204SOL    HW219512   2.367   0.339   5.009
 6205SOL     OW19513   4.855   4.849   3.225
 6205SOL    HW119514   4.829   4.802   3.309
 6205SOL    HW219515   4.891   4.940   3.247
 6206SOL     OW19516   5.933   1.810   4.450
 6206SOL    HW119517   5.935   1.909   4.434
 6206SOL    HW219518   6.026   1.774   4.454
 6207SOL     OW19519   2.248   4.750   4.593
 6207SOL    HW119520   2.292   4.664   4.620
 6207SOL    HW219521   2.317   4.823   4.590
 6208SOL     OW19522   3.651   3.550   5.498
 6208SOL    HW119523   3.587   3.477   5.522
 6208SOL    HW219524   3.743   3.526   5.531
 6209SOL     OW19525   3.376   2.313   1.414
 6209SOL    HW119526   3.282   2.345   1.405
 6209SOL    HW219527   3.398   2.251   1.339
 6210SOL     OW19528   4.821   2.190   4.103
 6210SOL    HW119529   4.796   2.148   4.190
 6210SOL    HW219530   4.917   2.218   4.106
 6211SOL     OW19531   5.752   4.807   5.500
 6211SOL    HW119532   5.753   4.710   5.475
 6211SOL    HW219533   5.672   4.826   5.557
 6212SOL     OW19534   4.409   5.087   4.787
 6212SOL    HW119535   4.460   5.038   4.716
 6212SOL    HW219536   4.318   5.108   4.753
 6213SOL     OW19537   4.192   6.099   0.281
 6213SOL    HW119538   4.105   6.144   0.302
 6213SOL    HW219539   4.185   6.055   0.191
 6214SOL     OW19540   6.731   5.761   6.117
 6214SOL    HW119541   6.662   5.689   6.114
 6214SOL    HW219542   6.754   5.788   6.023
 6215SOL     OW19543   5.462   2.546   6.196
 6215SOL    HW119544   5.554   2.524   6.163
 6215SOL    HW219545   5.454   2.519   6.292
 6216SOL     OW19546   4.611   2.377   3.662
 6216SOL    HW119547   4.602   2.333   3.752
 6216SOL    HW219548   4.681   2.448   3.667
 6217SOL     OW19549   0.314   4.237   2.643
 6217SOL    HW119550   0.387   4.185   2.600
 6217SOL    HW219551   0.227   4.188   2.632
 6218SOL     OW19552   4.269   6.346   0.241
 6218SOL    HW119553   4.331   6.379   0.311
 6218SOL    HW219554   4.244   6.251   0.260
 6219SOL     OW19555   1.764   1.068   6.153
 6219SOL    HW119556   1.676   1.072   6.104
 6219SOL    HW219557   1.837   1.100   6.093
 6220SOL     OW19558   3.849   0.188   0.644
 6220SOL    HW119559   3.903   0.122   0.592
 6220SOL    HW219560   3.864   0.174   0.742
 6221SOL     OW19561   5.718   5.570   7.018
 6221SOL    HW119562   5.619   5.577   7.013
 6221SOL    HW219563   5.750   5.501   6.952
 6222SOL     OW19564   6.232   1.797   2.123
 6222SOL    HW119565   6.327   1.768   2.136
 6222SOL    HW219566   6.207   1.861   2.196
 6223SOL     OW19567   0.482   4.989   3.727
 6223SOL    HW119568   0.427   4.991   3.643
 6223SOL    HW219569   0.562   4.930   3.713
 6224SOL     OW19570   3.882   0.681   0.160
 6224SOL    HW119571   3.929   0.593   0.171
 6224SOL    HW219572   3.851   0.714   0.249
 6225SOL     OW19573   4.699   6.408   6.658
 6225SOL    HW119574   4.798   6.414   6.646
 6225SOL    HW219575   4.678   6.363   6.745
 6226SOL     OW19576   1.457   1.320   4.744
 6226SOL    HW119577   1.543   1.340   4.698
 6226SOL    HW219578   1.384   1.377   4.706
 6227SOL     OW19579   2.806   4.790   5.222
 6227SOL    HW119580   2.712   4.790   5.189
 6227SOL    HW219581   2.851   4.704   5.196
 6228SOL     OW19582   1.254   3.002   3.782
 6228SOL    HW119583   1.286   3.064   3.854
 6228SOL    HW219584   1.213   3.054   3.708
 6229SOL     OW19585   0.333   3.152   4.512
 6229SOL    HW119586   0.402   3.109   4.570
 6229SOL    HW219587   0.322   3.248   4.539
 6230SOL     OW19588   0.055   0.927   1.877
 6230SOL    HW119589   6.980   0.927   1.905
 6230SOL    HW219590   0.068   0.862   1.802
 6231SOL     OW19591   1.419   5.079   6.652
 6231SOL    HW119592   1.448   5.089   6.748
 6231SOL    HW219593   1.428   4.984   6.625
 6232SOL     OW19594   4.178   1.354   6.209
 6232SOL    HW119595   4.128   1.286   6.155
 6232SOL    HW219596   4.215   1.311   6.291
 6233SOL     OW19597   6.872   3.381   1.625
 6233SOL    HW119598   6.940   3.337   1.684
 6233SOL    HW219599   6.919   3.425   1.548
 6234SOL     OW19600   4.457   5.772   4.901
 6234SOL    HW119601   4.426   5.734   4.814
 6234SOL    HW219602   4.544   5.819   4.889
 6235SOL     OW19603   6.623   0.393   2.872
 6235SOL    HW119604   6.586   0.308   2.835
 6235SOL    HW219605   6.685   0.435   2.806
 6236SOL     OW19606   0.393   5.608   1.651
 6236SOL    HW119607   0.431   5.546   1.720
 6236SOL    HW219608   0.465   5.669   1.617
 6237SOL     OW19609   2.955   1.315   0.719
 6237SOL    HW119610   3.045   1.297   0.759
 6237SOL    HW219611   2.915   1.229   0.688
 6238SOL     OW19612   2.245   0.370   4.006
 6238SOL    HW119613   2.183   0.341   3.933
 6238SOL    HW219614   2.192   0.412   4.080
 6239SOL     OW19615   4.639   1.205   3.871
 6239SOL    HW119616   4.640   1.111   3.906
 6239SOL    HW219617   4.700   1.212   3.793
 6240SOL     OW19618   3.723   3.026   3.615
 6240SOL    HW119619   3.649   2.978   3.663
 6240SOL    HW219620   3.778   3.076   3.682
 6241SOL     OW19621   3.527   0.416   3.222
 6241SOL    HW119622   3.481   0.363   3.293
 6241SOL    HW219623   3.478   0.502   3.207
 6242SOL     OW19624   3.067   1.986   3.137
 6242SOL    HW119625   3.108   1.896   3.151
 6242SOL    HW219626   3.003   1.983   3.060
 6243SOL     OW19627   4.585   1.832   6.703
 6243SOL    HW119628   4.658   1.898   6.724
 6243SOL    HW219629   4.618   1.739   6.720
 6244SOL     OW19630   5.516   3.887   2.521
 6244SOL    HW119631   5.466   3.974   2.520
 6244SOL    HW219632   5.491   3.836   2.603
 6245SOL     OW19633   6.890   4.424   2.579
 6245SOL    HW119634   6.834   4.349   2.544
 6245SOL    HW219635   6.910   4.488   2.505
 6246SOL     OW19636   6.655   6.917   4.215
 6246SOL    HW119637   6.741   6.963   4.194
 6246SOL    HW219638   6.668   6.818   4.212
 6247SOL     OW19639   6.894   6.448   3.590
 6247SOL    HW119640   6.913   6.523   3.527
 6247SOL    HW219641   6.873   6.484   3.680
 6248SOL     OW19642   3.881   2.790   5.951
 6248SOL    HW119643   3.828   2.868   5.983
 6248SOL    HW219644   3.831   2.742   5.879
 6249SOL     OW19645   5.801   2.838   1.661
 6249SOL    HW119646   5.717   2.832   1.607
 6249SOL    HW219647   5.857   2.757   1.644
 6250SOL     OW19648   6.448   0.814   0.228
 6250SOL    HW119649   6.365   0.848   0.272
 6250SOL    HW219650   6.491   0.746   0.287
 6251SOL     OW19651   2.569   0.139   3.952
 6251SOL    HW119652   2.580   0.235   3.927
 6251SOL    HW219653   2.635   0.083   3.901
 6252SOL     OW19654   3.097   5.634   6.692
 6252SOL    HW119655   3.196   5.640   6.684
 6252SOL    HW219656   3.056   5.724   6.676
 6253SOL     OW19657   3.511   5.475   4.922
 6253SOL    HW119658   3.531   5.381   4.949
 6253SOL    HW219659   3.563   5.538   4.981
 6254SOL     OW19660   0.483   6.976   1.352
 6254SOL    HW119661   0.565   7.005   1.302
 6254SOL    HW219662   0.504   6.966   1.449
 6255SOL     OW19663   0.724   1.660   1.977
 6255SOL    HW119664   0.636   1.616   1.960
 6255SOL    HW219665   0.798   1.600   1.946
 6256SOL     OW19666   5.461   6.352   2.450
 6256SOL    HW119667   5.560   6.358   2.469
 6256SOL    HW219668   5.424   6.444   2.437
 6257SOL     OW19669   3.192   3.999   1.265
 6257SOL    HW119670   3.198   4.038   1.173
 6257SOL    HW219671   3.284   3.986   1.301
 6258SOL     OW19672   3.927   5.193   4.892
 6258SOL    HW119673   3.992   5.225   4.961
 6258SOL    HW219674   3.912   5.265   4.824
 6259SOL     OW19675   3.513   0.459   4.421
 6259SOL    HW119676   3.426   0.480   4.375
 6259SOL    HW219677   3.579   0.425   4.354
 6260SOL     OW19678   1.381   1.312   6.911
 6260SOL    HW119679   1.323   1.256   6.970
 6260SOL    HW219680   1.339   1.402   6.898
 6261SOL     OW19681   3.646   0.111   0.911
 6261SOL    HW119682   3.555   0.152   0.912
 6261SOL    HW219683   3.715   0.184   0.913
 6262SOL     OW19684   5.402   0.355   2.127
 6262SOL    HW119685   5.370   0.450   2.139
 6262SOL    HW219686   5.401   0.332   2.030
 6263SOL     OW19687   6.086   6.280   5.823
 6263SOL    HW119688   6.004   6.224   5.829
 6263SOL    HW219689   6.068   6.360   5.766
 6264SOL     OW19690   2.675   6.821   0.108
 6264SOL    HW119691   2.650   6.742   0.164
 6264SOL    HW219692   2.605   6.835   0.038
 6265SOL     OW19693   5.006   0.287   6.565
 6265SOL    HW119694   4.998   0.347   6.485
 6265SOL    HW219695   5.081   0.223   6.550
 6266SOL     OW19696   2.461   5.098   3.310
 6266SOL    HW119697   2.498   5.091   3.217
 6266SOL    HW219698   2.534   5.083   3.376
 6267SOL     OW19699   2.703   6.320   4.720
 6267SOL    HW119700   2.727   6.349   4.813
 6267SOL    HW219701   2.699   6.220   4.717
 6268SOL     OW19702   3.437   1.277   0.965
 6268SOL    HW119703   3.510   1.323   0.913
 6268SOL    HW219704   3.448   1.297   1.062
 6269SOL     OW19705   6.271   4.931   0.223
 6269SOL    HW119706   6.347   4.979   0.180
 6269SOL    HW219707   6.193   4.993   0.232
 6270SOL     OW19708   2.108   5.464   0.576
 6270SOL    HW119709   2.060   5.414   0.648
 6270SOL    HW219710   2.154   5.544   0.616
 6271SOL     OW19711   6.504   3.328   5.683
 6271SOL    HW119712   6.410   3.305   5.657
 6271SOL    HW219713   6.504   3.376   5.770
 6272SOL     OW19714   6.868   0.178   0.489
 6272SOL    HW119715   6.834   0.237   0.416
 6272SOL    HW219716   6.859   0.082   0.461
 6273SOL     OW19717   0.410   6.633   1.288
 6273SOL    HW119718   0.379   6.712   1.235
 6273SOL    HW219719   0.354   6.623   1.370
 6274SOL     OW19720   3.257   5.573   3.576
 6274SOL    HW119721   3.293   5.565   3.483
 6274SOL    HW219722   3.236   5.483   3.613
 6275SOL     OW19723   2.092   5.441   6.936
 6275SOL    HW119724   2.065   5.387   7.015
 6275SOL    HW219725   2.143   5.383   6.872
 6276SOL     OW19726   1.853   4.955   2.828
 6276SOL    HW119727   1.890   4.904   2.751
 6276SOL    HW219728   1.899   4.928   2.912
 6277SOL     OW19729   5.168   3.131   1.038
 6277SOL    HW119730   5.198   3.224   1.058
 6277SOL    HW219731   5.074   3.133   1.004
 6278SOL     OW19732   2.773   1.504   6.794
 6278SOL    HW119733   2.830   1.422   6.787
 6278SOL    HW219734   2.679   1.477   6.817
 6279SOL     OW19735   2.988   6.789   2.307
 6279SOL    HW119736   2.888   6.790   2.312
 6279SOL    HW219737   3.018   6.749   2.221
 6280SOL     OW19738   5.913   2.716   6.442
 6280SOL    HW119739   5.968   2.726   6.525
 6280SOL    HW219740   5.968   2.671   6.371
 6281SOL     OW19741   5.556   3.920   6.051
 6281SOL    HW119742   5.646   3.947   6.017
 6281SOL    HW219743   5.558   3.824   6.079
 6282SOL     OW19744   0.302   3.461   6.310
 6282SOL    HW119745   0.208   3.438   6.287
 6282SOL    HW219746   0.304   3.545   6.363
 6283SOL     OW19747   1.689   6.295   5.018
 6283SOL    HW119748   1.683   6.308   4.919
 6283SOL    HW219749   1.679   6.198   5.039
 6284SOL     OW19750   1.773   4.317   5.407
 6284SOL    HW119751   1.858   4.286   5.364
 6284SOL    HW219752   1.697   4.299   5.345
 6285SOL     OW19753   1.137   3.607   2.998
 6285SOL    HW119754   1.132   3.677   2.928
 6285SOL    HW219755   1.153   3.518   2.956
 6286SOL     OW19756   0.433   2.468   0.118
 6286SOL    HW119757   0.476   2.525   0.188
 6286SOL    HW219758   0.455   2.372   0.135
 6287SOL     OW19759   4.754   4.994   4.773
 6287SOL    HW119760   4.819   5.069   4.790
 6287SOL    HW219761   4.702   4.976   4.857
 6288SOL     OW19762   3.417   3.688   6.810
 6288SOL    HW119763   3.377   3.599   6.788
 6288SOL    HW219764   3.516   3.681   6.812
 6289SOL     OW19765   2.724   4.667   5.732
 6289SOL    HW119766   2.707   4.731   5.807
 6289SOL    HW219767   2.796   4.704   5.673
 6290SOL     OW19768   5.968   6.119   4.503
 6290SOL    HW119769   5.983   6.166   4.416
 6290SOL    HW219770   6.050   6.129   4.561
 6291SOL     OW19771   3.936   3.157   3.068
 6291SOL    HW119772   4.004   3.171   3.140
 6291SOL    HW219773   3.979   3.171   2.979
 6292SOL     OW19774   2.156   3.731   4.525
 6292SOL    HW119775   2.229   3.787   4.486
 6292SOL    HW219776   2.069   3.780   4.517
 6293SOL     OW19777   3.149   1.152   6.710
 6293SOL    HW119778   3.241   1.116   6.693
 6293SOL    HW219779   3.083   1.104   6.652
 6294SOL     OW19780   1.539   1.422   2.785
 6294SOL    HW119781   1.629   1.465   2.790
 6294SOL    HW219782   1.474   1.475   2.840
 6295SOL     OW19783   5.268   3.613   6.233
 6295SOL    HW119784   5.359   3.620   6.192
 6295SOL    HW219785   5.201   3.589   6.163
 6296SOL     OW19786   1.018   3.429   0.354
 6296SOL    HW119787   1.014   3.329   0.361
 6296SOL    HW219788   0.971   3.459   0.271
 6297SOL     OW19789   5.744   1.457   4.725
 6297SOL    HW119790   5.738   1.484   4.821
 6297SOL    HW219791   5.732   1.358   4.716
 6298SOL     OW19792   6.636   6.316   1.115
 6298SOL    HW119793   6.579   6.267   1.049
 6298SOL    HW219794   6.673   6.251   1.181
 6299SOL     OW19795   4.195   1.029   3.488
 6299SOL    HW119796   4.201   1.111   3.545
 6299SOL    HW219797   4.181   1.056   3.392
 6300SOL     OW19798   2.547   1.051   6.598
 6300SOL    HW119799   2.583   1.101   6.678
 6300SOL    HW219800   2.487   1.111   6.546
 6301SOL     OW19801   4.016   6.479   0.166
 6301SOL    HW119802   4.044   6.523   0.081
 6301SOL    HW219803   4.072   6.399   0.183
 6302SOL     OW19804   3.133   2.741   6.371
 6302SOL    HW119805   3.073   2.718   6.294
 6302SOL    HW219806   3.149   2.658   6.426
 6303SOL     OW19807   0.314   5.946   4.776
 6303SOL    HW119808   0.290   5.909   4.866
 6303SOL    HW219809   0.271   6.035   4.764
 6304SOL     OW19810   3.753   0.698   4.665
 6304SOL    HW119811   3.702   0.766   4.718
 6304SOL    HW219812   3.773   0.735   4.575
 6305SOL     OW19813   0.663   5.988   6.292
 6305SOL    HW119814   0.615   5.917   6.240
 6305SOL    HW219815   0.642   6.077   6.252
 6306SOL     OW19816   0.286   5.484   4.190
 6306SOL    HW119817   0.252   5.452   4.279
 6306SOL    HW219818   0.250   5.576   4.172
 6307SOL     OW19819   3.866   2.991   1.958
 6307SOL    HW119820   3.825   2.922   2.017
 6307SOL    HW219821   3.900   3.067   2.014
 6308SOL     OW19822   0.190   2.285   0.494
 6308SOL    HW119823   0.172   2.380   0.468
 6308SOL    HW219824   0.131   2.260   0.570
 6309SOL     OW19825   2.462   6.302   4.552
 6309SOL    HW119826   2.406   6.266   4.625
 6309SOL    HW219827   2.546   6.341   4.590
 6310SOL     OW19828   1.576   0.127   3.096
 6310SOL    HW119829   1.494   0.072   3.078
 6310SOL    HW219830   1.596   0.127   3.194
 6311SOL     OW19831   5.733   0.846   6.531
 6311SOL    HW119832   5.640   0.812   6.528
 6311SOL    HW219833   5.797   0.772   6.511
 6312SOL     OW19834   3.544   5.659   6.557
 6312SOL    HW119835   3.608   5.727   6.521
 6312SOL    HW219836   3.525   5.591   6.486
 6313SOL     OW19837   5.940   5.002   4.903
 6313SOL    HW119838   5.895   5.085   4.871
 6313SOL    HW219839   5.901   4.975   4.992
 6314SOL     OW19840   2.174   6.594   2.723
 6314SOL    HW119841   2.201   6.517   2.781
 6314SOL    HW219842   2.079   6.620   2.744
 6315SOL     OW19843   2.388   2.136   3.767
 6315SOL    HW119844   2.327   2.214   3.783
 6315SOL    HW219845   2.399   2.122   3.669
 6316SOL     OW19846   4.657   1.078   4.604
 6316SOL    HW119847   4.712   1.086   4.521
 6316SOL    HW219848   4.627   0.983   4.615
 6317SOL     OW19849   5.516   5.206   1.934
 6317SOL    HW119850   5.416   5.209   1.940
 6317SOL    HW219851   5.548   5.285   1.882
 6318SOL     OW19852   6.461   6.776   0.253
 6318SOL    HW119853   6.479   6.679   0.267
 6318SOL    HW219854   6.398   6.788   0.176
 6319SOL     OW19855   5.244   1.463   4.132
 6319SOL    HW119856   5.180   1.498   4.063
 6319SOL    HW219857   5.325   1.426   4.086
 6320SOL     OW19858   6.171   1.152   5.789
 6320SOL    HW119859   6.249   1.090   5.786
 6320SOL    HW219860   6.168   1.199   5.877
 6321SOL     OW19861   6.691   2.621   6.928
 6321SOL    HW119862   6.618   2.638   6.862
 6321SOL    HW219863   6.779   2.649   6.888
 6322SOL     OW19864   1.111   1.021   2.108
 6322SOL    HW119865   1.048   0.948   2.134
 6322SOL    HW219866   1.132   1.013   2.010
 6323SOL     OW19867   2.289   4.765   1.710
 6323SOL    HW119868   2.338   4.779   1.797
 6323SOL    HW219869   2.343   4.803   1.635
 6324SOL     OW19870   4.349   2.396   0.926
 6324SOL    HW119871   4.288   2.448   0.866
 6324SOL    HW219872   4.402   2.459   0.982
 6325SOL     OW19873   1.576   2.991   4.294
 6325SOL    HW119874   1.622   2.902   4.301
 6325SOL    HW219875   1.644   3.064   4.302
 6326SOL     OW19876   5.508   5.109   5.749
 6326SOL    HW119877   5.564   5.143   5.824
 6326SOL    HW219878   5.419   5.156   5.750
 6327SOL     OW19879   0.238   0.663   3.587
 6327SOL    HW119880   0.231   0.718   3.504
 6327SOL    HW219881   0.305   0.590   3.573
 6328SOL     OW19882   4.548   3.576   5.313
 6328SOL    HW119883   4.626   3.581   5.250
 6328SOL    HW219884   4.467   3.615   5.270
 6329SOL     OW19885   0.867   2.113   5.689
 6329SOL    HW119886   0.904   2.186   5.632
 6329SOL    HW219887   0.894   2.129   5.784
 6330SOL     OW19888   5.433   1.358   3.596
 6330SOL    HW119889   5.350   1.356   3.651
 6330SOL    HW219890   5.436   1.443   3.543
 6331SOL     OW19891   0.705   2.809   3.471
 6331SOL    HW119892   0.628   2.862   3.509
 6331SOL    HW219893   0.765   2.871   3.420
 6332SOL     OW19894   2.857   1.637   6.442
 6332SOL    HW119895   2.890   1.581   6.518
 6332SOL    HW219896   2.760   1.658   6.455
 6333SOL     OW19897   5.474   1.453   1.013
 6333SOL    HW119898   5.459   1.545   0.979
 6333SOL    HW219899   5.567   1.444   1.049
 6334SOL     OW19900   1.262   1.386   1.994
 6334SOL    HW119901   1.308   1.299   2.014
 6334SOL    HW219902   1.232   1.427   2.080
 6335SOL     OW19903   6.227   2.562   6.865
 6335SOL    HW119904   6.236   2.487   6.930
 6335SOL    HW219905   6.281   2.640   6.897
 6336SOL     OW19906   1.091   3.884   5.175
 6336SOL    HW119907   1.190   3.886   5.189
 6336SOL    HW219908   1.063   3.967   5.127
 6337SOL     OW19909   5.450   6.099   5.029
 6337SOL    HW119910   5.513   6.137   5.097
 6337SOL    HW219911   5.387   6.170   4.998
 6338SOL     OW19912   1.500   1.090   3.039
 6338SOL    HW119913   1.461   1.096   2.947
 6338SOL    HW219914   1.533   0.996   3.055
 6339SOL     OW19915   0.340   4.553   3.701
 6339SOL    HW119916   0.289   4.616   3.643
 6339SOL    HW219917   0.291   4.539   3.787
 6340SOL     OW19918   2.632   4.064   0.702
 6340SOL    HW119919   2.727   4.074   0.732
 6340SOL    HW219920   2.597   4.152   0.671
 6341SOL     OW19921   0.324   5.111   2.808
 6341SOL    HW119922   0.284   5.030   2.766
 6341SOL    HW219923   0.257   5.155   2.868
 6342SOL     OW19924   1.921   1.203   1.447
 6342SOL    HW119925   1.894   1.235   1.356
 6342SOL    HW219926   1.922   1.103   1.449
 6343SOL     OW19927   0.964   5.270   0.831
 6343SOL    HW119928   0.916   5.254   0.917
 6343SOL    HW219929   0.931   5.356   0.790
 6344SOL     OW19930   0.430   1.213   3.766
 6344SOL    HW119931   0.413   1.119   3.739
 6344SOL    HW219932   0.384   1.231   3.853
 6345SOL     OW19933   6.226   2.906   1.697
 6345SOL    HW119934   6.272   2.870   1.616
 6345SOL    HW219935   6.200   2.831   1.757
 6346SOL     OW19936   0.217   4.145   5.797
 6346SOL    HW119937   0.279   4.140   5.876
 6346SOL    HW219938   0.263   4.105   5.717
 6347SOL     OW19939   2.307   1.926   2.727
 6347SOL    HW119940   2.386   1.940   2.787
 6347SOL    HW219941   2.333   1.869   2.649
 6348SOL     OW19942   0.322   1.910   6.189
 6348SOL    HW119943   0.416   1.923   6.220
 6348SOL    HW219944   0.260   1.965   6.245
 6349SOL     OW19945   6.776   1.394   0.356
 6349SOL    HW119946   6.814   1.307   0.385
 6349SOL    HW219947   6.697   1.378   0.297
 6350SOL     OW19948   1.113   5.971   2.084
 6350SOL    HW119949   1.203   6.006   2.058
 6350SOL    HW219950   1.046   5.995   2.014
 6351SOL     OW19951   5.097   3.432   1.697
 6351SOL    HW119952   5.122   3.524   1.669
 6351SOL    HW219953   5.158   3.401   1.770
 6352SOL     OW19954   3.299   0.549   4.257
 6352SOL    HW119955   3.347   0.636   4.247
 6352SOL    HW219956   3.249   0.548   4.343
 6353SOL     OW19957   3.871   6.748   5.327
 6353SOL    HW119958   3.774   6.725   5.318
 6353SOL    HW219959   3.919   6.671   5.370
 6354SOL     OW19960   4.675   5.324   1.358
 6354SOL    HW119961   4.681   5.418   1.393
 6354SOL    HW219962   4.723   5.263   1.421
 6355SOL     OW19963   2.788   4.680   0.481
 6355SOL    HW119964   2.692   4.663   0.506
 6355SOL    HW219965   2.792   4.717   0.388
 6356SOL     OW19966   6.660   5.464   6.121
 6356SOL    HW119967   6.635   5.448   6.217
 6356SOL    HW219968   6.723   5.393   6.091
 6357SOL     OW19969   5.378   1.256   1.744
 6357SOL    HW119970   5.341   1.340   1.785
 6357SOL    HW219971   5.386   1.185   1.814
 6358SOL     OW19972   1.368   2.065   5.508
 6358SOL    HW119973   1.405   1.972   5.504
 6358SOL    HW219974   1.287   2.071   5.449
 6359SOL     OW19975   5.526   6.600   0.540
 6359SOL    HW119976   5.565   6.619   0.450
 6359SOL    HW219977   5.587   6.540   0.591
 6360SOL     OW19978   0.452   1.878   2.072
 6360SOL    HW119979   0.523   1.850   2.137
 6360SOL    HW219980   0.462   1.976   2.054
 6361SOL     OW19981   0.442   0.946   7.010
 6361SOL    HW119982   0.446   0.906   0.081
 6361SOL    HW219983   0.460   0.875   6.942
 6362SOL     OW19984   0.630   5.386   0.523
 6362SOL    HW119985   0.669   5.296   0.544
 6362SOL    HW219986   0.705   5.452   0.509
 6363SOL     OW19987   2.266   4.178   2.790
 6363SOL    HW119988   2.261   4.091   2.839
 6363SOL    HW219989   2.280   4.252   2.856
 6364SOL     OW19990   2.442   2.628   4.230
 6364SOL    HW119991   2.345   2.603   4.231
 6364SOL    HW219992   2.479   2.623   4.322
 6365SOL     OW19993   5.378   6.515   3.078
 6365SOL    HW119994   5.307   6.544   3.142
 6365SOL    HW219995   5.419   6.430   3.110
 6366SOL     OW19996   5.761   0.601   5.325
 6366SOL    HW119997   5.672   0.562   5.347
 6366SOL    HW219998   5.817   0.532   5.279
 6367SOL     OW19999   1.446   2.250   2.547
 6367SOL    HW120000   1.478   2.341   2.573
 6367SOL    HW220001   1.493   2.181   2.602
 6368SOL     OW20002   4.979   3.365   4.999
 6368SOL    HW120003   4.954   3.342   5.093
 6368SOL    HW220004   4.916   3.434   4.964
 6369SOL     OW20005   4.406   5.427   0.003
 6369SOL    HW120006   4.328   5.408   6.964
 6369SOL    HW220007   4.374   5.451   0.094
 6370SOL     OW20008   5.247   4.134   4.330
 6370SOL    HW120009   5.253   4.054   4.389
 6370SOL    HW220010   5.153   4.170   4.333
 6371SOL     OW20011   5.179   4.546   1.593
 6371SOL    HW120012   5.169   4.458   1.547
 6371SOL    HW220013   5.271   4.581   1.579
 6372SOL     OW20014   6.492   1.690   2.179
 6372SOL    HW120015   6.490   1.738   2.266
 6372SOL    HW220016   6.583   1.653   2.163
 6373SOL     OW20017   4.861   4.274   1.565
 6373SOL    HW120018   4.842   4.242   1.472
 6373SOL    HW220019   4.839   4.371   1.572
 6374SOL     OW20020   4.251   3.629   6.884
 6374SOL    HW120021   4.154   3.616   6.904
 6374SOL    HW220022   4.266   3.623   6.785
 6375SOL     OW20023   4.926   1.806   2.154
 6375SOL    HW120024   4.910   1.731   2.219
 6375SOL    HW220025   4.838   1.836   2.116
 6376SOL     OW20026   3.378   1.061   6.925
 6376SOL    HW120027   3.435   0.984   6.955
 6376SOL    HW220028   3.438   1.134   6.892
 6377SOL     OW20029   0.544   0.556   1.112
 6377SOL    HW120030   0.535   0.457   1.117
 6377SOL    HW220031   0.472   0.594   1.055
 6378SOL     OW20032   5.026   4.619   1.811
 6378SOL    HW120033   4.935   4.606   1.771
 6378SOL    HW220034   5.093   4.564   1.762
 6379SOL     OW20035   1.821   5.276   6.509
 6379SOL    HW120036   1.902   5.220   6.492
 6379SOL    HW220037   1.843   5.372   6.490
 6380SOL     OW20038   1.608   4.009   4.742
 6380SOL    HW120039   1.672   4.076   4.704
 6380SOL    HW220040   1.528   4.002   4.683
 6381SOL     OW20041   4.289   2.586   0.506
 6381SOL    HW120042   4.207   2.529   0.512
 6381SOL    HW220043   4.338   2.583   0.593
 6382SOL     OW20044   1.044   1.242   0.587
 6382SOL    HW120045   1.138   1.276   0.581
 6382SOL    HW220046   1.044   1.143   0.569
 6383SOL     OW20047   2.432   2.072   1.969
 6383SOL    HW120048   2.381   2.158   1.966
 6383SOL    HW220049   2.527   2.091   1.995
 6384SOL     OW20050   6.531   2.971   2.168
 6384SOL    HW120051   6.589   2.891   2.156
 6384SOL    HW220052   6.537   3.029   2.086
 6385SOL     OW20053   0.537   3.398   0.359
 6385SOL    HW120054   0.578   3.400   0.450
 6385SOL    HW220055   0.440   3.374   0.366
 6386SOL     OW20056   2.514   3.123   0.261
 6386SOL    HW120057   2.526   3.214   0.302
 6386SOL    HW220058   2.534   3.053   0.330
 6387SOL     OW20059   0.126   0.006   0.049
 6387SOL    HW120060   0.097   0.101   0.033
 6387SOL    HW220061   0.191   0.003   0.124
 6388SOL     OW20062   6.307   5.567   2.422
 6388SOL    HW120063   6.267   5.560   2.331
 6388SOL    HW220064   6.243   5.529   2.490
 6389SOL     OW20065   0.141   0.464   0.679
 6389SOL    HW120066   0.235   0.437   0.660
 6389SOL    HW220067   0.089   0.383   0.709
 6390SOL     OW20068   5.264   0.480   6.641
 6390SOL    HW120069   5.179   0.477   6.693
 6390SOL    HW220070   5.340   0.505   6.702
 6391SOL     OW20071   1.259   1.922   4.871
 6391SOL    HW120072   1.241   1.863   4.950
 6391SOL    HW220073   1.319   1.873   4.807
 6392SOL     OW20074   3.701   6.541   3.937
 6392SOL    HW120075   3.628   6.599   3.974
 6392SOL    HW220076   3.782   6.598   3.919
 6393SOL     OW20077   0.713   5.182   0.011
 6393SOL    HW120078   0.703   5.257   0.076
 6393SOL    HW220079   0.693   5.096   0.056
 6394SOL     OW20080   1.592   5.475   1.777
 6394SOL    HW120081   1.598   5.574   1.763
 6394SOL    HW220082   1.575   5.430   1.689
 6395SOL     OW20083   2.079   3.647   3.450
 6395SOL    HW120084   2.073   3.572   3.384
 6395SOL    HW220085   2.123   3.615   3.534
 6396SOL     OW20086   1.392   3.144   6.077
 6396SOL    HW120087   1.292   3.147   6.080
 6396SOL    HW220088   1.429   3.159   6.168
 6397SOL     OW20089   5.506   3.746   4.374
 6397SOL    HW120090   5.462   3.668   4.417
 6397SOL    HW220091   5.553   3.801   4.444
 6398SOL     OW20092   2.082   6.990   1.494
 6398SOL    HW120093   2.156   0.030   1.520
 6398SOL    HW220094   2.001   7.010   1.550
 6399SOL     OW20095   3.259   1.118   6.257
 6399SOL    HW120096   3.214   1.206   6.238
 6399SOL    HW220097   3.356   1.133   6.274
 6400SOL     OW20098   1.092   6.060   3.163
 6400SOL    HW120099   1.109   6.148   3.118
 6400SOL    HW220100   1.133   6.061   3.254
 6401SOL     OW20101   3.891   5.440   3.400
 6401SOL    HW120102   3.985   5.425   3.431
 6401SOL    HW220103   3.886   5.527   3.351
 6402SOL     OW20104   2.286   4.734   5.168
 6402SOL    HW120105   2.315   4.763   5.076
 6402SOL    HW220106   2.205   4.675   5.160
 6403SOL     OW20107   5.028   4.859   4.963
 6403SOL    HW120108   4.944   4.823   4.924
 6403SOL    HW220109   5.094   4.877   4.889
 6404SOL     OW20110   4.394   6.685   1.910
 6404SOL    HW120111   4.493   6.696   1.920
 6404SOL    HW220112   4.350   6.775   1.914
 6405SOL     OW20113   5.479   1.761   3.130
 6405SOL    HW120114   5.517   1.717   3.211
 6405SOL    HW220115   5.548   1.765   3.058
 6406SOL     OW20116   7.007   3.594   3.590
 6406SOL    HW120117   6.954   3.517   3.625
 6406SOL    HW220118   7.021   3.661   3.664
 6407SOL     OW20119   0.690   6.204   2.618
 6407SOL    HW120120   0.779   6.166   2.644
 6407SOL    HW220121   0.700   6.301   2.598
 6408SOL     OW20122   6.511   0.388   2.081
 6408SOL    HW120123   6.515   0.443   1.997
 6408SOL    HW220124   6.416   0.363   2.099
 6409SOL     OW20125   5.020   5.288   3.611
 6409SOL    HW120126   4.937   5.234   3.613
 6409SOL    HW220127   4.998   5.383   3.587
 6410SOL     OW20128   1.536   1.533   6.610
 6410SOL    HW120129   1.502   1.620   6.574
 6410SOL    HW220130   1.580   1.549   6.699
 6411SOL     OW20131   0.719   2.837   1.838
 6411SOL    HW120132   0.668   2.880   1.913
 6411SOL    HW220133   0.768   2.758   1.873
 6412SOL     OW20134   3.163   0.981   0.253
 6412SOL    HW120135   3.146   0.899   0.198
 6412SOL    HW220136   3.078   1.007   0.300
 6413SOL     OW20137   4.999   6.481   2.815
 6413SOL    HW120138   5.072   6.429   2.859
 6413SOL    HW220139   4.919   6.484   2.875
 6414SOL     OW20140   1.451   0.296   0.540
 6414SOL    HW120141   1.534   0.251   0.572
 6414SOL    HW220142   1.476   0.376   0.484
 6415SOL     OW20143   0.257   2.539   3.629
 6415SOL    HW120144   0.161   2.534   3.602
 6415SOL    HW220145   0.276   2.469   3.698
 6416SOL     OW20146   2.246   6.265   0.075
 6416SOL    HW120147   2.276   6.223   7.010
 6416SOL    HW220148   2.159   6.226   0.103
 6417SOL     OW20149   4.433   2.673   6.557
 6417SOL    HW120150   4.431   2.590   6.500
 6417SOL    HW220151   4.525   2.713   6.553
 6418SOL     OW20152   5.057   4.599   0.094
 6418SOL    HW120153   5.009   4.600   0.182
 6418SOL    HW220154   5.156   4.593   0.109
 6419SOL     OW20155   0.518   6.224   6.003
 6419SOL    HW120156   0.490   6.313   5.968
 6419SOL    HW220157   0.441   6.160   5.996
 6420SOL     OW20158   1.911   4.349   4.434
 6420SOL    HW120159   1.824   4.398   4.431
 6420SOL    HW220160   1.906   4.268   4.376
 6421SOL     OW20161   4.013   0.519   1.922
 6421SOL    HW120162   4.062   0.588   1.975
 6421SOL    HW220163   3.985   0.559   1.834
 6422SOL     OW20164   5.900   2.041   4.738
 6422SOL    HW120165   6.000   2.040   4.732
 6422SOL    HW220166   5.868   1.954   4.775
 6423SOL     OW20167   1.664   4.462   4.420
 6423SOL    HW120168   1.658   4.505   4.330
 6423SOL    HW220169   1.577   4.472   4.468
 6424SOL     OW20170   6.642   4.780   5.422
 6424SOL    HW120171   6.552   4.822   5.414
 6424SOL    HW220172   6.689   4.784   5.334
 6425SOL     OW20173   6.745   5.540   4.167
 6425SOL    HW120174   6.831   5.499   4.196
 6425SOL    HW220175   6.747   5.555   4.068
 6426SOL     OW20176   4.647   4.235   4.946
 6426SOL    HW120177   4.710   4.157   4.948
 6426SOL    HW220178   4.600   4.242   5.033
 6427SOL     OW20179   4.044   3.284   2.843
 6427SOL    HW120180   3.955   3.328   2.842
 6427SOL    HW220181   4.058   3.234   2.757
 6428SOL     OW20182   5.690   2.871   0.326
 6428SOL    HW120183   5.762   2.857   0.394
 6428SOL    HW220184   5.643   2.957   0.346
 6429SOL     OW20185   2.207   1.121   5.727
 6429SOL    HW120186   2.293   1.167   5.749
 6429SOL    HW220187   2.221   1.062   5.647
 6430SOL     OW20188   6.363   0.570   5.223
 6430SOL    HW120189   6.275   0.561   5.271
 6430SOL    HW220190   6.419   0.488   5.241
 6431SOL     OW20191   3.743   4.878   1.655
 6431SOL    HW120192   3.726   4.803   1.718
 6431SOL    HW220193   3.680   4.954   1.677
 6432SOL     OW20194   5.227   4.389   5.944
 6432SOL    HW120195   5.270   4.479   5.950
 6432SOL    HW220196   5.131   4.396   5.973
 6433SOL     OW20197   3.305   4.373   6.255
 6433SOL    HW120198   3.245   4.453   6.239
 6433SOL    HW220199   3.352   4.384   6.342
 6434SOL     OW20200   4.829   5.577   6.333
 6434SOL    HW120201   4.784   5.561   6.245
 6434SOL    HW220202   4.913   5.629   6.318
 6435SOL     OW20203   4.825   2.342   1.504
 6435SOL    HW120204   4.847   2.296   1.418
 6435SOL    HW220205   4.736   2.388   1.496
 6436SOL     OW20206   6.382   3.586   3.756
 6436SOL    HW120207   6.373   3.625   3.664
 6436SOL    HW220208   6.432   3.650   3.814
 6437SOL     OW20209   1.427   2.348   5.539
 6437SOL    HW120210   1.404   2.251   5.542
 6437SOL    HW220211   1.348   2.402   5.567
 6438SOL     OW20212   0.512   4.687   0.101
 6438SOL    HW120213   0.538   4.683   0.004
 6438SOL    HW220214   0.448   4.613   0.121
 6439SOL     OW20215   5.140   0.133   3.291
 6439SOL    HW120216   5.190   0.055   3.253
 6439SOL    HW220217   5.074   0.100   3.358
 6440SOL     OW20218   2.602   2.251   6.520
 6440SOL    HW120219   2.577   2.332   6.572
 6440SOL    HW220220   2.683   2.270   6.465
 6441SOL     OW20221   0.214   1.835   2.167
 6441SOL    HW120222   0.304   1.852   2.128
 6441SOL    HW220223   0.149   1.903   2.131
 6442SOL     OW20224   2.946   2.236   4.609
 6442SOL    HW120225   2.900   2.296   4.675
 6442SOL    HW220226   2.898   2.240   4.521
 6443SOL     OW20227   4.497   3.264   6.887
 6443SOL    HW120228   4.441   3.316   6.823
 6443SOL    HW220229   4.442   3.190   6.927
 6444SOL     OW20230   6.427   3.799   4.805
 6444SOL    HW120231   6.365   3.873   4.780
 6444SOL    HW220232   6.517   3.836   4.826
 6445SOL     OW20233   3.016   3.117   3.693
 6445SOL    HW120234   3.066   3.094   3.777
 6445SOL    HW220235   3.001   3.034   3.640
 6446SOL     OW20236   1.331   1.360   6.239
 6446SOL    HW120237   1.268   1.419   6.289
 6446SOL    HW220238   1.382   1.414   6.173
 6447SOL     OW20239   5.928   3.328   1.798
 6447SOL    HW120240   5.882   3.248   1.759
 6447SOL    HW220241   6.003   3.298   1.857
 6448SOL     OW20242   3.338   5.029   1.517
 6448SOL    HW120243   3.428   5.015   1.559
 6448SOL    HW220244   3.340   4.996   1.422
 6449SOL     OW20245   2.593   5.428   0.914
 6449SOL    HW120246   2.692   5.417   0.918
 6449SOL    HW220247   2.548   5.342   0.941
 6450SOL     OW20248   0.153   4.574   0.305
 6450SOL    HW120249   0.087   4.640   0.339
 6450SOL    HW220250   0.132   4.550   0.210
 6451SOL     OW20251   4.417   2.517   1.285
 6451SOL    HW120252   4.338   2.514   1.224
 6451SOL    HW220253   4.442   2.612   1.304
 6452SOL     OW20254   4.469   1.823   3.955
 6452SOL    HW120255   4.460   1.874   3.869
 6452SOL    HW220256   4.396   1.850   4.017
 6453SOL     OW20257   2.418   0.647   2.225
 6453SOL    HW120258   2.334   0.623   2.274
 6453SOL    HW220259   2.407   0.737   2.183
 6454SOL     OW20260   5.085   2.202   3.253
 6454SOL    HW120261   5.011   2.235   3.312
 6454SOL    HW220262   5.123   2.278   3.201
 6455SOL     OW20263   6.292   3.207   3.733
 6455SOL    HW120264   6.381   3.196   3.688
 6455SOL    HW220265   6.293   3.160   3.821
 6456SOL     OW20266   6.163   1.101   2.557
 6456SOL    HW120267   6.176   1.029   2.624
 6456SOL    HW220268   6.252   1.129   2.520
 6457SOL     OW20269   3.391   6.804   2.453
 6457SOL    HW120270   3.330   6.732   2.485
 6457SOL    HW220271   3.337   6.881   2.420
 6458SOL     OW20272   6.855   5.491   3.910
 6458SOL    HW120273   6.866   5.567   3.845
 6458SOL    HW220274   6.945   5.452   3.930
 6459SOL     OW20275   0.288   3.190   3.209
 6459SOL    HW120276   0.245   3.102   3.192
 6459SOL    HW220277   0.242   3.261   3.156
 6460SOL     OW20278   0.332   5.416   6.423
 6460SOL    HW120279   0.349   5.321   6.452
 6460SOL    HW220280   0.312   5.472   6.503
 6461SOL     OW20281   1.464   5.785   1.080
 6461SOL    HW120282   1.446   5.808   0.984
 6461SOL    HW220283   1.378   5.761   1.125
 6462SOL     OW20284   1.783   4.443   5.057
 6462SOL    HW120285   1.848   4.510   5.094
 6462SOL    HW220286   1.702   4.440   5.116
 6463SOL     OW20287   4.646   2.167   0.939
 6463SOL    HW120288   4.745   2.154   0.944
 6463SOL    HW220289   4.600   2.094   0.989
 6464SOL     OW20290   1.214   3.847   3.547
 6464SOL    HW120291   1.147   3.866   3.475
 6464SOL    HW220292   1.179   3.776   3.608
 6465SOL     OW20293   3.772   1.334   3.544
 6465SOL    HW120294   3.799   1.393   3.468
 6465SOL    HW220295   3.674   1.343   3.560
 6466SOL     OW20296   6.447   4.096   0.028
 6466SOL    HW120297   6.438   4.189   7.013
 6466SOL    HW220298   6.436   4.098   0.128
 6467SOL     OW20299   2.877   2.832   0.565
 6467SOL    HW120300   2.797   2.823   0.626
 6467SOL    HW220301   2.955   2.864   0.618
 6468SOL     OW20302   2.217   1.101   1.207
 6468SOL    HW120303   2.160   1.133   1.132
 6468SOL    HW220304   2.296   1.162   1.218
 6469SOL     OW20305   3.002   1.270   2.273
 6469SOL    HW120306   2.944   1.196   2.306
 6469SOL    HW220307   3.094   1.260   2.312
 6470SOL     OW20308   0.167   1.540   6.881
 6470SOL    HW120309   0.215   1.489   6.952
 6470SOL    HW220310   0.068   1.524   6.889
 6471SOL     OW20311   0.988   6.517   5.649
 6471SOL    HW120312   0.983   6.609   5.611
 6471SOL    HW220313   1.029   6.520   5.740
 6472SOL     OW20314   6.719   6.408   3.169
 6472SOL    HW120315   6.715   6.308   3.170
 6472SOL    HW220316   6.808   6.437   3.134
 6473SOL     OW20317   2.512   1.229   3.221
 6473SOL    HW120318   2.587   1.262   3.278
 6473SOL    HW220319   2.499   1.292   3.144
 6474SOL     OW20320   4.063   5.415   4.765
 6474SOL    HW120321   4.095   5.432   4.858
 6474SOL    HW220322   4.033   5.501   4.724
 6475SOL     OW20323   5.988   5.654   2.401
 6475SOL    HW120324   6.026   5.565   2.427
 6475SOL    HW220325   5.908   5.640   2.343
 6476SOL     OW20326   3.839   2.206   6.342
 6476SOL    HW120327   3.887   2.225   6.428
 6476SOL    HW220328   3.741   2.207   6.357
 6477SOL     OW20329   6.426   6.138   1.628
 6477SOL    HW120330   6.518   6.170   1.603
 6477SOL    HW220331   6.414   6.043   1.599
 6478SOL     OW20332   2.909   5.761   1.106
 6478SOL    HW120333   2.831   5.759   1.043
 6478SOL    HW220334   2.993   5.744   1.054
 6479SOL     OW20335   3.693   6.411   3.106
 6479SOL    HW120336   3.743   6.473   3.046
 6479SOL    HW220337   3.699   6.444   3.201
 6480SOL     OW20338   4.177   1.506   6.756
 6480SOL    HW120339   4.107   1.560   6.708
 6480SOL    HW220340   4.164   1.515   6.855
 6481SOL     OW20341   3.598   2.851   1.515
 6481SOL    HW120342   3.565   2.821   1.605
 6481SOL    HW220343   3.671   2.918   1.527
 6482SOL     OW20344   5.526   3.605   5.846
 6482SOL    HW120345   5.499   3.615   5.941
 6482SOL    HW220346   5.461   3.653   5.787
 6483SOL     OW20347   1.856   6.482   5.173
 6483SOL    HW120348   1.790   6.438   5.113
 6483SOL    HW220349   1.927   6.416   5.198
 6484SOL     OW20350   2.723   0.954   3.530
 6484SOL    HW120351   2.660   0.893   3.578
 6484SOL    HW220352   2.742   0.917   3.439
 6485SOL     OW20353   2.617   6.104   5.249
 6485SOL    HW120354   2.699   6.157   5.272
 6485SOL    HW220355   2.556   6.161   5.194
 6486SOL     OW20356   1.260   5.166   2.885
 6486SOL    HW120357   1.268   5.121   2.973
 6486SOL    HW220358   1.184   5.125   2.834
 6487SOL     OW20359   5.683   4.339   4.375
 6487SOL    HW120360   5.774   4.349   4.335
 6487SOL    HW220361   5.675   4.399   4.454
 6488SOL     OW20362   3.653   5.239   4.918
 6488SOL    HW120363   3.729   5.207   4.975
 6488SOL    HW220364   3.688   5.273   4.831
 6489SOL     OW20365   4.699   2.539   5.246
 6489SOL    HW120366   4.665   2.579   5.161
 6489SOL    HW220367   4.623   2.528   5.310
 6490SOL     OW20368   2.341   2.336   0.271
 6490SOL    HW120369   2.296   2.247   0.277
 6490SOL    HW220370   2.280   2.402   0.228
 6491SOL     OW20371   2.636   6.689   1.798
 6491SOL    HW120372   2.666   6.688   1.702
 6491SOL    HW220373   2.706   6.647   1.855
 6492SOL     OW20374   4.135   3.352   5.007
 6492SOL    HW120375   4.048   3.346   4.957
 6492SOL    HW220376   4.171   3.445   4.998
 6493SOL     OW20377   0.648   4.561   4.342
 6493SOL    HW120378   0.742   4.532   4.326
 6493SOL    HW220379   0.645   4.660   4.354
 6494SOL     OW20380   6.234   0.252   1.266
 6494SOL    HW120381   6.189   0.165   1.289
 6494SOL    HW220382   6.315   0.264   1.323
 6495SOL     OW20383   6.493   0.579   3.300
 6495SOL    HW120384   6.434   0.648   3.343
 6495SOL    HW220385   6.565   0.551   3.364
 6496SOL     OW20386   3.141   2.134   1.461
 6496SOL    HW120387   3.200   2.076   1.404
 6496SOL    HW220388   3.167   2.124   1.557
 6497SOL     OW20389   0.289   1.249   0.646
 6497SOL    HW120390   0.331   1.317   0.586
 6497SOL    HW220391   0.237   1.296   0.718
 6498SOL     OW20392   1.115   4.562   3.844
 6498SOL    HW120393   1.136   4.489   3.779
 6498SOL    HW220394   1.169   4.643   3.822
 6499SOL     OW20395   4.799   2.907   3.408
 6499SOL    HW120396   4.859   2.984   3.386
 6499SOL    HW220397   4.785   2.851   3.327
 6500SOL     OW20398   1.404   4.361   2.747
 6500SOL    HW120399   1.413   4.338   2.651
 6500SOL    HW220400   1.370   4.455   2.756
 6501SOL     OW20401   5.815   1.718   2.179
 6501SOL    HW120402   5.879   1.753   2.110
 6501SOL    HW220403   5.786   1.626   2.154
 6502SOL     OW20404   6.893   3.591   2.103
 6502SOL    HW120405   6.908   3.672   2.159
 6502SOL    HW220406   6.818   3.538   2.141
 6503SOL     OW20407   6.785   3.714   5.719
 6503SOL    HW120408   6.775   3.802   5.764
 6503SOL    HW220409   6.753   3.641   5.780
 6504SOL     OW20410   4.291   6.032   6.262
 6504SOL    HW120411   4.316   6.112   6.208
 6504SOL    HW220412   4.362   5.962   6.251
 6505SOL     OW20413   0.118   5.585   0.556
 6505SOL    HW120414   0.129   5.492   0.523
 6505SOL    HW220415   0.207   5.631   0.559
 6506SOL     OW20416   0.361   3.622   2.189
 6506SOL    HW120417   0.443   3.606   2.134
 6506SOL    HW220418   0.292   3.553   2.169
 6507SOL     OW20419   3.511   5.172   0.339
 6507SOL    HW120420   3.576   5.224   0.394
 6507SOL    HW220421   3.434   5.230   0.315
 6508SOL     OW20422   0.883   7.017   3.099
 6508SOL    HW120423   0.847   7.010   3.192
 6508SOL    HW220424   0.918   0.089   3.084
 6509SOL     OW20425   2.081   1.795   6.835
 6509SOL    HW120426   2.125   1.747   6.759
 6509SOL    HW220427   2.134   1.780   6.918
 6510SOL     OW20428   3.138   6.253   5.644
 6510SOL    HW120429   3.142   6.154   5.646
 6510SOL    HW220430   3.124   6.288   5.737
 6511SOL     OW20431   3.413   1.584   0.739
 6511SOL    HW120432   3.512   1.588   0.723
 6511SOL    HW220433   3.391   1.627   0.826
 6512SOL     OW20434   3.689   1.477   0.155
 6512SOL    HW120435   3.774   1.455   0.107
 6512SOL    HW220436   3.618   1.498   0.087
 6513SOL     OW20437   2.912   4.782   3.162
 6513SOL    HW120438   3.011   4.771   3.158
 6513SOL    HW220439   2.883   4.849   3.094
 6514SOL     OW20440   5.083   6.588   5.596
 6514SOL    HW120441   5.007   6.536   5.558
 6514SOL    HW220442   5.048   6.656   5.661
 6515SOL     OW20443   0.827   5.020   2.444
 6515SOL    HW120444   0.832   5.113   2.406
 6515SOL    HW220445   0.735   5.004   2.480
 6516SOL     OW20446   6.069   3.174   1.544
 6516SOL    HW120447   6.035   3.268   1.544
 6516SOL    HW220448   6.051   3.132   1.633
 6517SOL     OW20449   0.069   3.493   0.575
 6517SOL    HW120450   6.991   3.503   0.581
 6517SOL    HW220451   0.113   3.575   0.611
 6518SOL     OW20452   0.512   1.633   2.640
 6518SOL    HW120453   0.579   1.627   2.714
 6518SOL    HW220454   0.510   1.726   2.603
 6519SOL     OW20455   1.182   1.392   3.152
 6519SOL    HW120456   1.224   1.454   3.218
 6519SOL    HW220457   1.089   1.369   3.182
 6520SOL     OW20458   0.110   5.321   0.414
 6520SOL    HW120459   0.015   5.348   0.425
 6520SOL    HW220460   0.136   5.333   0.318
 6521SOL     OW20461   1.443   3.696   3.486
 6521SOL    HW120462   1.491   3.782   3.506
 6521SOL    HW220463   1.345   3.708   3.503
 6522SOL     OW20464   2.736   3.009   5.358
 6522SOL    HW120465   2.647   3.024   5.317
 6522SOL    HW220466   2.808   3.040   5.295
 6523SOL     OW20467   6.215   0.112   0.552
 6523SOL    HW120468   6.134   0.144   0.503
 6523SOL    HW220469   6.295   0.119   0.492
 6524SOL     OW20470   2.821   2.878   0.881
 6524SOL    HW120471   2.857   2.787   0.862
 6524SOL    HW220472   2.897   2.943   0.888
 6525SOL     OW20473   0.827   4.966   3.390
 6525SOL    HW120474   0.905   4.907   3.411
 6525SOL    HW220475   0.843   5.013   3.303
 6526SOL     OW20476   0.793   5.841   0.305
 6526SOL    HW120477   0.741   5.883   0.232
 6526SOL    HW220478   0.886   5.879   0.306
 6527SOL     OW20479   6.588   1.922   0.006
 6527SOL    HW120480   6.540   1.845   6.983
 6527SOL    HW220481   6.521   1.982   0.050
 6528SOL     OW20482   4.020   6.804   6.465
 6528SOL    HW120483   4.111   6.842   6.478
 6528SOL    HW220484   3.952   6.864   6.508
 6529SOL     OW20485   5.819   0.718   2.309
 6529SOL    HW120486   5.721   0.725   2.292
 6529SOL    HW220487   5.836   0.643   2.374
 6530SOL     OW20488   0.403   3.058   2.812
 6530SOL    HW120489   0.452   3.142   2.793
 6530SOL    HW220490   0.304   3.075   2.807
 6531SOL     OW20491   3.597   4.164   5.033
 6531SOL    HW120492   3.590   4.220   5.116
 6531SOL    HW220493   3.512   4.113   5.020
 6532SOL     OW20494   1.280   0.086   0.485
 6532SOL    HW120495   1.353   0.150   0.508
 6532SOL    HW220496   1.308   7.014   0.510
 6533SOL     OW20497   4.943   3.941   1.222
 6533SOL    HW120498   4.876   3.958   1.294
 6533SOL    HW220499   4.912   3.983   1.137
 6534SOL     OW20500   0.274   4.188   3.089
 6534SOL    HW120501   0.330   4.265   3.055
 6534SOL    HW220502   0.177   4.211   3.080
 6535SOL     OW20503   4.813   2.886   5.248
 6535SOL    HW120504   4.714   2.896   5.245
 6535SOL    HW220505   4.842   2.867   5.342
 6536SOL     OW20506   0.993   4.549   5.177
 6536SOL    HW120507   1.081   4.502   5.181
 6536SOL    HW220508   1.002   4.639   5.221
 6537SOL     OW20509   6.304   5.374   3.946
 6537SOL    HW120510   6.241   5.326   3.885
 6537SOL    HW220511   6.379   5.413   3.892
 6538SOL     OW20512   1.823   2.880   5.692
 6538SOL    HW120513   1.775   2.839   5.614
 6538SOL    HW220514   1.889   2.947   5.659
 6539SOL     OW20515   5.106   0.463   6.070
 6539SOL    HW120516   5.110   0.377   6.019
 6539SOL    HW220517   5.012   0.484   6.094
 6540SOL     OW20518   6.611   2.709   5.640
 6540SOL    HW120519   6.544   2.783   5.627
 6540SOL    HW220520   6.690   2.745   5.689
 6541SOL     OW20521   5.985   1.555   5.193
 6541SOL    HW120522   6.078   1.541   5.226
 6541SOL    HW220523   5.946   1.468   5.162
 6542SOL     OW20524   1.458   4.267   3.035
 6542SOL    HW120525   1.525   4.306   3.098
 6542SOL    HW220526   1.493   4.271   2.942
 6543SOL     OW20527   3.753   1.565   4.379
 6543SOL    HW120528   3.730   1.606   4.291
 6543SOL    HW220529   3.675   1.574   4.441
 6544SOL     OW20530   1.202   6.403   1.453
 6544SOL    HW120531   1.261   6.402   1.372
 6544SOL    HW220532   1.183   6.497   1.479
 6545SOL     OW20533   4.521   6.547   0.782
 6545SOL    HW120534   4.514   6.631   0.729
 6545SOL    HW220535   4.612   6.542   0.824
 6546SOL     OW20536   4.758   3.817   6.260
 6546SOL    HW120537   4.809   3.881   6.318
 6546SOL    HW220538   4.818   3.780   6.190
 6547SOL     OW20539   0.522   5.776   6.191
 6547SOL    HW120540   0.563   5.766   6.100
 6547SOL    HW220541   0.508   5.686   6.231
 6548SOL     OW20542   6.912   1.199   5.589
 6548SOL    HW120543   6.866   1.196   5.500
 6548SOL    HW220544   6.849   1.232   5.659
 6549SOL     OW20545   4.367   1.582   2.364
 6549SOL    HW120546   4.331   1.499   2.322
 6549SOL    HW220547   4.442   1.618   2.308
 6550SOL     OW20548   6.107   6.277   3.117
 6550SOL    HW120549   6.115   6.336   3.198
 6550SOL    HW220550   6.083   6.184   3.146
 6551SOL     OW20551   3.437   4.283   0.883
 6551SOL    HW120552   3.397   4.337   0.809
 6551SOL    HW220553   3.367   4.227   0.925
 6552SOL     OW20554   1.899   5.548   0.218
 6552SOL    HW120555   1.854   5.464   0.247
 6552SOL    HW220556   1.987   5.557   0.265
 6553SOL     OW20557   0.887   1.204   3.622
 6553SOL    HW120558   0.946   1.258   3.682
 6553SOL    HW220559   0.803   1.255   3.604
 6554SOL     OW20560   1.770   1.688   4.319
 6554SOL    HW120561   1.744   1.774   4.362
 6554SOL    HW220562   1.706   1.668   4.244
 6555SOL     OW20563   6.142   3.441   3.759
 6555SOL    HW120564   6.209   3.498   3.807
 6555SOL    HW220565   6.183   3.354   3.735
 6556SOL     OW20566   4.779   3.003   2.504
 6556SOL    HW120567   4.824   3.046   2.426
 6556SOL    HW220568   4.791   3.059   2.585
 6557SOL     OW20569   2.274   0.474   2.003
 6557SOL    HW120570   2.363   0.449   2.042
 6557SOL    HW220571   2.206   0.478   2.077
 6558SOL     OW20572   5.607   6.440   6.222
 6558SOL    HW120573   5.548   6.368   6.259
 6558SOL    HW220574   5.580   6.461   6.128
 6559SOL     OW20575   6.803   2.630   6.333
 6559SOL    HW120576   6.837   2.663   6.245
 6559SOL    HW220577   6.720   2.680   6.358
 6560SOL     OW20578   5.524   4.796   0.135
 6560SOL    HW120579   5.496   4.881   0.091
 6560SOL    HW220580   5.607   4.812   0.189
 6561SOL     OW20581   3.570   4.599   6.964
 6561SOL    HW120582   3.640   4.557   6.906
 6561SOL    HW220583   3.605   4.683   7.005
 6562SOL     OW20584   5.322   2.447   1.214
 6562SOL    HW120585   5.379   2.440   1.132
 6562SOL    HW220586   5.341   2.533   1.261
 6563SOL     OW20587   5.473   5.367   4.889
 6563SOL    HW120588   5.401   5.357   4.958
 6563SOL    HW220589   5.481   5.282   4.837
 6564SOL     OW20590   6.386   3.377   3.106
 6564SOL    HW120591   6.473   3.332   3.089
 6564SOL    HW220592   6.335   3.386   3.021
 6565SOL     OW20593   5.452   0.529   2.992
 6565SOL    HW120594   5.445   0.429   2.982
 6565SOL    HW220595   5.386   0.573   2.931
 6566SOL     OW20596   4.923   6.022   3.007
 6566SOL    HW120597   4.882   5.951   2.950
 6566SOL    HW220598   4.856   6.094   3.024
 6567SOL     OW20599   3.803   0.603   1.259
 6567SOL    HW120600   3.850   0.682   1.219
 6567SOL    HW220601   3.712   0.631   1.291
 6568SOL     OW20602   4.590   1.877   0.702
 6568SOL    HW120603   4.530   1.909   0.629
 6568SOL    HW220604   4.537   1.870   0.787
 6569SOL     OW20605   0.709   4.531   4.684
 6569SOL    HW120606   0.669   4.440   4.697
 6569SOL    HW220607   0.726   4.572   4.774
 6570SOL     OW20608   4.408   0.285   1.855
 6570SOL    HW120609   4.402   0.219   1.781
 6570SOL    HW220610   4.320   0.291   1.902
 6571SOL     OW20611   3.475   5.004   2.942
 6571SOL    HW120612   3.378   5.024   2.950
 6571SOL    HW220613   3.512   4.981   3.032
 6572SOL     OW20614   1.205   5.461   4.141
 6572SOL    HW120615   1.298   5.426   4.142
 6572SOL    HW220616   1.181   5.489   4.047
 6573SOL     OW20617   1.418   1.503   3.551
 6573SOL    HW120618   1.471   1.431   3.595
 6573SOL    HW220619   1.472   1.588   3.551
 6574SOL     OW20620   1.947   5.599   2.429
 6574SOL    HW120621   1.849   5.616   2.439
 6574SOL    HW220622   1.962   5.517   2.374
 6575SOL     OW20623   6.886   1.508   3.010
 6575SOL    HW120624   6.888   1.501   3.109
 6575SOL    HW220625   6.814   1.447   2.974
 6576SOL     OW20626   4.806   5.613   0.815
 6576SOL    HW120627   4.860   5.603   0.898
 6576SOL    HW220628   4.762   5.526   0.792
 6577SOL     OW20629   3.243   1.006   3.638
 6577SOL    HW120630   3.150   0.982   3.665
 6577SOL    HW220631   3.305   0.995   3.716
 6578SOL     OW20632   1.565   4.846   1.212
 6578SOL    HW120633   1.535   4.757   1.245
 6578SOL    HW220634   1.488   4.910   1.212
 6579SOL     OW20635   6.546   0.958   4.118
 6579SOL    HW120636   6.644   0.975   4.113
 6579SOL    HW220637   6.513   0.929   4.028
 6580SOL     OW20638   2.155   1.786   0.073
 6580SOL    HW120639   2.137   1.875   0.115
 6580SOL    HW220640   2.221   1.736   0.129
 6581SOL     OW20641   0.574   1.766   0.933
 6581SOL    HW120642   0.597   1.719   1.018
 6581SOL    HW220643   0.501   1.833   0.950
 6582SOL     OW20644   6.678   1.330   2.970
 6582SOL    HW120645   6.583   1.352   2.947
 6582SOL    HW220646   6.680   1.279   3.057
 6583SOL     OW20647   3.736   5.323   6.599
 6583SOL    HW120648   3.716   5.398   6.663
 6583SOL    HW220649   3.817   5.345   6.546
 6584SOL     OW20650   4.088   2.448   0.252
 6584SOL    HW120651   4.129   2.502   0.178
 6584SOL    HW220652   3.994   2.478   0.267
 6585SOL     OW20653   5.759   6.482   1.228
 6585SOL    HW120654   5.856   6.496   1.248
 6585SOL    HW220655   5.708   6.469   1.314
 6586SOL     OW20656   0.041   1.595   0.208
 6586SOL    HW120657   6.995   1.635   0.271
 6586SOL    HW220658   0.001   1.588   0.117
 6587SOL     OW20659   1.663   4.724   5.612
 6587SOL    HW120660   1.642   4.631   5.641
 6587SOL    HW220661   1.714   4.722   5.526
 6588SOL     OW20662   6.853   2.825   0.433
 6588SOL    HW120663   6.832   2.735   0.470
 6588SOL    HW220664   6.934   2.862   0.479
 6589SOL     OW20665   6.800   0.304   2.245
 6589SOL    HW120666   6.740   0.352   2.181
 6589SOL    HW220667   6.824   0.366   2.320
 6590SOL     OW20668   1.240   6.320   3.764
 6590SOL    HW120669   1.224   6.300   3.861
 6590SOL    HW220670   1.335   6.300   3.741
 6591SOL     OW20671   5.869   3.939   3.828
 6591SOL    HW120672   5.816   3.872   3.879
 6591SOL    HW220673   5.900   4.012   3.889
 6592SOL     OW20674   6.215   6.820   3.424
 6592SOL    HW120675   6.308   6.787   3.438
 6592SOL    HW220676   6.155   6.744   3.404
 6593SOL     OW20677   2.668   1.636   2.288
 6593SOL    HW120678   2.598   1.583   2.241
 6593SOL    HW220679   2.757   1.594   2.273
 6594SOL     OW20680   5.384   0.407   6.120
 6594SOL    HW120681   5.370   0.323   6.068
 6594SOL    HW220682   5.295   0.449   6.139
 6595SOL     OW20683   0.858   2.011   5.441
 6595SOL    HW120684   0.853   2.052   5.532
 6595SOL    HW220685   0.841   2.081   5.371
 6596SOL     OW20686   5.457   0.319   2.644
 6596SOL    HW120687   5.457   0.416   2.667
 6596SOL    HW220688   5.479   0.266   2.726
 6597SOL     OW20689   0.978   4.329   2.139
 6597SOL    HW120690   0.959   4.233   2.117
 6597SOL    HW220691   0.910   4.362   2.205
 6598SOL     OW20692   1.332   4.442   4.104
 6598SOL    HW120693   1.304   4.426   4.199
 6598SOL    HW220694   1.348   4.540   4.090
 6599SOL     OW20695   6.348   5.614   6.285
 6599SOL    HW120696   6.299   5.572   6.208
 6599SOL    HW220697   6.436   5.569   6.297
 6600SOL     OW20698   4.499   0.577   5.166
 6600SOL    HW120699   4.561   0.565   5.088
 6600SOL    HW220700   4.511   0.668   5.204
 6601SOL     OW20701   1.642   2.279   1.417
 6601SOL    HW120702   1.695   2.223   1.354
 6601SOL    HW220703   1.619   2.225   1.498
 6602SOL     OW20704   1.348   5.901   1.750
 6602SOL    HW120705   1.411   5.957   1.697
 6602SOL    HW220706   1.261   5.950   1.761
 6603SOL     OW20707   0.085   3.384   3.076
 6603SOL    HW120708   0.074   3.450   3.002
 6603SOL    HW220709   0.035   3.416   3.156
 6604SOL     OW20710   2.278   6.399   2.893
 6604SOL    HW120711   2.360   6.398   2.949
 6604SOL    HW220712   2.303   6.386   2.797
 6605SOL     OW20713   0.152   5.465   1.233
 6605SOL    HW120714   0.220   5.396   1.258
 6605SOL    HW220715   0.139   5.464   1.133
 6606SOL     OW20716   1.769   2.991   3.207
 6606SOL    HW120717   1.732   3.083   3.205
 6606SOL    HW220718   1.818   2.977   3.294
 6607SOL     OW20719   6.035   3.673   3.440
 6607SOL    HW120720   6.102   3.601   3.423
 6607SOL    HW220721   6.005   3.667   3.536
 6608SOL     OW20722   1.128   5.778   6.070
 6608SOL    HW120723   1.033   5.796   6.094
 6608SOL    HW220724   1.147   5.817   5.980
 6609SOL     OW20725   4.815   1.497   6.295
 6609SOL    HW120726   4.729   1.451   6.317
 6609SOL    HW220727   4.879   1.431   6.255
 6610SOL     OW20728   2.848   5.403   0.868
 6610SOL    HW120729   2.892   5.390   0.779
 6610SOL    HW220730   2.917   5.410   0.940
 6611SOL     OW20731   3.942   1.746   4.474
 6611SOL    HW120732   3.877   1.673   4.452
 6611SOL    HW220733   3.932   1.820   4.407
 6612SOL     OW20734   0.628   0.732   6.239
 6612SOL    HW120735   0.566   0.716   6.316
 6612SOL    HW220736   0.713   0.772   6.272
 6613SOL     OW20737   4.649   6.604   0.474
 6613SOL    HW120738   4.623   6.665   0.400
 6613SOL    HW220739   4.748   6.585   0.469
 6614SOL     OW20740   4.388   5.610   0.961
 6614SOL    HW120741   4.295   5.646   0.964
 6614SOL    HW220742   4.454   5.685   0.965
 6615SOL     OW20743   3.881   4.854   5.960
 6615SOL    HW120744   3.797   4.826   5.913
 6615SOL    HW220745   3.871   4.840   6.058
 6616SOL     OW20746   3.557   1.314   6.167
 6616SOL    HW120747   3.657   1.313   6.168
 6616SOL    HW220748   3.525   1.397   6.122
 6617SOL     OW20749   3.935   0.420   4.245
 6617SOL    HW120750   3.990   0.377   4.316
 6617SOL    HW220751   3.978   0.406   4.156
 6618SOL     OW20752   6.595   2.575   4.098
 6618SOL    HW120753   6.587   2.491   4.045
 6618SOL    HW220754   6.508   2.625   4.096
 6619SOL     OW20755   4.394   6.093   4.230
 6619SOL    HW120756   4.487   6.060   4.246
 6619SOL    HW220757   4.386   6.124   4.135
 6620SOL     OW20758   0.607   3.298   3.521
 6620SOL    HW120759   0.601   3.353   3.438
 6620SOL    HW220760   0.648   3.209   3.499
 6621SOL     OW20761   4.159   3.383   4.566
 6621SOL    HW120762   4.153   3.323   4.646
 6621SOL    HW220763   4.139   3.330   4.484
 6622SOL     OW20764   0.739   5.544   1.055
 6622SOL    HW120765   0.822   5.487   1.060
 6622SOL    HW220766   0.667   5.502   1.111
 6623SOL     OW20767   2.994   3.715   5.438
 6623SOL    HW120768   2.964   3.724   5.343
 6623SOL    HW220769   3.094   3.709   5.441
 6624SOL     OW20770   2.111   1.540   3.315
 6624SOL    HW120771   2.129   1.492   3.229
 6624SOL    HW220772   2.052   1.618   3.298
 6625SOL     OW20773   5.886   4.076   5.811
 6625SOL    HW120774   5.831   3.993   5.801
 6625SOL    HW220775   5.877   4.132   5.729
 6626SOL     OW20776   2.925   6.058   5.163
 6626SOL    HW120777   3.001   6.060   5.228
 6626SOL    HW220778   2.878   6.147   5.166
 6627SOL     OW20779   1.937   6.153   4.239
 6627SOL    HW120780   1.970   6.161   4.333
 6627SOL    HW220781   2.004   6.102   4.185
 6628SOL     OW20782   3.614   6.059   4.777
 6628SOL    HW120783   3.515   6.060   4.786
 6628SOL    HW220784   3.642   6.120   4.703
 6629SOL     OW20785   4.692   6.281   6.418
 6629SOL    HW120786   4.682   6.342   6.497
 6629SOL    HW220787   4.602   6.257   6.383
 6630SOL     OW20788   1.610   0.867   0.407
 6630SOL    HW120789   1.570   0.958   0.418
 6630SOL    HW220790   1.623   0.825   0.497
 6631SOL     OW20791   1.806   3.756   5.979
 6631SOL    HW120792   1.755   3.680   5.938
 6631SOL    HW220793   1.896   3.762   5.936
 6632SOL     OW20794   1.283   0.323   0.750
 6632SOL    HW120795   1.322   0.397   0.805
 6632SOL    HW220796   1.332   0.317   0.663
 6633SOL     OW20797   3.511   5.727   5.800
 6633SOL    HW120798   3.574   5.651   5.819
 6633SOL    HW220799   3.439   5.728   5.869
 6634SOL     OW20800   3.886   1.647   4.055
 6634SOL    HW120801   3.787   1.660   4.057
 6634SOL    HW220802   3.929   1.724   4.006
 6635SOL     OW20803   5.002   5.053   4.124
 6635SOL    HW120804   4.917   5.007   4.149
 6635SOL    HW220805   5.036   5.015   4.037
 6636SOL     OW20806   3.963   0.871   6.745
 6636SOL    HW120807   3.947   0.823   6.659
 6636SOL    HW220808   3.917   0.822   6.819
 6637SOL     OW20809   1.064   1.724   1.637
 6637SOL    HW120810   1.091   1.783   1.560
 6637SOL    HW220811   1.005   1.776   1.699
 6638SOL     OW20812   3.076   3.763   3.966
 6638SOL    HW120813   3.094   3.693   3.896
 6638SOL    HW220814   3.016   3.834   3.927
 6639SOL     OW20815   4.687   2.445   1.025
 6639SOL    HW120816   4.680   2.357   0.978
 6639SOL    HW220817   4.595   2.480   1.043
 6640SOL     OW20818   1.920   3.588   4.927
 6640SOL    HW120819   1.893   3.492   4.913
 6640SOL    HW220820   2.005   3.605   4.877
 6641SOL     OW20821   4.883   2.128   1.702
 6641SOL    HW120822   4.837   2.183   1.632
 6641SOL    HW220823   4.947   2.065   1.658
 6642SOL     OW20824   1.106   5.866   6.930
 6642SOL    HW120825   1.182   5.841   6.869
 6642SOL    HW220826   1.027   5.892   6.875
 6643SOL     OW20827   3.972   5.350   6.472
 6643SOL    HW120828   3.966   5.251   6.489
 6643SOL    HW220829   3.938   5.370   6.380
 6644SOL     OW20830   1.857   6.629   3.540
 6644SOL    HW120831   1.790   6.701   3.559
 6644SOL    HW220832   1.892   6.591   3.626
 6645SOL     OW20833   5.917   2.578   0.528
 6645SOL    HW120834   5.838   2.517   0.539
 6645SOL    HW220835   5.903   2.661   0.582
 6646SOL     OW20836   4.335   6.686   5.971
 6646SOL    HW120837   4.355   6.588   5.960
 6646SOL    HW220838   4.369   6.735   5.891
 6647SOL     OW20839   4.272   5.337   0.716
 6647SOL    HW120840   4.356   5.344   0.770
 6647SOL    HW220841   4.223   5.254   0.743
 6648SOL     OW20842   3.133   6.366   5.915
 6648SOL    HW120843   3.163   6.461   5.915
 6648SOL    HW220844   3.059   6.354   5.982
 6649SOL     OW20845   5.236   3.496   6.684
 6649SOL    HW120846   5.266   3.586   6.715
 6649SOL    HW220847   5.294   3.464   6.610
 6650SOL     OW20848   2.095   1.696   4.905
 6650SOL    HW120849   2.155   1.768   4.939
 6650SOL    HW220850   2.145   1.610   4.899
 6651SOL     OW20851   6.563   2.178   6.328
 6651SOL    HW120852   6.637   2.113   6.344
 6651SOL    HW220853   6.572   2.217   6.236
 6652SOL     OW20854   7.017   4.724   0.547
 6652SOL    HW120855   6.937   4.707   0.490
 6652SOL    HW220856   0.005   4.650   0.614
 6653SOL     OW20857   5.663   4.713   0.420
 6653SOL    HW120858   5.607   4.719   0.503
 6653SOL    HW220859   5.735   4.782   0.423
 6654SOL     OW20860   6.483   4.201   3.105
 6654SOL    HW120861   6.419   4.264   3.150
 6654SOL    HW220862   6.454   4.186   3.011
 6655SOL     OW20863   6.999   4.943   2.081
 6655SOL    HW120864   0.009   5.036   2.096
 6655SOL    HW220865   6.973   4.901   2.168
 6656SOL     OW20866   4.753   1.372   3.060
 6656SOL    HW120867   4.720   1.434   2.989
 6656SOL    HW220868   4.841   1.405   3.095
 6657SOL     OW20869   5.274   2.110   3.661
 6657SOL    HW120870   5.328   2.194   3.663
 6657SOL    HW220871   5.276   2.072   3.568
 6658SOL     OW20872   6.773   5.744   5.338
 6658SOL    HW120873   6.747   5.820   5.398
 6658SOL    HW220874   6.707   5.736   5.264
 6659SOL     OW20875   0.975   5.407   2.042
 6659SOL    HW120876   1.029   5.402   1.958
 6659SOL    HW220877   1.032   5.441   2.117
 6660SOL     OW20878   6.701   6.511   3.847
 6660SOL    HW120879   6.622   6.563   3.814
 6660SOL    HW220880   6.765   6.573   3.892
 6661SOL     OW20881   3.743   5.751   4.225
 6661SOL    HW120882   3.754   5.846   4.195
 6661SOL    HW220883   3.742   5.690   4.146
 6662SOL     OW20884   4.062   6.609   2.152
 6662SOL    HW120885   3.992   6.540   2.133
 6662SOL    HW220886   4.143   6.564   2.190
 6663SOL     OW20887   1.313   3.759   5.966
 6663SOL    HW120888   1.220   3.770   5.930
 6663SOL    HW220889   1.373   3.827   5.924
 6664SOL     OW20890   2.983   0.244   1.174
 6664SOL    HW120891   3.054   0.176   1.160
 6664SOL    HW220892   2.906   0.226   1.114
 6665SOL     OW20893   2.430   0.852   6.233
 6665SOL    HW120894   2.357   0.827   6.168
 6665SOL    HW220895   2.436   0.951   6.239
 6666SOL     OW20896   3.965   6.519   5.447
 6666SOL    HW120897   3.932   6.562   5.531
 6666SOL    HW220898   4.058   6.550   5.429
 6667SOL     OW20899   0.023   6.222   6.779
 6667SOL    HW120900   7.011   6.311   6.748
 6667SOL    HW220901   6.966   6.161   6.792
 6668SOL     OW20902   0.157   5.211   0.711
 6668SOL    HW120903   0.167   5.287   0.646
 6668SOL    HW220904   0.124   5.130   0.662
 6669SOL     OW20905   1.525   1.132   3.328
 6669SOL    HW120906   1.504   1.129   3.230
 6669SOL    HW220907   1.580   1.053   3.353
 6670SOL     OW20908   4.020   2.363   1.002
 6670SOL    HW120909   4.098   2.338   1.061
 6670SOL    HW220910   4.051   2.426   0.932
 6671SOL     OW20911   4.941   5.671   0.494
 6671SOL    HW120912   5.036   5.699   0.507
 6671SOL    HW220913   4.900   5.649   0.583
 6672SOL     OW20914   1.845   2.473   1.197
 6672SOL    HW120915   1.938   2.510   1.200
 6672SOL    HW220916   1.845   2.388   1.145
 6673SOL     OW20917   6.002   3.226   4.037
 6673SOL    HW120918   5.906   3.251   4.028
 6673SOL    HW220919   6.050   3.295   4.091
 6674SOL     OW20920   0.390   1.434   0.495
 6674SOL    HW120921   0.370   1.500   0.422
 6674SOL    HW220922   0.486   1.445   0.523
 6675SOL     OW20923   5.357   1.473   6.639
 6675SOL    HW120924   5.395   1.419   6.564
 6675SOL    HW220925   5.258   1.478   6.629
 6676SOL     OW20926   1.029   3.678   3.697
 6676SOL    HW120927   0.931   3.696   3.707
 6676SOL    HW220928   1.061   3.620   3.772
 6677SOL     OW20929   0.657   1.846   0.285
 6677SOL    HW120930   0.617   1.795   0.209
 6677SOL    HW220931   0.610   1.823   0.370
 6678SOL     OW20932   1.995   4.024   6.805
 6678SOL    HW120933   2.039   3.946   6.759
 6678SOL    HW220934   1.896   4.019   6.790
 6679SOL     OW20935   1.784   0.742   4.034
 6679SOL    HW120936   1.705   0.755   4.095
 6679SOL    HW220937   1.867   0.729   4.089
 6680SOL     OW20938   5.830   6.775   1.373
 6680SOL    HW120939   5.855   6.709   1.444
 6680SOL    HW220940   5.901   6.845   1.366
 6681SOL     OW20941   3.549   5.898   1.841
 6681SOL    HW120942   3.514   5.808   1.868
 6681SOL    HW220943   3.601   5.888   1.756
 6682SOL     OW20944   3.373   5.060   5.938
 6682SOL    HW120945   3.295   5.122   5.938
 6682SOL    HW220946   3.412   5.055   6.030
 6683SOL     OW20947   6.683   4.176   6.362
 6683SOL    HW120948   6.752   4.247   6.377
 6683SOL    HW220949   6.676   4.118   6.443
 6684SOL     OW20950   3.033   6.152   0.336
 6684SOL    HW120951   2.945   6.113   0.310
 6684SOL    HW220952   3.039   6.158   0.436
 6685SOL     OW20953   5.090   3.362   6.998
 6685SOL    HW120954   5.146   3.280   6.988
 6685SOL    HW220955   5.059   3.369   0.072
 6686SOL     OW20956   4.768   5.244   4.422
 6686SOL    HW120957   4.772   5.322   4.485
 6686SOL    HW220958   4.859   5.226   4.385
 6687SOL     OW20959   6.424   2.164   1.953
 6687SOL    HW120960   6.519   2.149   1.926
 6687SOL    HW220961   6.421   2.223   2.033
 6688SOL     OW20962   4.633   5.135   0.536
 6688SOL    HW120963   4.700   5.097   0.600
 6688SOL    HW220964   4.620   5.232   0.554
 6689SOL     OW20965   2.126   4.531   5.600
 6689SOL    HW120966   2.216   4.509   5.637
 6689SOL    HW220967   2.079   4.595   5.661
 6690SOL     OW20968   0.690   6.972   5.787
 6690SOL    HW120969   0.784   6.939   5.793
 6690SOL    HW220970   0.686   0.047   5.815
 6691SOL     OW20971   2.430   2.369   2.561
 6691SOL    HW120972   2.521   2.330   2.570
 6691SOL    HW220973   2.363   2.295   2.547
 6692SOL     OW20974   4.665   4.849   1.861
 6692SOL    HW120975   4.626   4.782   1.924
 6692SOL    HW220976   4.696   4.929   1.911
 6693SOL     OW20977   4.092   1.457   4.621
 6693SOL    HW120978   4.116   1.535   4.562
 6693SOL    HW220979   4.094   1.373   4.567
 6694SOL     OW20980   3.416   4.051   1.841
 6694SOL    HW120981   3.332   4.092   1.807
 6694SOL    HW220982   3.492   4.115   1.827
 6695SOL     OW20983   1.703   2.145   6.425
 6695SOL    HW120984   1.787   2.164   6.373
 6695SOL    HW220985   1.626   2.138   6.362
 6696SOL     OW20986   4.118   3.518   4.112
 6696SOL    HW120987   4.141   3.501   4.208
 6696SOL    HW220988   4.060   3.444   4.078
 6697SOL     OW20989   4.027   2.243   2.792
 6697SOL    HW120990   3.955   2.175   2.780
 6697SOL    HW220991   4.032   2.301   2.710
 6698SOL     OW20992   3.440   3.975   1.337
 6698SOL    HW120993   3.470   3.957   1.431
 6698SOL    HW220994   3.520   3.987   1.278
 6699SOL     OW20995   0.959   4.112   5.807
 6699SOL    HW120996   1.039   4.056   5.829
 6699SOL    HW220997   0.881   4.053   5.786
 6700SOL     OW20998   5.824   0.033   6.974
 6700SOL    HW120999   5.781   0.119   6.946
 6700SOL    HW221000   5.815   6.986   6.901
 6701SOL     OW21001   6.000   0.491   1.297
 6701SOL    HW121002   6.081   0.442   1.264
 6701SOL    HW221003   6.020   0.589   1.300
 6702SOL     OW21004   3.314   2.575   1.205
 6702SOL    HW121005   3.232   2.595   1.152
 6702SOL    HW221006   3.390   2.554   1.142
 6703SOL     OW21007   0.213   1.337   0.060
 6703SOL    HW121008   0.271   1.282   7.021
 6703SOL    HW221009   0.238   1.321   0.155
 6704SOL     OW21010   3.137   0.296   6.258
 6704SOL    HW121011   3.131   0.240   6.175
 6704SOL    HW221012   3.120   0.238   6.338
 6705SOL     OW21013   6.441   3.891   2.443
 6705SOL    HW121014   6.441   3.817   2.376
 6705SOL    HW221015   6.359   3.883   2.500
 6706SOL     OW21016   0.246   6.746   1.727
 6706SOL    HW121017   0.232   6.835   1.770
 6706SOL    HW221018   0.160   6.695   1.725
 6707SOL     OW21019   5.319   0.638   2.175
 6707SOL    HW121020   5.269   0.582   2.241
 6707SOL    HW221021   5.262   0.656   2.095
 6708SOL     OW21022   0.787   4.115   1.273
 6708SOL    HW121023   0.883   4.088   1.258
 6708SOL    HW221024   0.755   4.168   1.194
 6709SOL     OW21025   2.043   4.843   2.598
 6709SOL    HW121026   2.067   4.887   2.512
 6709SOL    HW221027   2.078   4.749   2.598
 6710SOL     OW21028   4.299   1.055   0.456
 6710SOL    HW121029   4.293   0.959   0.482
 6710SOL    HW221030   4.393   1.087   0.468
 6711SOL     OW21031   3.424   5.609   6.259
 6711SOL    HW121032   3.408   5.533   6.323
 6711SOL    HW221033   3.391   5.583   6.168
 6712SOL     OW21034   6.026   3.473   1.527
 6712SOL    HW121035   5.982   3.430   1.606
 6712SOL    HW221036   5.956   3.508   1.464
 6713SOL     OW21037   1.885   5.930   4.905
 6713SOL    HW121038   1.891   5.853   4.841
 6713SOL    HW221039   1.841   5.900   4.990
 6714SOL     OW21040   4.806   1.562   1.204
 6714SOL    HW121041   4.889   1.547   1.258
 6714SOL    HW221042   4.742   1.486   1.221
 6715SOL     OW21043   1.359   0.902   0.005
 6715SOL    HW121044   1.438   0.886   0.065
 6715SOL    HW221045   1.309   0.816   7.014
 6716SOL     OW21046   0.094   5.712   2.885
 6716SOL    HW121047   0.065   5.640   2.949
 6716SOL    HW221048   0.042   5.704   2.800
 6717SOL     OW21049   4.882   2.149   5.401
 6717SOL    HW121050   4.935   2.232   5.415
 6717SOL    HW221051   4.820   2.135   5.478
 6718SOL     OW21052   3.762   0.996   1.555
 6718SOL    HW121053   3.799   0.931   1.622
 6718SOL    HW221054   3.824   1.074   1.548
 6719SOL     OW21055   1.935   0.851   0.143
 6719SOL    HW121056   1.892   0.828   0.056
 6719SOL    HW221057   1.993   0.775   0.173
 6720SOL     OW21058   1.729   0.455   6.287
 6720SOL    HW121059   1.802   0.520   6.308
 6720SOL    HW221060   1.711   0.398   6.367
 6721SOL     OW21061   6.357   1.799   0.272
 6721SOL    HW121062   6.268   1.758   0.289
 6721SOL    HW221063   6.423   1.765   0.340
 6722SOL     OW21064   6.082   3.498   0.347
 6722SOL    HW121065   6.045   3.408   0.323
 6722SOL    HW221066   6.055   3.522   0.440
 6723SOL     OW21067   1.239   2.194   6.059
 6723SOL    HW121068   1.143   2.164   6.063
 6723SOL    HW221069   1.250   2.276   6.117
 6724SOL     OW21070   1.970   3.614   5.287
 6724SOL    HW121071   1.897   3.677   5.261
 6724SOL    HW221072   2.058   3.654   5.263
 6725SOL     OW21073   5.285   2.723   3.849
 6725SOL    HW121074   5.206   2.663   3.862
 6725SOL    HW221075   5.362   2.670   3.814
 6726SOL     OW21076   0.111   0.719   5.695
 6726SOL    HW121077   0.146   0.739   5.603
 6726SOL    HW221078   0.040   0.785   5.719
 6727SOL     OW21079   1.079   4.750   5.342
 6727SOL    HW121080   1.123   4.752   5.431
 6727SOL    HW221081   1.148   4.761   5.270
 6728SOL     OW21082   3.136   2.160   3.716
 6728SOL    HW121083   3.235   2.171   3.718
 6728SOL    HW221084   3.108   2.127   3.626
 6729SOL     OW21085   4.725   1.325   2.132
 6729SOL    HW121086   4.631   1.357   2.143
 6729SOL    HW221087   4.749   1.323   2.035
 6730SOL     OW21088   0.490   1.429   1.842
 6730SOL    HW121089   0.404   1.406   1.889
 6730SOL    HW221090   0.470   1.470   1.754
 6731SOL     OW21091   4.046   6.608   6.661
 6731SOL    HW121092   4.062   6.686   6.601
 6731SOL    HW221093   3.968   6.555   6.627
 6732SOL     OW21094   0.061   5.722   4.461
 6732SOL    HW121095   0.107   5.634   4.472
 6732SOL    HW221096   0.009   5.743   4.544
 6733SOL     OW21097   4.996   5.293   6.396
 6733SOL    HW121098   4.908   5.248   6.410
 6733SOL    HW221099   5.027   5.275   6.303
 6734SOL     OW21100   6.493   1.414   4.018
 6734SOL    HW121101   6.507   1.469   4.100
 6734SOL    HW221102   6.434   1.336   4.040
 6735SOL     OW21103   6.137   2.932   3.592
 6735SOL    HW121104   6.108   2.955   3.499
 6735SOL    HW221105   6.118   3.008   3.654
 6736SOL     OW21106   3.331   3.879   0.910
 6736SOL    HW121107   3.236   3.849   0.910
 6736SOL    HW221108   3.359   3.902   0.817
 6737SOL     OW21109   0.177   3.735   0.619
 6737SOL    HW121110   0.267   3.747   0.577
 6737SOL    HW221111   0.108   3.780   0.563
 6738SOL     OW21112   1.415   5.622   3.803
 6738SOL    HW121113   1.448   5.600   3.895
 6738SOL    HW221114   1.363   5.545   3.767
 6739SOL     OW21115   6.162   0.075   4.842
 6739SOL    HW121116   6.117   0.002   4.790
 6739SOL    HW221117   6.143   0.163   4.799
 6740SOL     OW21118   0.588   0.040   3.796
 6740SOL    HW121119   0.496   0.002   3.810
 6740SOL    HW221120   0.652   6.986   3.776
 6741SOL     OW21121   4.403   1.985   6.478
 6741SOL    HW121122   4.481   1.946   6.529
 6741SOL    HW221123   4.342   1.911   6.450
 6742SOL     OW21124   5.680   4.695   3.492
 6742SOL    HW121125   5.650   4.678   3.586
 6742SOL    HW221126   5.607   4.669   3.429
 6743SOL     OW21127   4.312   4.151   0.443
 6743SOL    HW121128   4.379   4.201   0.389
 6743SOL    HW221129   4.348   4.060   0.466
 6744SOL     OW21130   0.245   6.012   5.918
 6744SOL    HW121131   0.185   6.070   5.974
 6744SOL    HW221132   0.272   5.932   5.970
 6745SOL     OW21133   6.923   5.670   4.926
 6745SOL    HW121134   6.982   5.589   4.915
 6745SOL    HW221135   6.935   5.708   5.018
 6746SOL     OW21136   1.477   2.042   2.392
 6746SOL    HW121137   1.404   2.011   2.331
 6746SOL    HW221138   1.444   2.116   2.450
 6747SOL     OW21139   1.561   6.407   6.006
 6747SOL    HW121140   1.605   6.460   5.934
 6747SOL    HW221141   1.626   6.390   6.079
 6748SOL     OW21142   2.058   1.015   4.652
 6748SOL    HW121143   2.097   0.958   4.580
 6748SOL    HW221144   2.019   1.098   4.612
 6749SOL     OW21145   3.737   5.100   1.310
 6749SOL    HW121146   3.709   5.125   1.402
 6749SOL    HW221147   3.777   5.008   1.311
 6750SOL     OW21148   3.452   1.086   5.401
 6750SOL    HW121149   3.424   1.153   5.332
 6750SOL    HW221150   3.376   1.023   5.419
 6751SOL     OW21151   4.504   0.394   4.084
 6751SOL    HW121152   4.446   0.317   4.056
 6751SOL    HW221153   4.448   0.462   4.130
 6752SOL     OW21154   2.351   5.891   2.153
 6752SOL    HW121155   2.349   5.795   2.179
 6752SOL    HW221156   2.285   5.942   2.209
 6753SOL     OW21157   4.055   3.117   5.714
 6753SOL    HW121158   4.088   3.022   5.712
 6753SOL    HW221159   4.067   3.154   5.806
 6754SOL     OW21160   6.012   2.063   1.197
 6754SOL    HW121161   5.916   2.042   1.213
 6754SOL    HW221162   6.066   1.980   1.203
 6755SOL     OW21163   2.564   5.514   6.382
 6755SOL    HW121164   2.566   5.572   6.464
 6755SOL    HW221165   2.656   5.480   6.363
 6756SOL     OW21166   2.654   2.208   5.272
 6756SOL    HW121167   2.642   2.307   5.271
 6756SOL    HW221168   2.744   2.185   5.233
 6757SOL     OW21169   3.399   6.735   0.179
 6757SOL    HW121170   3.355   6.750   0.267
 6757SOL    HW221171   3.346   6.670   0.125
 6758SOL     OW21172   6.168   2.278   2.872
 6758SOL    HW121173   6.176   2.344   2.947
 6758SOL    HW221174   6.119   2.320   2.796
 6759SOL     OW21175   0.997   2.873   2.733
 6759SOL    HW121176   0.974   2.875   2.636
 6759SOL    HW221177   0.923   2.828   2.784
 6760SOL     OW21178   5.552   2.544   3.036
 6760SOL    HW121179   5.609   2.464   3.018
 6760SOL    HW221180   5.518   2.540   3.130
 6761SOL     OW21181   4.216   2.149   4.913
 6761SOL    HW121182   4.137   2.191   4.869
 6761SOL    HW221183   4.217   2.051   4.894
 6762SOL     OW21184   6.881   5.844   3.943
 6762SOL    HW121185   6.941   5.807   3.872
 6762SOL    HW221186   6.928   5.840   4.031
 6763SOL     OW21187   5.068   5.373   5.257
 6763SOL    HW121188   4.987   5.344   5.308
 6763SOL    HW221189   5.070   5.328   5.168
 6764SOL     OW21190   1.732   5.234   1.203
 6764SOL    HW121191   1.817   5.195   1.237
 6764SOL    HW221192   1.655   5.192   1.251
 6765SOL     OW21193   6.639   5.428   2.867
 6765SOL    HW121194   6.580   5.508   2.870
 6765SOL    HW221195   6.723   5.450   2.817
 6766SOL     OW21196   5.378   0.581   0.508
 6766SOL    HW121197   5.376   0.503   0.445
 6766SOL    HW221198   5.318   0.653   0.474
 6767SOL     OW21199   2.996   0.285   0.867
 6767SOL    HW121200   2.996   0.346   0.787
 6767SOL    HW221201   3.089   0.278   0.903
 6768SOL     OW21202   1.469   0.568   1.121
 6768SOL    HW121203   1.450   0.566   1.023
 6768SOL    HW221204   1.472   0.663   1.153
 6769SOL     OW21205   4.113   2.721   1.640
 6769SOL    HW121206   4.073   2.800   1.688
 6769SOL    HW221207   4.211   2.735   1.628
 6770SOL     OW21208   6.872   0.512   1.806
 6770SOL    HW121209   6.933   0.505   1.727
 6770SOL    HW221210   6.927   0.514   1.890
 6771SOL     OW21211   3.743   2.127   3.391
 6771SOL    HW121212   3.733   2.028   3.379
 6771SOL    HW221213   3.771   2.147   3.484
 6772SOL     OW21214   3.120   1.836   2.610
 6772SOL    HW121215   3.138   1.926   2.570
 6772SOL    HW221216   3.064   1.782   2.548
 6773SOL     OW21217   6.956   4.588   2.374
 6773SOL    HW121218   7.001   4.510   2.329
 6773SOL    HW221219   0.004   4.658   2.395
 6774SOL     OW21220   0.682   1.770   0.015
 6774SOL    HW121221   0.588   1.759   7.006
 6774SOL    HW221222   0.714   1.862   7.014
 6775SOL     OW21223   2.537   4.812   1.054
 6775SOL    HW121224   2.483   4.762   0.986
 6775SOL    HW221225   2.626   4.835   1.015
 6776SOL     OW21226   6.058   5.084   0.240
 6776SOL    HW121227   6.053   5.177   0.204
 6776SOL    HW221228   5.972   5.036   0.222
 6777SOL     OW21229   4.602   4.494   6.559
 6777SOL    HW121230   4.544   4.538   6.490
 6777SOL    HW221231   4.560   4.504   6.649
 6778SOL     OW21232   0.975   5.300   2.998
 6778SOL    HW121233   0.957   5.393   3.031
 6778SOL    HW221234   0.942   5.291   2.904
 6779SOL     OW21235   0.168   5.001   0.258
 6779SOL    HW121236   0.246   4.963   0.209
 6779SOL    HW221237   0.176   5.101   0.260
 6780SOL     OW21238   0.187   2.458   2.405
 6780SOL    HW121239   0.222   2.368   2.430
 6780SOL    HW221240   0.219   2.526   2.471
 6781SOL     OW21241   4.940   6.178   6.044
 6781SOL    HW121242   4.979   6.222   5.963
 6781SOL    HW221243   4.927   6.246   6.115
 6782SOL     OW21244   6.938   1.691   2.780
 6782SOL    HW121245   6.927   1.627   2.856
 6782SOL    HW221246   0.014   1.701   2.759
 6783SOL     OW21247   0.049   6.170   6.415
 6783SOL    HW121248   0.139   6.160   6.372
 6783SOL    HW221249   0.029   6.089   6.470
 6784SOL     OW21250   3.597   3.497   0.478
 6784SOL    HW121251   3.594   3.479   0.576
 6784SOL    HW221252   3.605   3.410   0.428
 6785SOL     OW21253   5.611   6.012   2.184
 6785SOL    HW121254   5.525   6.058   2.204
 6785SOL    HW221255   5.632   5.946   2.256
 6786SOL     OW21256   1.661   2.677   6.297
 6786SOL    HW121257   1.653   2.597   6.238
 6786SOL    HW221258   1.736   2.663   6.362
 6787SOL     OW21259   1.343   3.631   2.261
 6787SOL    HW121260   1.331   3.563   2.333
 6787SOL    HW221261   1.424   3.608   2.207
 6788SOL     OW21262   3.154   3.726   1.149
 6788SOL    HW121263   3.157   3.820   1.183
 6788SOL    HW221264   3.146   3.663   1.226
 6789SOL     OW21265   0.879   6.719   2.463
 6789SOL    HW121266   0.902   6.622   2.466
 6789SOL    HW221267   0.957   6.770   2.427
 6790SOL     OW21268   1.847   3.068   6.927
 6790SOL    HW121269   1.921   3.003   6.943
 6790SOL    HW221270   1.829   3.075   6.829
 6791SOL     OW21271   4.327   3.001   6.578
 6791SOL    HW121272   4.326   2.938   6.500
 6791SOL    HW221273   4.416   2.996   6.624
 6792SOL     OW21274   6.382   6.152   0.499
 6792SOL    HW121275   6.458   6.216   0.489
 6792SOL    HW221276   6.416   6.066   0.538
 6793SOL     OW21277   1.220   2.662   1.214
 6793SOL    HW121278   1.240   2.710   1.299
 6793SOL    HW221279   1.142   2.601   1.227
 6794SOL     OW21280   5.098   1.163   5.092
 6794SOL    HW121281   5.132   1.228   5.024
 6794SOL    HW221282   5.174   1.105   5.122
 6795SOL     OW21283   2.873   5.636   0.621
 6795SOL    HW121284   2.839   5.729   0.605
 6795SOL    HW221285   2.802   5.570   0.596
 6796SOL     OW21286   5.041   1.437   2.789
 6796SOL    HW121287   4.993   1.514   2.830
 6796SOL    HW221288   5.134   1.431   2.826
 6797SOL     OW21289   5.730   3.414   1.978
 6797SOL    HW121290   5.787   3.381   1.903
 6797SOL    HW221291   5.714   3.512   1.966
 6798SOL     OW21292   5.030   5.767   2.585
 6798SOL    HW121293   4.961   5.708   2.627
 6798SOL    HW221294   4.998   5.862   2.587
 6799SOL     OW21295   5.360   5.916   0.341
 6799SOL    HW121296   5.394   5.909   0.434
 6799SOL    HW221297   5.305   5.835   0.319
 6800SOL     OW21298   1.946   4.492   0.400
 6800SOL    HW121299   1.917   4.544   0.481
 6800SOL    HW221300   1.876   4.499   0.329
 6801SOL     OW21301   1.717   2.737   2.150
 6801SOL    HW121302   1.622   2.760   2.170
 6801SOL    HW221303   1.732   2.639   2.167
 6802SOL     OW21304   2.385   6.188   1.837
 6802SOL    HW121305   2.292   6.224   1.827
 6802SOL    HW221306   2.449   6.243   1.783
 6803SOL     OW21307   5.349   1.905   6.690
 6803SOL    HW121308   5.417   1.948   6.749
 6803SOL    HW221309   5.277   1.864   6.747
 6804SOL     OW21310   1.827   5.622   3.420
 6804SOL    HW121311   1.832   5.678   3.503
 6804SOL    HW221312   1.772   5.668   3.352
 6805SOL     OW21313   6.087   0.668   5.033
 6805SOL    HW121314   6.167   0.677   4.973
 6805SOL    HW221315   6.004   0.664   4.977
 6806SOL     OW21316   4.162   0.832   5.146
 6806SOL    HW121317   4.074   0.876   5.158
 6806SOL    HW221318   4.167   0.792   5.054
 6807SOL     OW21319   3.401   2.650   0.206
 6807SOL    HW121320   3.433   2.568   0.159
 6807SOL    HW221321   3.305   2.666   0.182
 6808SOL     OW21322   0.685   2.919   5.593
 6808SOL    HW121323   0.623   2.848   5.628
 6808SOL    HW221324   0.652   2.950   5.504
 6809SOL     OW21325   2.566   4.020   6.579
 6809SOL    HW121326   2.547   3.960   6.657
 6809SOL    HW221327   2.592   3.965   6.500
 6810SOL     OW21328   0.357   1.074   2.219
 6810SOL    HW121329   0.351   1.071   2.318
 6810SOL    HW221330   0.318   0.990   2.181
 6811SOL     OW21331   5.881   5.021   1.254
 6811SOL    HW121332   5.921   5.103   1.212
 6811SOL    HW221333   5.876   5.034   1.353
 6812SOL     OW21334   3.804   3.313   3.501
 6812SOL    HW121335   3.894   3.358   3.496
 6812SOL    HW221336   3.812   3.219   3.469
 6813SOL     OW21337   4.494   2.531   0.683
 6813SOL    HW121338   4.465   2.558   0.775
 6813SOL    HW221339   4.507   2.432   0.680
 6814SOL     OW21340   2.673   4.005   1.303
 6814SOL    HW121341   2.684   3.931   1.370
 6814SOL    HW221342   2.617   3.973   1.227
 6815SOL     OW21343   2.161   0.661   1.456
 6815SOL    HW121344   2.233   0.705   1.510
 6815SOL    HW221345   2.072   0.686   1.494
 6816SOL     OW21346   6.659   4.783   6.965
 6816SOL    HW121347   6.673   4.772   0.043
 6816SOL    HW221348   6.580   4.729   6.937
 6817SOL     OW21349   0.119   1.474   5.734
 6817SOL    HW121350   0.188   1.467   5.662
 6817SOL    HW221351   0.033   1.505   5.695
 6818SOL     OW21352   3.671   6.509   2.648
 6818SOL    HW121353   3.618   6.437   2.694
 6818SOL    HW221354   3.612   6.589   2.634
 6819SOL     OW21355   3.307   0.523   3.980
 6819SOL    HW121356   3.291   0.571   4.066
 6819SOL    HW221357   3.404   0.530   3.955
 6820SOL     OW21358   1.204   4.393   3.056
 6820SOL    HW121359   1.122   4.337   3.067
 6820SOL    HW221360   1.282   4.333   3.037
 6821SOL     OW21361   2.574   2.383   4.731
 6821SOL    HW121362   2.506   2.362   4.802
 6821SOL    HW221363   2.665   2.357   4.763
 6822SOL     OW21364   5.717   1.985   5.785
 6822SOL    HW121365   5.723   1.938   5.697
 6822SOL    HW221366   5.715   2.084   5.769
 6823SOL     OW21367   3.096   3.068   2.874
 6823SOL    HW121368   3.058   3.109   2.957
 6823SOL    HW221369   3.072   3.125   2.795
 6824SOL     OW21370   0.847   4.295   6.761
 6824SOL    HW121371   0.827   4.329   6.853
 6824SOL    HW221372   0.795   4.348   6.694
 6825SOL     OW21373   5.020   0.093   2.099
 6825SOL    HW121374   5.078   0.018   2.068
 6825SOL    HW221375   5.035   0.108   2.197
 6826SOL     OW21376   2.094   3.464   2.868
 6826SOL    HW121377   2.162   3.407   2.914
 6826SOL    HW221378   2.078   3.429   2.776
 6827SOL     OW21379   5.516   6.223   6.368
 6827SOL    HW121380   5.586   6.220   6.439
 6827SOL    HW221381   5.459   6.141   6.374
 6828SOL     OW21382   0.917   2.273   1.372
 6828SOL    HW121383   0.928   2.211   1.294
 6828SOL    HW221384   0.949   2.364   1.347
 6829SOL     OW21385   5.119   6.233   3.684
 6829SOL    HW121386   5.214   6.245   3.712
 6829SOL    HW221387   5.090   6.139   3.704
 6830SOL     OW21388   5.447   1.766   3.552
 6830SOL    HW121389   5.469   1.862   3.568
 6830SOL    HW221390   5.424   1.722   3.638
 6831SOL     OW21391   0.699   0.839   5.572
 6831SOL    HW121392   0.720   0.758   5.627
 6831SOL    HW221393   0.780   0.864   5.519
 6832SOL     OW21394   3.140   5.202   2.398
 6832SOL    HW121395   3.040   5.204   2.408
 6832SOL    HW221396   3.166   5.123   2.343
 6833SOL     OW21397   3.679   4.844   0.071
 6833SOL    HW121398   3.758   4.847   0.133
 6833SOL    HW221399   3.598   4.879   0.119
 6834SOL     OW21400   4.293   6.215   2.070
 6834SOL    HW121401   4.195   6.207   2.055
 6834SOL    HW221402   4.320   6.155   2.146
 6835SOL     OW21403   3.801   6.795   5.016
 6835SOL    HW121404   3.820   6.705   4.977
 6835SOL    HW221405   3.879   6.823   5.072
 6836SOL     OW21406   3.751   6.708   6.735
 6836SOL    HW121407   3.827   6.644   6.725
 6836SOL    HW221408   3.689   6.675   6.807
 6837SOL     OW21409   1.842   3.489   1.966
 6837SOL    HW121410   1.810   3.418   1.902
 6837SOL    HW221411   1.942   3.496   1.959
 6838SOL     OW21412   2.254   1.178   0.032
 6838SOL    HW121413   2.259   1.277   0.021
 6838SOL    HW221414   2.175   1.154   0.087
 6839SOL     OW21415   4.132   0.854   0.293
 6839SOL    HW121416   4.124   0.860   0.194
 6839SOL    HW221417   4.154   0.944   0.330
 6840SOL     OW21418   1.800   1.466   6.355
 6840SOL    HW121419   1.738   1.541   6.380
 6840SOL    HW221420   1.803   1.400   6.430
 6841SOL     OW21421   6.498   2.757   6.038
 6841SOL    HW121422   6.438   2.731   6.113
 6841SOL    HW221423   6.457   2.834   5.988
 6842SOL     OW21424   2.189   5.257   2.483
 6842SOL    HW121425   2.288   5.253   2.472
 6842SOL    HW221426   2.167   5.274   2.579
 6843SOL     OW21427   4.678   6.942   6.905
 6843SOL    HW121428   4.597   6.917   6.852
 6843SOL    HW221429   4.731   6.860   6.926
 6844SOL     OW21430   5.247   0.630   5.169
 6844SOL    HW121431   5.251   0.726   5.199
 6844SOL    HW221432   5.182   0.580   5.226
 6845SOL     OW21433   4.981   2.268   2.816
 6845SOL    HW121434   4.911   2.305   2.876
 6845SOL    HW221435   4.942   2.193   2.762
 6846SOL     OW21436   2.804   3.667   0.510
 6846SOL    HW121437   2.852   3.585   0.543
 6846SOL    HW221438   2.842   3.747   0.555
 6847SOL     OW21439   5.856   3.594   3.979
 6847SOL    HW121440   5.954   3.572   3.985
 6847SOL    HW221441   5.822   3.619   4.069
 6848SOL     OW21442   5.567   4.994   3.299
 6848SOL    HW121443   5.664   4.971   3.301
 6848SOL    HW221444   5.536   4.994   3.204
 6849SOL     OW21445   3.569   3.888   6.589
 6849SOL    HW121446   3.598   3.960   6.651
 6849SOL    HW221447   3.478   3.910   6.552
 6850SOL     OW21448   4.182   1.263   3.609
 6850SOL    HW121449   4.193   1.357   3.579
 6850SOL    HW221450   4.101   1.256   3.668
 6851SOL     OW21451   1.904   3.009   3.429
 6851SOL    HW121452   1.968   2.942   3.466
 6851SOL    HW221453   1.881   3.076   3.499
 6852SOL     OW21454   2.503   5.287   0.368
 6852SOL    HW121455   2.405   5.276   0.387
 6852SOL    HW221456   2.552   5.206   0.399
 6853SOL     OW21457   4.711   3.097   6.890
 6853SOL    HW121458   4.636   3.163   6.901
 6853SOL    HW221459   4.772   3.102   6.969
 6854SOL     OW21460   5.361   6.532   6.086
 6854SOL    HW121461   5.365   6.451   6.144
 6854SOL    HW221462   5.430   6.524   6.014
 6855SOL     OW21463   4.062   5.154   3.852
 6855SOL    HW121464   4.035   5.242   3.814
 6855SOL    HW221465   4.111   5.102   3.782
 6856SOL     OW21466   1.140   2.027   0.035
 6856SOL    HW121467   1.214   1.968   0.069
 6856SOL    HW221468   1.089   1.978   6.985
 6857SOL     OW21469   1.217   3.923   5.494
 6857SOL    HW121470   1.290   3.966   5.546
 6857SOL    HW221471   1.251   3.839   5.452
 6858SOL     OW21472   2.946   4.118   1.726
 6858SOL    HW121473   2.927   4.216   1.738
 6858SOL    HW221474   3.015   4.106   1.655
 6859SOL     OW21475   0.981   1.141   2.410
 6859SOL    HW121476   0.984   1.237   2.439
 6859SOL    HW221477   0.991   1.137   2.310
 6860SOL     OW21478   0.790   6.756   1.823
 6860SOL    HW121479   0.723   6.763   1.897
 6860SOL    HW221480   0.851   6.678   1.841
 6861SOL     OW21481   4.914   2.177   5.130
 6861SOL    HW121482   4.839   2.152   5.069
 6861SOL    HW221483   4.890   2.155   5.224
 6862SOL     OW21484   0.674   4.686   5.280
 6862SOL    HW121485   0.731   4.766   5.264
 6862SOL    HW221486   0.723   4.603   5.254
 6863SOL     OW21487   6.706   6.979   5.343
 6863SOL    HW121488   6.788   7.020   5.303
 6863SOL    HW221489   6.668   6.912   5.279
 6864SOL     OW21490   1.612   3.941   5.895
 6864SOL    HW121491   1.676   3.871   5.926
 6864SOL    HW221492   1.595   3.930   5.797
 6865SOL     OW21493   2.025   6.954   3.973
 6865SOL    HW121494   2.048   0.030   3.966
 6865SOL    HW221495   2.081   6.901   3.909
 6866SOL     OW21496   0.477   4.100   1.571
 6866SOL    HW121497   0.556   4.039   1.583
 6866SOL    HW221498   0.486   4.148   1.484
 6867SOL     OW21499   2.329   3.654   6.888
 6867SOL    HW121500   2.329   3.708   6.972
 6867SOL    HW221501   2.344   3.557   6.911
 6868SOL     OW21502   2.487   4.923   4.583
 6868SOL    HW121503   2.484   4.986   4.661
 6868SOL    HW221504   2.482   4.975   4.498
 6869SOL     OW21505   4.098   0.537   6.047
 6869SOL    HW121506   4.187   0.491   6.045
 6869SOL    HW221507   4.027   0.470   6.067
 6870SOL     OW21508   0.064   2.885   0.569
 6870SOL    HW121509   0.039   2.955   0.637
 6870SOL    HW221510   0.102   2.805   0.616
 6871SOL     OW21511   0.439   3.703   2.616
 6871SOL    HW121512   0.474   3.708   2.710
 6871SOL    HW221513   0.508   3.737   2.553
 6872SOL     OW21514   2.623   3.312   0.761
 6872SOL    HW121515   2.674   3.360   0.833
 6872SOL    HW221516   2.526   3.312   0.784
 6873SOL     OW21517   0.549   4.026   4.658
 6873SOL    HW121518   0.502   3.938   4.662
 6873SOL    HW221519   0.637   4.015   4.612
 6874SOL     OW21520   5.547   6.329   3.183
 6874SOL    HW121521   5.608   6.293   3.113
 6874SOL    HW221522   5.570   6.289   3.272
 6875SOL     OW21523   1.388   2.538   0.858
 6875SOL    HW121524   1.292   2.510   0.860
 6875SOL    HW221525   1.397   2.632   0.891
 6876SOL     OW21526   4.133   5.719   3.185
 6876SOL    HW121527   4.159   5.770   3.104
 6876SOL    HW221528   4.090   5.780   3.252
 6877SOL     OW21529   1.481   3.432   2.458
 6877SOL    HW121530   1.453   3.337   2.470
 6877SOL    HW221531   1.579   3.436   2.438
 6878SOL     OW21532   1.886   0.356   4.261
 6878SOL    HW121533   1.951   0.323   4.329
 6878SOL    HW221534   1.828   0.427   4.301
 6879SOL     OW21535   2.105   2.259   0.572
 6879SOL    HW121536   2.024   2.200   0.569
 6879SOL    HW221537   2.084   2.346   0.528
 6880SOL     OW21538   1.429   5.407   6.516
 6880SOL    HW121539   1.471   5.457   6.592
 6880SOL    HW221540   1.498   5.388   6.446
 6881SOL     OW21541   0.997   3.141   0.486
 6881SOL    HW121542   1.062   3.065   0.485
 6881SOL    HW221543   0.910   3.111   0.447
 6882SOL     OW21544   2.877   6.121   6.563
 6882SOL    HW121545   2.822   6.164   6.491
 6882SOL    HW221546   2.967   6.163   6.566
 6883SOL     OW21547   4.961   0.307   0.026
 6883SOL    HW121548   5.060   0.308   0.010
 6883SOL    HW221549   4.918   0.238   6.989
 6884SOL     OW21550   1.689   3.843   3.014
 6884SOL    HW121551   1.764   3.811   2.956
 6884SOL    HW221552   1.726   3.881   3.099
 6885SOL     OW21553   5.654   5.886   4.207
 6885SOL    HW121554   5.699   5.920   4.124
 6885SOL    HW221555   5.724   5.856   4.272
 6886SOL     OW21556   4.825   1.916   6.866
 6886SOL    HW121557   4.876   1.890   6.784
 6886SOL    HW221558   4.889   1.939   6.939
 6887SOL     OW21559   5.384   6.000   6.374
 6887SOL    HW121560   5.331   5.949   6.441
 6887SOL    HW221561   5.349   5.982   6.282
 6888SOL     OW21562   5.840   5.019   6.737
 6888SOL    HW121563   5.819   5.084   6.664
 6888SOL    HW221564   5.755   4.973   6.765
 6889SOL     OW21565   0.507   2.343   6.877
 6889SOL    HW121566   0.445   2.265   6.870
 6889SOL    HW221567   0.560   2.336   6.962
 6890SOL     OW21568   4.629   5.448   2.817
 6890SOL    HW121569   4.614   5.363   2.767
 6890SOL    HW221570   4.545   5.471   2.867
 6891SOL     OW21571   1.641   1.247   1.110
 6891SOL    HW121572   1.555   1.250   1.161
 6891SOL    HW221573   1.623   1.218   1.016
 6892SOL     OW21574   3.154   0.870   4.531
 6892SOL    HW121575   3.071   0.819   4.508
 6892SOL    HW221576   3.179   0.851   4.626
 6893SOL     OW21577   6.602   3.166   0.071
 6893SOL    HW121578   6.695   3.166   0.033
 6893SOL    HW221579   6.558   3.078   0.052
 6894SOL     OW21580   5.361   5.101   0.516
 6894SOL    HW121581   5.423   5.164   0.564
 6894SOL    HW221582   5.344   5.135   0.424
 6895SOL     OW21583   0.752   6.432   1.724
 6895SOL    HW121584   0.683   6.394   1.786
 6895SOL    HW221585   0.707   6.469   1.643
 6896SOL     OW21586   4.249   2.372   4.631
 6896SOL    HW121587   4.336   2.397   4.588
 6896SOL    HW221588   4.261   2.369   4.731
 6897SOL     OW21589   4.991   3.594   5.179
 6897SOL    HW121590   4.896   3.620   5.162
 6897SOL    HW221591   5.033   3.566   5.092
 6898SOL     OW21592   2.439   1.278   1.241
 6898SOL    HW121593   2.525   1.288   1.191
 6898SOL    HW221594   2.457   1.272   1.339
 6899SOL     OW21595   5.831   6.123   2.735
 6899SOL    HW121596   5.870   6.095   2.648
 6899SOL    HW221597   5.841   6.222   2.746
 6900SOL     OW21598   6.483   4.380   5.519
 6900SOL    HW121599   6.572   4.382   5.566
 6900SOL    HW221600   6.475   4.294   5.468
 6901SOL     OW21601   4.664   4.749   0.288
 6901SOL    HW121602   4.621   4.669   0.246
 6901SOL    HW221603   4.609   4.780   0.365
 6902SOL     OW21604   0.604   5.726   6.514
 6902SOL    HW121605   0.665   5.759   6.586
 6902SOL    HW221606   0.658   5.690   6.438
 6903SOL     OW21607   2.066   5.436   4.081
 6903SOL    HW121608   2.153   5.388   4.074
 6903SOL    HW221609   2.008   5.391   4.149
 6904SOL     OW21610   6.810   6.816   4.949
 6904SOL    HW121611   6.795   6.908   4.911
 6904SOL    HW221612   6.789   6.747   4.880
 6905SOL     OW21613   4.792   5.772   6.061
 6905SOL    HW121614   4.805   5.816   5.972
 6905SOL    HW221615   4.708   5.717   6.059
 6906SOL     OW21616   3.770   1.594   3.776
 6906SOL    HW121617   3.796   1.642   3.692
 6906SOL    HW221618   3.823   1.510   3.784
 6907SOL     OW21619   6.214   1.839   0.918
 6907SOL    HW121620   6.202   1.935   0.891
 6907SOL    HW221621   6.298   1.803   0.878
 6908SOL     OW21622   2.746   4.291   6.889
 6908SOL    HW121623   2.694   4.222   6.940
 6908SOL    HW221624   2.824   4.248   6.844
 6909SOL     OW21625   5.947   6.020   2.498
 6909SOL    HW121626   5.932   5.928   2.533
 6909SOL    HW221627   6.022   6.019   2.432
 6910SOL     OW21628   1.589   2.789   3.651
 6910SOL    HW121629   1.574   2.750   3.560
 6910SOL    HW221630   1.684   2.818   3.660
 6911SOL     OW21631   2.890   6.907   5.888
 6911SOL    HW121632   2.882   6.833   5.821
 6911SOL    HW221633   2.801   6.924   5.930
 6912SOL     OW21634   2.633   3.729   6.190
 6912SOL    HW121635   2.679   3.802   6.240
 6912SOL    HW221636   2.537   3.754   6.176
 6913SOL     OW21637   4.717   6.522   6.071
 6913SOL    HW121638   4.787   6.509   6.142
 6913SOL    HW221639   4.641   6.574   6.110
 6914SOL     OW21640   6.662   3.270   1.741
 6914SOL    HW121641   6.585   3.246   1.682
 6914SOL    HW221642   6.731   3.320   1.688
 6915SOL     OW21643   1.056   3.096   2.848
 6915SOL    HW121644   0.990   3.134   2.913
 6915SOL    HW221645   1.023   3.008   2.814
 6916SOL     OW21646   4.624   6.078   6.973
 6916SOL    HW121647   4.618   6.171   6.935
 6916SOL    HW221648   4.720   6.048   6.970
 6917SOL     OW21649   5.473   5.141   1.331
 6917SOL    HW121650   5.533   5.138   1.411
 6917SOL    HW221651   5.386   5.097   1.353
 6918SOL     OW21652   2.124   3.307   1.760
 6918SOL    HW121653   2.214   3.325   1.719
 6918SOL    HW221654   2.118   3.354   1.848
 6919SOL     OW21655   6.650   6.529   3.421
 6919SOL    HW121656   6.679   6.501   3.329
 6919SOL    HW221657   6.726   6.515   3.485
 6920SOL     OW21658   5.779   0.722   5.583
 6920SOL    HW121659   5.876   0.715   5.604
 6920SOL    HW221660   5.759   0.673   5.498
 6921SOL     OW21661   3.943   0.208   4.506
 6921SOL    HW121662   3.917   0.304   4.499
 6921SOL    HW221663   4.005   0.196   4.583
 6922SOL     OW21664   1.218   5.176   5.728
 6922SOL    HW121665   1.187   5.081   5.727
 6922SOL    HW221666   1.200   5.219   5.640
 6923SOL     OW21667   6.030   6.950   2.455
 6923SOL    HW121668   6.071   6.881   2.396
 6923SOL    HW221669   6.076   6.950   2.544
 6924SOL     OW21670   3.506   6.210   0.971
 6924SOL    HW121671   3.498   6.301   0.930
 6924SOL    HW221672   3.594   6.169   0.946
 6925SOL     OW21673   6.022   6.367   6.319
 6925SOL    HW121674   5.992   6.281   6.278
 6925SOL    HW221675   6.115   6.356   6.354
 6926SOL     OW21676   2.985   2.349   0.159
 6926SOL    HW121677   2.994   2.438   0.114
 6926SOL    HW221678   2.889   2.332   0.180
 6927SOL     OW21679   4.805   0.619   0.689
 6927SOL    HW121680   4.901   0.640   0.672
 6927SOL    HW221681   4.751   0.650   0.611
 6928SOL     OW21682   4.294   5.275   1.162
 6928SOL    HW121683   4.244   5.228   1.089
 6928SOL    HW221684   4.379   5.226   1.182
 6929SOL     OW21685   6.328   5.469   1.225
 6929SOL    HW121686   6.420   5.431   1.237
 6929SOL    HW221687   6.317   5.548   1.285
 6930SOL     OW21688   1.116   6.773   0.671
 6930SOL    HW121689   1.162   6.846   0.621
 6930SOL    HW221690   1.184   6.712   0.710
 6931SOL     OW21691   3.038   3.071   0.957
 6931SOL    HW121692   2.984   3.096   1.037
 6931SOL    HW221693   3.126   3.033   0.986
 6932SOL     OW21694   4.658   5.536   7.000
 6932SOL    HW121695   4.559   5.534   6.986
 6932SOL    HW221696   4.678   5.567   0.072
 6933SOL     OW21697   3.174   5.018   6.455
 6933SOL    HW121698   3.184   4.969   6.369
 6933SOL    HW221699   3.142   5.111   6.437
 6934SOL     OW21700   5.444   4.151   6.819
 6934SOL    HW121701   5.436   4.052   6.827
 6934SOL    HW221702   5.411   4.194   6.904
 6935SOL     OW21703   5.225   5.421   1.482
 6935SOL    HW121704   5.250   5.382   1.570
 6935SOL    HW221705   5.285   5.386   1.411
 6936SOL     OW21706   1.178   2.171   4.915
 6936SOL    HW121707   1.203   2.082   4.877
 6936SOL    HW221708   1.231   2.242   4.869
 6937SOL     OW21709   5.401   5.832   0.003
 6937SOL    HW121710   5.425   5.740   6.994
 6937SOL    HW221711   5.364   5.829   0.095
 6938SOL     OW21712   1.590   0.483   5.268
 6938SOL    HW121713   1.542   0.434   5.195
 6938SOL    HW221714   1.560   0.447   5.357
 6939SOL     OW21715   5.789   3.961   3.550
 6939SOL    HW121716   5.825   3.925   3.636
 6939SOL    HW221717   5.839   4.045   3.526
 6940SOL     OW21718   3.194   6.307   0.925
 6940SOL    HW121719   3.281   6.261   0.906
 6940SOL    HW221720   3.162   6.352   0.841
 6941SOL     OW21721   3.388   3.434   2.507
 6941SOL    HW121722   3.371   3.458   2.602
 6941SOL    HW221723   3.484   3.450   2.485
 6942SOL     OW21724   5.979   6.858   1.924
 6942SOL    HW121725   6.068   6.879   1.883
 6942SOL    HW221726   5.959   6.925   1.996
 6943SOL     OW21727   4.704   5.182   6.501
 6943SOL    HW121728   4.613   5.202   6.536
 6943SOL    HW221729   4.745   5.108   6.553
 6944SOL     OW21730   1.219   4.376   5.200
 6944SOL    HW121731   1.270   4.398   5.283
 6944SOL    HW221732   1.141   4.318   5.223
 6945SOL     OW21733   5.543   2.490   0.936
 6945SOL    HW121734   5.473   2.561   0.936
 6945SOL    HW221735   5.621   2.519   0.991
 6946SOL     OW21736   4.384   5.941   2.717
 6946SOL    HW121737   4.437   5.857   2.703
 6946SOL    HW221738   4.290   5.925   2.686
 6947SOL     OW21739   5.113   5.054   5.154
 6947SOL    HW121740   5.026   5.073   5.200
 6947SOL    HW221741   5.106   4.968   5.104
 6948SOL     OW21742   0.343   4.927   0.019
 6948SOL    HW121743   0.401   4.849   0.043
 6948SOL    HW221744   0.294   4.907   6.955
 6949SOL     OW21745   2.791   1.294   3.813
 6949SOL    HW121746   2.692   1.309   3.806
 6949SOL    HW221747   2.822   1.318   3.905
 6950SOL     OW21748   0.513   0.556   4.805
 6950SOL    HW121749   0.569   0.612   4.744
 6950SOL    HW221750   0.562   0.472   4.827
 6951SOL     OW21751   0.220   4.935   6.070
 6951SOL    HW121752   0.263   4.899   6.153
 6951SOL    HW221753   0.122   4.940   6.083
 6952SOL     OW21754   4.138   5.940   3.428
 6952SOL    HW121755   4.185   6.028   3.429
 6952SOL    HW221756   4.075   5.934   3.505
 6953SOL     OW21757   4.972   1.349   0.990
 6953SOL    HW121758   5.034   1.288   0.942
 6953SOL    HW221759   5.017   1.437   1.007
 6954SOL     OW21760   6.028   3.871   0.086
 6954SOL    HW121761   5.942   3.819   0.091
 6954SOL    HW221762   6.105   3.807   0.090
 6955SOL     OW21763   4.954   6.720   2.040
 6955SOL    HW121764   5.024   6.778   1.998
 6955SOL    HW221765   4.919   6.765   2.123
 6956SOL     OW21766   5.585   5.429   2.549
 6956SOL    HW121767   5.592   5.524   2.579
 6956SOL    HW221768   5.507   5.385   2.592
 6957SOL     OW21769   5.321   5.889   6.140
 6957SOL    HW121770   5.375   5.807   6.122
 6957SOL    HW221771   5.260   5.905   6.062
 6958SOL     OW21772   2.917   3.672   3.685
 6958SOL    HW121773   2.884   3.579   3.707
 6958SOL    HW221774   2.904   3.689   3.588
 6959SOL     OW21775   1.008   4.094   2.880
 6959SOL    HW121776   1.000   4.160   2.954
 6959SOL    HW221777   1.081   4.122   2.817
 6960SOL     OW21778   3.012   4.424   0.321
 6960SOL    HW121779   2.941   4.462   0.261
 6960SOL    HW221780   2.992   4.327   0.338
 6961SOL     OW21781   4.794   1.634   5.261
 6961SOL    HW121782   4.701   1.633   5.297
 6961SOL    HW221783   4.835   1.544   5.271
 6962SOL     OW21784   2.621   6.804   6.725
 6962SOL    HW121785   2.717   6.817   6.697
 6962SOL    HW221786   2.565   6.790   6.644
 6963SOL     OW21787   4.847   6.390   0.708
 6963SOL    HW121788   4.890   6.474   0.742
 6963SOL    HW221789   4.918   6.322   0.688
 6964SOL     OW21790   1.769   0.029   5.432
 6964SOL    HW121791   1.687   0.086   5.418
 6964SOL    HW221792   1.755   6.960   5.390
 6965SOL     OW21793   0.750   2.070   0.130
 6965SOL    HW121794   0.743   1.975   0.161
 6965SOL    HW221795   0.839   2.107   0.158
 6966SOL     OW21796   1.290   6.711   1.498
 6966SOL    HW121797   1.224   6.728   1.425
 6966SOL    HW221798   1.372   6.767   1.482
 6967SOL     OW21799   4.494   1.449   6.312
 6967SOL    HW121800   4.428   1.485   6.246
 6967SOL    HW221801   4.490   1.503   6.396
 6968SOL     OW21802   4.016   6.333   2.409
 6968SOL    HW121803   4.107   6.310   2.444
 6968SOL    HW221804   3.998   6.431   2.424
 6969SOL     OW21805   1.901   1.810   1.884
 6969SOL    HW121806   1.835   1.736   1.891
 6969SOL    HW221807   1.976   1.795   1.949
 6970SOL     OW21808   3.520   4.969   5.606
 6970SOL    HW121809   3.550   4.900   5.540
 6970SOL    HW221810   3.593   4.986   5.672
 6971SOL     OW21811   6.771   4.659   0.421
 6971SOL    HW121812   6.738   4.566   0.433
 6971SOL    HW221813   6.698   4.724   0.440
 6972SOL     OW21814   5.368   3.698   1.824
 6972SOL    HW121815   5.326   3.764   1.886
 6972SOL    HW221816   5.444   3.742   1.775
 6973SOL     OW21817   1.477   3.200   3.009
 6973SOL    HW121818   1.564   3.219   3.055
 6973SOL    HW221819   1.403   3.197   3.076
 6974SOL     OW21820   3.664   4.092   2.988
 6974SOL    HW121821   3.676   4.162   3.059
 6974SOL    HW221822   3.617   4.013   3.027
 6975SOL     OW21823   3.147   5.278   4.481
 6975SOL    HW121824   3.106   5.282   4.572
 6975SOL    HW221825   3.236   5.324   4.482
 6976SOL     OW21826   4.538   3.941   6.146
 6976SOL    HW121827   4.622   3.893   6.173
 6976SOL    HW221828   4.459   3.885   6.169
 6977SOL     OW21829   4.228   4.851   1.041
 6977SOL    HW121830   4.241   4.948   1.018
 6977SOL    HW221831   4.311   4.800   1.020
 6978SOL     OW21832   5.651   3.445   1.560
 6978SOL    HW121833   5.647   3.362   1.616
 6978SOL    HW221834   5.623   3.424   1.467
 6979SOL     OW21835   1.087   3.982   1.647
 6979SOL    HW121836   1.101   3.978   1.746
 6979SOL    HW221837   1.162   3.935   1.600
 6980SOL     OW21838   1.860   5.841   2.976
 6980SOL    HW121839   1.918   5.809   2.902
 6980SOL    HW221840   1.917   5.871   3.052
 6981SOL     OW21841   3.899   2.925   6.764
 6981SOL    HW121842   3.917   2.884   6.674
 6981SOL    HW221843   3.986   2.951   6.806
 6982SOL     OW21844   1.861   1.166   3.347
 6982SOL    HW121845   1.951   1.186   3.385
 6982SOL    HW221846   1.805   1.249   3.349
 6983SOL     OW21847   4.920   0.701   4.535
 6983SOL    HW121848   4.934   0.603   4.553
 6983SOL    HW221849   4.999   0.737   4.485
 6984SOL     OW21850   0.859   2.584   3.421
 6984SOL    HW121851   0.787   2.652   3.435
 6984SOL    HW221852   0.926   2.591   3.496
 6985SOL     OW21853   6.176   3.584   0.101
 6985SOL    HW121854   6.122   3.523   0.044
 6985SOL    HW221855   6.154   3.568   0.197
 6986SOL     OW21856   4.799   4.891   5.442
 6986SOL    HW121857   4.801   4.914   5.539
 6986SOL    HW221858   4.873   4.826   5.421
 6987SOL     OW21859   0.765   1.629   6.381
 6987SOL    HW121860   0.813   1.571   6.315
 6987SOL    HW221861   0.680   1.662   6.340
 6988SOL     OW21862   3.606   1.663   6.272
 6988SOL    HW121863   3.524   1.650   6.216
 6988SOL    HW221864   3.580   1.687   6.365
 6989SOL     OW21865   0.448   5.210   2.543
 6989SOL    HW121866   0.517   5.138   2.534
 6989SOL    HW221867   0.418   5.215   2.638
 6990SOL     OW21868   3.830   2.223   0.864
 6990SOL    HW121869   3.914   2.250   0.911
 6990SOL    HW221870   3.833   2.256   0.770
 6991SOL     OW21871   6.093   3.263   2.008
 6991SOL    HW121872   6.024   3.297   2.072
 6991SOL    HW221873   6.184   3.269   2.050
 6992SOL     OW21874   0.768   6.141   0.126
 6992SOL    HW121875   0.702   6.214   0.106
 6992SOL    HW221876   0.779   6.133   0.225
 6993SOL     OW21877   4.364   1.436   1.609
 6993SOL    HW121878   4.371   1.356   1.549
 6993SOL    HW221879   4.439   1.499   1.589
 6994SOL     OW21880   2.614   0.502   3.511
 6994SOL    HW121881   2.529   0.460   3.543
 6994SOL    HW221882   2.619   0.494   3.411
 6995SOL     OW21883   0.175   4.136   1.117
 6995SOL    HW121884   0.100   4.146   1.181
 6995SOL    HW221885   0.162   4.053   1.062
 6996SOL     OW21886   1.268   0.914   0.359
 6996SOL    HW121887   1.244   0.833   0.413
 6996SOL    HW221888   1.194   0.934   0.295
 6997SOL     OW21889   5.732   5.343   5.611
 6997SOL    HW121890   5.683   5.262   5.577
 6997SOL    HW221891   5.671   5.422   5.608
 6998SOL     OW21892   6.539   1.324   0.169
 6998SOL    HW121893   6.503   1.385   0.240
 6998SOL    HW221894   6.484   1.241   0.165
 6999SOL     OW21895   0.271   3.309   0.488
 6999SOL    HW121896   0.187   3.362   0.497
 6999SOL    HW221897   0.335   3.336   0.561
 7000SOL     OW21898   6.974   6.665   3.418
 7000SOL    HW121899   6.932   6.715   3.342
 7000SOL    HW221900   0.045   6.636   3.392
 7001SOL     OW21901   0.557   1.887   4.365
 7001SOL    HW121902   0.513   1.895   4.455
 7001SOL    HW221903   0.501   1.829   4.306
 7002SOL     OW21904   0.592   4.932   2.810
 7002SOL    HW121905   0.586   4.913   2.712
 7002SOL    HW221906   0.518   4.885   2.858
 7003SOL     OW21907   6.770   4.686   1.376
 7003SOL    HW121908   6.832   4.631   1.320
 7003SOL    HW221909   6.711   4.625   1.429
 7004SOL     OW21910   1.995   6.463   0.522
 7004SOL    HW121911   2.049   6.380   0.531
 7004SOL    HW221912   1.898   6.440   0.511
 7005SOL     OW21913   0.853   6.059   0.538
 7005SOL    HW121914   0.937   6.043   0.486
 7005SOL    HW221915   0.785   6.102   0.478
 7006SOL     OW21916   1.238   0.122   4.828
 7006SOL    HW121917   1.191   0.138   4.741
 7006SOL    HW221918   1.270   0.209   4.865
 7007SOL     OW21919   2.680   6.997   5.542
 7007SOL    HW121920   2.697   0.039   5.618
 7007SOL    HW221921   2.753   7.005   5.474
 7008SOL     OW21922   5.492   3.875   3.567
 7008SOL    HW121923   5.575   3.927   3.546
 7008SOL    HW221924   5.492   3.789   3.516
 7009SOL     OW21925   4.527   5.417   1.865
 7009SOL    HW121926   4.594   5.344   1.853
 7009SOL    HW221927   4.446   5.398   1.808
 7010SOL     OW21928   5.313   4.166   1.745
 7010SOL    HW121929   5.324   4.082   1.691
 7010SOL    HW221930   5.219   4.171   1.779
 7011SOL     OW21931   3.372   5.931   6.941
 7011SOL    HW121932   3.451   5.992   6.950
 7011SOL    HW221933   3.289   5.979   6.970
 7012SOL     OW21934   6.596   2.393   0.332
 7012SOL    HW121935   6.628   2.307   0.293
 7012SOL    HW221936   6.508   2.378   0.377
 7013SOL     OW21937   2.618   1.344   0.405
 7013SOL    HW121938   2.686   1.357   0.477
 7013SOL    HW221939   2.533   1.388   0.432
 7014SOL     OW21940   6.206   2.693   1.234
 7014SOL    HW121941   6.221   2.776   1.287
 7014SOL    HW221942   6.175   2.717   1.142
 7015SOL     OW21943   5.102   6.203   1.047
 7015SOL    HW121944   5.200   6.201   1.068
 7015SOL    HW221945   5.071   6.298   1.048
 7016SOL     OW21946   3.182   4.448   0.715
 7016SOL    HW121947   3.204   4.503   0.635
 7016SOL    HW221948   3.180   4.351   0.690
 7017SOL     OW21949   5.118   5.132   4.600
 7017SOL    HW121950   5.120   5.232   4.589
 7017SOL    HW221951   5.141   5.088   4.514
 7018SOL     OW21952   4.741   2.947   4.502
 7018SOL    HW121953   4.800   2.926   4.424
 7018SOL    HW221954   4.669   2.878   4.509
 7019SOL     OW21955   4.358   5.318   2.280
 7019SOL    HW121956   4.290   5.352   2.216
 7019SOL    HW221957   4.342   5.221   2.298
 7020SOL     OW21958   0.647   2.469   6.658
 7020SOL    HW121959   0.614   2.437   6.746
 7020SOL    HW221960   0.705   2.549   6.671
 7021SOL     OW21961   1.085   1.648   5.200
 7021SOL    HW121962   1.078   1.701   5.285
 7021SOL    HW221963   1.172   1.668   5.155
 7022SOL     OW21964   3.464   1.875   0.624
 7022SOL    HW121965   3.500   1.796   0.574
 7022SOL    HW221966   3.364   1.871   0.624
 7023SOL     OW21967   0.690   1.897   0.721
 7023SOL    HW121968   0.673   1.872   0.817
 7023SOL    HW221969   0.775   1.855   0.691
 7024SOL     OW21970   3.566   3.265   3.730
 7024SOL    HW121971   3.636   3.260   3.658
 7024SOL    HW221972   3.606   3.236   3.817
 7025SOL     OW21973   3.950   6.366   0.533
 7025SOL    HW121974   4.023   6.400   0.592
 7025SOL    HW221975   3.875   6.331   0.590
 7026SOL     OW21976   3.716   2.323   1.403
 7026SOL    HW121977   3.620   2.347   1.413
 7026SOL    HW221978   3.771   2.382   1.462
 7027SOL     OW21979   2.196   5.248   2.762
 7027SOL    HW121980   2.116   5.261   2.820
 7027SOL    HW221981   2.253   5.175   2.799
 7028SOL     OW21982   2.836   0.284   3.375
 7028SOL    HW121983   2.851   0.309   3.279
 7028SOL    HW221984   2.780   0.354   3.419
 7029SOL     OW21985   3.322   3.828   4.812
 7029SOL    HW121986   3.237   3.811   4.861
 7029SOL    HW221987   3.385   3.879   4.871
 7030SOL     OW21988   6.287   1.241   5.305
 7030SOL    HW121989   6.240   1.235   5.394
 7030SOL    HW221990   6.299   1.149   5.268
 7031SOL     OW21991   4.099   6.791   0.501
 7031SOL    HW121992   4.132   6.739   0.422
 7031SOL    HW221993   4.097   6.732   0.582
 7032SOL     OW21994   3.949   6.160   4.560
 7032SOL    HW121995   3.919   6.154   4.655
 7032SOL    HW221996   3.923   6.250   4.523
 7033SOL     OW21997   2.018   2.213   5.017
 7033SOL    HW121998   1.931   2.215   5.065
 7033SOL    HW221999   2.076   2.141   5.056
 7034SOL     OW22000   6.913   1.132   3.341
 7034SOL    HW122001   7.005   1.155   3.375
 7034SOL    HW222002   6.877   1.055   3.393
 7035SOL     OW22003   1.682   0.661   0.615
 7035SOL    HW122004   1.632   0.610   0.546
 7035SOL    HW222005   1.715   0.598   0.685
 7036SOL     OW22006   0.106   1.344   1.783
 7036SOL    HW122007   0.156   1.431   1.782
 7036SOL    HW222008   0.055   1.336   1.868
 7037SOL     OW22009   1.350   0.613   6.376
 7037SOL    HW122010   1.325   0.573   6.288
 7037SOL    HW222011   1.419   0.684   6.363
 7038SOL     OW22012   1.633   3.686   6.602
 7038SOL    HW122013   1.662   3.637   6.685
 7038SOL    HW222014   1.533   3.686   6.598
 7039SOL     OW22015   0.710   6.254   2.906
 7039SOL    HW122016   0.704   6.166   2.953
 7039SOL    HW222017   0.651   6.254   2.825
 7040SOL     OW22018   4.584   2.728   5.034
 7040SOL    HW122019   4.612   2.792   4.962
 7040SOL    HW222020   4.537   2.778   5.107
 7041SOL     OW22021   1.535   0.217   3.852
 7041SOL    HW122022   1.582   0.269   3.923
 7041SOL    HW222023   1.571   0.124   3.849
 7042SOL     OW22024   4.625   5.916   5.597
 7042SOL    HW122025   4.680   5.966   5.531
 7042SOL    HW222026   4.529   5.917   5.568
 7043SOL     OW22027   1.775   4.961   1.746
 7043SOL    HW122028   1.682   4.985   1.773
 7043SOL    HW222029   1.799   4.871   1.783
 7044SOL     OW22030   4.859   6.225   4.264
 7044SOL    HW122031   4.958   6.237   4.275
 7044SOL    HW222032   4.812   6.307   4.295
 7045SOL     OW22033   6.385   6.069   2.477
 7045SOL    HW122034   6.457   6.088   2.411
 7045SOL    HW222035   6.416   6.093   2.569
 7046SOL     OW22036   2.864   2.210   4.360
 7046SOL    HW122037   2.845   2.112   4.350
 7046SOL    HW222038   2.779   2.258   4.384
 7047SOL     OW22039   1.197   6.416   0.630
 7047SOL    HW122040   1.158   6.416   0.722
 7047SOL    HW222041   1.287   6.460   0.631
 7048SOL     OW22042   6.730   6.074   4.966
 7048SOL    HW122043   6.637   6.081   5.002
 7048SOL    HW222044   6.792   6.046   5.040
 7049SOL     OW22045   3.750   0.811   2.928
 7049SOL    HW122046   3.738   0.849   3.020
 7049SOL    HW222047   3.666   0.826   2.875
 7050SOL     OW22048   3.836   4.000   1.388
 7050SOL    HW122049   3.921   3.949   1.377
 7050SOL    HW222050   3.856   4.090   1.425
 7051SOL     OW22051   0.572   1.119   1.261
 7051SOL    HW122052   0.585   1.080   1.170
 7051SOL    HW222053   0.553   1.046   1.327
 7052SOL     OW22054   5.009   0.157   2.646
 7052SOL    HW122055   5.096   0.112   2.668
 7052SOL    HW222056   4.940   0.087   2.625
 7053SOL     OW22057   2.154   3.251   3.028
 7053SOL    HW122058   2.122   3.204   2.946
 7053SOL    HW222059   2.215   3.191   3.080
 7054SOL     OW22060   6.601   0.650   0.402
 7054SOL    HW122061   6.555   0.562   0.402
 7054SOL    HW222062   6.598   0.689   0.494
 7055SOL     OW22063   2.039   1.075   6.756
 7055SOL    HW122064   2.128   1.110   6.727
 7055SOL    HW222065   1.969   1.145   6.742
 7056SOL     OW22066   0.328   5.653   1.327
 7056SOL    HW122067   0.327   5.637   1.426
 7056SOL    HW222068   0.252   5.604   1.285
 7057SOL     OW22069   3.224   4.905   4.744
 7057SOL    HW122070   3.151   4.839   4.764
 7057SOL    HW222071   3.241   4.962   4.825
 7058SOL     OW22072   5.093   2.764   5.905
 7058SOL    HW122073   5.157   2.703   5.951
 7058SOL    HW222074   5.024   2.710   5.857
 7059SOL     OW22075   1.947   0.215   5.341
 7059SOL    HW122076   2.025   0.207   5.404
 7059SOL    HW222077   1.868   0.168   5.379
 7060SOL     OW22078   3.795   1.123   1.946
 7060SOL    HW122079   3.702   1.099   1.917
 7060SOL    HW222080   3.812   1.087   2.038
 7061SOL     OW22081   0.450   2.175   2.064
 7061SOL    HW122082   0.506   2.204   1.987
 7061SOL    HW222083   0.369   2.233   2.071
 7062SOL     OW22084   3.740   0.910   3.179
 7062SOL    HW122085   3.675   0.966   3.230
 7062SOL    HW222086   3.783   0.845   3.242
 7063SOL     OW22087   1.031   0.835   1.787
 7063SOL    HW122088   1.089   0.915   1.803
 7063SOL    HW222089   0.939   0.854   1.820
 7064SOL     OW22090   4.409   1.417   5.032
 7064SOL    HW122091   4.358   1.454   5.110
 7064SOL    HW222092   4.485   1.478   5.009
 7065SOL     OW22093   3.921   4.774   5.665
 7065SOL    HW122094   3.873   4.861   5.677
 7065SOL    HW222095   3.886   4.708   5.731
 7066SOL     OW22096   3.752   0.466   6.857
 7066SOL    HW122097   3.718   0.444   6.766
 7066SOL    HW222098   3.834   0.411   6.876
 7067SOL     OW22099   2.085   3.768   6.476
 7067SOL    HW122100   2.160   3.826   6.444
 7067SOL    HW222101   2.099   3.746   6.572
 7068SOL     OW22102   5.161   3.359   4.498
 7068SOL    HW122103   5.134   3.337   4.592
 7068SOL    HW222104   5.080   3.372   4.442
 7069SOL     OW22105   5.833   0.302   6.513
 7069SOL    HW122106   5.859   0.206   6.522
 7069SOL    HW222107   5.779   0.314   6.430
 7070SOL     OW22108   0.220   6.829   4.904
 7070SOL    HW122109   0.189   6.749   4.957
 7070SOL    HW222110   0.159   6.906   4.923
 7071SOL     OW22111   5.018   6.153   6.647
 7071SOL    HW122112   4.941   6.091   6.633
 7071SOL    HW222113   5.099   6.117   6.600
 7072SOL     OW22114   0.205   3.787   6.237
 7072SOL    HW122115   0.163   3.747   6.319
 7072SOL    HW222116   0.135   3.802   6.168
 7073SOL     OW22117   5.368   1.222   3.130
 7073SOL    HW122118   5.340   1.131   3.160
 7073SOL    HW222119   5.347   1.289   3.201
 7074SOL     OW22120   5.655   4.075   2.905
 7074SOL    HW122121   5.701   4.162   2.915
 7074SOL    HW222122   5.684   4.031   2.820
 7075SOL     OW22123   3.313   5.268   4.187
 7075SOL    HW122124   3.315   5.172   4.214
 7075SOL    HW222125   3.232   5.287   4.133
 7076SOL     OW22126   5.645   2.335   2.388
 7076SOL    HW122127   5.560   2.386   2.388
 7076SOL    HW222128   5.696   2.355   2.471
 7077SOL     OW22129   3.593   5.618   1.215
 7077SOL    HW122130   3.570   5.587   1.307
 7077SOL    HW222131   3.601   5.539   1.154
 7078SOL     OW22132   5.413   0.589   6.832
 7078SOL    HW122133   5.393   0.678   6.873
 7078SOL    HW222134   5.512   0.581   6.817
 7079SOL     OW22135   1.565   6.588   4.781
 7079SOL    HW122136   1.468   6.596   4.802
 7079SOL    HW222137   1.601   6.678   4.759
 7080SOL     OW22138   4.376   2.045   5.655
 7080SOL    HW122139   4.373   2.109   5.578
 7080SOL    HW222140   4.285   2.006   5.668
 7081SOL     OW22141   1.547   0.505   0.410
 7081SOL    HW122142   1.626   0.544   0.363
 7081SOL    HW222143   1.465   0.522   0.355
 7082SOL     OW22144   6.587   4.769   3.099
 7082SOL    HW122145   6.514   4.791   3.033
 7082SOL    HW222146   6.665   4.828   3.083
 7083SOL     OW22147   6.475   2.775   2.570
 7083SOL    HW122148   6.388   2.732   2.592
 7083SOL    HW222149   6.459   2.861   2.521
 7084SOL     OW22150   0.251   6.378   0.320
 7084SOL    HW122151   0.336   6.430   0.333
 7084SOL    HW222152   0.220   6.343   0.408
 7085SOL     OW22153   0.593   3.298   1.792
 7085SOL    HW122154   0.663   3.227   1.793
 7085SOL    HW222155   0.609   3.360   1.715
 7086SOL     OW22156   5.836   1.276   4.114
 7086SOL    HW122157   5.876   1.221   4.187
 7086SOL    HW222158   5.826   1.371   4.146
 7087SOL     OW22159   5.132   3.391   2.847
 7087SOL    HW122160   5.099   3.482   2.820
 7087SOL    HW222161   5.078   3.358   2.924
 7088SOL     OW22162   6.417   1.911   4.669
 7088SOL    HW122163   6.482   1.957   4.731
 7088SOL    HW222164   6.437   1.937   4.575
 7089SOL     OW22165   3.089   6.146   1.902
 7089SOL    HW122166   3.156   6.121   1.833
 7089SOL    HW222167   2.998   6.151   1.860
 7090SOL     OW22168   4.371   2.185   1.093
 7090SOL    HW122169   4.381   2.265   1.033
 7090SOL    HW222170   4.388   2.213   1.188
 7091SOL     OW22171   6.771   6.290   6.522
 7091SOL    HW122172   6.717   6.207   6.530
 7091SOL    HW222173   6.773   6.337   6.610
 7092SOL     OW22174   4.283   1.592   6.169
 7092SOL    HW122175   4.228   1.511   6.189
 7092SOL    HW222176   4.359   1.566   6.108
 7093SOL     OW22177   3.138   3.123   1.523
 7093SOL    HW122178   3.139   3.066   1.441
 7093SOL    HW222179   3.054   3.177   1.525
 7094SOL     OW22180   2.935   0.236   5.490
 7094SOL    HW122181   3.009   0.293   5.526
 7094SOL    HW222182   2.873   0.211   5.564
 7095SOL     OW22183   2.501   4.608   4.834
 7095SOL    HW122184   2.512   4.614   4.735
 7095SOL    HW222185   2.427   4.544   4.855
 7096SOL     OW22186   0.158   1.003   1.334
 7096SOL    HW122187   0.183   0.943   1.258
 7096SOL    HW222188   0.150   0.949   1.418
 7097SOL     OW22189   4.209   0.893   1.805
 7097SOL    HW122190   4.241   0.821   1.867
 7097SOL    HW222191   4.194   0.855   1.714
 7098SOL     OW22192   1.233   6.611   4.134
 7098SOL    HW122193   1.298   6.572   4.069
 7098SOL    HW222194   1.163   6.662   4.085
 7099SOL     OW22195   2.674   2.323   3.813
 7099SOL    HW122196   2.734   2.330   3.892
 7099SOL    HW222197   2.595   2.267   3.835
 7100SOL     OW22198   5.608   4.296   1.393
 7100SOL    HW122199   5.656   4.253   1.469
 7100SOL    HW222200   5.671   4.311   1.317
 7101SOL     OW22201   2.664   6.071   5.545
 7101SOL    HW122202   2.749   6.030   5.580
 7101SOL    HW222203   2.653   6.047   5.449
 7102SOL     OW22204   5.264   0.759   1.700
 7102SOL    HW122205   5.178   0.795   1.663
 7102SOL    HW222206   5.285   0.806   1.786
 7103SOL     OW22207   4.861   3.801   3.049
 7103SOL    HW122208   4.871   3.825   3.146
 7103SOL    HW222209   4.840   3.884   2.997
 7104SOL     OW22210   5.172   3.876   3.282
 7104SOL    HW122211   5.166   3.803   3.214
 7104SOL    HW222212   5.154   3.839   3.373
 7105SOL     OW22213   3.317   4.007   3.596
 7105SOL    HW122214   3.276   3.931   3.546
 7105SOL    HW222215   3.344   3.977   3.687
 7106SOL     OW22216   3.270   2.534   0.822
 7106SOL    HW122217   3.323   2.489   0.894
 7106SOL    HW222218   3.275   2.480   0.738
 7107SOL     OW22219   3.650   0.690   6.333
 7107SOL    HW122220   3.578   0.622   6.349
 7107SOL    HW222221   3.659   0.706   6.235
 7108SOL     OW22222   4.705   0.722   1.919
 7108SOL    HW122223   4.804   0.720   1.907
 7108SOL    HW222224   4.675   0.640   1.967
 7109SOL     OW22225   2.544   5.697   6.595
 7109SOL    HW122226   2.477   5.676   6.666
 7109SOL    HW222227   2.562   5.795   6.593
 7110SOL     OW22228   3.213   6.417   4.437
 7110SOL    HW122229   3.289   6.386   4.380
 7110SOL    HW222230   3.163   6.337   4.471
 7111SOL     OW22231   6.800   0.329   4.832
 7111SOL    HW122232   6.843   0.269   4.765
 7111SOL    HW222233   6.727   0.381   4.789
 7112SOL     OW22234   1.386   5.009   4.920
 7112SOL    HW122235   1.406   5.070   4.997
 7112SOL    HW222236   1.427   4.919   4.938
 7113SOL     OW22237   3.587   6.207   5.563
 7113SOL    HW122238   3.598   6.124   5.617
 7113SOL    HW222239   3.676   6.233   5.524
 7114SOL     OW22240   5.134   4.735   0.433
 7114SOL    HW122241   5.172   4.714   0.343
 7114SOL    HW222242   5.157   4.661   0.497
 7115SOL     OW22243   6.351   3.575   6.777
 7115SOL    HW122244   6.263   3.622   6.786
 7115SOL    HW222245   6.371   3.526   6.862
 7116SOL     OW22246   6.320   4.059   4.276
 7116SOL    HW122247   6.230   4.022   4.300
 7116SOL    HW222248   6.390   3.990   4.291
 7117SOL     OW22249   5.870   7.003   3.012
 7117SOL    HW122250   5.930   0.062   3.008
 7117SOL    HW222251   5.913   6.926   2.965
 7118SOL     OW22252   4.182   4.213   5.255
 7118SOL    HW122253   4.085   4.235   5.260
 7118SOL    HW222254   4.233   4.294   5.225
 7119SOL     OW22255   3.645   6.594   4.900
 7119SOL    HW122256   3.555   6.579   4.940
 7119SOL    HW222257   3.664   6.692   4.897
 7120SOL     OW22258   4.909   0.438   0.310
 7120SOL    HW122259   4.811   0.420   0.307
 7120SOL    HW222260   4.952   0.405   0.226
 7121SOL     OW22261   1.940   5.844   2.291
 7121SOL    HW122262   1.988   5.767   2.335
 7121SOL    HW222263   1.852   5.859   2.337
 7122SOL     OW22264   2.871   1.242   6.716
 7122SOL    HW122265   2.964   1.229   6.751
 7122SOL    HW222266   2.871   1.316   6.649
 7123SOL     OW22267   5.101   5.291   6.138
 7123SOL    HW122268   5.112   5.375   6.085
 7123SOL    HW222269   5.043   5.227   6.087
 7124SOL     OW22270   1.329   2.275   1.794
 7124SOL    HW122271   1.243   2.322   1.811
 7124SOL    HW222272   1.312   2.178   1.782
 7125SOL     OW22273   0.633   6.535   1.476
 7125SOL    HW122274   0.697   6.600   1.519
 7125SOL    HW222275   0.562   6.585   1.427
 7126SOL     OW22276   3.117   5.408   0.968
 7126SOL    HW122277   3.176   5.436   1.044
 7126SOL    HW222278   3.164   5.339   0.913
 7127SOL     OW22279   2.559   6.604   5.559
 7127SOL    HW122280   2.503   6.676   5.518
 7127SOL    HW222281   2.605   6.552   5.486
 7128SOL     OW22282   4.266   3.809   6.115
 7128SOL    HW122283   4.194   3.840   6.177
 7128SOL    HW222284   4.299   3.719   6.144
 7129SOL     OW22285   0.423   0.006   0.715
 7129SOL    HW122286   0.507   7.014   0.768
 7129SOL    HW222287   0.444   7.018   0.617
 7130SOL     OW22288   3.296   6.626   3.881
 7130SOL    HW122289   3.382   6.613   3.930
 7130SOL    HW222290   3.238   6.690   3.932
 7131SOL     OW22291   3.667   1.300   2.883
 7131SOL    HW122292   3.711   1.277   2.970
 7131SOL    HW222293   3.619   1.388   2.892
 7132SOL     OW22294   5.286   4.603   0.598
 7132SOL    HW122295   5.333   4.537   0.539
 7132SOL    HW222296   5.354   4.648   0.657
 7133SOL     OW22297   5.139   5.544   2.862
 7133SOL    HW122298   5.079   5.515   2.787
 7133SOL    HW222299   5.160   5.642   2.852
 7134SOL     OW22300   5.462   5.317   0.826
 7134SOL    HW122301   5.425   5.259   0.899
 7134SOL    HW222302   5.551   5.353   0.855
 7135SOL     OW22303   1.504   2.398   1.041
 7135SOL    HW122304   1.486   2.437   1.131
 7135SOL    HW222305   1.495   2.469   0.971
 7136SOL     OW22306   1.989   1.825   1.634
 7136SOL    HW122307   2.056   1.755   1.611
 7136SOL    HW222308   1.956   1.811   1.727
 7137SOL     OW22309   2.920   2.256   1.357
 7137SOL    HW122310   2.843   2.211   1.401
 7137SOL    HW222311   3.005   2.216   1.390
 7138SOL     OW22312   0.947   2.836   0.501
 7138SOL    HW122313   0.911   2.870   0.588
 7138SOL    HW222314   0.933   2.737   0.495
 7139SOL     OW22315   6.302   6.234   0.760
 7139SOL    HW122316   6.303   6.220   0.661
 7139SOL    HW222317   6.218   6.196   0.798
 7140SOL     OW22318   6.617   3.537   0.469
 7140SOL    HW122319   6.691   3.530   0.402
 7140SOL    HW222320   6.529   3.532   0.422
 7141SOL     OW22321   3.396   0.522   0.980
 7141SOL    HW122322   3.429   0.581   0.906
 7141SOL    HW222323   3.474   0.492   1.035
 7142SOL     OW22324   3.228   6.965   4.705
 7142SOL    HW122325   3.256   6.917   4.788
 7142SOL    HW222326   3.277   0.031   4.699
 7143SOL     OW22327   3.140   4.308   6.568
 7143SOL    HW122328   3.122   4.230   6.628
 7143SOL    HW222329   3.239   4.322   6.561
 7144SOL     OW22330   6.727   0.555   5.751
 7144SOL    HW122331   6.682   0.471   5.782
 7144SOL    HW222332   6.820   0.558   5.787
 7145SOL     OW22333   5.241   2.352   6.689
 7145SOL    HW122334   5.291   2.362   6.602
 7145SOL    HW222335   5.147   2.324   6.670
 7146SOL     OW22336   1.812   2.180   5.181
 7146SOL    HW122337   1.810   2.275   5.213
 7146SOL    HW222338   1.739   2.128   5.225
 7147SOL     OW22339   6.261   6.679   1.966
 7147SOL    HW122340   6.312   6.711   2.046
 7147SOL    HW222341   6.261   6.750   1.896
 7148SOL     OW22342   6.500   6.986   0.923
 7148SOL    HW122343   6.504   6.897   0.968
 7148SOL    HW222344   6.474   0.035   0.990
 7149SOL     OW22345   5.999   4.963   5.773
 7149SOL    HW122346   6.093   4.962   5.807
 7149SOL    HW222347   6.000   4.983   5.675
 7150SOL     OW22348   3.487   3.071   6.965
 7150SOL    HW122349   3.442   3.073   0.033
 7150SOL    HW222350   3.503   3.165   6.934
 7151SOL     OW22351   3.132   1.044   1.025
 7151SOL    HW122352   3.069   0.977   0.986
 7151SOL    HW222353   3.081   1.111   1.079
 7152SOL     OW22354   6.325   1.466   6.191
 7152SOL    HW122355   6.330   1.480   6.290
 7152SOL    HW222356   6.305   1.553   6.146
 7153SOL     OW22357   3.401   5.766   0.907
 7153SOL    HW122358   3.371   5.854   0.871
 7153SOL    HW222359   3.483   5.778   0.963
 7154SOL     OW22360   4.100   2.125   1.861
 7154SOL    HW122361   4.152   2.182   1.925
 7154SOL    HW222362   4.036   2.182   1.811
 7155SOL     OW22363   2.238   0.946   1.853
 7155SOL    HW122364   2.143   0.954   1.822
 7155SOL    HW222365   2.294   1.017   1.809
 7156SOL     OW22366   5.995   3.210   6.109
 7156SOL    HW122367   5.963   3.238   6.199
 7156SOL    HW222368   5.953   3.268   6.039
 7157SOL     OW22369   6.596   4.501   6.056
 7157SOL    HW122370   6.581   4.425   5.993
 7157SOL    HW222371   6.519   4.509   6.119
 7158SOL     OW22372   4.360   6.960   4.048
 7158SOL    HW122373   4.373   6.870   4.090
 7158SOL    HW222374   4.420   6.969   3.968
 7159SOL     OW22375   1.098   6.317   3.019
 7159SOL    HW122376   1.167   6.385   3.044
 7159SOL    HW222377   1.008   6.361   3.015
 7160SOL     OW22378   6.828   0.089   3.624
 7160SOL    HW122379   6.778   0.132   3.548
 7160SOL    HW222380   6.915   0.054   3.591
 7161SOL     OW22381   3.731   2.906   3.095
 7161SOL    HW122382   3.694   2.909   3.187
 7161SOL    HW222383   3.820   2.952   3.092
 7162SOL     OW22384   0.091   5.463   1.765
 7162SOL    HW122385   0.087   5.554   1.805
 7162SOL    HW222386   0.005   5.443   1.718
 7163SOL     OW22387   6.645   1.820   1.659
 7163SOL    HW122388   6.578   1.855   1.725
 7163SOL    HW222389   6.714   1.765   1.706
 7164SOL     OW22390   2.069   1.318   6.463
 7164SOL    HW122391   2.013   1.281   6.537
 7164SOL    HW222392   2.020   1.394   6.419
 7165SOL     OW22393   5.593   1.288   0.615
 7165SOL    HW122394   5.643   1.364   0.658
 7165SOL    HW222395   5.644   1.203   0.627
 7166SOL     OW22396   6.461   5.875   6.322
 7166SOL    HW122397   6.555   5.852   6.297
 7166SOL    HW222398   6.431   5.815   6.396
 7167SOL     OW22399   5.774   2.589   4.865
 7167SOL    HW122400   5.841   2.537   4.813
 7167SOL    HW222401   5.808   2.605   4.958
 7168SOL     OW22402   2.975   1.281   1.682
 7168SOL    HW122403   2.965   1.215   1.756
 7168SOL    HW222404   3.072   1.305   1.671
 7169SOL     OW22405   1.794   3.810   6.416
 7169SOL    HW122406   1.727   3.765   6.475
 7169SOL    HW222407   1.886   3.791   6.450
 7170SOL     OW22408   3.800   1.057   0.393
 7170SOL    HW122409   3.737   1.044   0.469
 7170SOL    HW222410   3.894   1.058   0.426
 7171SOL     OW22411   6.983   4.542   0.752
 7171SOL    HW122412   0.039   4.551   0.814
 7171SOL    HW222413   6.953   4.446   0.749
 7172SOL     OW22414   1.254   1.902   4.037
 7172SOL    HW122415   1.283   1.856   4.121
 7172SOL    HW222416   1.233   1.997   4.057
 7173SOL     OW22417   4.792   5.439   6.084
 7173SOL    HW122418   4.780   5.417   5.987
 7173SOL    HW222419   4.747   5.368   6.139
 7174SOL     OW22420   6.487   4.489   2.057
 7174SOL    HW122421   6.537   4.483   1.971
 7174SOL    HW222422   6.459   4.584   2.073
 7175SOL     OW22423   6.263   3.391   6.120
 7175SOL    HW122424   6.244   3.369   6.216
 7175SOL    HW222425   6.180   3.428   6.077
 7176SOL     OW22426   1.025   0.660   5.283
 7176SOL    HW122427   1.098   0.664   5.215
 7176SOL    HW222428   0.938   0.684   5.241
 7177SOL     OW22429   1.360   5.600   3.278
 7177SOL    HW122430   1.351   5.682   3.335
 7177SOL    HW222431   1.296   5.606   3.201
 7178SOL     OW22432   2.109   0.114   5.048
 7178SOL    HW122433   2.069   0.200   5.081
 7178SOL    HW222434   2.176   0.081   5.114
 7179SOL     OW22435   3.079   5.377   6.203
 7179SOL    HW122436   3.095   5.469   6.166
 7179SOL    HW222437   3.030   5.384   6.290
 7180SOL     OW22438   1.717   3.567   0.936
 7180SOL    HW122439   1.724   3.605   1.028
 7180SOL    HW222440   1.639   3.609   0.888
 7181SOL     OW22441   2.331   1.751   5.738
 7181SOL    HW122442   2.312   1.780   5.644
 7181SOL    HW222443   2.370   1.659   5.736
 7182SOL     OW22444   1.694   1.912   4.420
 7182SOL    HW122445   1.723   1.938   4.513
 7182SOL    HW222446   1.686   1.994   4.364
 7183SOL     OW22447   0.580   0.074   1.977
 7183SOL    HW122448   0.632   0.159   1.988
 7183SOL    HW222449   0.625   0.016   1.909
 7184SOL     OW22450   6.391   0.270   4.185
 7184SOL    HW122451   6.312   0.260   4.245
 7184SOL    HW222452   6.378   0.213   4.104
 7185SOL     OW22453   4.396   1.187   4.581
 7185SOL    HW122454   4.487   1.176   4.620
 7185SOL    HW222455   4.339   1.109   4.605
 7186SOL     OW22456   0.078   0.433   6.481
 7186SOL    HW122457   0.022   0.362   6.439
 7186SOL    HW222458   0.046   0.450   6.574
 7187SOL     OW22459   3.240   3.028   4.197
 7187SOL    HW122460   3.336   3.006   4.214
 7187SOL    HW222461   3.192   3.040   4.284
 7188SOL     OW22462   4.065   4.515   0.330
 7188SOL    HW122463   4.096   4.425   0.300
 7188SOL    HW222464   4.137   4.582   0.314
 7189SOL     OW22465   6.740   2.470   5.688
 7189SOL    HW122466   6.683   2.544   5.652
 7189SOL    HW222467   6.835   2.501   5.692
 7190SOL     OW22468   5.589   5.077   1.581
 7190SOL    HW122469   5.571   5.148   1.650
 7190SOL    HW222470   5.687   5.061   1.575
 7191SOL     OW22471   0.243   4.984   4.358
 7191SOL    HW122472   0.191   4.968   4.274
 7191SOL    HW222473   0.331   5.027   4.336
 7192SOL     OW22474   2.488   4.623   6.725
 7192SOL    HW122475   2.427   4.696   6.756
 7192SOL    HW222476   2.442   4.535   6.732
 7193SOL     OW22477   2.919   2.217   2.817
 7193SOL    HW122478   3.017   2.206   2.802
 7193SOL    HW222479   2.893   2.166   2.899
 7194SOL     OW22480   3.426   2.809   6.058
 7194SOL    HW122481   3.333   2.819   6.092
 7194SOL    HW222482   3.424   2.762   5.970
 7195SOL     OW22483   0.697   4.631   4.942
 7195SOL    HW122484   0.684   4.729   4.956
 7195SOL    HW222485   0.655   4.580   5.017
 7196SOL     OW22486   3.322   4.047   2.110
 7196SOL    HW122487   3.357   4.093   2.027
 7196SOL    HW222488   3.225   4.029   2.099
 7197SOL     OW22489   3.047   4.149   5.911
 7197SOL    HW122490   3.003   4.209   5.845
 7197SOL    HW222491   2.995   4.064   5.918
 7198SOL     OW22492   0.776   0.523   1.764
 7198SOL    HW122493   0.718   0.444   1.745
 7198SOL    HW222494   0.725   0.607   1.745
 7199SOL     OW22495   0.027   1.206   2.178
 7199SOL    HW122496   7.000   1.131   2.225
 7199SOL    HW222497   0.108   1.232   2.230
 7200SOL     OW22498   1.110   2.484   0.705
 7200SOL    HW122499   1.035   2.520   0.650
 7200SOL    HW222500   1.151   2.405   0.659
 7201SOL     OW22501   5.616   5.298   3.972
 7201SOL    HW122502   5.573   5.387   3.958
 7201SOL    HW222503   5.582   5.233   3.904
 7202SOL     OW22504   4.914   0.912   5.692
 7202SOL    HW122505   4.873   0.928   5.782
 7202SOL    HW222506   4.916   0.997   5.640
 7203SOL     OW22507   0.202   1.401   1.181
 7203SOL    HW122508   0.125   1.347   1.213
 7203SOL    HW222509   0.256   1.432   1.260
 7204SOL     OW22510   5.958   0.179   1.847
 7204SOL    HW122511   6.020   0.257   1.854
 7204SOL    HW222512   5.953   0.133   1.935
 7205SOL     OW22513   2.878   2.013   3.988
 7205SOL    HW122514   2.793   2.066   3.994
 7205SOL    HW222515   2.955   2.071   4.012
 7206SOL     OW22516   2.132   3.641   0.962
 7206SOL    HW122517   2.174   3.702   1.029
 7206SOL    HW222518   2.198   3.570   0.936
 7207SOL     OW22519   1.805   1.397   3.951
 7207SOL    HW122520   1.885   1.422   4.006
 7207SOL    HW222521   1.834   1.339   3.875
 7208SOL     OW22522   2.996   0.322   4.393
 7208SOL    HW122523   2.900   0.296   4.405
 7208SOL    HW222524   3.054   0.242   4.404
 7209SOL     OW22525   3.339   1.914   2.268
 7209SOL    HW122526   3.281   1.992   2.292
 7209SOL    HW222527   3.367   1.923   2.172
 7210SOL     OW22528   2.895   1.446   3.239
 7210SOL    HW122529   2.822   1.496   3.285
 7210SOL    HW222530   2.961   1.412   3.307
 7211SOL     OW22531   4.027   5.864   4.770
 7211SOL    HW122532   4.089   5.830   4.840
 7211SOL    HW222533   3.956   5.920   4.812
 7212SOL     OW22534   6.854   4.390   5.863
 7212SOL    HW122535   6.900   4.374   5.950
 7212SOL    HW222536   6.771   4.333   5.857
 7213SOL     OW22537   3.661   1.996   0.428
 7213SOL    HW122538   3.598   1.955   0.494
 7213SOL    HW222539   3.692   1.926   0.364
 7214SOL     OW22540   6.981   0.693   6.221
 7214SOL    HW122541   6.990   0.683   6.320
 7214SOL    HW222542   6.940   0.781   6.199
 7215SOL     OW22543   6.801   2.496   2.835
 7215SOL    HW122544   6.844   2.523   2.748
 7215SOL    HW222545   6.713   2.542   2.845
 7216SOL     OW22546   3.249   6.777   2.998
 7216SOL    HW122547   3.270   6.814   3.088
 7216SOL    HW222548   3.173   6.712   3.005
 7217SOL     OW22549   1.614   2.742   3.380
 7217SOL    HW122550   1.636   2.644   3.375
 7217SOL    HW222551   1.647   2.787   3.297
 7218SOL     OW22552   6.400   4.229   4.505
 7218SOL    HW122553   6.365   4.177   4.427
 7218SOL    HW222554   6.347   4.313   4.515
 7219SOL     OW22555   3.507   5.802   2.606
 7219SOL    HW122556   3.451   5.774   2.528
 7219SOL    HW222557   3.580   5.862   2.574
 7220SOL     OW22558   6.073   4.522   4.750
 7220SOL    HW122559   6.037   4.615   4.759
 7220SOL    HW222560   6.004   4.456   4.782
 7221SOL     OW22561   3.500   5.444   4.300
 7221SOL    HW122562   3.430   5.397   4.246
 7221SOL    HW222563   3.578   5.466   4.242
 7222SOL     OW22564   0.261   5.898   4.413
 7222SOL    HW122565   0.301   5.877   4.323
 7222SOL    HW222566   0.205   5.821   4.444
 7223SOL     OW22567   0.006   3.744   1.897
 7223SOL    HW122568   0.050   3.673   1.843
 7223SOL    HW222569   6.997   3.706   1.985
 7224SOL     OW22570   4.009   1.640   3.395
 7224SOL    HW122571   4.027   1.731   3.357
 7224SOL    HW222572   4.092   1.585   3.391
 7225SOL     OW22573   1.503   6.179   0.747
 7225SOL    HW122574   1.475   6.160   0.842
 7225SOL    HW222575   1.519   6.093   0.699
 7226SOL     OW22576   5.973   6.350   0.957
 7226SOL    HW122577   5.881   6.386   0.968
 7226SOL    HW222578   5.970   6.267   0.901
 7227SOL     OW22579   2.405   0.708   1.915
 7227SOL    HW122580   2.336   0.777   1.891
 7227SOL    HW222581   2.359   0.623   1.941
 7228SOL     OW22582   6.842   3.331   2.493
 7228SOL    HW122583   6.842   3.249   2.551
 7228SOL    HW222584   6.758   3.332   2.438
 7229SOL     OW22585   6.897   0.736   5.045
 7229SOL    HW122586   6.807   0.703   5.017
 7229SOL    HW222587   6.961   0.660   5.047
 7230SOL     OW22588   2.116   4.675   4.276
 7230SOL    HW122589   2.203   4.705   4.318
 7230SOL    HW222590   2.073   4.753   4.230
 7231SOL     OW22591   4.597   1.252   6.585
 7231SOL    HW122592   4.558   1.343   6.598
 7231SOL    HW222593   4.582   1.197   6.668
 7232SOL     OW22594   5.305   7.013   3.100
 7232SOL    HW122595   5.250   6.976   3.025
 7232SOL    HW222596   5.400   6.983   3.087
 7233SOL     OW22597   6.633   1.408   4.531
 7233SOL    HW122598   6.546   1.365   4.555
 7233SOL    HW222599   6.667   1.370   4.445
 7234SOL     OW22600   5.130   4.125   2.642
 7234SOL    HW122601   5.110   4.194   2.712
 7234SOL    HW222602   5.172   4.045   2.685
 7235SOL     OW22603   0.020   5.989   1.563
 7235SOL    HW122604   0.066   5.901   1.563
 7235SOL    HW222605   0.044   6.040   1.481
 7236SOL     OW22606   1.964   2.451   2.907
 7236SOL    HW122607   1.924   2.434   2.817
 7236SOL    HW222608   1.905   2.414   2.978
 7237SOL     OW22609   5.368   0.920   0.116
 7237SOL    HW122610   5.268   0.926   0.117
 7237SOL    HW222611   5.407   1.006   0.150
 7238SOL     OW22612   3.902   3.164   0.711
 7238SOL    HW122613   3.902   3.119   0.800
 7238SOL    HW222614   3.815   3.145   0.664
 7239SOL     OW22615   0.093   2.547   2.749
 7239SOL    HW122616   0.183   2.572   2.714
 7239SOL    HW222617   0.023   2.601   2.702
 7240SOL     OW22618   6.968   1.845   6.319
 7240SOL    HW122619   6.973   1.749   6.292
 7240SOL    HW222620   6.878   1.882   6.293
 7241SOL     OW22621   2.837   1.561   1.849
 7241SOL    HW122622   2.825   1.462   1.859
 7241SOL    HW222623   2.795   1.608   1.927
 7242SOL     OW22624   6.295   5.371   5.024
 7242SOL    HW122625   6.312   5.386   4.927
 7242SOL    HW222626   6.356   5.299   5.058
 7243SOL     OW22627   6.200   4.329   6.576
 7243SOL    HW122628   6.125   4.317   6.640
 7243SOL    HW222629   6.206   4.425   6.549
 7244SOL     OW22630   0.015   6.513   6.699
 7244SOL    HW122631   0.107   6.483   6.726
 7244SOL    HW222632   0.022   6.597   6.646
 7245SOL     OW22633   0.942   3.458   0.071
 7245SOL    HW122634   0.882   3.482   7.015
 7245SOL    HW222635   0.993   3.375   0.050
 7246SOL     OW22636   3.538   0.025   4.025
 7246SOL    HW122637   3.516   0.081   4.104
 7246SOL    HW222638   3.583   6.962   4.055
 7247SOL     OW22639   3.126   2.967   5.697
 7247SOL    HW122640   3.080   3.040   5.645
 7247SOL    HW222641   3.180   2.911   5.635
 7248SOL     OW22642   3.247   0.635   4.895
 7248SOL    HW122643   3.284   0.635   4.802
 7248SOL    HW222644   3.202   0.548   4.914
 7249SOL     OW22645   3.968   5.141   1.869
 7249SOL    HW122646   3.896   5.210   1.868
 7249SOL    HW222647   3.930   5.054   1.901
 7250SOL     OW22648   5.034   5.861   5.524
 7250SOL    HW122649   4.987   5.948   5.540
 7250SOL    HW222650   4.974   5.799   5.474
 7251SOL     OW22651   0.126   5.469   5.502
 7251SOL    HW122652   0.029   5.492   5.492
 7251SOL    HW222653   0.147   5.385   5.452
 7252SOL     OW22654   3.453   4.098   2.357
 7252SOL    HW122655   3.454   4.007   2.397
 7252SOL    HW222656   3.427   4.092   2.261
 7253SOL     OW22657   1.536   5.835   5.427
 7253SOL    HW122658   1.557   5.920   5.380
 7253SOL    HW222659   1.439   5.833   5.453
 7254SOL     OW22660   5.194   4.090   3.901
 7254SOL    HW122661   5.263   4.157   3.927
 7254SOL    HW222662   5.217   4.001   3.939
 7255SOL     OW22663   5.369   3.418   6.450
 7255SOL    HW122664   5.334   3.496   6.398
 7255SOL    HW222665   5.469   3.419   6.448
 7256SOL     OW22666   3.623   6.624   5.687
 7256SOL    HW122667   3.609   6.686   5.764
 7256SOL    HW222668   3.571   6.540   5.702
 7257SOL     OW22669   0.769   1.434   4.547
 7257SOL    HW122670   0.727   1.486   4.473
 7257SOL    HW222671   0.850   1.483   4.580
 7258SOL     OW22672   6.058   1.774   3.371
 7258SOL    HW122673   6.130   1.745   3.307
 7258SOL    HW222674   6.014   1.693   3.410
 7259SOL     OW22675   1.086   4.744   2.971
 7259SOL    HW122676   1.008   4.684   2.989
 7259SOL    HW222677   1.142   4.753   3.053
 7260SOL     OW22678   5.322   3.364   1.102
 7260SOL    HW122679   5.315   3.464   1.097
 7260SOL    HW222680   5.399   3.333   1.047
 7261SOL     OW22681   6.921   4.280   6.933
 7261SOL    HW122682   6.975   4.201   6.904
 7261SOL    HW222683   6.877   4.321   6.853
 7262SOL     OW22684   6.293   1.990   5.895
 7262SOL    HW122685   6.244   2.077   5.895
 7262SOL    HW222686   6.288   1.949   5.804
 7263SOL     OW22687   0.691   5.382   0.187
 7263SOL    HW122688   0.640   5.456   0.230
 7263SOL    HW222689   0.736   5.326   0.257
 7264SOL     OW22690   5.811   1.531   0.924
 7264SOL    HW122691   5.905   1.532   0.960
 7264SOL    HW222692   5.814   1.517   0.825
 7265SOL     OW22693   4.254   5.569   5.393
 7265SOL    HW122694   4.180   5.524   5.443
 7265SOL    HW222695   4.333   5.507   5.388
 7266SOL     OW22696   0.117   0.648   3.822
 7266SOL    HW122697   0.172   0.638   3.740
 7266SOL    HW222698   0.174   0.632   3.903
 7267SOL     OW22699   6.272   5.342   4.749
 7267SOL    HW122700   6.344   5.282   4.714
 7267SOL    HW222701   6.219   5.379   4.673
 7268SOL     OW22702   6.477   6.332   3.494
 7268SOL    HW122703   6.396   6.390   3.491
 7268SOL    HW222704   6.557   6.385   3.467
 7269SOL     OW22705   2.359   5.138   5.234
 7269SOL    HW122706   2.389   5.230   5.259
 7269SOL    HW222707   2.425   5.099   5.170
 7270SOL     OW22708   0.565   1.697   3.861
 7270SOL    HW122709   0.655   1.706   3.819
 7270SOL    HW222710   0.496   1.737   3.801
 7271SOL     OW22711   0.779   4.193   3.695
 7271SOL    HW122712   0.779   4.240   3.783
 7271SOL    HW222713   0.782   4.094   3.710
 7272SOL     OW22714   6.087   5.709   3.053
 7272SOL    HW122715   6.085   5.754   2.964
 7272SOL    HW222716   6.173   5.660   3.064
 7273SOL     OW22717   0.333   2.753   5.541
 7273SOL    HW122718   0.425   2.715   5.553
 7273SOL    HW222719   0.310   2.809   5.621
 7274SOL     OW22720   0.587   4.677   6.852
 7274SOL    HW122721   0.633   4.726   6.777
 7274SOL    HW222722   0.511   4.624   6.815
 7275SOL     OW22723   6.381   7.020   3.306
 7275SOL    HW122724   6.318   6.986   3.376
 7275SOL    HW222725   6.383   0.099   3.310
 7276SOL     OW22726   4.576   6.919   3.553
 7276SOL    HW122727   4.674   6.917   3.532
 7276SOL    HW222728   4.525   6.948   3.473
 7277SOL     OW22729   4.644   0.265   5.703
 7277SOL    HW122730   4.684   0.272   5.611
 7277SOL    HW222731   4.554   0.308   5.703
 7278SOL     OW22732   3.057   3.747   2.647
 7278SOL    HW122733   3.088   3.690   2.571
 7278SOL    HW222734   3.066   3.843   2.623
 7279SOL     OW22735   3.873   5.591   6.923
 7279SOL    HW122736   3.952   5.624   6.870
 7279SOL    HW222737   3.798   5.568   6.861
 7280SOL     OW22738   4.362   0.245   5.859
 7280SOL    HW122739   4.352   0.297   5.944
 7280SOL    HW222740   4.376   0.149   5.880
 7281SOL     OW22741   4.450   1.500   6.582
 7281SOL    HW122742   4.512   1.560   6.631
 7281SOL    HW222743   4.359   1.504   6.624
 7282SOL     OW22744   6.077   5.193   1.986
 7282SOL    HW122745   5.994   5.137   1.980
 7282SOL    HW222746   6.083   5.251   1.905
 7283SOL     OW22747   2.488   0.772   3.569
 7283SOL    HW122748   2.516   0.677   3.583
 7283SOL    HW222749   2.414   0.775   3.501
 7284SOL     OW22750   6.768   4.011   5.326
 7284SOL    HW122751   6.776   4.068   5.408
 7284SOL    HW222752   6.672   4.008   5.297
 7285SOL     OW22753   5.336   5.805   2.134
 7285SOL    HW122754   5.417   5.746   2.133
 7285SOL    HW222755   5.267   5.765   2.196
 7286SOL     OW22756   2.616   2.759   1.037
 7286SOL    HW122757   2.554   2.832   1.063
 7286SOL    HW222758   2.680   2.793   0.968
 7287SOL     OW22759   6.498   0.936   6.607
 7287SOL    HW122760   6.413   0.987   6.604
 7287SOL    HW222761   6.561   0.971   6.537
 7288SOL     OW22762   3.917   0.051   6.363
 7288SOL    HW122763   3.830   0.011   6.334
 7288SOL    HW222764   3.903   0.147   6.389
 7289SOL     OW22765   5.364   2.018   3.082
 7289SOL    HW122766   5.264   2.019   3.073
 7289SOL    HW222767   5.395   1.923   3.088
 7290SOL     OW22768   2.212   5.335   4.784
 7290SOL    HW122769   2.199   5.271   4.860
 7290SOL    HW222770   2.165   5.299   4.703
 7291SOL     OW22771   2.233   6.269   1.345
 7291SOL    HW122772   2.309   6.266   1.410
 7291SOL    HW222773   2.176   6.349   1.365
 7292SOL     OW22774   2.662   6.697   3.552
 7292SOL    HW122775   2.647   6.700   3.651
 7292SOL    HW222776   2.693   6.786   3.521
 7293SOL     OW22777   1.693   1.611   4.898
 7293SOL    HW122778   1.777   1.601   4.844
 7293SOL    HW222779   1.666   1.522   4.935
 7294SOL     OW22780   2.626   5.044   0.419
 7294SOL    HW122781   2.656   5.084   0.506
 7294SOL    HW222782   2.580   4.956   0.437
 7295SOL     OW22783   0.250   1.410   0.922
 7295SOL    HW122784   0.226   1.398   1.019
 7295SOL    HW222785   0.268   1.507   0.905
 7296SOL     OW22786   2.796   4.475   0.707
 7296SOL    HW122787   2.845   4.500   0.791
 7296SOL    HW222788   2.818   4.541   0.636
 7297SOL     OW22789   4.600   6.301   0.662
 7297SOL    HW122790   4.528   6.363   0.691
 7297SOL    HW222791   4.689   6.346   0.672
 7298SOL     OW22792   5.652   3.874   4.576
 7298SOL    HW122793   5.665   3.973   4.566
 7298SOL    HW222794   5.739   3.827   4.561
 7299SOL     OW22795   6.355   3.069   0.583
 7299SOL    HW122796   6.437   3.031   0.541
 7299SOL    HW222797   6.374   3.160   0.619
 7300SOL     OW22798   5.186   5.484   0.875
 7300SOL    HW122799   5.213   5.401   0.924
 7300SOL    HW222800   5.224   5.482   0.782
 7301SOL     OW22801   6.646   6.778   5.790
 7301SOL    HW122802   6.585   6.704   5.759
 7301SOL    HW222803   6.600   6.831   5.862
 7302SOL     OW22804   0.005   0.957   0.063
 7302SOL    HW122805   6.972   1.035   0.096
 7302SOL    HW222806   0.009   0.886   0.134
 7303SOL     OW22807   3.603   0.725   6.754
 7303SOL    HW122808   3.593   0.633   6.718
 7303SOL    HW222809   3.661   0.724   6.835
 7304SOL     OW22810   4.176   3.509   5.811
 7304SOL    HW122811   4.260   3.491   5.759
 7304SOL    HW222812   4.185   3.596   5.859
 7305SOL     OW22813   5.059   1.666   0.188
 7305SOL    HW122814   5.091   1.761   0.189
 7305SOL    HW222815   5.005   1.648   0.270
 7306SOL     OW22816   4.787   4.172   1.321
 7306SOL    HW122817   4.709   4.159   1.382
 7306SOL    HW222818   4.755   4.187   1.227
 7307SOL     OW22819   3.269   6.392   1.850
 7307SOL    HW122820   3.217   6.396   1.935
 7307SOL    HW222821   3.227   6.453   1.782
 7308SOL     OW22822   6.638   3.613   4.127
 7308SOL    HW122823   6.688   3.623   4.041
 7308SOL    HW222824   6.658   3.524   4.168
 7309SOL     OW22825   4.944   6.557   0.442
 7309SOL    HW122826   4.948   6.459   0.422
 7309SOL    HW222827   4.973   6.574   0.536
 7310SOL     OW22828   2.650   5.567   1.258
 7310SOL    HW122829   2.645   5.496   1.188
 7310SOL    HW222830   2.730   5.553   1.315
 7311SOL     OW22831   2.684   2.106   2.044
 7311SOL    HW122832   2.686   2.032   2.111
 7311SOL    HW222833   2.764   2.165   2.058
 7312SOL     OW22834   6.845   2.166   5.640
 7312SOL    HW122835   6.801   2.254   5.624
 7312SOL    HW222836   6.944   2.176   5.632
 7313SOL     OW22837   4.261   2.161   6.621
 7313SOL    HW122838   4.241   2.257   6.600
 7313SOL    HW222839   4.313   2.120   6.546
 7314SOL     OW22840   0.081   3.637   5.126
 7314SOL    HW122841   0.176   3.663   5.142
 7314SOL    HW222842   0.021   3.716   5.144
 7315SOL     OW22843   6.848   0.215   3.969
 7315SOL    HW122844   6.899   0.252   3.892
 7315SOL    HW222845   6.775   0.278   3.995
 7316SOL     OW22846   3.862   3.369   5.534
 7316SOL    HW122847   3.843   3.273   5.555
 7316SOL    HW222848   3.957   3.378   5.503
 7317SOL     OW22849   3.367   0.907   2.979
 7317SOL    HW122850   3.372   0.829   2.915
 7317SOL    HW222851   3.362   0.992   2.927
 7318SOL     OW22852   1.045   2.148   1.671
 7318SOL    HW122853   1.130   2.101   1.692
 7318SOL    HW222854   1.026   2.142   1.573
 7319SOL     OW22855   5.965   4.686   6.735
 7319SOL    HW122856   5.920   4.651   6.653
 7319SOL    HW222857   6.033   4.755   6.709
 7320SOL     OW22858   0.547   3.404   2.296
 7320SOL    HW122859   0.637   3.385   2.258
 7320SOL    HW222860   0.521   3.499   2.278
 7321SOL     OW22861   2.187   1.405   4.382
 7321SOL    HW122862   2.238   1.329   4.421
 7321SOL    HW222863   2.168   1.473   4.453
 7322SOL     OW22864   0.944   3.867   3.100
 7322SOL    HW122865   0.982   3.871   3.192
 7322SOL    HW222866   0.932   3.960   3.064
 7323SOL     OW22867   2.014   1.962   3.404
 7323SOL    HW122868   2.066   2.043   3.431
 7323SOL    HW222869   1.964   1.927   3.484
 7324SOL     OW22870   5.791   1.049   3.602
 7324SOL    HW122871   5.781   0.958   3.562
 7324SOL    HW222872   5.705   1.077   3.643
 7325SOL     OW22873   3.606   6.372   6.059
 7325SOL    HW122874   3.553   6.450   6.026
 7325SOL    HW222875   3.633   6.389   6.154
 7326SOL     OW22876   2.761   6.369   5.777
 7326SOL    HW122877   2.768   6.432   5.854
 7326SOL    HW222878   2.798   6.280   5.804
 7327SOL     OW22879   0.983   2.566   6.161
 7327SOL    HW122880   1.060   2.549   6.098
 7327SOL    HW222881   0.961   2.482   6.209
 7328SOL     OW22882   3.213   6.916   6.463
 7328SOL    HW122883   3.152   6.844   6.497
 7328SOL    HW222884   3.160   6.980   6.407
 7329SOL     OW22885   4.410   3.457   0.614
 7329SOL    HW122886   4.396   3.480   0.517
 7329SOL    HW222887   4.342   3.389   0.641
 7330SOL     OW22888   3.208   1.452   6.525
 7330SOL    HW122889   3.266   1.534   6.519
 7330SOL    HW222890   3.183   1.436   6.621
 7331SOL     OW22891   4.876   0.507   2.538
 7331SOL    HW122892   4.965   0.519   2.583
 7331SOL    HW222893   4.803   0.513   2.606
 7332SOL     OW22894   2.662   5.894   0.075
 7332SOL    HW122895   2.687   5.869   0.169
 7332SOL    HW222896   2.626   5.813   0.028
 7333SOL     OW22897   0.827   4.574   2.968
 7333SOL    HW122898   0.756   4.511   3.000
 7333SOL    HW222899   0.785   4.653   2.925
 7334SOL     OW22900   3.751   6.120   5.190
 7334SOL    HW122901   3.660   6.138   5.151
 7334SOL    HW222902   3.748   6.134   5.289
 7335SOL     OW22903   1.784   2.376   2.706
 7335SOL    HW122904   1.774   2.314   2.629
 7335SOL    HW222905   1.697   2.423   2.723
 7336SOL     OW22906   1.485   5.982   4.192
 7336SOL    HW122907   1.490   6.050   4.120
 7336SOL    HW222908   1.573   5.936   4.201
 7337SOL     OW22909   0.845   3.084   2.492
 7337SOL    HW122910   0.873   2.989   2.488
 7337SOL    HW222911   0.916   3.138   2.536
 7338SOL     OW22912   6.738   2.428   1.523
 7338SOL    HW122913   6.765   2.497   1.456
 7338SOL    HW222914   6.819   2.394   1.571
 7339SOL     OW22915   6.629   6.167   4.196
 7339SOL    HW122916   6.545   6.141   4.147
 7339SOL    HW222917   6.606   6.234   4.266
 7340SOL     OW22918   2.355   0.308   0.022
 7340SOL    HW122919   2.364   0.373   6.968
 7340SOL    HW222920   2.258   0.289   0.038
 7341SOL     OW22921   6.152   2.072   0.269
 7341SOL    HW122922   6.102   2.055   0.184
 7341SOL    HW222923   6.088   2.098   0.341
 7342SOL     OW22924   6.981   6.441   2.783
 7342SOL    HW122925   6.971   6.342   2.786
 7342SOL    HW222926   6.932   6.477   2.704
 7343SOL     OW22927   5.408   3.282   0.759
 7343SOL    HW122928   5.365   3.279   0.669
 7343SOL    HW222929   5.393   3.372   0.801
 7344SOL     OW22930   1.404   6.033   6.214
 7344SOL    HW122931   1.344   6.110   6.239
 7344SOL    HW222932   1.438   6.047   6.121
 7345SOL     OW22933   3.892   3.412   5.801
 7345SOL    HW122934   3.879   3.377   5.709
 7345SOL    HW222935   3.990   3.426   5.818
 7346SOL     OW22936   3.709   5.465   3.065
 7346SOL    HW122937   3.670   5.556   3.058
 7346SOL    HW222938   3.808   5.469   3.050
 7347SOL     OW22939   6.254   2.353   0.051
 7347SOL    HW122940   6.227   2.289   6.999
 7347SOL    HW222941   6.255   2.305   0.139
 7348SOL     OW22942   1.779   4.380   2.593
 7348SOL    HW122943   1.725   4.306   2.553
 7348SOL    HW222944   1.859   4.342   2.639
 7349SOL     OW22945   3.719   0.991   0.677
 7349SOL    HW122946   3.741   0.898   0.706
 7349SOL    HW222947   3.620   1.004   0.679
 7350SOL     OW22948   2.843   0.485   5.611
 7350SOL    HW122949   2.882   0.552   5.549
 7350SOL    HW222950   2.799   0.412   5.559
 7351SOL     OW22951   4.310   5.223   3.988
 7351SOL    HW122952   4.236   5.198   3.924
 7351SOL    HW222953   4.342   5.316   3.967
 7352SOL     OW22954   0.263   2.741   3.241
 7352SOL    HW122955   0.297   2.764   3.333
 7352SOL    HW222956   0.169   2.709   3.248
 7353SOL     OW22957   6.342   0.806   6.814
 7353SOL    HW122958   6.244   0.786   6.819
 7353SOL    HW222959   6.364   0.837   6.721
 7354SOL     OW22960   1.334   1.925   2.997
 7354SOL    HW122961   1.333   2.018   2.961
 7354SOL    HW222962   1.429   1.893   3.004
 7355SOL     OW22963   0.139   2.029   6.346
 7355SOL    HW122964   0.080   1.951   6.322
 7355SOL    HW222965   0.097   2.114   6.314
 7356SOL     OW22966   4.349   3.566   6.213
 7356SOL    HW122967   4.442   3.530   6.214
 7356SOL    HW222968   4.284   3.491   6.218
 7357SOL     OW22969   5.289   5.997   1.961
 7357SOL    HW122970   5.320   5.977   1.868
 7357SOL    HW222971   5.323   5.926   2.023
 7358SOL     OW22972   5.789   2.010   2.992
 7358SOL    HW122973   5.886   2.001   3.011
 7358SOL    HW222974   5.739   1.934   3.034
 7359SOL     OW22975   4.715   0.258   6.621
 7359SOL    HW122976   4.796   0.303   6.583
 7359SOL    HW222977   4.731   0.235   6.717
 7360SOL     OW22978   2.786   3.371   5.338
 7360SOL    HW122979   2.743   3.443   5.393
 7360SOL    HW222980   2.743   3.283   5.359
 7361SOL     OW22981   4.791   0.287   2.366
 7361SOL    HW122982   4.807   0.375   2.413
 7361SOL    HW222983   4.878   0.245   2.344
 7362SOL     OW22984   3.543   5.179   6.511
 7362SOL    HW122985   3.618   5.227   6.556
 7362SOL    HW222986   3.518   5.098   6.564
 7363SOL     OW22987   3.699   0.545   0.926
 7363SOL    HW122988   3.726   0.460   0.971
 7363SOL    HW222989   3.683   0.616   0.994
 7364SOL     OW22990   4.707   0.124   1.691
 7364SOL    HW122991   4.745   0.136   1.783
 7364SOL    HW222992   4.608   0.109   1.698
 7365SOL     OW22993   5.988   4.841   2.390
 7365SOL    HW122994   5.963   4.795   2.305
 7365SOL    HW222995   5.905   4.869   2.438
 7366SOL     OW22996   2.930   1.374   4.047
 7366SOL    HW122997   3.004   1.345   4.108
 7366SOL    HW222998   2.916   1.472   4.057
 7367SOL     OW22999   4.886   1.092   6.401
 7367SOL    HW123000   4.865   1.003   6.441
 7367SOL    HW223001   4.814   1.118   6.336
 7368SOL     OW23002   4.113   3.452   3.042
 7368SOL    HW123003   4.182   3.403   3.095
 7368SOL    HW223004   4.092   3.400   2.959
 7369SOL     OW23005   5.276   2.697   0.641
 7369SOL    HW123006   5.273   2.768   0.712
 7369SOL    HW223007   5.361   2.706   0.589
 7370SOL     OW23008   2.115   1.583   4.553
 7370SOL    HW123009   2.128   1.675   4.514
 7370SOL    HW223010   2.182   1.568   4.625
 7371SOL     OW23011   3.983   0.289   3.705
 7371SOL    HW123012   3.931   0.307   3.622
 7371SOL    HW223013   4.056   0.356   3.714
 7372SOL     OW23014   4.384   6.921   4.571
 7372SOL    HW123015   4.292   6.922   4.531
 7372SOL    HW223016   4.413   6.827   4.586
 7373SOL     OW23017   4.871   2.617   4.554
 7373SOL    HW123018   4.791   2.637   4.497
 7373SOL    HW223019   4.851   2.540   4.615
 7374SOL     OW23020   0.471   1.617   5.208
 7374SOL    HW123021   0.482   1.637   5.305
 7374SOL    HW223022   0.388   1.562   5.194
 7375SOL     OW23023   2.087   3.272   2.353
 7375SOL    HW123024   2.015   3.315   2.298
 7375SOL    HW223025   2.159   3.239   2.293
 7376SOL     OW23026   0.263   4.027   0.449
 7376SOL    HW123027   0.348   3.989   0.488
 7376SOL    HW223028   0.219   4.086   0.517
 7377SOL     OW23029   3.010   5.838   0.130
 7377SOL    HW123030   2.932   5.892   0.161
 7377SOL    HW223031   2.984   5.742   0.126
 7378SOL     OW23032   1.489   6.264   3.674
 7378SOL    HW123033   1.522   6.269   3.580
 7378SOL    HW223034   1.530   6.338   3.727
 7379SOL     OW23035   4.005   0.709   0.758
 7379SOL    HW123036   4.006   0.613   0.787
 7379SOL    HW223037   4.037   0.767   0.833
 7380SOL     OW23038   5.717   3.532   3.501
 7380SOL    HW123039   5.749   3.592   3.427
 7380SOL    HW223040   5.741   3.574   3.589
 7381SOL     OW23041   3.740   1.032   6.984
 7381SOL    HW123042   3.675   1.062   0.033
 7381SOL    HW223043   3.830   1.070   7.004
 7382SOL     OW23044   6.916   1.232   6.067
 7382SOL    HW123045   6.921   1.316   6.013
 7382SOL    HW223046   6.821   1.214   6.091
 7383SOL     OW23047   1.746   6.329   1.474
 7383SOL    HW123048   1.751   6.248   1.533
 7383SOL    HW223049   1.654   6.369   1.480
 7384SOL     OW23050   0.020   0.001   1.171
 7384SOL    HW123051   0.093   0.006   1.239
 7384SOL    HW223052   0.028   0.077   1.107
 7385SOL     OW23053   4.413   5.062   2.763
 7385SOL    HW123054   4.316   5.079   2.782
 7385SOL    HW223055   4.443   4.983   2.817
 7386SOL     OW23056   6.186   3.364   0.699
 7386SOL    HW123057   6.255   3.435   0.686
 7386SOL    HW223058   6.199   3.320   0.788
 7387SOL     OW23059   6.871   4.998   5.494
 7387SOL    HW123060   6.878   5.082   5.547
 7387SOL    HW223061   6.778   4.961   5.503
 7388SOL     OW23062   1.847   6.137   2.315
 7388SOL    HW123063   1.787   6.058   2.331
 7388SOL    HW223064   1.820   6.182   2.230
 7389SOL     OW23065   6.263   3.010   0.308
 7389SOL    HW123066   6.171   2.996   0.271
 7389SOL    HW223067   6.304   2.922   0.331
 7390SOL     OW23068   2.628   1.702   2.566
 7390SOL    HW123069   2.689   1.676   2.490
 7390SOL    HW223070   2.664   1.785   2.610
 7391SOL     OW23071   3.541   3.453   2.827
 7391SOL    HW123072   3.463   3.505   2.791
 7391SOL    HW223073   3.535   3.358   2.794
 7392SOL     OW23074   3.403   5.416   6.480
 7392SOL    HW123075   3.346   5.382   6.555
 7392SOL    HW223076   3.484   5.359   6.471
 7393SOL     OW23077   5.753   5.713   4.471
 7393SOL    HW123078   5.704   5.707   4.558
 7393SOL    HW223079   5.687   5.704   4.396
 7394SOL     OW23080   2.582   2.341   5.972
 7394SOL    HW123081   2.599   2.405   5.897
 7394SOL    HW223082   2.539   2.389   6.047
 7395SOL     OW23083   2.914   4.735   1.033
 7395SOL    HW123084   2.939   4.752   1.128
 7395SOL    HW223085   2.995   4.740   0.975
 7396SOL     OW23086   2.254   5.047   1.868
 7396SOL    HW123087   2.296   5.090   1.948
 7396SOL    HW223088   2.154   5.050   1.877
 7397SOL     OW23089   5.305   4.441   3.837
 7397SOL    HW123090   5.338   4.460   3.744
 7397SOL    HW223091   5.368   4.378   3.882
 7398SOL     OW23092   2.128   4.587   2.630
 7398SOL    HW123093   2.211   4.536   2.610
 7398SOL    HW223094   2.114   4.590   2.729
 7399SOL     OW23095   5.176   1.941   5.011
 7399SOL    HW123096   5.083   1.913   5.034
 7399SOL    HW223097   5.175   1.993   4.926
 7400SOL     OW23098   5.105   3.040   5.403
 7400SOL    HW123099   5.130   2.988   5.322
 7400SOL    HW223100   5.119   2.984   5.485
 7401SOL     OW23101   0.798   2.826   3.731
 7401SOL    HW123102   0.738   2.763   3.780
 7401SOL    HW223103   0.785   2.815   3.632
 7402SOL     OW23104   3.331   6.253   5.451
 7402SOL    HW123105   3.398   6.196   5.499
 7402SOL    HW223106   3.269   6.294   5.518
 7403SOL     OW23107   1.479   3.050   4.717
 7403SOL    HW123108   1.512   3.018   4.805
 7403SOL    HW223109   1.430   2.976   4.671
 7404SOL     OW23110   3.051   3.862   0.912
 7404SOL    HW123111   3.062   3.792   0.982
 7404SOL    HW223112   2.965   3.911   0.928
 7405SOL     OW23113   3.460   5.904   5.096
 7405SOL    HW123114   3.477   5.997   5.064
 7405SOL    HW223115   3.462   5.840   5.019
 7406SOL     OW23116   0.685   1.449   4.957
 7406SOL    HW123117   0.705   1.546   4.975
 7406SOL    HW223118   0.747   1.415   4.887
 7407SOL     OW23119   1.054   6.232   5.474
 7407SOL    HW123120   1.016   6.313   5.520
 7407SOL    HW223121   1.042   6.152   5.533
 7408SOL     OW23122   3.683   3.951   5.256
 7408SOL    HW123123   3.629   4.002   5.189
 7408SOL    HW223124   3.776   3.989   5.260
 7409SOL     OW23125   6.222   4.205   0.592
 7409SOL    HW123126   6.258   4.174   0.505
 7409SOL    HW223127   6.291   4.261   0.639
 7410SOL     OW23128   6.868   0.398   1.395
 7410SOL    HW123129   6.926   0.424   1.472
 7410SOL    HW223130   6.836   0.304   1.407
 7411SOL     OW23131   1.556   2.020   5.102
 7411SOL    HW123132   1.555   2.119   5.086
 7411SOL    HW223133   1.630   1.978   5.049
 7412SOL     OW23134   4.320   6.403   6.995
 7412SOL    HW123135   4.323   6.392   0.073
 7412SOL    HW223136   4.282   6.493   6.972
 7413SOL     OW23137   3.981   6.763   3.141
 7413SOL    HW123138   3.984   6.677   3.193
 7413SOL    HW223139   3.900   6.815   3.168
 7414SOL     OW23140   2.557   1.955   3.926
 7414SOL    HW123141   2.584   1.992   4.015
 7414SOL    HW223142   2.501   2.022   3.878
 7415SOL     OW23143   3.992   6.191   6.077
 7415SOL    HW123144   4.085   6.181   6.111
 7415SOL    HW223145   3.957   6.282   6.101
 7416SOL     OW23146   1.197   1.498   2.227
 7416SOL    HW123147   1.269   1.508   2.296
 7416SOL    HW223148   1.112   1.467   2.272
 7417SOL     OW23149   0.607   1.846   3.481
 7417SOL    HW123150   0.558   1.929   3.508
 7417SOL    HW223151   0.597   1.832   3.383
 7418SOL     OW23152   1.953   4.161   6.234
 7418SOL    HW123153   1.889   4.094   6.195
 7418SOL    HW223154   1.939   4.166   6.333
 7419SOL     OW23155   6.633   3.942   4.077
 7419SOL    HW123156   6.663   4.032   4.047
 7419SOL    HW223157   6.712   3.881   4.083
 7420SOL     OW23158   6.239   6.905   1.798
 7420SOL    HW123159   6.275   6.977   1.857
 7420SOL    HW223160   6.249   6.932   1.702
 7421SOL     OW23161   4.739   3.883   1.434
 7421SOL    HW123162   4.734   3.790   1.400
 7421SOL    HW223163   4.698   3.888   1.525
 7422SOL     OW23164   5.550   2.665   1.876
 7422SOL    HW123165   5.482   2.733   1.902
 7422SOL    HW223166   5.520   2.575   1.908
 7423SOL     OW23167   5.908   1.854   5.953
 7423SOL    HW123168   5.854   1.936   5.935
 7423SOL    HW223169   5.932   1.850   6.050
 7424SOL     OW23170   0.818   1.523   4.075
 7424SOL    HW123171   0.783   1.557   4.163
 7424SOL    HW223172   0.745   1.478   4.025
 7425SOL     OW23173   6.172   0.603   0.075
 7425SOL    HW123174   6.153   0.529   0.139
 7425SOL    HW223175   6.143   0.690   0.115
 7426SOL     OW23176   3.491   3.125   5.914
 7426SOL    HW123177   3.402   3.099   5.952
 7426SOL    HW223178   3.496   3.225   5.908
 7427SOL     OW23179   3.509   1.383   4.132
 7427SOL    HW123180   3.456   1.460   4.097
 7427SOL    HW223181   3.528   1.319   4.058
 7428SOL     OW23182   4.299   5.640   5.703
 7428SOL    HW123183   4.395   5.651   5.726
 7428SOL    HW223184   4.261   5.729   5.675
 7429SOL     OW23185   1.810   0.090   2.582
 7429SOL    HW123186   1.771   0.005   2.618
 7429SOL    HW223187   1.796   0.093   2.483
 7430SOL     OW23188   6.388   5.235   2.566
 7430SOL    HW123189   6.391   5.177   2.648
 7430SOL    HW223190   6.345   5.322   2.589
 7431SOL     OW23191   1.429   2.005   4.525
 7431SOL    HW123192   1.410   1.907   4.529
 7431SOL    HW223193   1.486   2.025   4.445
 7432SOL     OW23194   1.828   0.135   3.016
 7432SOL    HW123195   1.859   0.179   3.101
 7432SOL    HW223196   1.728   0.137   3.013
 7433SOL     OW23197   2.550   0.341   0.222
 7433SOL    HW123198   2.493   0.327   0.141
 7433SOL    HW223199   2.585   0.434   0.223
 7434SOL     OW23200   4.119   5.937   6.068
 7434SOL    HW123201   4.186   5.967   6.136
 7434SOL    HW223202   4.109   6.008   5.998
 7435SOL     OW23203   4.876   5.482   2.992
 7435SOL    HW123204   4.945   5.555   2.986
 7435SOL    HW223205   4.855   5.448   2.901
 7436SOL     OW23206   5.236   3.140   6.477
 7436SOL    HW123207   5.280   3.217   6.431
 7436SOL    HW223208   5.303   3.069   6.496
 7437SOL     OW23209   4.141   6.328   1.045
 7437SOL    HW123210   4.178   6.239   1.017
 7437SOL    HW223211   4.217   6.392   1.058
 7438SOL     OW23212   2.296   0.347   0.331
 7438SOL    HW123213   2.391   0.374   0.349
 7438SOL    HW223214   2.283   0.336   0.232
 7439SOL     OW23215   0.811   4.770   6.184
 7439SOL    HW123216   0.901   4.783   6.226
 7439SOL    HW223217   0.779   4.677   6.201
 7440SOL     OW23218   5.286   3.036   4.012
 7440SOL    HW123219   5.306   2.948   4.055
 7440SOL    HW223220   5.189   3.039   3.986
 7441SOL     OW23221   5.796   6.077   1.452
 7441SOL    HW123222   5.880   6.128   1.469
 7441SOL    HW223223   5.772   6.024   1.534
 7442SOL     OW23224   5.052   0.492   5.321
 7442SOL    HW123225   4.984   0.507   5.249
 7442SOL    HW223226   5.030   0.550   5.400
 7443SOL     OW23227   0.314   0.632   2.119
 7443SOL    HW123228   0.288   0.728   2.131
 7443SOL    HW223229   0.307   0.607   2.022
 7444SOL     OW23230   1.034   6.217   6.532
 7444SOL    HW123231   1.019   6.220   6.631
 7444SOL    HW223232   1.132   6.210   6.513
 7445SOL     OW23233   4.156   6.082   1.417
 7445SOL    HW123234   4.113   6.052   1.503
 7445SOL    HW223235   4.201   6.170   1.431
 7446SOL     OW23236   5.316   4.009   0.243
 7446SOL    HW123237   5.311   4.012   0.342
 7446SOL    HW223238   5.236   3.961   0.207
 7447SOL     OW23239   0.607   4.961   1.661
 7447SOL    HW123240   0.686   4.943   1.720
 7447SOL    HW223241   0.538   4.890   1.674
 7448SOL     OW23242   4.806   4.769   6.283
 7448SOL    HW123243   4.708   4.791   6.274
 7448SOL    HW223244   4.843   4.816   6.363
 7449SOL     OW23245   0.383   4.510   6.402
 7449SOL    HW123246   0.456   4.469   6.458
 7449SOL    HW223247   0.376   4.461   6.316
 7450SOL     OW23248   4.988   1.965   5.705
 7450SOL    HW123249   4.958   1.939   5.614
 7450SOL    HW223250   4.982   1.886   5.766
 7451SOL     OW23251   5.457   4.973   2.824
 7451SOL    HW123252   5.517   5.014   2.893
 7451SOL    HW223253   5.404   4.899   2.866
 7452SOL     OW23254   6.050   5.269   5.050
 7452SOL    HW123255   6.009   5.337   4.989
 7452SOL    HW223256   6.148   5.288   5.058
 7453SOL     OW23257   3.735   5.698   0.119
 7453SOL    HW123258   3.759   5.641   0.198
 7453SOL    HW223259   3.772   5.656   0.036
 7454SOL     OW23260   3.811   2.198   0.588
 7454SOL    HW123261   3.759   2.116   0.562
 7454SOL    HW223262   3.751   2.278   0.586
 7455SOL     OW23263   6.784   3.035   3.285
 7455SOL    HW123264   6.785   2.935   3.279
 7455SOL    HW223265   6.831   3.065   3.368
 7456SOL     OW23266   3.304   1.950   5.655
 7456SOL    HW123267   3.248   2.026   5.687
 7456SOL    HW223268   3.270   1.918   5.567
 7457SOL     OW23269   2.868   0.381   3.121
 7457SOL    HW123270   2.821   0.351   3.038
 7457SOL    HW223271   2.849   0.478   3.137
 7458SOL     OW23272   1.188   5.838   5.097
 7458SOL    HW123273   1.268   5.838   5.037
 7458SOL    HW223274   1.184   5.924   5.148
 7459SOL     OW23275   5.844   0.652   2.717
 7459SOL    HW123276   5.806   0.610   2.800
 7459SOL    HW223277   5.823   0.595   2.639
 7460SOL     OW23278   1.603   6.590   0.836
 7460SOL    HW123279   1.638   6.532   0.910
 7460SOL    HW223280   1.579   6.534   0.758
 7461SOL     OW23281   1.201   4.977   6.149
 7461SOL    HW123282   1.198   5.077   6.146
 7461SOL    HW223283   1.180   4.940   6.058
 7462SOL     OW23284   1.086   5.122   0.395
 7462SOL    HW123285   1.034   5.074   0.466
 7462SOL    HW223286   1.184   5.113   0.413
 7463SOL     OW23287   3.515   4.760   0.824
 7463SOL    HW123288   3.478   4.786   0.734
 7463SOL    HW223289   3.486   4.667   0.846
 7464SOL     OW23290   6.242   6.207   5.322
 7464SOL    HW123291   6.258   6.110   5.303
 7464SOL    HW223292   6.146   6.220   5.347
 7465SOL     OW23293   1.876   4.788   0.261
 7465SOL    HW123294   1.836   4.776   0.352
 7465SOL    HW223295   1.834   4.722   0.198
 7466SOL     OW23296   0.556   6.584   4.803
 7466SOL    HW123297   0.545   6.654   4.873
 7466SOL    HW223298   0.472   6.576   4.749
 7467SOL     OW23299   0.413   3.057   5.807
 7467SOL    HW123300   0.479   3.089   5.739
 7467SOL    HW223301   0.357   3.134   5.838
 7468SOL     OW23302   5.933   3.378   5.623
 7468SOL    HW123303   5.980   3.324   5.693
 7468SOL    HW223304   5.873   3.319   5.570
 7469SOL     OW23305   6.834   2.405   1.160
 7469SOL    HW123306   6.740   2.376   1.139
 7469SOL    HW223307   6.899   2.345   1.113
 7470SOL     OW23308   5.252   3.170   3.765
 7470SOL    HW123309   5.293   3.133   3.849
 7470SOL    HW223310   5.323   3.184   3.697
 7471SOL     OW23311   5.104   5.929   5.970
 7471SOL    HW123312   5.025   5.982   5.998
 7471SOL    HW223313   5.105   5.921   5.870
 7472SOL     OW23314   5.972   6.280   5.417
 7472SOL    HW123315   5.937   6.186   5.423
 7472SOL    HW223316   5.905   6.342   5.458
 7473SOL     OW23317   4.147   6.141   4.058
 7473SOL    HW123318   4.150   6.055   4.109
 7473SOL    HW223319   4.081   6.133   3.983
 7474SOL     OW23320   6.827   1.799   5.543
 7474SOL    HW123321   6.748   1.856   5.567
 7474SOL    HW223322   6.906   1.858   5.525
 7475SOL     OW23323   4.900   2.621   0.845
 7475SOL    HW123324   4.935   2.571   0.766
 7475SOL    HW223325   4.826   2.569   0.887
 7476SOL     OW23326   1.664   0.878   2.621
 7476SOL    HW123327   1.693   0.968   2.653
 7476SOL    HW223328   1.742   0.815   2.624
 7477SOL     OW23329   1.021   4.231   4.894
 7477SOL    HW123330   0.924   4.245   4.916
 7477SOL    HW223331   1.033   4.236   4.795
 7478SOL     OW23332   0.800   1.369   5.941
 7478SOL    HW123333   0.840   1.388   5.851
 7478SOL    HW223334   0.734   1.294   5.933
 7479SOL     OW23335   6.055   3.346   0.007
 7479SOL    HW123336   6.021   3.302   0.090
 7479SOL    HW223337   6.105   3.279   6.973
 7480SOL     OW23338   3.822   5.118   2.442
 7480SOL    HW123339   3.764   5.045   2.478
 7480SOL    HW223340   3.807   5.127   2.344
 7481SOL     OW23341   0.305   3.928   6.454
 7481SOL    HW123342   0.221   3.983   6.461
 7481SOL    HW223343   0.325   3.910   6.358
 7482SOL     OW23344   3.949   2.034   2.589
 7482SOL    HW123345   3.878   2.025   2.519
 7482SOL    HW223346   4.028   2.081   2.551
 7483SOL     OW23347   4.648   2.045   6.098
 7483SOL    HW123348   4.551   2.059   6.117
 7483SOL    HW223349   4.662   2.039   5.999
 7484SOL     OW23350   2.967   6.538   4.247
 7484SOL    HW123351   3.000   6.467   4.308
 7484SOL    HW223352   2.909   6.602   4.297
 7485SOL     OW23353   2.819   0.124   4.843
 7485SOL    HW123354   2.880   0.158   4.771
 7485SOL    HW223355   2.738   0.083   4.802
 7486SOL     OW23356   2.381   6.342   1.010
 7486SOL    HW123357   2.376   6.243   1.000
 7486SOL    HW223358   2.450   6.366   1.079
 7487SOL     OW23359   4.211   6.509   3.937
 7487SOL    HW123360   4.310   6.523   3.941
 7487SOL    HW223361   4.177   6.537   3.847
 7488SOL     OW23362   0.871   5.398   3.821
 7488SOL    HW123363   0.865   5.497   3.828
 7488SOL    HW223364   0.813   5.355   3.890
 7489SOL     OW23365   6.484   3.388   6.494
 7489SOL    HW123366   6.389   3.372   6.465
 7489SOL    HW223367   6.545   3.332   6.438
 7490SOL     OW23368   1.052   2.150   2.081
 7490SOL    HW123369   1.114   2.101   2.019
 7490SOL    HW223370   0.989   2.084   2.124
 7491SOL     OW23371   4.263   3.090   0.266
 7491SOL    HW123372   4.169   3.124   0.264
 7491SOL    HW223373   4.267   3.004   0.317
 7492SOL     OW23374   1.253   0.485   4.364
 7492SOL    HW123375   1.309   0.488   4.446
 7492SOL    HW223376   1.274   0.563   4.306
 7493SOL     OW23377   6.802   4.433   4.763
 7493SOL    HW123378   6.831   4.468   4.852
 7493SOL    HW223379   6.882   4.406   4.710
 7494SOL     OW23380   6.000   1.306   2.625
 7494SOL    HW123381   5.955   1.280   2.710
 7494SOL    HW223382   6.045   1.227   2.584
 7495SOL     OW23383   1.544   4.039   5.254
 7495SOL    HW123384   1.618   3.999   5.307
 7495SOL    HW223385   1.539   3.994   5.165
 7496SOL     OW23386   5.745   4.016   2.642
 7496SOL    HW123387   5.787   4.091   2.592
 7496SOL    HW223388   5.672   3.976   2.587
 7497SOL     OW23389   0.131   6.980   0.480
 7497SOL    HW123390   0.144   6.889   0.520
 7497SOL    HW223391   0.047   6.981   0.426
 7498SOL     OW23392   2.949   0.576   2.656
 7498SOL    HW123393   2.924   0.577   2.753
 7498SOL    HW223394   2.886   0.634   2.605
 7499SOL     OW23395   4.208   1.705   3.664
 7499SOL    HW123396   4.217   1.695   3.565
 7499SOL    HW223397   4.189   1.616   3.704
 7500SOL     OW23398   3.803   6.861   2.908
 7500SOL    HW123399   3.832   6.926   2.978
 7500SOL    HW223400   3.703   6.852   2.910
 7501SOL     OW23401   5.923   2.314   4.827
 7501SOL    HW123402   5.943   2.364   4.743
 7501SOL    HW223403   5.906   2.218   4.806
 7502SOL     OW23404   4.041   0.685   4.348
 7502SOL    HW123405   4.048   0.602   4.292
 7502SOL    HW223406   3.948   0.691   4.387
 7503SOL     OW23407   1.769   6.112   1.685
 7503SOL    HW123408   1.852   6.057   1.685
 7503SOL    HW223409   1.740   6.128   1.779
 7504SOL     OW23410   6.478   6.740   3.483
 7504SOL    HW123411   6.532   6.661   3.453
 7504SOL    HW223412   6.506   6.767   3.575
 7505SOL     OW23413   1.128   6.717   5.463
 7505SOL    HW123414   1.082   6.805   5.473
 7505SOL    HW223415   1.067   6.653   5.416
 7506SOL     OW23416   2.934   1.647   2.987
 7506SOL    HW123417   2.876   1.586   3.041
 7506SOL    HW223418   2.938   1.615   2.893
 7507SOL     OW23419   6.474   4.085   4.714
 7507SOL    HW123420   6.466   4.161   4.650
 7507SOL    HW223421   6.386   4.070   4.759
 7508SOL     OW23422   1.725   6.036   6.641
 7508SOL    HW123423   1.806   6.061   6.693
 7508SOL    HW223424   1.647   6.091   6.672
 7509SOL     OW23425   5.380   4.403   0.453
 7509SOL    HW123426   5.476   4.386   0.477
 7509SOL    HW223427   5.323   4.331   0.492
 7510SOL     OW23428   3.719   3.804   3.549
 7510SOL    HW123429   3.736   3.851   3.462
 7510SOL    HW223430   3.720   3.871   3.624
 7511SOL     OW23431   3.604   6.416   3.667
 7511SOL    HW123432   3.685   6.371   3.705
 7511SOL    HW223433   3.631   6.502   3.623
 7512SOL     OW23434   3.563   6.840   5.842
 7512SOL    HW123435   3.479   6.865   5.890
 7512SOL    HW223436   3.623   6.920   5.838
 7513SOL     OW23437   0.690   2.162   2.316
 7513SOL    HW123438   0.597   2.163   2.353
 7513SOL    HW223439   0.695   2.223   2.237
 7514SOL     OW23440   1.340   4.229   2.488
 7514SOL    HW123441   1.277   4.176   2.544
 7514SOL    HW223442   1.290   4.272   2.413
 7515SOL     OW23443   0.137   4.605   4.144
 7515SOL    HW123444   0.064   4.673   4.146
 7515SOL    HW223445   0.205   4.631   4.075
 7516SOL     OW23446   1.123   6.349   5.211
 7516SOL    HW123447   1.092   6.272   5.266
 7516SOL    HW223448   1.192   6.401   5.262
 7517SOL     OW23449   0.449   1.423   6.891
 7517SOL    HW123450   0.513   1.379   6.828
 7517SOL    HW223451   0.491   1.432   6.981
 7518SOL     OW23452   4.796   3.059   3.673
 7518SOL    HW123453   4.797   2.991   3.747
 7518SOL    HW223454   4.739   3.024   3.598
 7519SOL     OW23455   3.823   6.397   4.493
 7519SOL    HW123456   3.751   6.406   4.425
 7519SOL    HW223457   3.787   6.419   4.584
 7520SOL     OW23458   1.566   2.128   0.679
 7520SOL    HW123459   1.477   2.098   0.712
 7520SOL    HW223460   1.556   2.166   0.586
 7521SOL     OW23461   3.974   1.274   5.515
 7521SOL    HW123462   4.028   1.286   5.598
 7521SOL    HW223463   4.024   1.311   5.437
 7522SOL     OW23464   1.663   0.117   3.364
 7522SOL    HW123465   1.750   0.080   3.398
 7522SOL    HW223466   1.622   0.176   3.434
 7523SOL     OW23467   5.634   1.049   6.353
 7523SOL    HW123468   5.686   0.997   6.420
 7523SOL    HW223469   5.616   0.993   6.273
 7524SOL     OW23470   0.529   3.237   4.931
 7524SOL    HW123471   0.625   3.256   4.951
 7524SOL    HW223472   0.472   3.308   4.971
 7525SOL     OW23473   4.384   5.620   6.424
 7525SOL    HW123474   4.286   5.620   6.403
 7525SOL    HW223475   4.432   5.678   6.357
 7526SOL     OW23476   2.474   3.270   1.650
 7526SOL    HW123477   2.439   3.330   1.723
 7526SOL    HW223478   2.465   3.317   1.562
 7527SOL     OW23479   4.227   5.665   3.644
 7527SOL    HW123480   4.217   5.573   3.606
 7527SOL    HW223481   4.211   5.732   3.572
 7528SOL     OW23482   6.828   3.183   6.500
 7528SOL    HW123483   6.755   3.161   6.436
 7528SOL    HW223484   6.806   3.143   6.590
 7529SOL     OW23485   6.520   3.030   4.503
 7529SOL    HW123486   6.563   2.972   4.434
 7529SOL    HW223487   6.524   2.983   4.592
 7530SOL     OW23488   6.922   2.214   1.930
 7530SOL    HW123489   6.841   2.217   1.872
 7530SOL    HW223490   6.956   2.307   1.945
 7531SOL     OW23491   4.277   1.974   3.738
 7531SOL    HW123492   4.262   1.875   3.730
 7531SOL    HW223493   4.192   2.018   3.765
 7532SOL     OW23494   4.342   5.039   6.413
 7532SOL    HW123495   4.254   4.996   6.433
 7532SOL    HW223496   4.383   5.074   6.497
 7533SOL     OW23497   4.659   3.861   1.747
 7533SOL    HW123498   4.677   3.959   1.739
 7533SOL    HW223499   4.732   3.818   1.800
 7534SOL     OW23500   4.702   6.871   4.250
 7534SOL    HW123501   4.760   6.822   4.315
 7534SOL    HW223502   4.630   6.919   4.299
 7535SOL     OW23503   0.458   5.885   3.608
 7535SOL    HW123504   0.438   5.817   3.678
 7535SOL    HW223505   0.500   5.965   3.652
 7536SOL     OW23506   4.855   6.016   4.575
 7536SOL    HW123507   4.789   5.993   4.646
 7536SOL    HW223508   4.849   5.949   4.501
 7537SOL     OW23509   3.302   6.566   3.220
 7537SOL    HW123510   3.365   6.542   3.294
 7537SOL    HW223511   3.327   6.655   3.182
 7538SOL     OW23512   0.599   4.227   0.667
 7538SOL    HW123513   0.688   4.213   0.625
 7538SOL    HW223514   0.583   4.325   0.682
 7539SOL     OW23515   0.534   6.109   3.773
 7539SOL    HW123516   0.547   6.208   3.767
 7539SOL    HW223517   0.463   6.088   3.840
 7540SOL     OW23518   6.357   5.157   3.607
 7540SOL    HW123519   6.353   5.058   3.594
 7540SOL    HW223520   6.285   5.200   3.553
 7541SOL     OW23521   1.840   4.287   0.021
 7541SOL    HW123522   1.763   4.225   0.002
 7541SOL    HW223523   1.806   4.367   0.071
 7542SOL     OW23524   5.772   5.904   5.791
 7542SOL    HW123525   5.748   5.863   5.879
 7542SOL    HW223526   5.693   5.903   5.731
 7543SOL     OW23527   2.428   0.829   6.512
 7543SOL    HW123528   2.468   0.910   6.555
 7543SOL    HW223529   2.447   0.830   6.414
 7544SOL     OW23530   0.186   2.666   4.411
 7544SOL    HW123531   0.124   2.618   4.349
 7544SOL    HW223532   0.149   2.666   4.504
 7545SOL     OW23533   0.892   4.939   0.033
 7545SOL    HW123534   0.806   4.940   0.084
 7545SOL    HW223535   0.963   4.894   0.087
 7546SOL     OW23536   3.110   2.809   1.754
 7546SOL    HW123537   3.166   2.805   1.836
 7546SOL    HW223538   3.117   2.722   1.704
 7547SOL     OW23539   4.598   0.455   1.972
 7547SOL    HW123540   4.606   0.410   2.061
 7547SOL    HW223541   4.534   0.404   1.915
 7548SOL     OW23542   4.018   1.986   6.497
 7548SOL    HW123543   3.982   1.984   6.404
 7548SOL    HW223544   4.088   2.058   6.504
 7549SOL     OW23545   4.806   2.408   4.730
 7549SOL    HW123546   4.727   2.468   4.744
 7549SOL    HW223547   4.774   2.320   4.693
 7550SOL     OW23548   2.358   4.264   4.206
 7550SOL    HW123549   2.336   4.167   4.221
 7550SOL    HW223550   2.279   4.320   4.230
 7551SOL     OW23551   5.868   2.439   5.817
 7551SOL    HW123552   5.842   2.469   5.725
 7551SOL    HW223553   5.942   2.497   5.852
 7552SOL     OW23554   2.543   5.686   4.920
 7552SOL    HW123555   2.585   5.736   4.845
 7552SOL    HW223556   2.586   5.713   5.006
 7553SOL     OW23557   5.825   6.499   5.910
 7553SOL    HW123558   5.883   6.502   5.829
 7553SOL    HW223559   5.854   6.424   5.970
 7554SOL     OW23560   5.038   0.776   1.034
 7554SOL    HW123561   5.061   0.871   1.054
 7554SOL    HW223562   4.957   0.750   1.085
 7555SOL     OW23563   3.239   5.063   5.589
 7555SOL    HW123564   3.326   5.028   5.622
 7555SOL    HW223565   3.234   5.053   5.490
 7556SOL     OW23566   0.040   0.238   1.021
 7556SOL    HW123567   0.035   0.254   0.923
 7556SOL    HW223568   7.004   0.306   1.068
 7557SOL     OW23569   4.614   0.203   0.130
 7557SOL    HW123570   4.515   0.214   0.120
 7557SOL    HW223571   4.647   0.261   0.205
 7558SOL     OW23572   1.194   2.162   4.593
 7558SOL    HW123573   1.124   2.094   4.616
 7558SOL    HW223574   1.269   2.118   4.545
 7559SOL     OW23575   3.719   1.927   4.568
 7559SOL    HW123576   3.735   1.869   4.647
 7559SOL    HW223577   3.649   1.885   4.510
 7560SOL     OW23578   0.492   0.848   6.005
 7560SOL    HW123579   0.544   0.822   6.086
 7560SOL    HW223580   0.417   0.784   5.991
 7561SOL     OW23581   5.500   2.019   5.164
 7561SOL    HW123582   5.577   2.063   5.116
 7561SOL    HW223583   5.423   2.084   5.169
 7562SOL     OW23584   1.132   4.226   4.077
 7562SOL    HW123585   1.076   4.307   4.062
 7562SOL    HW223586   1.221   4.253   4.113
 7563SOL     OW23587   3.528   5.529   2.731
 7563SOL    HW123588   3.505   5.602   2.665
 7563SOL    HW223589   3.627   5.520   2.737
 7564SOL     OW23590   4.449   1.781   4.895
 7564SOL    HW123591   4.516   1.721   4.938
 7564SOL    HW223592   4.476   1.798   4.800
 7565SOL     OW23593   5.583   4.244   6.391
 7565SOL    HW123594   5.492   4.285   6.392
 7565SOL    HW223595   5.611   4.221   6.484
 7566SOL     OW23596   4.157   4.145   1.269
 7566SOL    HW123597   4.158   4.048   1.294
 7566SOL    HW223598   4.148   4.201   1.351
 7567SOL     OW23599   1.885   0.721   4.708
 7567SOL    HW123600   1.919   0.627   4.711
 7567SOL    HW223601   1.958   0.782   4.677
 7568SOL     OW23602   5.869   5.362   1.672
 7568SOL    HW123603   5.851   5.272   1.711
 7568SOL    HW223604   5.783   5.412   1.662
 7569SOL     OW23605   4.456   3.893   0.170
 7569SOL    HW123606   4.551   3.922   0.159
 7569SOL    HW223607   4.398   3.938   0.102
 7570SOL     OW23608   6.466   2.954   2.954
 7570SOL    HW123609   6.464   2.858   2.980
 7570SOL    HW223610   6.509   3.008   3.027
 7571SOL     OW23611   4.396   2.409   3.145
 7571SOL    HW123612   4.303   2.377   3.124
 7571SOL    HW223613   4.417   2.389   3.241
 7572SOL     OW23614   4.766   6.382   2.075
 7572SOL    HW123615   4.689   6.434   2.111
 7572SOL    HW223616   4.816   6.340   2.151
 7573SOL     OW23617   4.830   6.501   5.558
 7573SOL    HW123618   4.772   6.422   5.543
 7573SOL    HW223619   4.800   6.550   5.640
 7574SOL     OW23620   0.222   1.296   3.933
 7574SOL    HW123621   0.249   1.378   3.882
 7574SOL    HW223622   0.122   1.294   3.941
 7575SOL     OW23623   6.920   6.877   2.620
 7575SOL    HW123624   6.919   6.975   2.643
 7575SOL    HW223625   6.898   6.866   2.523
 7576SOL     OW23626   5.685   3.321   0.701
 7576SOL    HW123627   5.716   3.409   0.665
 7576SOL    HW223628   5.586   3.322   0.711
 7577SOL     OW23629   1.332   6.641   0.792
 7577SOL    HW123630   1.366   6.730   0.823
 7577SOL    HW223631   1.409   6.584   0.761
 7578SOL     OW23632   6.874   5.977   3.567
 7578SOL    HW123633   6.933   6.035   3.511
 7578SOL    HW223634   6.895   5.991   3.664
 7579SOL     OW23635   6.683   1.380   6.930
 7579SOL    HW123636   6.623   1.374   7.009
 7579SOL    HW223637   6.685   1.292   6.883
 7580SOL     OW23638   2.459   4.744   3.761
 7580SOL    HW123639   2.512   4.686   3.699
 7580SOL    HW223640   2.367   4.706   3.772
 7581SOL     OW23641   6.912   0.796   2.687
 7581SOL    HW123642   6.964   0.819   2.605
 7581SOL    HW223643   6.908   0.875   2.748
 7582SOL     OW23644   3.347   1.262   5.220
 7582SOL    HW123645   3.254   1.297   5.231
 7582SOL    HW223646   3.405   1.333   5.180
 7583SOL     OW23647   5.077   2.920   2.795
 7583SOL    HW123648   5.131   2.843   2.761
 7583SOL    HW223649   5.089   2.999   2.735
 7584SOL     OW23650   0.188   0.991   2.867
 7584SOL    HW123651   0.275   0.942   2.859
 7584SOL    HW223652   0.179   1.055   2.790
 7585SOL     OW23653   1.081   1.594   0.043
 7585SOL    HW123654   1.113   1.517   0.099
 7585SOL    HW223655   1.158   1.651   0.016
 7586SOL     OW23656   1.289   1.982   2.644
 7586SOL    HW123657   1.192   1.961   2.655
 7586SOL    HW223658   1.318   2.045   2.717
 7587SOL     OW23659   3.431   0.746   0.736
 7587SOL    HW123660   3.403   0.839   0.711
 7587SOL    HW223661   3.526   0.747   0.767
 7588SOL     OW23662   1.979   2.299   4.543
 7588SOL    HW123663   2.054   2.360   4.568
 7588SOL    HW223664   1.892   2.347   4.558
 7589SOL     OW23665   0.656   1.030   3.027
 7589SOL    HW123666   0.731   1.075   2.978
 7589SOL    HW223667   0.694   0.969   3.097
 7590SOL     OW23668   0.168   1.732   6.677
 7590SOL    HW123669   0.253   1.762   6.633
 7590SOL    HW223670   0.189   1.660   6.743
 7591SOL     OW23671   4.247   3.287   5.256
 7591SOL    HW123672   4.184   3.252   5.325
 7591SOL    HW223673   4.202   3.285   5.166
 7592SOL     OW23674   6.680   6.570   4.769
 7592SOL    HW123675   6.657   6.500   4.701
 7592SOL    HW223676   6.769   6.549   4.810
 7593SOL     OW23677   1.159   1.324   5.800
 7593SOL    HW123678   1.126   1.259   5.868
 7593SOL    HW223679   1.256   1.308   5.782
 7594SOL     OW23680   0.128   4.595   6.894
 7594SOL    HW123681   0.046   4.651   6.905
 7594SOL    HW223682   0.121   4.513   6.951
 7595SOL     OW23683   0.303   3.004   6.342
 7595SOL    HW123684   0.253   3.053   6.270
 7595SOL    HW223685   0.246   2.929   6.377
 7596SOL     OW23686   3.177   0.978   5.422
 7596SOL    HW123687   3.148   1.074   5.422
 7596SOL    HW223688   3.113   0.925   5.479
 7597SOL     OW23689   1.428   4.504   2.300
 7597SOL    HW123690   1.332   4.477   2.300
 7597SOL    HW223691   1.475   4.458   2.224
 7598SOL     OW23692   6.118   1.279   2.996
 7598SOL    HW123693   6.116   1.359   3.057
 7598SOL    HW223694   6.192   1.290   2.929
 7599SOL     OW23695   4.185   3.251   1.168
 7599SOL    HW123696   4.101   3.301   1.191
 7599SOL    HW223697   4.252   3.264   1.241
 7600SOL     OW23698   1.566   6.976   4.523
 7600SOL    HW123699   1.606   0.041   4.491
 7600SOL    HW223700   1.640   6.916   4.556
 7601SOL     OW23701   3.839   5.668   2.403
 7601SOL    HW123702   3.889   5.581   2.409
 7601SOL    HW223703   3.787   5.683   2.487
 7602SOL     OW23704   6.721   1.143   0.767
 7602SOL    HW123705   6.666   1.185   0.694
 7602SOL    HW223706   6.668   1.142   0.852
 7603SOL     OW23707   2.857   0.432   4.944
 7603SOL    HW123708   2.839   0.462   4.850
 7603SOL    HW223709   2.919   0.353   4.942
 7604SOL     OW23710   0.661   2.602   4.721
 7604SOL    HW123711   0.646   2.695   4.755
 7604SOL    HW223712   0.648   2.601   4.622
 7605SOL     OW23713   2.256   6.521   0.189
 7605SOL    HW123714   2.284   6.578   0.112
 7605SOL    HW223715   2.269   6.425   0.166
 7606SOL     OW23716   6.440   1.414   3.284
 7606SOL    HW123717   6.421   1.330   3.335
 7606SOL    HW223718   6.520   1.400   3.226
 7607SOL     OW23719   2.445   5.834   5.663
 7607SOL    HW123720   2.505   5.861   5.738
 7607SOL    HW223721   2.354   5.812   5.700
 7608SOL     OW23722   6.325   2.508   6.352
 7608SOL    HW123723   6.333   2.599   6.311
 7608SOL    HW223724   6.416   2.477   6.380
 7609SOL     OW23725   0.654   2.158   4.741
 7609SOL    HW123726   0.710   2.156   4.658
 7609SOL    HW223727   0.657   2.250   4.780
 7610SOL     OW23728   3.824   5.129   5.412
 7610SOL    HW123729   3.901   5.152   5.353
 7610SOL    HW223730   3.740   5.164   5.372
 7611SOL     OW23731   4.878   3.514   1.146
 7611SOL    HW123732   4.953   3.452   1.124
 7611SOL    HW223733   4.795   3.484   1.099
 7612SOL     OW23734   3.123   1.721   3.173
 7612SOL    HW123735   3.107   1.678   3.262
 7612SOL    HW223736   3.048   1.696   3.111
 7613SOL     OW23737   0.433   1.324   2.149
 7613SOL    HW123738   0.372   1.360   2.079
 7613SOL    HW223739   0.412   1.228   2.166
 7614SOL     OW23740   5.583   3.978   1.091
 7614SOL    HW123741   5.602   4.050   1.024
 7614SOL    HW223742   5.505   3.924   1.059
 7615SOL     OW23743   5.816   3.546   4.797
 7615SOL    HW123744   5.738   3.607   4.808
 7615SOL    HW223745   5.887   3.593   4.744
 7616SOL     OW23746   6.107   6.945   3.641
 7616SOL    HW123747   6.141   6.907   3.555
 7616SOL    HW223748   6.096   0.023   3.631
 7617SOL     OW23749   5.173   5.471   3.811
 7617SOL    HW123750   5.241   5.437   3.746
 7617SOL    HW223751   5.103   5.521   3.761
 7618SOL     OW23752   2.421   2.683   0.172
 7618SOL    HW123753   2.331   2.667   0.213
 7618SOL    HW223754   2.488   2.702   0.243
 7619SOL     OW23755   0.802   2.163   4.500
 7619SOL    HW123756   0.753   2.241   4.462
 7619SOL    HW223757   0.801   2.088   4.433
 7620SOL     OW23758   4.111   3.911   1.431
 7620SOL    HW123759   4.132   3.926   1.527
 7620SOL    HW223760   4.055   3.829   1.421
 7621SOL     OW23761   6.927   4.187   0.254
 7621SOL    HW123762   6.842   4.145   0.222
 7621SOL    HW223763   6.911   4.228   0.344
 7622SOL     OW23764   3.084   3.558   1.362
 7622SOL    HW123765   3.029   3.629   1.407
 7622SOL    HW223766   3.116   3.492   1.431
 7623SOL     OW23767   4.475   4.722   1.067
 7623SOL    HW123768   4.540   4.719   0.991
 7623SOL    HW223769   4.465   4.631   1.107
 7624SOL     OW23770   0.703   2.877   2.143
 7624SOL    HW123771   0.770   2.951   2.136
 7624SOL    HW223772   0.615   2.914   2.172
 7625SOL     OW23773   5.292   1.221   1.201
 7625SOL    HW123774   5.344   1.268   1.129
 7625SOL    HW223775   5.254   1.289   1.264
 7626SOL     OW23776   5.445   1.317   5.570
 7626SOL    HW123777   5.471   1.242   5.631
 7626SOL    HW223778   5.528   1.362   5.537
 7627SOL     OW23779   3.763   2.231   6.693
 7627SOL    HW123780   3.742   2.138   6.662
 7627SOL    HW223781   3.680   2.276   6.724
 7628SOL     OW23782   3.443   2.642   6.836
 7628SOL    HW123783   3.483   2.608   6.921
 7628SOL    HW223784   3.390   2.725   6.855
 7629SOL     OW23785   6.091   2.826   4.047
 7629SOL    HW123786   6.046   2.851   3.961
 7629SOL    HW223787   6.032   2.852   4.124
 7630SOL     OW23788   1.498   6.881   5.597
 7630SOL    HW123789   1.451   6.807   5.645
 7630SOL    HW223790   1.538   6.845   5.513
 7631SOL     OW23791   1.617   6.945   6.010
 7631SOL    HW123792   1.639   0.005   5.955
 7631SOL    HW223793   1.672   6.946   6.094
 7632SOL     OW23794   5.353   5.350   0.360
 7632SOL    HW123795   5.314   5.284   0.296
 7632SOL    HW223796   5.280   5.396   0.409
 7633SOL     OW23797   6.382   1.218   1.543
 7633SOL    HW123798   6.371   1.316   1.563
 7633SOL    HW223799   6.329   1.195   1.462
 7634SOL     OW23800   6.839   2.197   0.488
 7634SOL    HW123801   6.762   2.189   0.425
 7634SOL    HW223802   6.906   2.125   0.467
 7635SOL     OW23803   2.468   4.527   5.913
 7635SOL    HW123804   2.431   4.436   5.893
 7635SOL    HW223805   2.423   4.595   5.856
 7636SOL     OW23806   0.317   3.417   4.594
 7636SOL    HW123807   0.242   3.472   4.631
 7636SOL    HW223808   0.404   3.460   4.618
 7637SOL     OW23809   0.686   6.713   4.621
 7637SOL    HW123810   0.717   6.656   4.544
 7637SOL    HW223811   0.647   6.654   4.692
 7638SOL     OW23812   0.600   5.967   1.828
 7638SOL    HW123813   0.625   6.034   1.898
 7638SOL    HW223814   0.676   5.955   1.764
 7639SOL     OW23815   1.605   0.931   0.148
 7639SOL    HW123816   1.613   0.897   0.242
 7639SOL    HW223817   1.684   0.902   0.095
 7640SOL     OW23818   3.125   0.755   0.069
 7640SOL    HW123819   3.054   0.762   7.019
 7640SOL    HW223820   3.130   0.660   0.102
 7641SOL     OW23821   0.312   4.021   3.417
 7641SOL    HW123822   0.377   4.097   3.419
 7641SOL    HW223823   0.309   3.983   3.325
 7642SOL     OW23824   6.296   0.793   3.692
 7642SOL    HW123825   6.289   0.889   3.665
 7642SOL    HW223826   6.222   0.770   3.755
 7643SOL     OW23827   5.430   3.947   3.066
 7643SOL    HW123828   5.490   4.020   3.033
 7643SOL    HW223829   5.370   3.983   3.137
 7644SOL     OW23830   5.295   3.623   1.162
 7644SOL    HW123831   5.211   3.645   1.212
 7644SOL    HW223832   5.374   3.654   1.214
 7645SOL     OW23833   3.546   4.276   6.084
 7645SOL    HW123834   3.527   4.240   6.175
 7645SOL    HW223835   3.460   4.308   6.043
 7646SOL     OW23836   0.127   2.522   1.842
 7646SOL    HW123837   0.218   2.500   1.808
 7646SOL    HW223838   0.113   2.621   1.841
 7647SOL     OW23839   6.446   2.867   4.976
 7647SOL    HW123840   6.452   2.781   5.027
 7647SOL    HW223841   6.502   2.936   5.021
 7648SOL     OW23842   2.616   1.894   1.665
 7648SOL    HW123843   2.533   1.918   1.716
 7648SOL    HW223844   2.692   1.949   1.698
 7649SOL     OW23845   4.909   1.166   5.579
 7649SOL    HW123846   4.881   1.213   5.495
 7649SOL    HW223847   5.008   1.150   5.577
 7650SOL     OW23848   4.460   1.589   0.757
 7650SOL    HW123849   4.515   1.506   0.745
 7650SOL    HW223850   4.491   1.639   0.837
 7651SOL     OW23851   2.551   5.042   5.766
 7651SOL    HW123852   2.647   5.053   5.793
 7651SOL    HW223853   2.546   5.022   5.669
 7652SOL     OW23854   7.008   1.091   3.987
 7652SOL    HW123855   6.974   1.104   3.894
 7652SOL    HW223856   0.036   1.004   3.993
 7653SOL     OW23857   0.774   1.474   6.617
 7653SOL    HW123858   0.817   1.526   6.691
 7653SOL    HW223859   0.789   1.521   6.530
 7654SOL     OW23860   5.779   2.288   6.466
 7654SOL    HW123861   5.768   2.226   6.544
 7654SOL    HW223862   5.752   2.380   6.494
 7655SOL     OW23863   3.005   1.182   3.344
 7655SOL    HW123864   3.100   1.182   3.378
 7655SOL    HW223865   2.943   1.197   3.421
 7656SOL     OW23866   0.086   3.185   6.522
 7656SOL    HW123867   0.097   3.088   6.497
 7656SOL    HW223868   7.011   3.202   6.546
 7657SOL     OW23869   0.832   3.855   4.463
 7657SOL    HW123870   0.746   3.810   4.440
 7657SOL    HW223871   0.905   3.787   4.466
 7658SOL     OW23872   2.538   1.688   0.926
 7658SOL    HW123873   2.507   1.780   0.900
 7658SOL    HW223874   2.568   1.690   1.022
 7659SOL     OW23875   4.441   3.813   5.452
 7659SOL    HW123876   4.462   3.734   5.394
 7659SOL    HW223877   4.348   3.845   5.432
 7660SOL     OW23878   0.371   5.606   4.613
 7660SOL    HW123879   0.436   5.559   4.672
 7660SOL    HW223880   0.401   5.701   4.601
 7661SOL     OW23881   4.619   2.002   5.808
 7661SOL    HW123882   4.652   1.919   5.764
 7661SOL    HW223883   4.527   2.023   5.774
 7662SOL     OW23884   0.495   1.363   1.185
 7662SOL    HW123885   0.409   1.331   1.145
 7662SOL    HW223886   0.535   1.289   1.240
 7663SOL     OW23887   6.780   5.323   5.370
 7663SOL    HW123888   6.816   5.360   5.456
 7663SOL    HW223889   6.693   5.278   5.387
 7664SOL     OW23890   4.094   1.923   2.267
 7664SOL    HW123891   3.996   1.906   2.253
 7664SOL    HW223892   4.144   1.906   2.182
 7665SOL     OW23893   4.305   0.748   5.367
 7665SOL    HW123894   4.249   0.776   5.289
 7665SOL    HW223895   4.402   0.753   5.341
 7666SOL     OW23896   5.592   4.740   4.055
 7666SOL    HW123897   5.640   4.675   3.996
 7666SOL    HW223898   5.588   4.704   4.149
 7667SOL     OW23899   4.476   5.789   1.172
 7667SOL    HW123900   4.558   5.735   1.191
 7667SOL    HW223901   4.459   5.851   1.249
 7668SOL     OW23902   2.017   5.234   1.226
 7668SOL    HW123903   2.006   5.333   1.224
 7668SOL    HW223904   2.076   5.208   1.302
 7669SOL     OW23905   2.828   6.683   5.679
 7669SOL    HW123906   2.742   6.649   5.642
 7669SOL    HW223907   2.871   6.746   5.614
 7670SOL     OW23908   0.487   6.612   0.203
 7670SOL    HW123909   0.507   6.528   0.152
 7670SOL    HW223910   0.553   6.683   0.177
 7671SOL     OW23911   4.195   6.656   0.732
 7671SOL    HW123912   4.290   6.685   0.742
 7671SOL    HW223913   4.140   6.698   0.804
 7672SOL     OW23914   4.732   5.000   2.901
 7672SOL    HW123915   4.776   5.012   2.990
 7672SOL    HW223916   4.634   4.987   2.914
 7673SOL     OW23917   1.005   5.962   4.625
 7673SOL    HW123918   0.930   5.959   4.559
 7673SOL    HW223919   0.998   5.884   4.687
 7674SOL     OW23920   3.922   6.005   4.327
 7674SOL    HW123921   3.908   6.052   4.414
 7674SOL    HW223922   4.018   5.979   4.318
 7675SOL     OW23923   4.579   6.609   3.196
 7675SOL    HW123924   4.674   6.638   3.191
 7675SOL    HW223925   4.543   6.595   3.104
 7676SOL     OW23926   3.029   2.922   5.432
 7676SOL    HW123927   3.066   2.961   5.348
 7676SOL    HW223928   2.943   2.968   5.455
 7677SOL     OW23929   5.410   4.823   1.322
 7677SOL    HW123930   5.499   4.830   1.277
 7677SOL    HW223931   5.343   4.876   1.272
 7678SOL     OW23932   1.474   0.448   5.508
 7678SOL    HW123933   1.460   0.435   5.606
 7678SOL    HW223934   1.386   0.467   5.464
 7679SOL     OW23935   2.142   5.715   5.293
 7679SOL    HW123936   2.163   5.812   5.304
 7679SOL    HW223937   2.203   5.660   5.350
 7680SOL     OW23938   2.273   0.067   5.282
 7680SOL    HW123939   2.267   0.136   5.354
 7680SOL    HW223940   2.370   0.051   5.260
 7681SOL     OW23941   2.755   3.630   6.585
 7681SOL    HW123942   2.706   3.697   6.641
 7681SOL    HW223943   2.696   3.552   6.567
 7682SOL     OW23944   3.342   1.574   2.522
 7682SOL    HW123945   3.337   1.519   2.439
 7682SOL    HW223946   3.293   1.528   2.596
 7683SOL     OW23947   0.869   0.772   4.633
 7683SOL    HW123948   0.858   0.865   4.597
 7683SOL    HW223949   0.791   0.716   4.607
 7684SOL     OW23950   4.171   2.474   1.723
 7684SOL    HW123951   4.270   2.474   1.715
 7684SOL    HW223952   4.134   2.559   1.686
 7685SOL     OW23953   2.522   0.641   0.325
 7685SOL    HW123954   2.461   0.691   0.264
 7685SOL    HW223955   2.481   0.635   0.416
 7686SOL     OW23956   5.921   0.138   4.577
 7686SOL    HW123957   5.895   0.049   4.539
 7686SOL    HW223958   5.858   0.208   4.543
 7687SOL     OW23959   5.336   4.711   4.999
 7687SOL    HW123960   5.255   4.681   4.948
 7687SOL    HW223961   5.358   4.805   4.973
 7688SOL     OW23962   0.551   4.902   6.474
 7688SOL    HW123963   0.602   4.932   6.393
 7688SOL    HW223964   0.610   4.909   6.555
 7689SOL     OW23965   4.644   0.605   1.431
 7689SOL    HW123966   4.652   0.626   1.529
 7689SOL    HW223967   4.629   0.507   1.419
 7690SOL     OW23968   6.242   5.657   1.469
 7690SOL    HW123969   6.265   5.754   1.464
 7690SOL    HW223970   6.207   5.636   1.561
 7691SOL     OW23971   4.690   4.198   2.928
 7691SOL    HW123972   4.708   4.246   2.842
 7691SOL    HW223973   4.633   4.118   2.910
 7692SOL     OW23974   2.522   6.877   1.965
 7692SOL    HW123975   2.488   6.961   1.923
 7692SOL    HW223976   2.575   6.825   1.898
 7693SOL     OW23977   2.107   1.800   0.994
 7693SOL    HW123978   2.163   1.881   1.012
 7693SOL    HW223979   2.164   1.730   0.950
 7694SOL     OW23980   5.878   1.980   5.515
 7694SOL    HW123981   5.948   1.909   5.519
 7694SOL    HW223982   5.794   1.943   5.475
 7695SOL     OW23983   5.016   0.185   3.046
 7695SOL    HW123984   5.062   0.238   2.976
 7695SOL    HW223985   5.079   0.169   3.122
 7696SOL     OW23986   0.984   2.826   6.264
 7696SOL    HW123987   0.916   2.857   6.198
 7696SOL    HW223988   1.007   2.730   6.246
 7697SOL     OW23989   4.347   6.768   2.536
 7697SOL    HW123990   4.277   6.832   2.505
 7697SOL    HW223991   4.388   6.801   2.621
 7698SOL     OW23992   6.791   2.475   0.106
 7698SOL    HW123993   6.714   2.472   0.169
 7698SOL    HW223994   6.767   2.529   0.026
 7699SOL     OW23995   4.201   5.396   5.947
 7699SOL    HW123996   4.214   5.383   6.045
 7699SOL    HW223997   4.153   5.482   5.931
 7700SOL     OW23998   5.239   5.780   2.762
 7700SOL    HW123999   5.161   5.786   2.699
 7700SOL    HW224000   5.277   5.872   2.775
 7701SOL     OW24001   0.462   2.758   6.125
 7701SOL    HW124002   0.468   2.817   6.206
 7701SOL    HW224003   0.553   2.722   6.104
 7702SOL     OW24004   4.436   0.152   4.681
 7702SOL    HW124005   4.400   0.074   4.630
 7702SOL    HW224006   4.512   0.193   4.631
 7703SOL     OW24007   6.361   6.791   5.044
 7703SOL    HW124008   6.385   6.819   4.951
 7703SOL    HW224009   6.436   6.737   5.083
 7704SOL     OW24010   6.926   1.771   4.438
 7704SOL    HW124011   6.974   1.683   4.436
 7704SOL    HW224012   6.884   1.783   4.528
 7705SOL     OW24013   1.240   4.796   0.325
 7705SOL    HW124014   1.284   4.885   0.336
 7705SOL    HW224015   1.144   4.802   0.353
 7706SOL     OW24016   3.874   2.958   2.356
 7706SOL    HW124017   3.799   2.968   2.291
 7706SOL    HW224018   3.925   2.875   2.335
 7707SOL     OW24019   6.288   4.392   6.001
 7707SOL    HW124020   6.243   4.310   6.038
 7707SOL    HW224021   6.279   4.393   5.902
 7708SOL     OW24022   2.394   0.056   4.823
 7708SOL    HW124023   2.463   0.030   4.755
 7708SOL    HW224024   2.419   0.144   4.864
 7709SOL     OW24025   0.166   4.919   1.607
 7709SOL    HW124026   0.160   4.820   1.619
 7709SOL    HW224027   0.149   4.943   1.512
 7710SOL     OW24028   0.254   3.344   0.935
 7710SOL    HW124029   0.156   3.335   0.915
 7710SOL    HW224030   0.306   3.340   0.850
 7711SOL     OW24031   0.358   4.808   5.019
 7711SOL    HW124032   0.444   4.840   4.980
 7711SOL    HW224033   0.309   4.885   5.060
 7712SOL     OW24034   0.005   4.559   5.706
 7712SOL    HW124035   0.098   4.524   5.711
 7712SOL    HW224036   6.970   4.514   5.777
 7713SOL     OW24037   2.107   4.643   0.057
 7713SOL    HW124038   2.022   4.606   0.020
 7713SOL    HW224039   2.183   4.581   0.036
 7714SOL     OW24040   6.434   0.737   5.448
 7714SOL    HW124041   6.478   0.822   5.423
 7714SOL    HW224042   6.412   0.684   5.366
 7715SOL     OW24043   3.038   2.760   6.062
 7715SOL    HW124044   3.092   2.677   6.050
 7715SOL    HW224045   3.086   2.837   6.020
 7716SOL     OW24046   1.254   5.839   5.490
 7716SOL    HW124047   1.219   5.815   5.399
 7716SOL    HW224048   1.189   5.898   5.537
 7717SOL     OW24049   0.819   1.613   6.849
 7717SOL    HW124050   0.867   1.528   6.872
 7717SOL    HW224051   0.780   1.652   6.932
 7718SOL     OW24052   1.499   3.594   2.761
 7718SOL    HW124053   1.474   3.497   2.767
 7718SOL    HW224054   1.490   3.636   2.852
 7719SOL     OW24055   2.266   4.209   4.775
 7719SOL    HW124056   2.315   4.128   4.807
 7719SOL    HW224057   2.260   4.277   4.848
 7720SOL     OW24058   5.273   1.354   0.105
 7720SOL    HW124059   5.307   1.372   0.012
 7720SOL    HW224060   5.340   1.299   0.155
 7721SOL     OW24061   0.716   0.513   2.371
 7721SOL    HW124062   0.765   0.579   2.427
 7721SOL    HW224063   0.667   0.561   2.298
 7722SOL     OW24064   2.001   6.260   3.170
 7722SOL    HW124065   2.014   6.234   3.074
 7722SOL    HW224066   1.944   6.191   3.215
 7723SOL     OW24067   4.975   4.210   0.567
 7723SOL    HW124068   4.937   4.122   0.536
 7723SOL    HW224069   4.909   4.255   0.628
 7724SOL     OW24070   2.233   3.863   1.843
 7724SOL    HW124071   2.211   3.943   1.787
 7724SOL    HW224072   2.234   3.890   1.939
 7725SOL     OW24073   5.211   3.317   3.262
 7725SOL    HW124074   5.292   3.271   3.299
 7725SOL    HW224075   5.171   3.375   3.333
 7726SOL     OW24076   0.986   2.966   6.617
 7726SOL    HW124077   1.001   3.027   6.539
 7726SOL    HW224078   0.897   2.987   6.659
 7727SOL     OW24079   4.892   1.391   2.356
 7727SOL    HW124080   4.884   1.361   2.451
 7727SOL    HW224081   4.813   1.358   2.304
 7728SOL     OW24082   2.131   3.447   4.479
 7728SOL    HW124083   2.142   3.546   4.492
 7728SOL    HW224084   2.191   3.399   4.543
 7729SOL     OW24085   6.903   1.957   4.258
 7729SOL    HW124086   6.986   2.009   4.234
 7729SOL    HW224087   6.923   1.896   4.334
 7730SOL     OW24088   6.587   4.342   5.163
 7730SOL    HW124089   6.559   4.431   5.128
 7730SOL    HW224090   6.580   4.274   5.090
 7731SOL     OW24091   6.528   6.706   6.660
 7731SOL    HW124092   6.628   6.708   6.656
 7731SOL    HW224093   6.491   6.783   6.608
 7732SOL     OW24094   4.291   0.667   6.458
 7732SOL    HW124095   4.249   0.706   6.375
 7732SOL    HW224096   4.320   0.742   6.517
 7733SOL     OW24097   6.075   5.785   2.119
 7733SOL    HW124098   6.166   5.826   2.126
 7733SOL    HW224099   6.031   5.786   2.209
 7734SOL     OW24100   3.291   3.799   4.516
 7734SOL    HW124101   3.266   3.778   4.610
 7734SOL    HW224102   3.382   3.842   4.514
 7735SOL     OW24103   6.812   6.145   0.648
 7735SOL    HW124104   6.766   6.057   0.664
 7735SOL    HW224105   6.851   6.178   0.734
 7736SOL     OW24106   2.553   2.954   0.464
 7736SOL    HW124107   2.459   2.932   0.492
 7736SOL    HW224108   2.599   3.001   0.539
 7737SOL     OW24109   3.858   4.935   1.022
 7737SOL    HW124110   3.845   5.012   0.960
 7737SOL    HW224111   3.945   4.946   1.071
 7738SOL     OW24112   2.389   6.822   6.513
 7738SOL    HW124113   2.355   6.770   6.435
 7738SOL    HW224114   2.471   6.872   6.487
 7739SOL     OW24115   1.482   1.756   0.511
 7739SOL    HW124116   1.542   1.819   0.561
 7739SOL    HW224117   1.389   1.794   0.509
 7740SOL     OW24118   1.775   0.565   5.046
 7740SOL    HW124119   1.696   0.566   5.106
 7740SOL    HW224120   1.800   0.659   5.021
 7741SOL     OW24121   1.556   4.416   5.973
 7741SOL    HW124122   1.646   4.395   6.011
 7741SOL    HW224123   1.506   4.331   5.959
 7742SOL     OW24124   4.116   1.619   4.204
 7742SOL    HW124125   4.026   1.646   4.168
 7742SOL    HW224126   4.172   1.583   4.129
 7743SOL     OW24127   5.023   2.392   5.409
 7743SOL    HW124128   5.120   2.391   5.432
 7743SOL    HW224129   5.004   2.466   5.345
 7744SOL     OW24130   0.371   6.573   4.611
 7744SOL    HW124131   0.411   6.597   4.522
 7744SOL    HW224132   0.274   6.599   4.612
 7745SOL     OW24133   2.323   6.751   0.697
 7745SOL    HW124134   2.294   6.843   0.726
 7745SOL    HW224135   2.381   6.758   0.616
 7746SOL     OW24136   1.210   6.189   1.210
 7746SOL    HW124137   1.194   6.150   1.301
 7746SOL    HW224138   1.168   6.280   1.205
 7747SOL     OW24139   1.268   6.087   0.047
 7747SOL    HW124140   1.230   6.025   7.000
 7747SOL    HW224141   1.194   6.127   0.102
 7748SOL     OW24142   4.505   2.309   5.794
 7748SOL    HW124143   4.524   2.283   5.889
 7748SOL    HW224144   4.485   2.227   5.740
 7749SOL     OW24145   3.990   3.522   3.733
 7749SOL    HW124146   4.022   3.570   3.815
 7749SOL    HW224147   3.894   3.546   3.716
 7750SOL     OW24148   6.078   4.337   5.538
 7750SOL    HW124149   6.105   4.357   5.444
 7750SOL    HW224150   5.996   4.280   5.538
 7751SOL     OW24151   6.764   0.976   5.136
 7751SOL    HW124152   6.826   1.050   5.161
 7751SOL    HW224153   6.817   0.901   5.094
 7752SOL     OW24154   6.411   5.433   5.479
 7752SOL    HW124155   6.402   5.336   5.458
 7752SOL    HW224156   6.377   5.451   5.571
 7753SOL     OW24157   2.459   0.750   4.704
 7753SOL    HW124158   2.482   0.790   4.793
 7753SOL    HW224159   2.385   0.684   4.716
 7754SOL     OW24160   5.742   0.789   1.616
 7754SOL    HW124161   5.654   0.817   1.577
 7754SOL    HW224162   5.736   0.695   1.649
 7755SOL     OW24163   1.083   6.000   5.624
 7755SOL    HW124164   0.997   5.961   5.658
 7755SOL    HW224165   1.124   6.057   5.695
 7756SOL     OW24166   3.778   5.315   2.193
 7756SOL    HW124167   3.792   5.314   2.094
 7756SOL    HW224168   3.692   5.268   2.215
 7757SOL     OW24169   4.717   6.262   5.630
 7757SOL    HW124170   4.723   6.217   5.541
 7757SOL    HW224171   4.621   6.269   5.657
 7758SOL     OW24172   2.339   2.150   5.636
 7758SOL    HW124173   2.438   2.148   5.624
 7758SOL    HW224174   2.310   2.244   5.655
 7759SOL     OW24175   2.121   0.779   4.520
 7759SOL    HW124176   2.070   0.730   4.449
 7759SOL    HW224177   2.204   0.817   4.481
 7760SOL     OW24178   4.949   2.834   2.287
 7760SOL    HW124179   4.885   2.833   2.364
 7760SOL    HW224180   5.008   2.754   2.291
 7761SOL     OW24181   3.640   6.966   6.651
 7761SOL    HW124182   3.691   6.882   6.667
 7761SOL    HW224183   3.690   0.023   6.690
 7762SOL     OW24184   3.910   1.436   0.515
 7762SOL    HW124185   3.854   1.359   0.544
 7762SOL    HW224186   3.989   1.445   0.576
 7763SOL     OW24187   1.623   1.861   0.768
 7763SOL    HW124188   1.599   1.956   0.747
 7763SOL    HW224189   1.718   1.857   0.800
 7764SOL     OW24190   3.381   2.984   2.325
 7764SOL    HW124191   3.304   2.957   2.267
 7764SOL    HW224192   3.391   3.083   2.323
 7765SOL     OW24193   6.726   2.210   2.885
 7765SOL    HW124194   6.775   2.260   2.956
 7765SOL    HW224195   6.779   2.129   2.859
 7766SOL     OW24196   6.983   2.714   6.866
 7766SOL    HW124197   6.955   2.650   6.794
 7766SOL    HW224198   0.060   2.705   6.881
 7767SOL     OW24199   4.515   5.710   4.408
 7767SOL    HW124200   4.534   5.615   4.386
 7767SOL    HW224201   4.576   5.769   4.356
 7768SOL     OW24202   3.932   4.810   2.157
 7768SOL    HW124203   3.926   4.716   2.122
 7768SOL    HW224204   3.899   4.873   2.087
 7769SOL     OW24205   5.337   1.804   1.655
 7769SOL    HW124206   5.375   1.854   1.733
 7769SOL    HW224207   5.397   1.816   1.576
 7770SOL     OW24208   3.263   4.967   1.247
 7770SOL    HW124209   3.252   4.873   1.214
 7770SOL    HW224210   3.174   5.012   1.250
 7771SOL     OW24211   2.407   2.134   5.912
 7771SOL    HW124212   2.487   2.194   5.920
 7771SOL    HW224213   2.388   2.117   5.816
 7772SOL     OW24214   5.125   0.775   4.341
 7772SOL    HW124215   5.149   0.854   4.398
 7772SOL    HW224216   5.209   0.729   4.313
 7773SOL     OW24217   4.247   3.769   5.845
 7773SOL    HW124218   4.337   3.778   5.801
 7773SOL    HW224219   4.258   3.778   5.944
 7774SOL     OW24220   4.922   1.699   6.433
 7774SOL    HW124221   4.970   1.761   6.370
 7774SOL    HW224222   4.868   1.633   6.380
 7775SOL     OW24223   2.960   6.343   2.249
 7775SOL    HW124224   2.897   6.296   2.311
 7775SOL    HW224225   2.927   6.334   2.155
 7776SOL     OW24226   3.813   3.492   6.577
 7776SOL    HW124227   3.807   3.582   6.621
 7776SOL    HW224228   3.727   3.442   6.592
 7777SOL     OW24229   1.927   1.559   6.622
 7777SOL    HW124230   1.900   1.643   6.574
 7777SOL    HW224231   1.854   1.532   6.685
 7778SOL     OW24232   5.492   0.861   6.869
 7778SOL    HW124233   5.443   0.914   6.937
 7778SOL    HW224234   5.590   0.864   6.889
 7779SOL     OW24235   4.041   2.942   0.646
 7779SOL    HW124236   4.003   3.034   0.659
 7779SOL    HW224237   4.132   2.937   0.687
 7780SOL     OW24238   2.264   6.238   4.716
 7780SOL    HW124239   2.233   6.163   4.775
 7780SOL    HW224240   2.270   6.322   4.770
 7781SOL     OW24241   1.164   4.519   4.628
 7781SOL    HW124242   1.168   4.585   4.703
 7781SOL    HW224243   1.089   4.544   4.567
 7782SOL     OW24244   2.979   4.401   6.358
 7782SOL    HW124245   3.036   4.383   6.438
 7782SOL    HW224246   2.886   4.423   6.387
 7783SOL     OW24247   2.211   5.307   6.695
 7783SOL    HW124248   2.249   5.222   6.733
 7783SOL    HW224249   2.253   5.325   6.606
 7784SOL     OW24250   0.368   2.969   0.060
 7784SOL    HW124251   0.288   2.910   0.070
 7784SOL    HW224252   0.345   3.062   0.089
 7785SOL     OW24253   2.556   5.884   4.165
 7785SOL    HW124254   2.584   5.797   4.207
 7785SOL    HW224255   2.535   5.949   4.237
 7786SOL     OW24256   2.974   4.414   5.370
 7786SOL    HW124257   3.070   4.409   5.394
 7786SOL    HW224258   2.964   4.457   5.280
 7787SOL     OW24259   2.459   2.651   5.132
 7787SOL    HW124260   2.451   2.710   5.052
 7787SOL    HW224261   2.454   2.707   5.215
 7788SOL     OW24262   1.611   1.636   0.316
 7788SOL    HW124263   1.566   1.694   0.384
 7788SOL    HW224264   1.705   1.618   0.345
 7789SOL     OW24265   2.268   0.795   1.207
 7789SOL    HW124266   2.202   0.762   1.275
 7789SOL    HW224267   2.279   0.894   1.216
 7790SOL     OW24268   5.122   3.129   2.629
 7790SOL    HW124269   5.213   3.091   2.614
 7790SOL    HW224270   5.102   3.197   2.559
 7791SOL     OW24271   1.582   5.035   4.714
 7791SOL    HW124272   1.622   4.961   4.660
 7791SOL    HW224273   1.556   5.000   4.804
 7792SOL     OW24274   2.522   5.745   6.161
 7792SOL    HW124275   2.434   5.752   6.114
 7792SOL    HW224276   2.524   5.662   6.217
 7793SOL     OW24277   1.072   1.150   5.993
 7793SOL    HW124278   1.137   1.118   6.062
 7793SOL    HW224279   0.988   1.097   5.998
 7794SOL     OW24280   5.361   5.758   4.078
 7794SOL    HW124281   5.272   5.712   4.080
 7794SOL    HW224282   5.349   5.852   4.046
 7795SOL     OW24283   2.534   4.534   5.110
 7795SOL    HW124284   2.487   4.615   5.144
 7795SOL    HW224285   2.572   4.553   5.019
 7796SOL     OW24286   3.495   4.126   3.424
 7796SOL    HW124287   3.443   4.157   3.343
 7796SOL    HW224288   3.432   4.087   3.491
 7797SOL     OW24289   0.153   0.046   2.849
 7797SOL    HW124290   0.222   0.080   2.913
 7797SOL    HW224291   0.172   0.083   2.758
 7798SOL     OW24292   3.306   5.839   0.182
 7798SOL    HW124293   3.349   5.858   0.094
 7798SOL    HW224294   3.209   5.863   0.178
 7799SOL     OW24295   0.153   4.651   1.636
 7799SOL    HW124296   0.202   4.652   1.723
 7799SOL    HW224297   0.069   4.598   1.646
 7800SOL     OW24298   0.601   5.745   2.000
 7800SOL    HW124299   0.552   5.831   1.988
 7800SOL    HW224300   0.613   5.726   2.098
 7801SOL     OW24301   3.392   1.962   6.805
 7801SOL    HW124302   3.490   1.954   6.789
 7801SOL    HW224303   3.376   2.018   6.886
 7802SOL     OW24304   5.594   2.330   1.892
 7802SOL    HW124305   5.652   2.396   1.940
 7802SOL    HW224306   5.535   2.283   1.958
 7803SOL     OW24307   3.885   3.932   5.610
 7803SOL    HW124308   3.917   3.971   5.696
 7803SOL    HW224309   3.894   4.000   5.537
 7804SOL     OW24310   5.053   2.167   5.931
 7804SOL    HW124311   5.092   2.143   5.842
 7804SOL    HW224312   5.004   2.088   5.968
 7805SOL     OW24313   5.146   3.651   2.080
 7805SOL    HW124314   5.062   3.641   2.027
 7805SOL    HW224315   5.169   3.564   2.123
 7806SOL     OW24316   5.578   2.797   6.275
 7806SOL    HW124317   5.588   2.791   6.375
 7806SOL    HW224318   5.521   2.722   6.242
 7807SOL     OW24319   0.032   4.145   6.290
 7807SOL    HW124320   0.018   4.069   6.354
 7807SOL    HW224321   7.005   4.226   6.324
 7808SOL     OW24322   1.122   1.181   4.735
 7808SOL    HW124323   1.104   1.123   4.655
 7808SOL    HW224324   1.037   1.224   4.765
 7809SOL     OW24325   2.659   5.770   4.692
 7809SOL    HW124326   2.731   5.824   4.650
 7809SOL    HW224327   2.581   5.763   4.630
 7810SOL     OW24328   2.742   0.969   6.387
 7810SOL    HW124329   2.687   0.981   6.470
 7810SOL    HW224330   2.736   1.051   6.330
 7811SOL     OW24331   5.899   4.253   4.034
 7811SOL    HW124332   5.906   4.279   3.938
 7811SOL    HW224333   5.919   4.333   4.092
 7812SOL     OW24334   1.990   1.613   3.652
 7812SOL    HW124335   1.925   1.614   3.576
 7812SOL    HW224336   2.008   1.518   3.679
 7813SOL     OW24337   6.867   3.133   0.071
 7813SOL    HW124338   6.835   3.040   0.085
 7813SOL    HW224339   6.912   3.167   0.154
 7814SOL     OW24340   6.801   3.548   3.210
 7814SOL    HW124341   6.807   3.558   3.111
 7814SOL    HW224342   6.713   3.507   3.235
 7815SOL     OW24343   6.262   1.686   5.994
 7815SOL    HW124344   6.224   1.758   6.051
 7815SOL    HW224345   6.197   1.662   5.922
 7816SOL     OW24346   1.265   3.678   4.755
 7816SOL    HW124347   1.282   3.585   4.789
 7816SOL    HW224348   1.350   3.730   4.758
 7817SOL     OW24349   5.075   4.224   4.810
 7817SOL    HW124350   5.129   4.215   4.726
 7817SOL    HW224351   5.103   4.154   4.875
 7818SOL     OW24352   5.428   6.404   1.646
 7818SOL    HW124353   5.360   6.388   1.575
 7818SOL    HW224354   5.391   6.374   1.734
 7819SOL     OW24355   6.937   2.089   1.495
 7819SOL    HW124356   6.970   2.183   1.480
 7819SOL    HW224357   6.844   2.080   1.458
 7820SOL     OW24358   1.621   1.255   6.809
 7820SOL    HW124359   1.628   1.158   6.830
 7820SOL    HW224360   1.529   1.287   6.832
 7821SOL     OW24361   3.287   5.330   1.897
 7821SOL    HW124362   3.264   5.375   1.810
 7821SOL    HW224363   3.246   5.382   1.973
 7822SOL     OW24364   1.588   6.031   5.242
 7822SOL    HW124365   1.531   6.085   5.179
 7822SOL    HW224366   1.617   5.947   5.196
 7823SOL     OW24367   1.497   4.767   4.979
 7823SOL    HW124368   1.474   4.720   5.064
 7823SOL    HW224369   1.455   4.720   4.902
 7824SOL     OW24370   0.779   3.189   5.645
 7824SOL    HW124371   0.780   3.199   5.744
 7824SOL    HW224372   0.775   3.091   5.622
 7825SOL     OW24373   2.783   1.741   6.190
 7825SOL    HW124374   2.810   1.836   6.173
 7825SOL    HW224375   2.828   1.707   6.272
 7826SOL     OW24376   0.383   2.911   6.817
 7826SOL    HW124377   0.364   2.934   6.913
 7826SOL    HW224378   0.403   2.995   6.766
 7827SOL     OW24379   0.087   6.583   4.576
 7827SOL    HW124380   0.071   6.678   4.550
 7827SOL    HW224381   0.036   6.562   4.659
 7828SOL     OW24382   0.575   4.384   6.670
 7828SOL    HW124383   0.576   4.321   6.747
 7828SOL    HW224384   0.488   4.432   6.667
 7829SOL     OW24385   3.917   2.702   0.707
 7829SOL    HW124386   3.867   2.700   0.794
 7829SOL    HW224387   3.947   2.796   0.688
 7830SOL     OW24388   2.592   4.654   4.567
 7830SOL    HW124389   2.549   4.743   4.583
 7830SOL    HW224390   2.538   4.603   4.501
 7831SOL     OW24391   1.773   1.631   0.582
 7831SOL    HW124392   1.739   1.690   0.655
 7831SOL    HW224393   1.839   1.681   0.527
 7832SOL     OW24394   6.284   0.962   4.429
 7832SOL    HW124395   6.236   0.959   4.342
 7832SOL    HW224396   6.234   1.021   4.493
 7833SOL     OW24397   1.844   0.646   4.384
 7833SOL    HW124398   1.865   0.687   4.473
 7833SOL    HW224399   1.751   0.608   4.387
 7834SOL     OW24400   6.140   3.143   4.759
 7834SOL    HW124401   6.220   3.103   4.805
 7834SOL    HW224402   6.077   3.070   4.734
 7835SOL     OW24403   4.176   2.059   5.264
 7835SOL    HW124404   4.115   2.122   5.216
 7835SOL    HW224405   4.255   2.039   5.207
 7836SOL     OW24406   3.863   3.626   5.000
 7836SOL    HW124407   3.811   3.675   4.930
 7836SOL    HW224408   3.805   3.611   5.080
 7837SOL     OW24409   6.515   5.292   6.791
 7837SOL    HW124410   6.577   5.213   6.799
 7837SOL    HW224411   6.421   5.261   6.802
 7838SOL     OW24412   5.338   5.340   1.232
 7838SOL    HW124413   5.266   5.317   1.167
 7838SOL    HW224414   5.403   5.264   1.237
 7839SOL     OW24415   5.741   3.609   4.233
 7839SOL    HW124416   5.718   3.512   4.232
 7839SOL    HW224417   5.692   3.654   4.308
 7840SOL     OW24418   1.851   2.930   4.025
 7840SOL    HW124419   1.817   2.917   3.932
 7840SOL    HW224420   1.889   3.022   4.034
 7841SOL     OW24421   4.810   2.277   6.131
 7841SOL    HW124422   4.803   2.178   6.117
 7841SOL    HW224423   4.898   2.309   6.096
 7842SOL     OW24424   1.712   1.146   1.800
 7842SOL    HW124425   1.796   1.197   1.820
 7842SOL    HW224426   1.673   1.112   1.886
 7843SOL     OW24427   0.476   6.766   2.836
 7843SOL    HW124428   0.462   6.679   2.884
 7843SOL    HW224429   0.392   6.789   2.786
 7844SOL     OW24430   3.594   1.585   2.862
 7844SOL    HW124431   3.543   1.666   2.891
 7844SOL    HW224432   3.633   1.602   2.771
 7845SOL     OW24433   6.466   2.860   1.011
 7845SOL    HW124434   6.405   2.867   0.932
 7845SOL    HW224435   6.464   2.947   1.061
 7846SOL     OW24436   0.557   2.552   0.333
 7846SOL    HW124437   0.533   2.479   0.398
 7846SOL    HW224438   0.536   2.640   0.374
 7847SOL     OW24439   5.815   3.090   4.849
 7847SOL    HW124440   5.765   3.029   4.911
 7847SOL    HW224441   5.872   3.036   4.788
 7848SOL     OW24442   3.133   4.723   0.887
 7848SOL    HW124443   3.145   4.635   0.841
 7848SOL    HW224444   3.175   4.720   0.977
 7849SOL     OW24445   4.643   4.231   6.441
 7849SOL    HW124446   4.605   4.249   6.350
 7849SOL    HW224447   4.659   4.318   6.488
 7850SOL     OW24448   6.976   0.994   3.710
 7850SOL    HW124449   0.000   0.906   3.726
 7850SOL    HW224450   6.877   0.983   3.720
 7851SOL     OW24451   0.325   3.872   2.088
 7851SOL    HW124452   0.401   3.926   2.123
 7851SOL    HW224453   0.324   3.783   2.132
 7852SOL     OW24454   0.882   2.096   6.361
 7852SOL    HW124455   0.815   2.075   6.433
 7852SOL    HW224456   0.911   2.012   6.317
 7853SOL     OW24457   3.989   2.950   1.729
 7853SOL    HW124458   3.940   2.965   1.814
 7853SOL    HW224459   4.079   2.994   1.734
 7854SOL     OW24460   5.044   2.809   6.696
 7854SOL    HW124461   4.996   2.896   6.698
 7854SOL    HW224462   4.977   2.734   6.700
 7855SOL     OW24463   4.954   6.915   4.545
 7855SOL    HW124464   4.909   6.994   4.588
 7855SOL    HW224465   5.015   6.871   4.611
 7856SOL     OW24466   2.318   6.505   4.838
 7856SOL    HW124467   2.391   6.561   4.799
 7856SOL    HW224468   2.229   6.538   4.806
 7857SOL     OW24469   5.407   4.200   1.255
 7857SOL    HW124470   5.385   4.104   1.272
 7857SOL    HW224471   5.489   4.224   1.306
 7858SOL     OW24472   0.529   5.012   5.530
 7858SOL    HW124473   0.577   5.010   5.618
 7858SOL    HW224474   0.463   4.937   5.527
 7859SOL     OW24475   5.520   3.107   0.292
 7859SOL    HW124476   5.434   3.090   0.341
 7859SOL    HW224477   5.504   3.100   0.194
 7860SOL     OW24478   2.700   0.684   4.155
 7860SOL    HW124479   2.698   0.783   4.171
 7860SOL    HW224480   2.787   0.647   4.188
 7861SOL     OW24481   2.757   6.131   0.770
 7861SOL    HW124482   2.659   6.120   0.792
 7861SOL    HW224483   2.808   6.054   0.809
 7862SOL     OW24484   2.378   5.572   0.820
 7862SOL    HW124485   2.461   5.529   0.856
 7862SOL    HW224486   2.300   5.513   0.840
 7863SOL     OW24487   6.682   4.301   3.260
 7863SOL    HW124488   6.602   4.259   3.216
 7863SOL    HW224489   6.737   4.230   3.303
 7864SOL     OW24490   2.128   6.863   5.358
 7864SOL    HW124491   2.086   6.889   5.444
 7864SOL    HW224492   2.174   6.942   5.318
 7865SOL     OW24493   5.677   5.644   3.703
 7865SOL    HW124494   5.691   5.576   3.631
 7865SOL    HW224495   5.582   5.639   3.735
 7866SOL     OW24496   1.002   6.973   5.742
 7866SOL    HW124497   1.057   6.907   5.690
 7866SOL    HW224498   0.999   0.039   5.694
 7867SOL     OW24499   5.393   6.229   3.747
 7867SOL    HW124500   5.397   6.153   3.682
 7867SOL    HW224501   5.441   6.308   3.708
 7868SOL     OW24502   3.455   6.084   1.241
 7868SOL    HW124503   3.465   6.144   1.320
 7868SOL    HW224504   3.458   6.138   1.157
 7869SOL     OW24505   5.130   4.700   6.128
 7869SOL    HW124506   5.207   4.763   6.116
 7869SOL    HW224507   5.074   4.699   6.046
 7870SOL     OW24508   5.613   6.313   5.124
 7870SOL    HW124509   5.584   6.300   5.219
 7870SOL    HW224510   5.583   6.403   5.092
 7871SOL     OW24511   4.722   1.465   1.789
 7871SOL    HW124512   4.794   1.397   1.772
 7871SOL    HW224513   4.698   1.509   1.703
 7872SOL     OW24514   2.005   6.047   2.673
 7872SOL    HW124515   1.935   5.980   2.649
 7872SOL    HW224516   2.003   6.122   2.607
 7873SOL     OW24517   6.372   1.276   6.811
 7873SOL    HW124518   6.366   1.243   6.905
 7873SOL    HW224519   6.318   1.360   6.801
 7874SOL     OW24520   5.501   2.413   0.692
 7874SOL    HW124521   5.411   2.370   0.687
 7874SOL    HW224522   5.515   2.449   0.784
 7875SOL     OW24523   5.196   4.378   6.968
 7875SOL    HW124524   5.254   4.351   0.023
 7875SOL    HW224525   5.234   4.460   6.925
 7876SOL     OW24526   0.816   0.041   2.390
 7876SOL    HW124527   0.829   0.136   2.361
 7876SOL    HW224528   0.903   7.013   2.388
 7877SOL     OW24529   0.134   2.063   2.981
 7877SOL    HW124530   0.147   2.074   3.079
 7877SOL    HW224531   0.124   2.153   2.939
 7878SOL     OW24532   4.225   5.164   3.340
 7878SOL    HW124533   4.154   5.203   3.281
 7878SOL    HW224534   4.191   5.080   3.381
 7879SOL     OW24535   2.465   4.479   3.186
 7879SOL    HW124536   2.527   4.553   3.158
 7879SOL    HW224537   2.493   4.394   3.141
 7880SOL     OW24538   1.361   4.100   1.981
 7880SOL    HW124539   1.457   4.111   2.004
 7880SOL    HW224540   1.325   4.186   1.945
 7881SOL     OW24541   4.944   4.237   4.166
 7881SOL    HW124542   4.904   4.147   4.147
 7881SOL    HW224543   4.989   4.270   4.083
 7882SOL     OW24544   1.240   3.012   1.066
 7882SOL    HW124545   1.246   2.912   1.062
 7882SOL    HW224546   1.227   3.048   0.973
 7883SOL     OW24547   1.095   1.046   5.299
 7883SOL    HW124548   1.174   1.056   5.238
 7883SOL    HW224549   1.122   0.995   5.380
 7884SOL     OW24550   0.834   2.761   4.347
 7884SOL    HW124551   0.805   2.855   4.332
 7884SOL    HW224552   0.931   2.751   4.323
 7885SOL     OW24553   6.076   5.923   0.238
 7885SOL    HW124554   6.037   5.951   0.151
 7885SOL    HW224555   6.127   5.838   0.226
 7886SOL     OW24556   4.796   5.262   6.802
 7886SOL    HW124557   4.790   5.339   6.739
 7886SOL    HW224558   4.704   5.239   6.834
 7887SOL     OW24559   5.024   2.016   7.020
 7887SOL    HW124560   4.957   1.990   0.069
 7887SOL    HW224561   5.104   1.957   0.007
 7888SOL     OW24562   5.156   0.973   4.528
 7888SOL    HW124563   5.183   0.977   4.624
 7888SOL    HW224564   5.152   1.066   4.491
 7889SOL     OW24565   1.146   6.741   2.191
 7889SOL    HW124566   1.090   6.692   2.124
 7889SOL    HW224567   1.205   6.675   2.238
 7890SOL     OW24568   1.919   3.007   2.998
 7890SOL    HW124569   1.877   2.995   3.088
 7890SOL    HW224570   1.848   3.024   2.930
 7891SOL     OW24571   2.342   4.749   2.466
 7891SOL    HW124572   2.257   4.712   2.427
 7891SOL    HW224573   2.403   4.774   2.391
 7892SOL     OW24574   1.927   2.108   5.683
 7892SOL    HW124575   1.832   2.140   5.687
 7892SOL    HW224576   1.980   2.152   5.756
 7893SOL     OW24577   6.204   6.355   1.516
 7893SOL    HW124578   6.293   6.319   1.489
 7893SOL    HW224579   6.216   6.443   1.561
 7894SOL     OW24580   3.108   6.915   1.997
 7894SOL    HW124581   3.205   6.933   2.009
 7894SOL    HW224582   3.086   6.824   2.035
 7895SOL     OW24583   0.208   1.803   3.741
 7895SOL    HW124584   0.300   1.764   3.729
 7895SOL    HW224585   0.140   1.730   3.736
 7896SOL     OW24586   4.635   2.603   5.720
 7896SOL    HW124587   4.713   2.551   5.685
 7896SOL    HW224588   4.607   2.565   5.809
 7897SOL     OW24589   3.206   3.091   6.224
 7897SOL    HW124590   3.224   3.185   6.254
 7897SOL    HW224591   3.191   3.090   6.125
 7898SOL     OW24592   4.296   2.291   3.613
 7898SOL    HW124593   4.252   2.225   3.552
 7898SOL    HW224594   4.395   2.283   3.604
 7899SOL     OW24595   5.694   1.714   2.947
 7899SOL    HW124596   5.739   1.626   2.960
 7899SOL    HW224597   5.681   1.730   2.849
 7900SOL     OW24598   1.739   5.190   0.901
 7900SOL    HW124599   1.757   5.151   0.991
 7900SOL    HW224600   1.642   5.212   0.893
 7901SOL     OW24601   6.163   6.237   6.942
 7901SOL    HW124602   6.201   6.206   6.855
 7901SOL    HW224603   6.192   6.331   6.960
 7902SOL     OW24604   4.588   3.829   6.838
 7902SOL    HW124605   4.564   3.740   6.800
 7902SOL    HW224606   4.583   3.898   6.765
 7903SOL     OW24607   0.334   2.079   6.530
 7903SOL    HW124608   0.382   1.994   6.553
 7903SOL    HW224609   0.263   2.060   6.463
 7904SOL     OW24610   6.573   0.875   2.725
 7904SOL    HW124611   6.553   0.863   2.627
 7904SOL    HW224612   6.660   0.832   2.746
 7905SOL     OW24613   3.737   1.257   0.612
 7905SOL    HW124614   3.748   1.158   0.619
 7905SOL    HW224615   3.702   1.292   0.699
 7906SOL     OW24616   6.404   5.872   6.969
 7906SOL    HW124617   6.456   5.814   6.906
 7906SOL    HW224618   6.425   5.968   6.950
 7907SOL     OW24619   6.716   2.785   2.130
 7907SOL    HW124620   6.798   2.830   2.095
 7907SOL    HW224621   6.696   2.704   2.074
 7908SOL     OW24622   6.258   2.122   3.683
 7908SOL    HW124623   6.354   2.097   3.697
 7908SOL    HW224624   6.254   2.210   3.635
 7909SOL     OW24625   4.666   4.626   5.140
 7909SOL    HW124626   4.687   4.631   5.043
 7909SOL    HW224627   4.724   4.556   5.183
 7910SOL     OW24628   5.589   3.077   5.830
 7910SOL    HW124629   5.597   3.173   5.802
 7910SOL    HW224630   5.676   3.046   5.868
 7911SOL     OW24631   5.744   4.585   0.191
 7911SOL    HW124632   5.736   4.625   0.282
 7911SOL    HW224633   5.656   4.546   0.163
 7912SOL     OW24634   6.293   4.967   5.858
 7912SOL    HW124635   6.330   5.031   5.926
 7912SOL    HW224636   6.307   4.874   5.890
 7913SOL     OW24637   0.074   5.483   6.182
 7913SOL    HW124638   0.141   5.433   6.237
 7913SOL    HW224639   0.035   5.557   6.236
 7914SOL     OW24640   6.806   3.906   1.858
 7914SOL    HW124641   6.745   3.902   1.938
 7914SOL    HW224642   6.893   3.862   1.880
 7915SOL     OW24643   3.814   1.861   3.270
 7915SOL    HW124644   3.911   1.882   3.281
 7915SOL    HW224645   3.796   1.834   3.176
 7916SOL     OW24646   5.214   3.736   5.278
 7916SOL    HW124647   5.239   3.687   5.362
 7916SOL    HW224648   5.151   3.680   5.224
 7917SOL     OW24649   3.319   3.880   4.070
 7917SOL    HW124650   3.233   3.830   4.061
 7917SOL    HW224651   3.313   3.966   4.018
 7918SOL     OW24652   6.380   1.718   2.542
 7918SOL    HW124653   6.454   1.774   2.506
 7918SOL    HW224654   6.376   1.729   2.642
 7919SOL     OW24655   6.123   5.029   2.194
 7919SOL    HW124656   6.087   5.078   2.115
 7919SOL    HW224657   6.088   4.935   2.194
 7920SOL     OW24658   0.793   5.653   1.815
 7920SOL    HW124659   0.711   5.690   1.859
 7920SOL    HW224660   0.870   5.656   1.880
 7921SOL     OW24661   3.195   6.538   1.626
 7921SOL    HW124662   3.206   6.463   1.561
 7921SOL    HW224663   3.179   6.623   1.576
 7922SOL     OW24664   0.863   5.097   6.779
 7922SOL    HW124665   0.850   5.077   6.876
 7922SOL    HW224666   0.814   5.181   6.755
 7923SOL     OW24667   1.647   1.893   2.992
 7923SOL    HW124668   1.646   1.846   2.903
 7923SOL    HW224669   1.723   1.957   2.995
 7924SOL     OW24670   2.306   0.096   4.050
 7924SOL    HW124671   2.392   0.079   4.002
 7924SOL    HW224672   2.280   0.191   4.037
 7925SOL     OW24673   6.955   1.341   6.646
 7925SOL    HW124674   6.917   1.433   6.637
 7925SOL    HW224675   6.900   1.289   6.712
 7926SOL     OW24676   3.633   0.175   1.972
 7926SOL    HW124677   3.703   0.242   1.998
 7926SOL    HW224678   3.673   0.084   1.972
 7927SOL     OW24679   4.942   5.170   4.851
 7927SOL    HW124680   5.008   5.157   4.777
 7927SOL    HW224681   4.969   5.116   4.931
 7928SOL     OW24682   1.356   5.012   1.219
 7928SOL    HW124683   1.302   5.020   1.303
 7928SOL    HW224684   1.301   5.042   1.142
 7929SOL     OW24685   3.564   4.182   4.001
 7929SOL    HW124686   3.468   4.169   4.027
 7929SOL    HW224687   3.571   4.190   3.902
 7930SOL     OW24688   4.929   5.927   3.977
 7930SOL    HW124689   4.878   6.012   3.993
 7930SOL    HW224690   4.884   5.874   3.905
 7931SOL     OW24691   1.962   2.507   0.694
 7931SOL    HW124692   2.054   2.529   0.661
 7931SOL    HW224693   1.957   2.409   0.716
 7932SOL     OW24694   2.661   6.814   1.165
 7932SOL    HW124695   2.614   6.728   1.143
 7932SOL    HW224696   2.594   6.884   1.188
 7933SOL     OW24697   1.526   0.551   0.072
 7933SOL    HW124698   1.591   0.627   0.064
 7933SOL    HW224699   1.501   0.518   7.002
 7934SOL     OW24700   2.836   3.938   5.993
 7934SOL    HW124701   2.797   3.921   6.083
 7934SOL    HW224702   2.783   4.010   5.947
 7935SOL     OW24703   4.277   6.093   0.950
 7935SOL    HW124704   4.262   6.104   0.851
 7935SOL    HW224705   4.266   5.997   0.974
 7936SOL     OW24706   4.477   6.232   3.228
 7936SOL    HW124707   4.399   6.202   3.283
 7936SOL    HW224708   4.466   6.329   3.205
 7937SOL     OW24709   6.045   6.518   5.736
 7937SOL    HW124710   6.003   6.577   5.667
 7937SOL    HW224711   6.115   6.570   5.786
 7938SOL     OW24712   5.625   4.909   4.777
 7938SOL    HW124713   5.635   4.974   4.702
 7938SOL    HW224714   5.564   4.947   4.847
 7939SOL     OW24715   0.998   0.859   4.868
 7939SOL    HW124716   0.967   0.808   4.787
 7939SOL    HW224717   0.919   0.902   4.911
 7940SOL     OW24718   1.810   5.479   0.974
 7940SOL    HW124719   1.821   5.416   0.897
 7940SOL    HW224720   1.808   5.426   1.059
 7941SOL     OW24721   0.402   0.391   0.678
 7941SOL    HW124722   0.442   0.314   0.628
 7941SOL    HW224723   0.390   0.365   0.774
 7942SOL     OW24724   0.767   0.979   1.527
 7942SOL    HW124725   0.831   0.913   1.567
 7942SOL    HW224726   0.685   0.984   1.584
 7943SOL     OW24727   5.357   1.849   1.158
 7943SOL    HW124728   5.368   1.935   1.208
 7943SOL    HW224729   5.445   1.800   1.157
 7944SOL     OW24730   1.189   4.679   1.704
 7944SOL    HW124731   1.248   4.601   1.728
 7944SOL    HW224732   1.224   4.723   1.622
 7945SOL     OW24733   5.296   6.499   2.089
 7945SOL    HW124734   5.217   6.535   2.039
 7945SOL    HW224735   5.380   6.535   2.049
 7946SOL     OW24736   1.674   2.194   5.646
 7946SOL    HW124737   1.690   2.284   5.606
 7946SOL    HW224738   1.595   2.199   5.708
 7947SOL     OW24739   3.849   3.486   6.091
 7947SOL    HW124740   3.859   3.387   6.077
 7947SOL    HW224741   3.753   3.511   6.082
 7948SOL     OW24742   0.205   6.293   0.599
 7948SOL    HW124743   0.203   6.245   0.687
 7948SOL    HW224744   0.263   6.374   0.605
 7949SOL     OW24745   5.339   4.501   4.323
 7949SOL    HW124746   5.392   4.582   4.347
 7949SOL    HW224747   5.375   4.461   4.239
 7950SOL     OW24748   3.608   5.004   4.449
 7950SOL    HW124749   3.611   5.085   4.507
 7950SOL    HW224750   3.701   4.973   4.429
 7951SOL     OW24751   3.559   3.324   1.155
 7951SOL    HW124752   3.622   3.378   1.101
 7951SOL    HW224753   3.608   3.248   1.199
 7952SOL     OW24754   5.896   3.204   0.868
 7952SOL    HW124755   5.864   3.298   0.853
 7952SOL    HW224756   5.823   3.140   0.844
 7953SOL     OW24757   2.068   2.837   2.592
 7953SOL    HW124758   2.008   2.823   2.514
 7953SOL    HW224759   2.029   2.792   2.673
 7954SOL     OW24760   4.588   5.193   5.073
 7954SOL    HW124761   4.570   5.099   5.042
 7954SOL    HW224762   4.571   5.200   5.171
 7955SOL     OW24763   0.990   0.004   6.003
 7955SOL    HW124764   1.018   7.011   5.908
 7955SOL    HW224765   0.915   6.962   6.025
 7956SOL     OW24766   5.978   0.323   3.762
 7956SOL    HW124767   5.890   0.345   3.720
 7956SOL    HW224768   5.963   0.294   3.857
 7957SOL     OW24769   0.991   2.380   0.918
 7957SOL    HW124770   0.909   2.337   0.882
 7957SOL    HW224771   1.032   2.439   0.849
 7958SOL     OW24772   2.595   5.653   3.027
 7958SOL    HW124773   2.606   5.585   2.954
 7958SOL    HW224774   2.509   5.638   3.074
 7959SOL     OW24775   5.570   4.883   0.903
 7959SOL    HW124776   5.585   4.854   0.997
 7959SOL    HW224777   5.588   4.981   0.895
 7960SOL     OW24778   2.634   2.533   1.224
 7960SOL    HW124779   2.654   2.559   1.318
 7960SOL    HW224780   2.624   2.616   1.169
 7961SOL     OW24781   1.678   5.020   6.468
 7961SOL    HW124782   1.615   5.007   6.393
 7961SOL    HW224783   1.718   5.112   6.463
 7962SOL     OW24784   1.103   0.424   2.142
 7962SOL    HW124785   1.185   0.370   2.121
 7962SOL    HW224786   1.094   0.498   2.075
 7963SOL     OW24787   0.363   0.891   5.145
 7963SOL    HW124788   0.430   0.919   5.213
 7963SOL    HW224789   0.375   0.794   5.125
 7964SOL     OW24790   6.025   5.531   3.552
 7964SOL    HW124791   5.969   5.466   3.604
 7964SOL    HW224792   6.118   5.494   3.542
 7965SOL     OW24793   5.530   2.108   0.308
 7965SOL    HW124794   5.514   2.098   0.210
 7965SOL    HW224795   5.443   2.129   0.354
 7966SOL     OW24796   0.197   4.981   3.855
 7966SOL    HW124797   0.137   5.061   3.861
 7966SOL    HW224798   0.285   5.008   3.814
 7967SOL     OW24799   2.977   6.263   2.821
 7967SOL    HW124800   3.068   6.233   2.790
 7967SOL    HW224801   2.913   6.261   2.745
 7968SOL     OW24802   2.133   1.460   2.079
 7968SOL    HW124803   2.102   1.553   2.060
 7968SOL    HW224804   2.067   1.414   2.139
 7969SOL     OW24805   2.754   2.216   3.396
 7969SOL    HW124806   2.787   2.220   3.490
 7969SOL    HW224807   2.829   2.234   3.333
 7970SOL     OW24808   0.621   4.365   3.000
 7970SOL    HW124809   0.571   4.310   2.933
 7970SOL    HW224810   0.646   4.307   3.078
 7971SOL     OW24811   2.621   1.603   1.633
 7971SOL    HW124812   2.695   1.543   1.603
 7971SOL    HW224813   2.656   1.695   1.650
 7972SOL     OW24814   0.270   4.197   1.895
 7972SOL    HW124815   0.292   4.130   1.824
 7972SOL    HW224816   0.345   4.200   1.962
 7973SOL     OW24817   4.595   2.606   3.097
 7973SOL    HW124818   4.642   2.591   3.010
 7973SOL    HW224819   4.526   2.535   3.110
 7974SOL     OW24820   5.221   0.511   4.479
 7974SOL    HW124821   5.251   0.545   4.568
 7974SOL    HW224822   5.259   0.569   4.407
 7975SOL     OW24823   3.121   1.377   4.256
 7975SOL    HW124824   3.100   1.475   4.246
 7975SOL    HW224825   3.208   1.367   4.303
 7976SOL     OW24826   1.015   5.597   6.400
 7976SOL    HW124827   0.924   5.555   6.403
 7976SOL    HW224828   1.019   5.661   6.324
 7977SOL     OW24829   5.538   6.182   1.466
 7977SOL    HW124830   5.628   6.139   1.477
 7977SOL    HW224831   5.542   6.251   1.394
 7978SOL     OW24832   4.334   2.530   5.866
 7978SOL    HW124833   4.281   2.568   5.791
 7978SOL    HW224834   4.390   2.454   5.832
 7979SOL     OW24835   3.729   6.710   4.542
 7979SOL    HW124836   3.697   6.720   4.636
 7979SOL    HW224837   3.651   6.692   4.482
 7980SOL     OW24838   3.086   6.120   1.287
 7980SOL    HW124839   3.076   6.070   1.373
 7980SOL    HW224840   3.123   6.059   1.217
 7981SOL     OW24841   1.128   5.525   2.831
 7981SOL    HW124842   1.204   5.460   2.834
 7981SOL    HW224843   1.099   5.537   2.736
 7982SOL     OW24844   6.397   3.381   0.990
 7982SOL    HW124845   6.399   3.284   0.963
 7982SOL    HW224846   6.489   3.412   1.011
 7983SOL     OW24847   5.080   2.536   2.892
 7983SOL    HW124848   5.121   2.596   2.823
 7983SOL    HW224849   5.059   2.447   2.850
 7984SOL     OW24850   0.464   1.812   1.420
 7984SOL    HW124851   0.437   1.906   1.398
 7984SOL    HW224852   0.520   1.812   1.502
 7985SOL     OW24853   0.223   1.584   1.782
 7985SOL    HW124854   0.305   1.641   1.792
 7985SOL    HW224855   0.192   1.588   1.686
 7986SOL     OW24856   4.007   1.185   0.120
 7986SOL    HW124857   3.971   1.265   0.071
 7986SOL    HW224858   3.934   1.144   0.174
 7987SOL     OW24859   0.524   3.030   4.677
 7987SOL    HW124860   0.596   3.093   4.704
 7987SOL    HW224861   0.501   2.970   4.753
 7988SOL     OW24862   2.978   1.543   5.198
 7988SOL    HW124863   2.953   1.536   5.294
 7988SOL    HW224864   2.910   1.598   5.150
 7989SOL     OW24865   2.820   2.687   5.376
 7989SOL    HW124866   2.744   2.684   5.440
 7989SOL    HW224867   2.876   2.767   5.394
 7990SOL     OW24868   1.631   2.413   4.924
 7990SOL    HW124869   1.567   2.399   5.000
 7990SOL    HW224870   1.622   2.338   4.858
 7991SOL     OW24871   1.096   3.216   6.104
 7991SOL    HW124872   1.090   3.300   6.158
 7991SOL    HW224873   1.030   3.219   6.029
 7992SOL     OW24874   2.212   0.942   0.740
 7992SOL    HW124875   2.285   0.881   0.772
 7992SOL    HW224876   2.132   0.933   0.800
 7993SOL     OW24877   2.133   6.511   6.865
 7993SOL    HW124878   2.100   6.557   6.783
 7993SOL    HW224879   2.158   6.417   6.842
 7994SOL     OW24880   5.919   0.887   3.299
 7994SOL    HW124881   5.961   0.868   3.211
 7994SOL    HW224882   5.888   0.802   3.341
 7995SOL     OW24883   3.184   5.313   3.674
 7995SOL    HW124884   3.260   5.293   3.736
 7995SOL    HW224885   3.100   5.270   3.709
 7996SOL     OW24886   3.846   0.104   5.113
 7996SOL    HW124887   3.916   0.040   5.143
 7996SOL    HW224888   3.785   0.126   5.189
 7997SOL     OW24889   5.668   2.493   1.410
 7997SOL    HW124890   5.654   2.524   1.504
 7997SOL    HW224891   5.631   2.561   1.346
 7998SOL     OW24892   6.103   4.783   0.042
 7998SOL    HW124893   6.156   4.811   0.121
 7998SOL    HW224894   6.017   4.834   0.039
 7999SOL     OW24895   2.211   0.254   5.474
 7999SOL    HW124896   2.222   0.341   5.425
 7999SOL    HW224897   2.174   0.271   5.565
 8000SOL     OW24898   6.274   6.832   5.338
 8000SOL    HW124899   6.255   6.810   5.242
 8000SOL    HW224900   6.341   6.767   5.374
 8001SOL     OW24901   2.208   6.912   1.039
 8001SOL    HW124902   2.241   6.822   1.067
 8001SOL    HW224903   2.219   6.922   0.940
 8002SOL     OW24904   6.140   3.121   5.345
 8002SOL    HW124905   6.078   3.045   5.322
 8002SOL    HW224906   6.116   3.201   5.290
 8003SOL     OW24907   3.602   4.979   3.202
 8003SOL    HW124908   3.664   5.057   3.204
 8003SOL    HW224909   3.593   4.942   3.295
 8004SOL     OW24910   1.859   3.769   2.555
 8004SOL    HW124911   1.763   3.757   2.526
 8004SOL    HW224912   1.916   3.700   2.509
 8005SOL     OW24913   3.215   0.854   1.625
 8005SOL    HW124914   3.150   0.798   1.573
 8005SOL    HW224915   3.276   0.901   1.561
 8006SOL     OW24916   3.449   6.169   0.429
 8006SOL    HW124917   3.388   6.117   0.488
 8006SOL    HW224918   3.394   6.223   0.364
 8007SOL     OW24919   0.411   0.541   4.385
 8007SOL    HW124920   0.422   0.567   4.289
 8007SOL    HW224921   0.501   0.520   4.424
 8008SOL     OW24922   6.339   6.632   0.596
 8008SOL    HW124923   6.432   6.666   0.607
 8008SOL    HW224924   6.288   6.692   0.535
 8009SOL     OW24925   0.099   6.743   3.651
 8009SOL    HW124926   0.060   6.728   3.560
 8009SOL    HW224927   0.181   6.687   3.662
 8010SOL     OW24928   2.151   2.982   6.930
 8010SOL    HW124929   2.165   2.943   0.000
 8010SOL    HW224930   2.173   3.079   6.932
 8011SOL     OW24931   3.183   1.948   0.516
 8011SOL    HW124932   3.106   1.910   0.566
 8011SOL    HW224933   3.221   1.880   0.454
 8012SOL     OW24934   2.850   6.337   1.980
 8012SOL    HW124935   2.835   6.257   1.921
 8012SOL    HW224936   2.880   6.414   1.923
 8013SOL     OW24937   6.328   4.680   4.862
 8013SOL    HW124938   6.400   4.618   4.832
 8013SOL    HW224939   6.239   4.636   4.850
 8014SOL     OW24940   1.957   6.513   0.055
 8014SOL    HW124941   1.993   6.539   0.145
 8014SOL    HW224942   2.031   6.515   7.008
 8015SOL     OW24943   2.210   2.483   0.072
 8015SOL    HW124944   2.197   2.388   0.043
 8015SOL    HW224945   2.187   2.545   7.017
 8016SOL     OW24946   3.522   6.500   0.971
 8016SOL    HW124947   3.550   6.592   0.943
 8016SOL    HW224948   3.565   6.477   1.058
 8017SOL     OW24949   5.950   4.714   4.458
 8017SOL    HW124950   5.910   4.780   4.394
 8017SOL    HW224951   6.018   4.759   4.515
 8018SOL     OW24952   5.208   2.110   5.242
 8018SOL    HW124953   5.188   2.068   5.153
 8018SOL    HW224954   5.138   2.083   5.308
 8019SOL     OW24955   2.920   5.899   0.816
 8019SOL    HW124956   3.009   5.859   0.794
 8019SOL    HW224957   2.856   5.827   0.841
 8020SOL     OW24958   5.514   5.627   6.617
 8020SOL    HW124959   5.527   5.696   6.688
 8020SOL    HW224960   5.472   5.545   6.657
 8021SOL     OW24961   0.822   0.614   0.983
 8021SOL    HW124962   0.832   0.646   1.078
 8021SOL    HW224963   0.739   0.560   0.975
 8022SOL     OW24964   4.297   6.329   2.921
 8022SOL    HW124965   4.200   6.319   2.939
 8022SOL    HW224966   4.346   6.342   3.008
 8023SOL     OW24967   6.272   6.905   3.065
 8023SOL    HW124968   6.266   6.944   3.157
 8023SOL    HW224969   6.208   6.829   3.057
 8024SOL     OW24970   4.589   4.885   4.953
 8024SOL    HW124971   4.627   4.808   4.903
 8024SOL    HW224972   4.630   4.890   5.044
 8025SOL     OW24973   3.925   5.362   0.071
 8025SOL    HW124974   3.939   5.460   0.056
 8025SOL    HW224975   3.923   5.343   0.169
 8026SOL     OW24976   0.976   2.819   0.217
 8026SOL    HW124977   0.914   2.743   0.194
 8026SOL    HW224978   0.983   2.828   0.316
 8027SOL     OW24979   4.815   2.734   5.502
 8027SOL    HW124980   4.822   2.635   5.504
 8027SOL    HW224981   4.744   2.764   5.567
 8028SOL     OW24982   5.472   4.439   6.722
 8028SOL    HW124983   5.466   4.437   6.622
 8028SOL    HW224984   5.400   4.382   6.761
 8029SOL     OW24985   3.725   3.908   0.690
 8029SOL    HW124986   3.775   3.992   0.711
 8029SOL    HW224987   3.714   3.854   0.773
 8030SOL     OW24988   5.807   4.123   6.273
 8030SOL    HW124989   5.716   4.145   6.308
 8030SOL    HW224990   5.840   4.198   6.216
 8031SOL     OW24991   3.636   5.594   1.511
 8031SOL    HW124992   3.582   5.577   1.593
 8031SOL    HW224993   3.726   5.627   1.536
 8032SOL     OW24994   5.372   3.755   5.667
 8032SOL    HW124995   5.325   3.817   5.731
 8032SOL    HW224996   5.449   3.804   5.624
 8033SOL     OW24997   5.830   3.054   6.871
 8033SOL    HW124998   5.806   2.991   6.946
 8033SOL    HW224999   5.771   3.134   6.875
 8034SOL     OW25000   5.877   0.421   5.108
 8034SOL    HW125001   5.815   0.400   5.032
 8034SOL    HW225002   5.936   0.497   5.082
 8035SOL     OW25003   5.847   6.767   6.396
 8035SOL    HW125004   5.819   6.672   6.407
 8035SOL    HW225005   5.947   6.772   6.397
 8036SOL     OW25006   1.998   4.263   1.847
 8036SOL    HW125007   1.996   4.342   1.785
 8036SOL    HW225008   2.018   4.295   1.939
 8037SOL     OW25009   1.710   3.262   1.191
 8037SOL    HW125010   1.680   3.353   1.222
 8037SOL    HW225011   1.634   3.217   1.143
 8038SOL     OW25012   0.135   2.491   4.210
 8038SOL    HW125013   0.137   2.478   4.111
 8038SOL    HW225014   0.225   2.469   4.248
 8039SOL     OW25015   2.699   6.992   3.516
 8039SOL    HW125016   2.789   6.963   3.482
 8039SOL    HW225017   2.706   7.013   3.613
 8040SOL     OW25018   6.860   5.826   1.075
 8040SOL    HW125019   6.956   5.808   1.093
 8040SOL    HW225020   6.826   5.893   1.141
 8041SOL     OW25021   4.499   1.318   0.375
 8041SOL    HW125022   4.541   1.395   0.422
 8041SOL    HW225023   4.400   1.332   0.369
 8042SOL     OW25024   3.248   3.387   1.484
 8042SOL    HW125025   3.246   3.288   1.498
 8042SOL    HW225026   3.339   3.414   1.452
 8043SOL     OW25027   2.681   6.555   2.079
 8043SOL    HW125028   2.685   6.461   2.043
 8043SOL    HW225029   2.652   6.553   2.174
 8044SOL     OW25030   3.032   3.764   1.918
 8044SOL    HW125031   3.037   3.719   2.007
 8044SOL    HW225032   3.066   3.701   1.848
 8045SOL     OW25033   5.770   2.677   3.096
 8045SOL    HW125034   5.837   2.626   3.042
 8045SOL    HW225035   5.678   2.659   3.061
 8046SOL     OW25036   6.600   5.117   6.075
 8046SOL    HW125037   6.695   5.086   6.071
 8046SOL    HW225038   6.587   5.192   6.011
 8047SOL     OW25039   3.500   6.075   4.239
 8047SOL    HW125040   3.596   6.067   4.213
 8047SOL    HW225041   3.468   5.986   4.272
 8048SOL     OW25042   6.712   7.005   5.657
 8048SOL    HW125043   6.654   0.019   5.583
 8048SOL    HW225044   6.684   6.913   5.681
 8049SOL     OW25045   1.081   5.566   0.249
 8049SOL    HW125046   1.068   5.517   0.163
 8049SOL    HW225047   1.102   5.501   0.322
 8050SOL     OW25048   1.576   2.870   1.159
 8050SOL    HW125049   1.574   2.872   1.259
 8050SOL    HW225050   1.639   2.798   1.128
 8051SOL     OW25051   4.877   0.867   3.770
 8051SOL    HW125052   4.888   0.768   3.757
 8051SOL    HW225053   4.921   0.916   3.696
 8052SOL     OW25054   2.859   1.327   2.982
 8052SOL    HW125055   2.879   1.368   3.071
 8052SOL    HW225056   2.944   1.319   2.929
 8053SOL     OW25057   3.854   3.779   2.426
 8053SOL    HW125058   3.788   3.720   2.474
 8053SOL    HW225059   3.894   3.843   2.491
 8054SOL     OW25060   4.269   6.224   5.075
 8054SOL    HW125061   4.318   6.153   5.125
 8054SOL    HW225062   4.199   6.265   5.133
 8055SOL     OW25063   1.790   6.660   6.116
 8055SOL    HW125064   1.816   6.684   6.023
 8055SOL    HW225065   1.713   6.717   6.145
 8056SOL     OW25066   4.425   1.583   3.065
 8056SOL    HW125067   4.464   1.541   2.984
 8056SOL    HW225068   4.427   1.518   3.141
 8057SOL     OW25069   3.287   6.833   3.256
 8057SOL    HW125070   3.280   6.830   3.356
 8057SOL    HW225071   3.353   6.903   3.229
 8058SOL     OW25072   2.661   1.009   2.927
 8058SOL    HW125073   2.738   1.041   2.982
 8058SOL    HW225074   2.602   0.951   2.983
 8059SOL     OW25075   2.806   1.746   4.015
 8059SOL    HW125076   2.786   1.843   4.027
 8059SOL    HW225077   2.865   1.733   3.935
 8060SOL     OW25078   0.724   1.640   4.313
 8060SOL    HW125079   0.742   1.687   4.399
 8060SOL    HW225080   0.646   1.683   4.267
 8061SOL     OW25081   0.074   5.179   2.116
 8061SOL    HW125082   0.071   5.176   2.216
 8061SOL    HW225083   0.142   5.246   2.086
 8062SOL     OW25084   1.789   3.912   3.281
 8062SOL    HW125085   1.799   4.009   3.305
 8062SOL    HW225086   1.786   3.857   3.364
 8063SOL     OW25087   3.286   2.904   0.382
 8063SOL    HW125088   3.279   2.819   0.330
 8063SOL    HW225089   3.244   2.979   0.332
 8064SOL     OW25090   6.820   3.912   6.699
 8064SOL    HW125091   6.909   3.915   6.745
 8064SOL    HW225092   6.752   3.957   6.757
 8065SOL     OW25093   4.664   0.546   5.577
 8065SOL    HW125094   4.566   0.532   5.589
 8065SOL    HW225095   4.704   0.467   5.530
 8066SOL     OW25096   1.766   0.147   1.187
 8066SOL    HW125097   1.846   0.089   1.204
 8066SOL    HW225098   1.688   0.111   1.237
 8067SOL     OW25099   5.087   2.577   2.216
 8067SOL    HW125100   5.163   2.578   2.151
 8067SOL    HW225101   5.005   2.542   2.171
 8068SOL     OW25102   1.160   4.245   4.618
 8068SOL    HW125103   1.073   4.229   4.573
 8068SOL    HW225104   1.174   4.344   4.629
 8069SOL     OW25105   1.479   6.511   1.708
 8069SOL    HW125106   1.485   6.510   1.608
 8069SOL    HW225107   1.398   6.561   1.737
 8070SOL     OW25108   3.460   6.990   1.451
 8070SOL    HW125109   3.472   0.036   1.377
 8070SOL    HW225110   3.368   6.999   1.490
 8071SOL     OW25111   3.996   6.184   6.651
 8071SOL    HW125112   3.938   6.107   6.677
 8071SOL    HW225113   4.073   6.151   6.596
 8072SOL     OW25114   5.564   0.995   0.970
 8072SOL    HW125115   5.469   0.967   0.955
 8072SOL    HW225116   5.568   1.057   1.048
 8073SOL     OW25117   4.108   6.292   5.831
 8073SOL    HW125118   4.118   6.392   5.831
 8073SOL    HW225119   4.051   6.264   5.908
 8074SOL     OW25120   3.604   3.864   0.099
 8074SOL    HW125121   3.692   3.910   0.084
 8074SOL    HW225122   3.592   3.847   0.196
 8075SOL     OW25123   0.257   1.880   2.838
 8075SOL    HW125124   0.338   1.930   2.808
 8075SOL    HW225125   0.207   1.935   2.905
 8076SOL     OW25126   6.254   3.222   5.846
 8076SOL    HW125127   6.241   3.228   5.747
 8076SOL    HW225128   6.188   3.282   5.892
 8077SOL     OW25129   1.406   0.151   0.927
 8077SOL    HW125130   1.364   0.217   0.865
 8077SOL    HW225131   1.394   0.181   1.021
 8078SOL     OW25132   6.306   3.643   0.923
 8078SOL    HW125133   6.337   3.549   0.914
 8078SOL    HW225134   6.379   3.698   0.965
 8079SOL     OW25135   6.669   2.010   2.181
 8079SOL    HW125136   6.600   1.952   2.225
 8079SOL    HW225137   6.710   1.962   2.104
 8080SOL     OW25138   3.462   4.940   0.210
 8080SOL    HW125139   3.477   5.011   0.279
 8080SOL    HW225140   3.393   4.971   0.145
 8081SOL     OW25141   6.059   0.711   5.615
 8081SOL    HW125142   6.065   0.668   5.705
 8081SOL    HW225143   6.033   0.807   5.626
 8082SOL     OW25144   6.803   2.947   3.765
 8082SOL    HW125145   6.710   2.972   3.739
 8082SOL    HW225146   6.801   2.871   3.830
 8083SOL     OW25147   4.390   2.486   3.905
 8083SOL    HW125148   4.312   2.464   3.847
 8083SOL    HW225149   4.408   2.410   3.967
 8084SOL     OW25150   6.537   0.529   1.065
 8084SOL    HW125151   6.490   0.528   0.976
 8084SOL    HW225152   6.515   0.614   1.113
 8085SOL     OW25153   5.265   1.611   1.445
 8085SOL    HW125154   5.357   1.574   1.435
 8085SOL    HW225155   5.269   1.696   1.498
 8086SOL     OW25156   3.437   0.132   5.561
 8086SOL    HW125157   3.506   0.202   5.581
 8086SOL    HW225158   3.452   0.096   5.469
 8087SOL     OW25159   2.936   2.780   1.464
 8087SOL    HW125160   2.913   2.857   1.524
 8087SOL    HW225161   3.031   2.755   1.478
 8088SOL     OW25162   4.141   0.841   3.180
 8088SOL    HW125163   4.115   0.818   3.273
 8088SOL    HW225164   4.090   0.922   3.150
 8089SOL     OW25165   5.959   3.230   0.236
 8089SOL    HW125166   5.871   3.248   0.278
 8089SOL    HW225167   5.985   3.134   0.252
 8090SOL     OW25168   4.660   1.940   5.483
 8090SOL    HW125169   4.615   2.014   5.532
 8090SOL    HW225170   4.707   1.880   5.548
 8091SOL     OW25171   3.026   4.908   5.703
 8091SOL    HW125172   2.983   4.839   5.645
 8091SOL    HW225173   3.109   4.942   5.659
 8092SOL     OW25174   1.438   1.825   4.235
 8092SOL    HW125175   1.468   1.920   4.230
 8092SOL    HW225176   1.498   1.775   4.297
 8093SOL     OW25177   5.636   5.850   1.158
 8093SOL    HW125178   5.612   5.842   1.255
 8093SOL    HW225179   5.712   5.915   1.148
 8094SOL     OW25180   1.007   3.647   6.050
 8094SOL    HW125181   1.042   3.677   5.961
 8094SOL    HW225182   0.929   3.704   6.076
 8095SOL     OW25183   5.317   3.837   3.984
 8095SOL    HW125184   5.256   3.760   4.002
 8095SOL    HW225185   5.355   3.871   4.070
 8096SOL     OW25186   3.657   6.265   1.883
 8096SOL    HW125187   3.641   6.167   1.895
 8096SOL    HW225188   3.713   6.300   1.958
 8097SOL     OW25189   5.203   1.358   3.752
 8097SOL    HW125190   5.150   1.284   3.794
 8097SOL    HW225191   5.163   1.381   3.663
 8098SOL     OW25192   2.619   6.796   3.837
 8098SOL    HW125193   2.672   6.873   3.803
 8098SOL    HW225194   2.599   6.810   3.934
 8099SOL     OW25195   4.734   6.252   5.016
 8099SOL    HW125196   4.751   6.300   4.930
 8099SOL    HW225197   4.671   6.176   5.000
 8100SOL     OW25198   0.533   6.535   1.061
 8100SOL    HW125199   0.491   6.537   1.151
 8100SOL    HW225200   0.626   6.499   1.068
 8101SOL     OW25201   1.425   6.029   3.328
 8101SOL    HW125202   1.361   6.088   3.377
 8101SOL    HW225203   1.413   6.041   3.230
 8102SOL     OW25204   0.194   5.457   5.798
 8102SOL    HW125205   0.144   5.541   5.819
 8102SOL    HW225206   0.196   5.442   5.699
 8103SOL     OW25207   3.255   1.183   2.642
 8103SOL    HW125208   3.208   1.098   2.668
 8103SOL    HW225209   3.238   1.201   2.545
 8104SOL     OW25210   2.777   6.693   6.262
 8104SOL    HW125211   2.776   6.618   6.328
 8104SOL    HW225212   2.866   6.738   6.263
 8105SOL     OW25213   2.169   2.016   2.958
 8105SOL    HW125214   2.236   2.025   3.031
 8105SOL    HW225215   2.212   1.975   2.878
 8106SOL     OW25216   0.829   3.741   4.150
 8106SOL    HW125217   0.769   3.675   4.106
 8106SOL    HW225218   0.885   3.786   4.081
 8107SOL     OW25219   1.859   6.166   6.182
 8107SOL    HW125220   1.868   6.107   6.262
 8107SOL    HW225221   1.802   6.245   6.205
 8108SOL     OW25222   0.800   3.054   3.904
 8108SOL    HW125223   0.806   2.994   3.824
 8108SOL    HW225224   0.769   3.003   3.983
 8109SOL     OW25225   1.886   5.420   4.861
 8109SOL    HW125226   1.888   5.324   4.834
 8109SOL    HW225227   1.932   5.431   4.949
 8110SOL     OW25228   2.183   4.851   1.139
 8110SOL    HW125229   2.113   4.786   1.170
 8110SOL    HW225230   2.140   4.928   1.093
 8111SOL     OW25231   2.581   5.345   4.240
 8111SOL    HW125232   2.536   5.351   4.328
 8111SOL    HW225233   2.513   5.345   4.167
 8112SOL     OW25234   3.328   1.202   4.946
 8112SOL    HW125235   3.280   1.281   4.908
 8112SOL    HW225236   3.336   1.212   5.045
 8113SOL     OW25237   3.492   2.465   6.080
 8113SOL    HW125238   3.506   2.471   5.981
 8113SOL    HW225239   3.578   2.442   6.125
 8114SOL     OW25240   2.427   3.055   1.349
 8114SOL    HW125241   2.510   3.059   1.405
 8114SOL    HW225242   2.375   3.139   1.359
 8115SOL     OW25243   3.730   1.019   0.969
 8115SOL    HW125244   3.795   1.049   0.899
 8115SOL    HW225245   3.640   1.061   0.951
 8116SOL     OW25246   6.156   0.807   5.299
 8116SOL    HW125247   6.203   0.763   5.375
 8116SOL    HW225248   6.155   0.745   5.220
 8117SOL     OW25249   1.933   1.821   5.753
 8117SOL    HW125250   1.962   1.734   5.713
 8117SOL    HW225251   1.972   1.896   5.700
 8118SOL     OW25252   0.812   3.300   4.950
 8118SOL    HW125253   0.906   3.273   4.929
 8118SOL    HW225254   0.780   3.250   5.030
 8119SOL     OW25255   1.319   6.517   2.616
 8119SOL    HW125256   1.323   6.536   2.518
 8119SOL    HW225257   1.324   6.603   2.666
 8120SOL     OW25258   4.398   3.819   1.691
 8120SOL    HW125259   4.489   3.840   1.727
 8120SOL    HW225260   4.350   3.904   1.670
 8121SOL     OW25261   5.985   0.229   2.978
 8121SOL    HW125262   5.949   0.315   3.013
 8121SOL    HW225263   5.959   0.219   2.882
 8122SOL     OW25264   6.666   6.492   2.155
 8122SOL    HW125265   6.575   6.480   2.115
 8122SOL    HW225266   6.661   6.558   2.230
 8123SOL     OW25267   1.067   6.254   0.183
 8123SOL    HW125268   1.128   6.331   0.201
 8123SOL    HW225269   0.997   6.281   0.117
 8124SOL     OW25270   0.844   5.950   2.787
 8124SOL    HW125271   0.915   5.912   2.846
 8124SOL    HW225272   0.771   5.988   2.844
 8125SOL     OW25273   5.462   5.647   2.793
 8125SOL    HW125274   5.534   5.683   2.733
 8125SOL    HW225275   5.380   5.703   2.785
 8126SOL     OW25276   5.813   4.836   2.124
 8126SOL    HW125277   5.893   4.777   2.111
 8126SOL    HW225278   5.730   4.781   2.121
 8127SOL     OW25279   2.547   4.614   0.278
 8127SOL    HW125280   2.645   4.629   0.270
 8127SOL    HW225281   2.509   4.676   0.347
 8128SOL     OW25282   3.967   2.399   5.379
 8128SOL    HW125283   4.033   2.332   5.412
 8128SOL    HW225284   4.013   2.466   5.322
 8129SOL     OW25285   4.915   0.062   6.683
 8129SOL    HW125286   4.899   0.049   6.781
 8129SOL    HW225287   4.923   0.160   6.663
 8130SOL     OW25288   1.763   6.374   0.401
 8130SOL    HW125289   1.783   6.386   0.304
 8130SOL    HW225290   1.664   6.380   0.416
 8131SOL     OW25291   1.894   1.876   0.799
 8131SOL    HW125292   1.950   1.839   0.725
 8131SOL    HW225293   1.942   1.865   0.886
 8132SOL     OW25294   6.742   5.014   3.816
 8132SOL    HW125295   6.653   5.050   3.843
 8132SOL    HW225296   6.813   5.081   3.838
 8133SOL     OW25297   1.228   5.649   1.943
 8133SOL    HW125298   1.246   5.687   1.852
 8133SOL    HW225299   1.132   5.666   1.967
 8134SOL     OW25300   2.045   2.232   2.420
 8134SOL    HW125301   1.952   2.200   2.435
 8134SOL    HW225302   2.062   2.314   2.473
 8135SOL     OW25303   4.603   5.895   1.707
 8135SOL    HW125304   4.519   5.945   1.690
 8135SOL    HW225305   4.581   5.799   1.725
 8136SOL     OW25306   4.388   5.955   1.386
 8136SOL    HW125307   4.294   5.989   1.388
 8136SOL    HW225308   4.446   6.015   1.443
 8137SOL     OW25309   2.583   4.061   5.583
 8137SOL    HW125310   2.654   3.996   5.610
 8137SOL    HW225311   2.507   4.011   5.541
 8138SOL     OW25312   5.109   1.101   3.797
 8138SOL    HW125313   5.052   1.112   3.715
 8138SOL    HW225314   5.053   1.063   3.871
 8139SOL     OW25315   1.942   2.661   3.739
 8139SOL    HW125316   1.874   2.590   3.756
 8139SOL    HW225317   2.023   2.644   3.795
 8140SOL     OW25318   3.924   0.200   0.917
 8140SOL    HW125319   4.000   0.147   0.956
 8140SOL    HW225320   3.869   0.238   0.991
 8141SOL     OW25321   4.802   1.133   5.122
 8141SOL    HW125322   4.737   1.161   5.052
 8141SOL    HW225323   4.895   1.151   5.090
 8142SOL     OW25324   2.053   5.991   0.918
 8142SOL    HW125325   2.117   6.010   0.993
 8142SOL    HW225326   1.965   5.962   0.956
 8143SOL     OW25327   6.375   5.084   0.571
 8143SOL    HW125328   6.363   4.992   0.608
 8143SOL    HW225329   6.454   5.086   0.510
 8144SOL     OW25330   0.048   5.068   6.707
 8144SOL    HW125331   0.009   5.010   6.637
 8144SOL    HW225332   0.111   5.015   6.763
 8145SOL     OW25333   5.520   6.067   6.809
 8145SOL    HW125334   5.572   6.060   6.894
 8145SOL    HW225335   5.424   6.087   6.831
 8146SOL     OW25336   5.971   0.342   4.322
 8146SOL    HW125337   6.026   0.412   4.277
 8146SOL    HW225338   6.029   0.266   4.350
 8147SOL     OW25339   1.717   1.117   6.399
 8147SOL    HW125340   1.744   1.101   6.304
 8147SOL    HW225341   1.635   1.175   6.400
 8148SOL     OW25342   4.666   5.351   0.286
 8148SOL    HW125343   4.584   5.363   0.231
 8148SOL    HW225344   4.712   5.439   0.297
 8149SOL     OW25345   0.957   5.900   5.372
 8149SOL    HW125346   0.988   5.812   5.336
 8149SOL    HW225347   0.922   5.887   5.465
 8150SOL     OW25348   0.604   3.478   0.914
 8150SOL    HW125349   0.652   3.410   0.969
 8150SOL    HW225350   0.527   3.515   0.967
 8151SOL     OW25351   6.582   5.775   3.030
 8151SOL    HW125352   6.673   5.809   3.054
 8151SOL    HW225353   6.584   5.735   2.939
 8152SOL     OW25354   4.589   1.492   3.743
 8152SOL    HW125355   4.643   1.508   3.660
 8152SOL    HW225356   4.541   1.405   3.735
 8153SOL     OW25357   0.505   1.515   2.348
 8153SOL    HW125358   0.425   1.570   2.370
 8153SOL    HW225359   0.494   1.475   2.256
 8154SOL     OW25360   1.653   0.608   2.898
 8154SOL    HW125361   1.671   0.521   2.946
 8154SOL    HW225362   1.720   0.621   2.826
 8155SOL     OW25363   1.927   5.265   2.867
 8155SOL    HW125364   1.875   5.180   2.879
 8155SOL    HW225365   1.894   5.334   2.931
 8156SOL     OW25366   6.718   5.215   1.774
 8156SOL    HW125367   6.751   5.217   1.680
 8156SOL    HW225368   6.737   5.126   1.814
 8157SOL     OW25369   0.441   3.249   5.340
 8157SOL    HW125370   0.399   3.252   5.249
 8157SOL    HW225371   0.447   3.154   5.371
 8158SOL     OW25372   5.763   5.354   6.858
 8158SOL    HW125373   5.815   5.382   6.777
 8158SOL    HW225374   5.821   5.295   6.915
 8159SOL     OW25375   3.403   6.605   5.492
 8159SOL    HW125376   3.310   6.641   5.498
 8159SOL    HW225377   3.466   6.678   5.464
 8160SOL     OW25378   5.087   1.204   3.305
 8160SOL    HW125379   5.147   1.142   3.356
 8160SOL    HW225380   5.072   1.168   3.213
 8161SOL     OW25381   5.585   2.966   1.498
 8161SOL    HW125382   5.498   2.942   1.455
 8161SOL    HW225383   5.588   3.064   1.515
 8162SOL     OW25384   0.354   5.386   6.018
 8162SOL    HW125385   0.282   5.432   5.965
 8162SOL    HW225386   0.389   5.308   5.966
 8163SOL     OW25387   4.410   4.423   5.401
 8163SOL    HW125388   4.480   4.353   5.411
 8163SOL    HW225389   4.362   4.434   5.488
 8164SOL     OW25390   4.788   1.674   0.713
 8164SOL    HW125391   4.871   1.703   0.761
 8164SOL    HW225392   4.724   1.751   0.708
 8165SOL     OW25393   6.921   1.520   6.890
 8165SOL    HW125394   6.883   1.527   6.798
 8165SOL    HW225395   6.855   1.476   6.951
 8166SOL     OW25396   1.916   1.799   5.120
 8166SOL    HW125397   1.966   1.752   5.047
 8166SOL    HW225398   1.921   1.745   5.204
 8167SOL     OW25399   1.372   2.540   4.759
 8167SOL    HW125400   1.429   2.507   4.834
 8167SOL    HW225401   1.281   2.499   4.766
 8168SOL     OW25402   2.356   0.917   2.146
 8168SOL    HW125403   2.306   0.920   2.060
 8168SOL    HW225404   2.333   0.998   2.200
 8169SOL     OW25405   5.504   2.604   0.441
 8169SOL    HW125406   5.532   2.538   0.372
 8169SOL    HW225407   5.507   2.561   0.531
 8170SOL     OW25408   6.356   5.108   2.323
 8170SOL    HW125409   6.264   5.097   2.285
 8170SOL    HW225410   6.354   5.181   2.392
 8171SOL     OW25411   1.866   1.089   1.031
 8171SOL    HW125412   1.960   1.122   1.020
 8171SOL    HW225413   1.812   1.158   1.080
 8172SOL     OW25414   0.687   2.431   0.885
 8172SOL    HW125415   0.667   2.384   0.799
 8172SOL    HW225416   0.730   2.519   0.866
 8173SOL     OW25417   6.197   1.091   2.087
 8173SOL    HW125418   6.199   1.070   1.990
 8173SOL    HW225419   6.106   1.075   2.124
 8174SOL     OW25420   2.618   4.649   3.076
 8174SOL    HW125421   2.587   4.662   2.982
 8174SOL    HW225422   2.718   4.648   3.079
 8175SOL     OW25423   0.467   1.408   4.799
 8175SOL    HW125424   0.426   1.318   4.810
 8175SOL    HW225425   0.533   1.424   4.872
 8176SOL     OW25426   2.388   3.950   0.619
 8176SOL    HW125427   2.475   3.940   0.669
 8176SOL    HW225428   2.406   3.981   0.526
 8177SOL     OW25429   3.844   0.707   3.341
 8177SOL    HW125430   3.930   0.729   3.388
 8177SOL    HW225431   3.798   0.633   3.390
 8178SOL     OW25432   2.288   6.637   1.365
 8178SOL    HW125433   2.199   6.632   1.411
 8178SOL    HW225434   2.273   6.650   1.267
 8179SOL     OW25435   5.825   1.171   3.320
 8179SOL    HW125436   5.803   1.149   3.415
 8179SOL    HW225437   5.881   1.097   3.281
 8180SOL     OW25438   5.116   6.352   0.027
 8180SOL    HW125439   5.151   6.427   0.084
 8180SOL    HW225440   5.016   6.359   0.023
 8181SOL     OW25441   0.868   0.858   0.862
 8181SOL    HW125442   0.854   0.766   0.899
 8181SOL    HW225443   0.784   0.891   0.820
 8182SOL     OW25444   2.948   3.730   4.674
 8182SOL    HW125445   2.991   3.713   4.585
 8182SOL    HW225446   2.916   3.824   4.678
 8183SOL     OW25447   0.458   0.616   5.125
 8183SOL    HW125448   0.445   0.636   5.223
 8183SOL    HW225449   0.499   0.526   5.115
 8184SOL     OW25450   0.290   6.394   6.743
 8184SOL    HW125451   0.374   6.344   6.723
 8184SOL    HW225452   0.218   6.329   6.767
 8185SOL     OW25453   0.871   6.049   6.902
 8185SOL    HW125454   0.896   6.137   6.862
 8185SOL    HW225455   0.816   6.064   6.984
 8186SOL     OW25456   1.148   5.473   6.632
 8186SOL    HW125457   1.104   5.504   6.548
 8186SOL    HW225458   1.113   5.525   6.709
 8187SOL     OW25459   0.519   0.925   5.743
 8187SOL    HW125460   0.587   0.892   5.677
 8187SOL    HW225461   0.507   0.857   5.815
 8188SOL     OW25462   2.021   2.782   3.522
 8188SOL    HW125463   2.115   2.750   3.519
 8188SOL    HW225464   1.964   2.716   3.570
 8189SOL     OW25465   5.645   4.967   3.599
 8189SOL    HW125466   5.651   4.869   3.618
 8189SOL    HW225467   5.666   4.984   3.503
 8190SOL     OW25468   6.528   3.525   3.295
 8190SOL    HW125469   6.493   3.459   3.229
 8190SOL    HW225470   6.482   3.613   3.282
 8191SOL     OW25471   3.129   5.683   0.926
 8191SOL    HW125472   3.227   5.704   0.927
 8191SOL    HW225473   3.117   5.583   0.926
 8192SOL     OW25474   0.556   4.934   3.383
 8192SOL    HW125475   0.612   4.969   3.308
 8192SOL    HW225476   0.614   4.886   3.448
 8193SOL     OW25477   0.540   4.289   4.703
 8193SOL    HW125478   0.545   4.192   4.681
 8193SOL    HW225479   0.508   4.339   4.622
 8194SOL     OW25480   4.854   6.578   1.588
 8194SOL    HW125481   4.941   6.534   1.563
 8194SOL    HW225482   4.800   6.515   1.644
 8195SOL     OW25483   5.829   6.314   3.033
 8195SOL    HW125484   5.884   6.310   2.950
 8195SOL    HW225485   5.840   6.230   3.085
 8196SOL     OW25486   5.039   0.549   0.530
 8196SOL    HW125487   5.001   0.497   0.453
 8196SOL    HW225488   5.100   0.490   0.582
 8197SOL     OW25489   4.457   1.492   2.620
 8197SOL    HW125490   4.389   1.459   2.686
 8197SOL    HW225491   4.410   1.527   2.539
 8198SOL     OW25492   1.519   6.977   2.280
 8198SOL    HW125493   1.459   6.918   2.227
 8198SOL    HW225494   1.552   0.031   2.222
 8199SOL     OW25495   5.852   3.047   5.918
 8199SOL    HW125496   5.801   2.981   5.974
 8199SOL    HW225497   5.918   3.096   5.975
 8200SOL     OW25498   4.481   2.645   0.959
 8200SOL    HW125499   4.551   2.708   0.994
 8200SOL    HW225500   4.393   2.691   0.957
 8201SOL     OW25501   6.639   6.779   5.165
 8201SOL    HW125502   6.717   6.796   5.104
 8201SOL    HW225503   6.637   6.682   5.190
 8202SOL     OW25504   0.935   6.186   2.005
 8202SOL    HW125505   0.996   6.237   2.065
 8202SOL    HW225506   0.945   6.219   1.911
 8203SOL     OW25507   1.042   3.792   1.375
 8203SOL    HW125508   1.099   3.713   1.399
 8203SOL    HW225509   0.954   3.785   1.420
 8204SOL     OW25510   3.292   2.996   1.066
 8204SOL    HW125511   3.357   2.981   1.140
 8204SOL    HW225512   3.307   2.929   0.994
 8205SOL     OW25513   0.970   3.815   0.608
 8205SOL    HW125514   0.875   3.820   0.639
 8205SOL    HW225515   1.029   3.793   0.685
 8206SOL     OW25516   3.793   0.777   6.941
 8206SOL    HW125517   3.830   0.724   7.017
 8206SOL    HW225518   3.759   0.865   6.974
 8207SOL     OW25519   3.839   2.983   4.855
 8207SOL    HW125520   3.876   3.063   4.808
 8207SOL    HW225521   3.768   2.941   4.798
 8208SOL     OW25522   2.220   0.582   0.594
 8208SOL    HW125523   2.209   0.496   0.544
 8208SOL    HW225524   2.171   0.576   0.681
 8209SOL     OW25525   6.578   0.976   5.379
 8209SOL    HW125526   6.500   1.002   5.321
 8209SOL    HW225527   6.649   0.935   5.323
 8210SOL     OW25528   1.331   2.853   6.935
 8210SOL    HW125529   1.255   2.908   6.969
 8210SOL    HW225530   1.414   2.908   6.934
 8211SOL     OW25531   3.225   4.683   1.135
 8211SOL    HW125532   3.159   4.714   1.203
 8211SOL    HW225533   3.289   4.618   1.177
 8212SOL     OW25534   1.588   2.546   3.866
 8212SOL    HW125535   1.638   2.529   3.781
 8212SOL    HW225536   1.641   2.606   3.925
 8213SOL     OW25537   6.835   5.153   1.514
 8213SOL    HW125538   6.829   5.054   1.525
 8213SOL    HW225539   6.927   5.177   1.482
 8214SOL     OW25540   5.043   4.281   3.255
 8214SOL    HW125541   5.007   4.374   3.256
 8214SOL    HW225542   4.981   4.221   3.306
 8215SOL     OW25543   3.571   5.604   4.649
 8215SOL    HW125544   3.551   5.663   4.727
 8215SOL    HW225545   3.486   5.564   4.614
 8216SOL     OW25546   4.518   4.507   3.696
 8216SOL    HW125547   4.436   4.555   3.729
 8216SOL    HW225548   4.540   4.432   3.759
 8217SOL     OW25549   2.424   6.036   6.999
 8217SOL    HW125550   2.364   5.983   0.038
 8217SOL    HW225551   2.520   6.015   0.000
 8218SOL     OW25552   0.585   1.458   0.105
 8218SOL    HW125553   0.578   1.369   0.150
 8218SOL    HW225554   0.674   1.499   0.126
 8219SOL     OW25555   6.376   1.994   6.378
 8219SOL    HW125556   6.428   1.929   6.434
 8219SOL    HW225557   6.407   2.087   6.399
 8220SOL     OW25558   3.782   3.362   2.735
 8220SOL    HW125559   3.734   3.286   2.692
 8220SOL    HW225560   3.718   3.415   2.791
 8221SOL     OW25561   5.061   5.818   3.487
 8221SOL    HW125562   5.147   5.768   3.499
 8221SOL    HW225563   5.007   5.773   3.415
 8222SOL     OW25564   5.507   1.970   2.490
 8222SOL    HW125565   5.442   2.046   2.483
 8222SOL    HW225566   5.558   1.962   2.405
 8223SOL     OW25567   0.554   4.659   5.973
 8223SOL    HW125568   0.525   4.613   6.057
 8223SOL    HW225569   0.643   4.625   5.945
 8224SOL     OW25570   1.307   2.831   4.127
 8224SOL    HW125571   1.322   2.794   4.036
 8224SOL    HW225572   1.354   2.919   4.136
 8225SOL     OW25573   4.622   1.175   6.838
 8225SOL    HW125574   4.588   1.131   6.921
 8225SOL    HW225575   4.712   1.216   6.856
 8226SOL     OW25576   5.192   0.579   0.933
 8226SOL    HW125577   5.164   0.657   0.989
 8226SOL    HW225578   5.285   0.594   0.900
 8227SOL     OW25579   6.568   3.113   3.435
 8227SOL    HW125580   6.643   3.103   3.369
 8227SOL    HW225581   6.484   3.135   3.386
 8228SOL     OW25582   6.628   2.756   5.327
 8228SOL    HW125583   6.665   2.755   5.420
 8228SOL    HW225584   6.607   2.850   5.300
 8229SOL     OW25585   3.677   5.065   6.899
 8229SOL    HW125586   3.673   5.012   6.983
 8229SOL    HW225587   3.770   5.098   6.885
 8230SOL     OW25588   5.563   0.644   4.677
 8230SOL    HW125589   5.472   0.684   4.669
 8230SOL    HW225590   5.555   0.550   4.711
 8231SOL     OW25591   5.015   6.232   0.572
 8231SOL    HW125592   4.963   6.148   0.591
 8231SOL    HW225593   5.112   6.209   0.562
 8232SOL     OW25594   3.766   1.962   6.605
 8232SOL    HW125595   3.773   1.901   6.684
 8232SOL    HW225596   3.856   1.971   6.561
 8233SOL     OW25597   0.735   5.103   6.356
 8233SOL    HW125598   0.679   5.087   6.275
 8233SOL    HW225599   0.691   5.174   6.413
 8234SOL     OW25600   2.997   2.924   6.921
 8234SOL    HW125601   2.908   2.889   6.949
 8234SOL    HW225602   3.023   2.882   6.834
 8235SOL     OW25603   4.346   3.702   1.446
 8235SOL    HW125604   4.377   3.763   1.519
 8235SOL    HW225605   4.254   3.728   1.418
 8236SOL     OW25606   6.072   2.958   6.857
 8236SOL    HW125607   6.126   3.042   6.850
 8236SOL    HW225608   5.975   2.979   6.849
 8237SOL     OW25609   3.852   6.265   5.399
 8237SOL    HW125610   3.894   6.197   5.460
 8237SOL    HW225611   3.889   6.356   5.420
 8238SOL     OW25612   1.835   2.630   6.519
 8238SOL    HW125613   1.793   2.685   6.591
 8238SOL    HW225614   1.934   2.642   6.522
 8239SOL     OW25615   0.198   1.221   5.885
 8239SOL    HW125616   0.196   1.286   5.809
 8239SOL    HW225617   0.204   1.128   5.848
 8240SOL     OW25618   3.179   4.037   2.990
 8240SOL    HW125619   3.172   4.092   2.906
 8240SOL    HW225620   3.234   3.956   2.971
 8241SOL     OW25621   3.825   6.688   0.052
 8241SOL    HW125622   3.745   6.659   0.001
 8241SOL    HW225623   3.800   6.704   0.148
 8242SOL     OW25624   1.099   4.389   5.540
 8242SOL    HW125625   1.192   4.422   5.555
 8242SOL    HW225626   1.101   4.298   5.500
 8243SOL     OW25627   1.050   3.640   5.594
 8243SOL    HW125628   1.148   3.657   5.586
 8243SOL    HW225629   1.027   3.554   5.549
 8244SOL     OW25630   0.597   6.410   4.106
 8244SOL    HW125631   0.627   6.321   4.139
 8244SOL    HW225632   0.505   6.429   4.139
 8245SOL     OW25633   4.150   2.016   1.046
 8245SOL    HW125634   4.159   1.966   0.960
 8245SOL    HW225635   4.221   2.086   1.051
 8246SOL     OW25636   5.578   3.345   6.147
 8246SOL    HW125637   5.496   3.298   6.113
 8246SOL    HW225638   5.589   3.326   6.245
 8247SOL     OW25639   0.728   0.015   1.573
 8247SOL    HW125640   0.676   6.951   1.583
 8247SOL    HW225641   0.789   0.007   1.495
 8248SOL     OW25642   5.119   4.575   3.522
 8248SOL    HW125643   5.120   4.478   3.546
 8248SOL    HW225644   5.032   4.598   3.478
 8249SOL     OW25645   1.783   4.618   3.828
 8249SOL    HW125646   1.877   4.587   3.817
 8249SOL    HW225647   1.742   4.573   3.908
 8250SOL     OW25648   4.140   3.691   2.576
 8250SOL    HW125649   4.133   3.781   2.532
 8250SOL    HW225650   4.112   3.699   2.672
 8251SOL     OW25651   5.681   1.877   4.890
 8251SOL    HW125652   5.722   1.859   4.979
 8251SOL    HW225653   5.707   1.805   4.826
 8252SOL     OW25654   2.245   2.601   5.548
 8252SOL    HW125655   2.273   2.679   5.603
 8252SOL    HW225656   2.230   2.630   5.453
 8253SOL     OW25657   3.340   2.785   5.211
 8253SOL    HW125658   3.249   2.815   5.240
 8253SOL    HW225659   3.352   2.689   5.237
 8254SOL     OW25660   4.206   4.973   3.751
 8254SOL    HW125661   4.302   4.968   3.781
 8254SOL    HW225662   4.154   4.900   3.795
 8255SOL     OW25663   4.210   5.898   4.199
 8255SOL    HW125664   4.283   5.967   4.201
 8255SOL    HW225665   4.230   5.826   4.265
 8256SOL     OW25666   6.622   1.672   4.641
 8256SOL    HW125667   6.545   1.664   4.704
 8256SOL    HW225668   6.630   1.587   4.588
 8257SOL     OW25669   5.914   5.157   3.418
 8257SOL    HW125670   5.871   5.208   3.343
 8257SOL    HW225671   5.898   5.059   3.405
 8258SOL     OW25672   4.002   1.484   0.234
 8258SOL    HW125673   3.986   1.582   0.217
 8258SOL    HW225674   3.945   1.455   0.311
 8259SOL     OW25675   3.354   2.150   3.338
 8259SOL    HW125676   3.415   2.226   3.361
 8259SOL    HW225677   3.325   2.105   3.422
 8260SOL     OW25678   3.076   6.595   0.329
 8260SOL    HW125679   3.002   6.615   0.393
 8260SOL    HW225680   3.150   6.548   0.377
 8261SOL     OW25681   5.125   1.136   1.690
 8261SOL    HW125682   5.063   1.160   1.764
 8261SOL    HW225683   5.211   1.186   1.700
 8262SOL     OW25684   1.201   3.251   2.037
 8262SOL    HW125685   1.276   3.311   2.066
 8262SOL    HW225686   1.202   3.168   2.092
 8263SOL     OW25687   6.252   1.539   1.229
 8263SOL    HW125688   6.275   1.614   1.290
 8263SOL    HW225689   6.284   1.453   1.268
 8264SOL     OW25690   1.509   5.394   2.492
 8264SOL    HW125691   1.449   5.467   2.525
 8264SOL    HW225692   1.579   5.374   2.561
 8265SOL     OW25693   1.894   0.464   1.940
 8265SOL    HW125694   1.894   0.553   1.894
 8265SOL    HW225695   1.897   0.477   2.039
 8266SOL     OW25696   3.301   6.542   2.530
 8266SOL    HW125697   3.243   6.472   2.489
 8266SOL    HW225698   3.329   6.513   2.621
 8267SOL     OW25699   1.634   3.491   1.331
 8267SOL    HW125700   1.676   3.568   1.284
 8267SOL    HW225701   1.536   3.506   1.339
 8268SOL     OW25702   2.440   6.432   5.737
 8268SOL    HW125703   2.469   6.506   5.676
 8268SOL    HW225704   2.379   6.468   5.807
 8269SOL     OW25705   5.520   1.514   1.410
 8269SOL    HW125706   5.581   1.537   1.486
 8269SOL    HW225707   5.487   1.420   1.420
 8270SOL     OW25708   3.437   6.190   4.006
 8270SOL    HW125709   3.347   6.172   3.966
 8270SOL    HW225710   3.447   6.135   4.089
 8271SOL     OW25711   0.106   1.709   3.150
 8271SOL    HW125712   0.177   1.640   3.163
 8271SOL    HW225713   0.147   1.791   3.110
 8272SOL     OW25714   3.940   0.920   2.732
 8272SOL    HW125715   3.871   0.905   2.803
 8272SOL    HW225716   3.904   0.982   2.663
 8273SOL     OW25717   2.838   0.005   1.042
 8273SOL    HW125718   2.920   6.993   0.995
 8273SOL    HW225719   2.797   6.950   1.094
 8274SOL     OW25720   5.001   5.398   2.663
 8274SOL    HW125721   4.918   5.395   2.606
 8274SOL    HW225722   5.041   5.306   2.667
 8275SOL     OW25723   5.023   1.939   6.079
 8275SOL    HW125724   5.078   1.931   6.162
 8275SOL    HW225725   4.936   1.890   6.091
 8276SOL     OW25726   0.957   2.190   3.950
 8276SOL    HW125727   0.878   2.135   3.922
 8276SOL    HW225728   1.035   2.168   3.892
 8277SOL     OW25729   6.959   6.966   6.626
 8277SOL    HW125730   0.010   6.964   6.696
 8277SOL    HW225731   6.971   0.026   6.568
 8278SOL     OW25732   2.409   2.189   0.915
 8278SOL    HW125733   2.411   2.204   0.816
 8278SOL    HW225734   2.423   2.276   0.962
 8279SOL     OW25735   0.776   6.506   4.441
 8279SOL    HW125736   0.750   6.413   4.470
 8279SOL    HW225737   0.863   6.502   4.391
 8280SOL     OW25738   3.527   2.545   5.825
 8280SOL    HW125739   3.431   2.553   5.795
 8280SOL    HW225740   3.569   2.636   5.823
 8281SOL     OW25741   0.132   6.100   1.794
 8281SOL    HW125742   0.086   6.073   1.709
 8281SOL    HW225743   0.205   6.035   1.814
 8282SOL     OW25744   5.256   2.583   6.017
 8282SOL    HW125745   5.338   2.578   6.074
 8282SOL    HW225746   5.205   2.497   6.026
 8283SOL     OW25747   2.034   3.811   5.823
 8283SOL    HW125748   2.130   3.783   5.810
 8283SOL    HW225749   2.019   3.898   5.778
 8284SOL     OW25750   6.718   4.370   2.205
 8284SOL    HW125751   6.688   4.456   2.248
 8284SOL    HW225752   6.739   4.387   2.109
 8285SOL     OW25753   3.919   3.373   4.843
 8285SOL    HW125754   3.848   3.326   4.791
 8285SOL    HW225755   3.956   3.448   4.788
 8286SOL     OW25756   6.283   2.400   5.946
 8286SOL    HW125757   6.377   2.429   5.964
 8286SOL    HW225758   6.283   2.318   5.890
 8287SOL     OW25759   1.316   5.670   4.768
 8287SOL    HW125760   1.332   5.704   4.675
 8287SOL    HW225761   1.219   5.651   4.780
 8288SOL     OW25762   2.325   2.844   2.813
 8288SOL    HW125763   2.410   2.896   2.819
 8288SOL    HW225764   2.340   2.760   2.761
 8289SOL     OW25765   0.666   0.065   0.355
 8289SOL    HW125766   0.645   0.045   0.259
 8289SOL    HW225767   0.765   0.069   0.367
 8290SOL     OW25768   6.004   1.663   0.519
 8290SOL    HW125769   6.061   1.657   0.438
 8290SOL    HW225770   6.001   1.757   0.552
 8291SOL     OW25771   4.149   6.837   6.113
 8291SOL    HW125772   4.223   6.833   6.046
 8291SOL    HW225773   4.061   6.827   6.065
 8292SOL     OW25774   3.483   6.605   6.585
 8292SOL    HW125775   3.522   6.514   6.603
 8292SOL    HW225776   3.544   6.675   6.622
 8293SOL     OW25777   4.666   6.279   5.965
 8293SOL    HW125778   4.753   6.231   5.960
 8293SOL    HW225779   4.676   6.363   6.019
 8294SOL     OW25780   5.709   2.546   6.533
 8294SOL    HW125781   5.803   2.566   6.507
 8294SOL    HW225782   5.651   2.624   6.511
 8295SOL     OW25783   5.208   4.292   1.454
 8295SOL    HW125784   5.195   4.236   1.536
 8295SOL    HW225785   5.286   4.258   1.402
 8296SOL     OW25786   1.347   5.853   6.748
 8296SOL    HW125787   1.355   5.952   6.741
 8296SOL    HW225788   1.386   5.811   6.666
 8297SOL     OW25789   6.306   2.379   3.544
 8297SOL    HW125790   6.272   2.328   3.466
 8297SOL    HW225791   6.278   2.475   3.537
 8298SOL     OW25792   4.853   1.279   1.467
 8298SOL    HW125793   4.757   1.308   1.461
 8298SOL    HW225794   4.890   1.304   1.556
 8299SOL     OW25795   6.368   2.676   2.008
 8299SOL    HW125796   6.442   2.726   1.963
 8299SOL    HW225797   6.407   2.599   2.059
 8300SOL     OW25798   0.421   4.438   4.495
 8300SOL    HW125799   0.346   4.503   4.481
 8300SOL    HW225800   0.503   4.472   4.449
 8301SOL     OW25801   4.379   3.057   1.246
 8301SOL    HW125802   4.357   3.068   1.343
 8301SOL    HW225803   4.305   3.094   1.190
 8302SOL     OW25804   6.263   6.067   6.629
 8302SOL    HW125805   6.267   6.141   6.563
 8302SOL    HW225806   6.343   6.072   6.690
 8303SOL     OW25807   0.259   0.484   4.776
 8303SOL    HW125808   0.357   0.503   4.772
 8303SOL    HW225809   0.210   0.568   4.802
 8304SOL     OW25810   0.772   3.746   6.333
 8304SOL    HW125811   0.706   3.679   6.368
 8304SOL    HW225812   0.758   3.758   6.235
 8305SOL     OW25813   3.725   5.452   4.082
 8305SOL    HW125814   3.739   5.532   4.025
 8305SOL    HW225815   3.676   5.382   4.031
 8306SOL     OW25816   0.731   3.151   5.149
 8306SOL    HW125817   0.815   3.102   5.171
 8306SOL    HW225818   0.652   3.098   5.180
 8307SOL     OW25819   3.648   5.665   0.522
 8307SOL    HW125820   3.729   5.715   0.555
 8307SOL    HW225821   3.586   5.729   0.477
 8308SOL     OW25822   3.743   6.715   2.348
 8308SOL    HW125823   3.764   6.617   2.352
 8308SOL    HW225824   3.672   6.731   2.280
 8309SOL     OW25825   5.800   6.171   2.282
 8309SOL    HW125826   5.722   6.125   2.239
 8309SOL    HW225827   5.855   6.104   2.331
 8310SOL     OW25828   0.043   5.013   0.550
 8310SOL    HW125829   0.040   5.030   0.452
 8310SOL    HW225830   0.027   4.916   0.567
 8311SOL     OW25831   6.855   1.186   0.148
 8311SOL    HW125832   6.788   1.251   0.113
 8311SOL    HW225833   6.835   1.165   0.244
 8312SOL     OW25834   5.343   6.685   1.571
 8312SOL    HW125835   5.342   6.693   1.472
 8312SOL    HW225836   5.361   6.590   1.597
 8313SOL     OW25837   3.898   1.519   3.022
 8313SOL    HW125838   3.977   1.580   3.026
 8313SOL    HW225839   3.815   1.572   3.005
 8314SOL     OW25840   5.888   0.048   2.071
 8314SOL    HW125841   5.788   0.051   2.072
 8314SOL    HW225842   5.925   0.103   2.146
 8315SOL     OW25843   4.610   3.291   0.729
 8315SOL    HW125844   4.556   3.362   0.684
 8315SOL    HW225845   4.572   3.271   0.819
 8316SOL     OW25846   1.274   4.268   0.785
 8316SOL    HW125847   1.313   4.333   0.850
 8316SOL    HW225848   1.191   4.308   0.744
 8317SOL     OW25849   2.137   4.369   2.438
 8317SOL    HW125850   2.105   4.458   2.407
 8317SOL    HW225851   2.110   4.299   2.372
 8318SOL     OW25852   4.063   1.299   4.862
 8318SOL    HW125853   4.095   1.369   4.798
 8318SOL    HW225854   3.966   1.281   4.846
 8319SOL     OW25855   3.348   0.908   5.642
 8319SOL    HW125856   3.428   0.966   5.624
 8319SOL    HW225857   3.356   0.869   5.734
 8320SOL     OW25858   3.000   4.792   1.282
 8320SOL    HW125859   2.928   4.750   1.337
 8320SOL    HW225860   3.001   4.891   1.297
 8321SOL     OW25861   0.910   0.174   0.506
 8321SOL    HW125862   0.841   0.244   0.489
 8321SOL    HW225863   0.996   0.200   0.462
 8322SOL     OW25864   0.116   0.387   6.796
 8322SOL    HW125865   0.167   0.472   6.780
 8322SOL    HW225866   0.180   0.312   6.812
 8323SOL     OW25867   0.616   1.259   2.775
 8323SOL    HW125868   0.648   1.345   2.814
 8323SOL    HW225869   0.586   1.274   2.680
 8324SOL     OW25870   6.039   0.629   2.160
 8324SOL    HW125871   5.970   0.585   2.103
 8324SOL    HW225872   5.995   0.695   2.222
 8325SOL     OW25873   3.338   2.912   4.469
 8325SOL    HW125874   3.380   2.888   4.382
 8325SOL    HW225875   3.385   2.863   4.543
 8326SOL     OW25876   4.295   2.923   5.993
 8326SOL    HW125877   4.247   2.867   5.925
 8326SOL    HW225878   4.378   2.875   6.022
 8327SOL     OW25879   5.590   2.282   6.222
 8327SOL    HW125880   5.626   2.339   6.149
 8327SOL    HW225881   5.662   2.259   6.287
 8328SOL     OW25882   2.134   2.885   6.254
 8328SOL    HW125883   2.190   2.952   6.205
 8328SOL    HW225884   2.049   2.928   6.284
 8329SOL     OW25885   6.937   2.928   5.242
 8329SOL    HW125886   6.891   2.923   5.330
 8329SOL    HW225887   6.931   2.840   5.195
 8330SOL     OW25888   1.940   6.103   0.382
 8330SOL    HW125889   1.860   6.163   0.384
 8330SOL    HW225890   2.019   6.151   0.420
 8331SOL     OW25891   3.027   0.451   1.592
 8331SOL    HW125892   2.991   0.380   1.652
 8331SOL    HW225893   2.983   0.445   1.503
 8332SOL     OW25894   4.579   5.196   2.079
 8332SOL    HW125895   4.523   5.140   2.141
 8332SOL    HW225896   4.518   5.251   2.021
 8333SOL     OW25897   0.366   5.748   0.449
 8333SOL    HW125898   0.292   5.802   0.408
 8333SOL    HW225899   0.441   5.808   0.475
 8334SOL     OW25900   6.438   1.892   3.980
 8334SOL    HW125901   6.412   1.807   3.934
 8334SOL    HW225902   6.465   1.960   3.912
 8335SOL     OW25903   6.029   5.798   5.718
 8335SOL    HW125904   5.935   5.829   5.729
 8335SOL    HW225905   6.054   5.799   5.621
 8336SOL     OW25906   0.637   1.835   1.641
 8336SOL    HW125907   0.667   1.740   1.648
 8336SOL    HW225908   0.696   1.893   1.698
 8337SOL     OW25909   0.965   6.455   2.441
 8337SOL    HW125910   1.013   6.470   2.528
 8337SOL    HW225911   0.875   6.416   2.459
 8338SOL     OW25912   1.775   4.604   1.306
 8338SOL    HW125913   1.751   4.661   1.385
 8338SOL    HW225914   1.701   4.539   1.288
 8339SOL     OW25915   5.634   1.285   2.339
 8339SOL    HW125916   5.696   1.353   2.377
 8339SOL    HW225917   5.606   1.313   2.247
 8340SOL     OW25918   4.922   3.905   0.614
 8340SOL    HW125919   4.937   3.808   0.595
 8340SOL    HW225920   4.833   3.917   0.659
 8341SOL     OW25921   2.068   6.523   0.962
 8341SOL    HW125922   2.064   6.568   0.873
 8341SOL    HW225923   2.054   6.425   0.951
 8342SOL     OW25924   3.762   0.776   0.393
 8342SOL    HW125925   3.754   0.752   0.489
 8342SOL    HW225926   3.799   0.869   0.385
 8343SOL     OW25927   1.254   5.524   6.086
 8343SOL    HW125928   1.334   5.558   6.135
 8343SOL    HW225929   1.185   5.596   6.082
 8344SOL     OW25930   4.256   6.300   6.149
 8344SOL    HW125931   4.309   6.331   6.070
 8344SOL    HW225932   4.236   6.378   6.209
 8345SOL     OW25933   6.005   1.659   2.800
 8345SOL    HW125934   5.934   1.696   2.741
 8345SOL    HW225935   6.058   1.590   2.750
 8346SOL     OW25936   2.631   5.128   1.291
 8346SOL    HW125937   2.667   5.043   1.328
 8346SOL    HW225938   2.536   5.114   1.263
 8347SOL     OW25939   3.091   6.982   5.413
 8347SOL    HW125940   3.171   6.943   5.369
 8347SOL    HW225941   3.085   0.058   5.390
 8348SOL     OW25942   1.157   0.868   1.253
 8348SOL    HW125943   1.189   0.816   1.174
 8348SOL    HW225944   1.057   0.869   1.254
 8349SOL     OW25945   6.053   3.692   0.824
 8349SOL    HW125946   6.029   3.652   0.912
 8349SOL    HW225947   6.147   3.724   0.826
 8350SOL     OW25948   6.107   1.239   5.509
 8350SOL    HW125949   6.010   1.233   5.487
 8350SOL    HW225950   6.120   1.228   5.608
 8351SOL     OW25951   3.115   6.173   4.120
 8351SOL    HW125952   3.036   6.114   4.134
 8351SOL    HW225953   3.178   6.163   4.197
 8352SOL     OW25954   6.578   6.506   2.667
 8352SOL    HW125955   6.665   6.458   2.674
 8352SOL    HW225956   6.529   6.474   2.585
 8353SOL     OW25957   6.560   3.453   1.923
 8353SOL    HW125958   6.618   3.396   1.865
 8353SOL    HW225959   6.592   3.447   2.018
 8354SOL     OW25960   3.119   1.411   6.775
 8354SOL    HW125961   3.140   1.315   6.754
 8354SOL    HW225962   3.106   1.421   6.874
 8355SOL     OW25963   3.372   6.955   6.769
 8355SOL    HW125964   3.463   6.955   6.727
 8355SOL    HW225965   3.322   0.016   6.742
 8356SOL     OW25966   1.700   5.657   0.361
 8356SOL    HW125967   1.618   5.688   0.312
 8356SOL    HW225968   1.756   5.602   0.300
 8357SOL     OW25969   3.965   5.601   4.990
 8357SOL    HW125970   3.932   5.592   4.896
 8357SOL    HW225971   3.931   5.686   5.029
 8358SOL     OW25972   2.039   2.742   5.888
 8358SOL    HW125973   2.139   2.740   5.882
 8358SOL    HW225974   2.003   2.801   5.816
 8359SOL     OW25975   4.326   5.284   4.366
 8359SOL    HW125976   4.277   5.322   4.288
 8359SOL    HW225977   4.309   5.185   4.372
 8360SOL     OW25978   5.033   6.748   2.813
 8360SOL    HW125979   5.040   6.648   2.824
 8360SOL    HW225980   4.968   6.768   2.739
 8361SOL     OW25981   1.380   0.813   2.602
 8361SOL    HW125982   1.479   0.813   2.620
 8361SOL    HW225983   1.353   0.902   2.566
 8362SOL     OW25984   2.745   2.301   0.251
 8362SOL    HW125985   2.705   2.392   0.257
 8362SOL    HW225986   2.673   2.234   0.233
 8363SOL     OW25987   0.407   3.062   0.501
 8363SOL    HW125988   0.339   3.074   0.574
 8363SOL    HW225989   0.374   3.107   0.418
 8364SOL     OW25990   6.274   3.650   3.133
 8364SOL    HW125991   6.241   3.643   3.227
 8364SOL    HW225992   6.331   3.571   3.110
 8365SOL     OW25993   1.623   3.371   0.162
 8365SOL    HW125994   1.529   3.398   0.184
 8365SOL    HW225995   1.643   3.283   0.204
 8366SOL     OW25996   4.458   6.212   2.550
 8366SOL    HW125997   4.423   6.305   2.558
 8366SOL    HW225998   4.555   6.215   2.524
 8367SOL     OW25999   4.846   6.264   3.770
 8367SOL    HW126000   4.813   6.227   3.856
 8367SOL    HW226001   4.946   6.255   3.766
 8368SOL     OW26002   2.417   5.515   5.903
 8368SOL    HW126003   2.371   5.569   5.973
 8368SOL    HW226004   2.397   5.418   5.916
 8369SOL     OW26005   2.294   1.574   0.203
 8369SOL    HW126006   2.348   1.505   0.251
 8369SOL    HW226007   2.197   1.558   0.220
 8370SOL     OW26008   1.381   1.765   6.493
 8370SOL    HW126009   1.283   1.744   6.489
 8370SOL    HW226010   1.399   1.828   6.568
 8371SOL     OW26011   1.332   3.023   0.781
 8371SOL    HW126012   1.420   2.991   0.814
 8371SOL    HW226013   1.311   2.979   0.693
 8372SOL     OW26014   0.116   0.894   2.553
 8372SOL    HW126015   0.181   0.841   2.608
 8372SOL    HW226016   0.148   0.989   2.548
 8373SOL     OW26017   1.180   6.040   5.265
 8373SOL    HW126018   1.096   6.016   5.314
 8373SOL    HW226019   1.252   6.064   5.330
 8374SOL     OW26020   6.628   0.462   0.124
 8374SOL    HW126021   6.672   0.417   0.046
 8374SOL    HW226022   6.551   0.517   0.092
 8375SOL     OW26023   3.555   0.266   6.068
 8375SOL    HW126024   3.632   0.318   6.032
 8375SOL    HW226025   3.485   0.256   5.997
 8376SOL     OW26026   2.780   0.542   3.909
 8376SOL    HW126027   2.879   0.527   3.907
 8376SOL    HW226028   2.757   0.595   3.991
 8377SOL     OW26029   5.866   5.039   1.539
 8377SOL    HW126030   5.911   4.950   1.541
 8377SOL    HW226031   5.886   5.089   1.623
 8378SOL     OW26032   5.454   3.197   3.316
 8378SOL    HW126033   5.425   3.122   3.257
 8378SOL    HW226034   5.548   3.223   3.295
 8379SOL     OW26035   6.424   3.206   1.568
 8379SOL    HW126036   6.391   3.300   1.571
 8379SOL    HW226037   6.349   3.144   1.593
 8380SOL     OW26038   5.333   1.346   2.894
 8380SOL    HW126039   5.348   1.288   2.814
 8380SOL    HW226040   5.364   1.299   2.976
 8381SOL     OW26041   1.462   5.443   4.893
 8381SOL    HW126042   1.400   5.497   4.836
 8381SOL    HW226043   1.424   5.436   4.985
 8382SOL     OW26044   1.132   2.627   2.495
 8382SOL    HW126045   1.126   2.543   2.441
 8382SOL    HW226046   1.227   2.642   2.523
 8383SOL     OW26047   2.930   2.582   6.946
 8383SOL    HW126048   2.997   2.603   6.875
 8383SOL    HW226049   2.866   2.658   6.955
 8384SOL     OW26050   0.063   6.817   2.027
 8384SOL    HW126051   0.001   6.770   2.089
 8384SOL    HW226052   0.147   6.842   2.076
 8385SOL     OW26053   5.088   2.582   2.485
 8385SOL    HW126054   5.094   2.590   2.386
 8385SOL    HW226055   4.996   2.551   2.510
 8386SOL     OW26056   0.829   4.097   2.656
 8386SOL    HW126057   0.821   3.997   2.662
 8386SOL    HW226058   0.837   4.136   2.747
 8387SOL     OW26059   0.832   1.963   1.419
 8387SOL    HW126060   0.911   2.000   1.467
 8387SOL    HW226061   0.765   1.929   1.486
 8388SOL     OW26062   2.794   0.196   1.979
 8388SOL    HW126063   2.820   0.140   2.058
 8388SOL    HW226064   2.705   0.164   1.944
 8389SOL     OW26065   5.237   3.003   2.165
 8389SOL    HW126066   5.314   3.057   2.199
 8389SOL    HW226067   5.160   3.011   2.228
 8390SOL     OW26068   4.960   1.875   5.429
 8390SOL    HW126069   4.894   1.806   5.401
 8390SOL    HW226070   4.930   1.965   5.396
 8391SOL     OW26071   6.089   1.111   1.448
 8391SOL    HW126072   6.009   1.118   1.387
 8391SOL    HW226073   6.173   1.118   1.394
 8392SOL     OW26074   5.707   3.237   4.494
 8392SOL    HW126075   5.707   3.215   4.592
 8392SOL    HW226076   5.798   3.219   4.456
 8393SOL     OW26077   4.926   0.504   1.501
 8393SOL    HW126078   4.846   0.536   1.451
 8393SOL    HW226079   5.002   0.489   1.438
 8394SOL     OW26080   6.032   3.995   2.218
 8394SOL    HW126081   5.995   3.909   2.184
 8394SOL    HW226082   6.119   4.014   2.172
 8395SOL     OW26083   2.597   1.270   5.134
 8395SOL    HW126084   2.527   1.223   5.187
 8395SOL    HW226085   2.654   1.203   5.087
 8396SOL     OW26086   4.150   5.401   5.024
 8396SOL    HW126087   4.081   5.466   5.057
 8396SOL    HW226088   4.239   5.446   5.020
 8397SOL     OW26089   6.326   0.764   3.420
 8397SOL    HW126090   6.331   0.754   3.520
 8397SOL    HW226091   6.359   0.855   3.394
 8398SOL     OW26092   5.674   2.263   5.721
 8398SOL    HW126093   5.749   2.301   5.775
 8398SOL    HW226094   5.594   2.322   5.730
 8399SOL     OW26095   0.060   5.928   0.671
 8399SOL    HW126096   6.995   5.877   0.677
 8399SOL    HW226097   0.137   5.866   0.688
 8400SOL     OW26098   1.375   2.465   4.344
 8400SOL    HW126099   1.307   2.392   4.351
 8400SOL    HW226100   1.388   2.489   4.247
 8401SOL     OW26101   3.372   0.459   5.721
 8401SOL    HW126102   3.359   0.488   5.816
 8401SOL    HW226103   3.307   0.386   5.699
 8402SOL     OW26104   3.847   0.678   6.016
 8402SOL    HW126105   3.936   0.687   5.973
 8402SOL    HW226106   3.788   0.753   5.987
 8403SOL     OW26107   6.053   4.965   4.266
 8403SOL    HW126108   6.055   4.929   4.172
 8403SOL    HW226109   5.967   4.939   4.309
 8404SOL     OW26110   1.722   1.964   6.621
 8404SOL    HW126111   1.708   2.030   6.547
 8404SOL    HW226112   1.807   1.987   6.669
 8405SOL     OW26113   4.238   1.182   5.631
 8405SOL    HW126114   4.201   1.098   5.672
 8405SOL    HW226115   4.233   1.176   5.531
 8406SOL     OW26116   5.084   0.836   6.496
 8406SOL    HW126117   5.103   0.762   6.432
 8406SOL    HW226118   5.136   0.822   6.581
 8407SOL     OW26119   3.448   6.556   4.158
 8407SOL    HW126120   3.481   6.598   4.242
 8407SOL    HW226121   3.442   6.457   4.169
 8408SOL     OW26122   4.845   0.777   1.245
 8408SOL    HW126123   4.809   0.689   1.214
 8408SOL    HW226124   4.822   0.848   1.179
 8409SOL     OW26125   4.823   2.481   2.500
 8409SOL    HW126126   4.797   2.512   2.409
 8409SOL    HW226127   4.794   2.386   2.512
 8410SOL     OW26128   6.983   1.831   1.601
 8410SOL    HW126129   6.979   1.924   1.563
 8410SOL    HW226130   6.994   1.837   1.701
 8411SOL     OW26131   1.638   5.646   0.797
 8411SOL    HW126132   1.621   5.744   0.810
 8411SOL    HW226133   1.723   5.621   0.844
 8412SOL     OW26134   3.102   2.687   0.164
 8412SOL    HW126135   3.048   2.700   0.081
 8412SOL    HW226136   3.044   2.652   0.237
 8413SOL     OW26137   4.315   5.144   5.428
 8413SOL    HW126138   4.261   5.097   5.358
 8413SOL    HW226139   4.292   5.108   5.518
 8414SOL     OW26140   0.906   1.355   2.686
 8414SOL    HW126141   0.840   1.395   2.622
 8414SOL    HW226142   0.914   1.414   2.766
 8415SOL     OW26143   2.513   0.611   5.470
 8415SOL    HW126144   2.565   0.671   5.531
 8415SOL    HW226145   2.570   0.534   5.442
 8416SOL     OW26146   6.228   1.524   5.314
 8416SOL    HW126147   6.262   1.430   5.307
 8416SOL    HW226148   6.280   1.574   5.383
 8417SOL     OW26149   1.554   3.700   4.746
 8417SOL    HW126150   1.609   3.654   4.676
 8417SOL    HW226151   1.580   3.796   4.750
 8418SOL     OW26152   0.994   6.185   2.791
 8418SOL    HW126153   0.963   6.090   2.796
 8418SOL    HW226154   1.045   6.208   2.875
 8419SOL     OW26155   5.450   0.958   4.212
 8419SOL    HW126156   5.536   0.954   4.162
 8419SOL    HW226157   5.393   1.032   4.177
 8420SOL     OW26158   3.181   0.142   2.141
 8420SOL    HW126159   3.258   0.204   2.126
 8420SOL    HW226160   3.132   0.128   2.055
 8421SOL     OW26161   4.124   5.696   5.936
 8421SOL    HW126162   4.175   5.704   5.851
 8421SOL    HW226163   4.119   5.785   5.981
 8422SOL     OW26164   4.852   2.493   3.296
 8422SOL    HW126165   4.775   2.449   3.250
 8422SOL    HW226166   4.846   2.592   3.283
 8423SOL     OW26167   5.809   5.017   6.298
 8423SOL    HW126168   5.753   4.947   6.254
 8423SOL    HW226169   5.827   5.091   6.233
 8424SOL     OW26170   2.049   0.288   3.798
 8424SOL    HW126171   2.103   0.272   3.716
 8424SOL    HW226172   1.958   0.322   3.772
 8425SOL     OW26173   3.496   3.052   3.020
 8425SOL    HW126174   3.587   3.028   2.985
 8425SOL    HW226175   3.429   2.986   2.986
 8426SOL     OW26176   3.642   2.896   2.230
 8426SOL    HW126177   3.552   2.932   2.255
 8426SOL    HW226178   3.631   2.821   2.164
 8427SOL     OW26179   3.166   3.329   3.507
 8427SOL    HW126180   3.190   3.377   3.422
 8427SOL    HW226181   3.093   3.379   3.554
 8428SOL     OW26182   0.126   0.493   1.187
 8428SOL    HW126183   0.084   0.573   1.144
 8428SOL    HW226184   0.056   0.426   1.210
 8429SOL     OW26185   1.401   5.678   6.493
 8429SOL    HW126186   1.363   5.590   6.521
 8429SOL    HW226187   1.368   5.703   6.402
 8430SOL     OW26188   4.180   6.389   4.758
 8430SOL    HW126189   4.158   6.293   4.739
 8430SOL    HW226190   4.278   6.399   4.773
 8431SOL     OW26191   3.213   3.758   5.680
 8431SOL    HW126192   3.226   3.676   5.624
 8431SOL    HW226193   3.243   3.740   5.773
 8432SOL     OW26194   6.398   5.740   6.582
 8432SOL    HW126195   6.363   5.660   6.632
 8432SOL    HW226196   6.346   5.821   6.609
 8433SOL     OW26197   5.063   2.556   0.611
 8433SOL    HW126198   5.133   2.626   0.591
 8433SOL    HW226199   5.023   2.525   0.525
 8434SOL     OW26200   1.966   5.449   5.354
 8434SOL    HW126201   1.879   5.491   5.328
 8434SOL    HW226202   2.009   5.411   5.272
 8435SOL     OW26203   4.928   1.164   2.873
 8435SOL    HW126204   4.841   1.130   2.836
 8435SOL    HW226205   4.910   1.238   2.937
 8436SOL     OW26206   2.362   6.857   2.687
 8436SOL    HW126207   2.386   6.927   2.755
 8436SOL    HW226208   2.265   6.866   2.664
 8437SOL     OW26209   2.020   3.564   2.479
 8437SOL    HW126210   2.046   3.482   2.531
 8437SOL    HW226211   2.063   3.560   2.389
 8438SOL     OW26212   1.617   4.175   2.519
 8438SOL    HW126213   1.604   4.150   2.615
 8438SOL    HW226214   1.528   4.198   2.479
 8439SOL     OW26215   5.737   5.897   3.694
 8439SOL    HW126216   5.697   5.808   3.717
 8439SOL    HW226217   5.834   5.885   3.672
 8440SOL     OW26218   1.677   1.236   2.908
 8440SOL    HW126219   1.629   1.303   2.851
 8440SOL    HW226220   1.611   1.184   2.962
 8441SOL     OW26221   5.576   0.990   5.174
 8441SOL    HW126222   5.628   0.993   5.259
 8441SOL    HW226223   5.611   0.917   5.115
 8442SOL     OW26224   3.662   1.724   5.339
 8442SOL    HW126225   3.698   1.715   5.432
 8442SOL    HW226226   3.608   1.808   5.332
 8443SOL     OW26227   1.858   4.600   2.856
 8443SOL    HW126228   1.894   4.528   2.797
 8443SOL    HW226229   1.758   4.596   2.856
 8444SOL     OW26230   4.974   5.568   3.665
 8444SOL    HW126231   4.982   5.665   3.642
 8444SOL    HW226232   4.894   5.554   3.723
 8445SOL     OW26233   4.424   6.329   6.528
 8445SOL    HW126234   4.469   6.316   6.616
 8445SOL    HW226235   4.356   6.402   6.535
 8446SOL     OW26236   0.157   6.172   4.836
 8446SOL    HW126237   0.126   6.177   4.931
 8446SOL    HW226238   0.222   6.245   4.818
 8447SOL     OW26239   4.225   1.494   3.418
 8447SOL    HW126240   4.288   1.572   3.421
 8447SOL    HW226241   4.254   1.431   3.346
 8448SOL     OW26242   5.010   6.895   3.051
 8448SOL    HW126243   5.000   6.853   2.961
 8448SOL    HW226244   4.950   6.975   3.057
 8449SOL     OW26245   1.544   2.331   2.978
 8449SOL    HW126246   1.634   2.293   2.961
 8449SOL    HW226247   1.544   2.377   3.067
 8450SOL     OW26248   6.789   0.811   0.278
 8450SOL    HW126249   6.733   0.735   0.312
 8450SOL    HW226250   6.886   0.788   0.291
 8451SOL     OW26251   4.524   1.940   1.152
 8451SOL    HW126252   4.476   2.022   1.120
 8451SOL    HW226253   4.479   1.905   1.234
 8452SOL     OW26254   5.133   1.664   5.411
 8452SOL    HW126255   5.093   1.756   5.407
 8452SOL    HW226256   5.076   1.601   5.359
 8453SOL     OW26257   0.194   5.936   0.342
 8453SOL    HW126258   0.132   5.865   0.309
 8453SOL    HW226259   0.141   6.009   0.385
 8454SOL     OW26260   0.175   4.158   0.222
 8454SOL    HW126261   0.231   4.112   0.291
 8454SOL    HW226262   0.079   4.159   0.251
 8455SOL     OW26263   0.780   0.648   2.807
 8455SOL    HW126264   0.873   0.680   2.789
 8455SOL    HW226265   0.773   0.616   2.902
 8456SOL     OW26266   5.873   1.284   3.852
 8456SOL    HW126267   5.862   1.280   3.951
 8456SOL    HW226268   5.840   1.199   3.811
 8457SOL     OW26269   6.192   6.137   4.752
 8457SOL    HW126270   6.219   6.047   4.788
 8457SOL    HW226271   6.164   6.196   4.828
 8458SOL     OW26272   0.348   0.225   6.853
 8458SOL    HW126273   0.355   0.172   6.937
 8458SOL    HW226274   0.320   0.165   6.777
 8459SOL     OW26275   1.501   5.423   3.102
 8459SOL    HW126276   1.598   5.404   3.087
 8459SOL    HW226277   1.491   5.478   3.185
 8460SOL     OW26278   3.256   4.163   4.783
 8460SOL    HW126279   3.239   4.251   4.827
 8460SOL    HW226280   3.327   4.174   4.714
 8461SOL     OW26281   6.283   4.023   3.558
 8461SOL    HW126282   6.266   3.973   3.643
 8461SOL    HW226283   6.272   4.121   3.574
 8462SOL     OW26284   2.171   2.864   1.580
 8462SOL    HW126285   2.079   2.871   1.541
 8462SOL    HW226286   2.181   2.931   1.653
 8463SOL     OW26287   5.595   1.023   2.641
 8463SOL    HW126288   5.624   1.016   2.545
 8463SOL    HW226289   5.674   1.008   2.700
 8464SOL     OW26290   5.850   2.716   5.090
 8464SOL    HW126291   5.906   2.763   5.158
 8464SOL    HW226292   5.781   2.660   5.137
 8465SOL     OW26293   1.530   3.037   0.536
 8465SOL    HW126294   1.528   3.037   0.636
 8465SOL    HW226295   1.582   3.117   0.504
 8466SOL     OW26296   1.190   6.188   3.374
 8466SOL    HW126297   1.211   6.286   3.370
 8466SOL    HW226298   1.125   6.171   3.448
 8467SOL     OW26299   2.751   5.708   0.883
 8467SOL    HW126300   2.779   5.614   0.867
 8467SOL    HW226301   2.656   5.720   0.852
 8468SOL     OW26302   4.459   1.951   7.009
 8468SOL    HW126303   4.392   1.953   6.934
 8468SOL    HW226304   4.520   2.029   7.000
 8469SOL     OW26305   3.546   2.364   6.760
 8469SOL    HW126306   3.465   2.304   6.768
 8469SOL    HW226307   3.520   2.458   6.783
 8470SOL     OW26308   2.441   3.128   6.366
 8470SOL    HW126309   2.364   3.095   6.311
 8470SOL    HW226310   2.523   3.130   6.309
 8471SOL     OW26311   3.776   0.709   4.397
 8471SOL    HW126312   3.713   0.646   4.351
 8471SOL    HW226313   3.762   0.801   4.362
 8472SOL     OW26314   1.593   6.291   4.264
 8472SOL    HW126315   1.585   6.237   4.347
 8472SOL    HW226316   1.505   6.294   4.217
 8473SOL     OW26317   6.603   5.337   0.121
 8473SOL    HW126318   6.580   5.352   0.217
 8473SOL    HW226319   6.523   5.302   0.073
 8474SOL     OW26320   3.532   3.938   1.604
 8474SOL    HW126321   3.502   3.991   1.683
 8474SOL    HW226322   3.609   3.879   1.629
 8475SOL     OW26323   5.588   1.774   2.654
 8475SOL    HW126324   5.570   1.849   2.591
 8475SOL    HW226325   5.503   1.751   2.702
 8476SOL     OW26326   4.719   0.623   2.292
 8476SOL    HW126327   4.767   0.639   2.206
 8476SOL    HW226328   4.784   0.593   2.362
 8477SOL     OW26329   3.240   1.445   1.548
 8477SOL    HW126330   3.331   1.403   1.550
 8477SOL    HW226331   3.200   1.434   1.457
 8478SOL     OW26332   1.292   0.167   5.782
 8478SOL    HW126333   1.266   0.232   5.710
 8478SOL    HW226334   1.304   0.216   5.868
 8479SOL     OW26335   5.337   0.960   1.296
 8479SOL    HW126336   5.355   1.055   1.272
 8479SOL    HW226337   5.258   0.955   1.357
 8480SOL     OW26338   2.418   1.644   1.188
 8480SOL    HW126339   2.430   1.647   1.288
 8480SOL    HW226340   2.342   1.583   1.166
 8481SOL     OW26341   3.668   0.418   4.217
 8481SOL    HW126342   3.767   0.403   4.218
 8481SOL    HW226343   3.647   0.499   4.162
 8482SOL     OW26344   1.566   6.732   2.409
 8482SOL    HW126345   1.558   6.826   2.375
 8482SOL    HW226346   1.643   6.687   2.365
 8483SOL     OW26347   4.192   5.803   1.092
 8483SOL    HW126348   4.283   5.783   1.128
 8483SOL    HW226349   4.133   5.835   1.167
 8484SOL     OW26350   0.838   5.238   4.283
 8484SOL    HW126351   0.814   5.275   4.373
 8484SOL    HW226352   0.784   5.156   4.265
 8485SOL     OW26353   2.432   3.384   6.916
 8485SOL    HW126354   2.335   3.367   6.927
 8485SOL    HW226355   2.468   3.328   6.841
 8486SOL     OW26356   5.057   0.801   2.829
 8486SOL    HW126357   5.085   0.891   2.798
 8486SOL    HW226358   4.959   0.789   2.814
 8487SOL     OW26359   4.436   6.809   0.738
 8487SOL    HW126360   4.412   6.850   0.650
 8487SOL    HW226361   4.459   6.881   0.803
 8488SOL     OW26362   5.093   2.867   4.302
 8488SOL    HW126363   4.998   2.851   4.276
 8488SOL    HW226364   5.097   2.925   4.383
 8489SOL     OW26365   4.032   4.818   1.781
 8489SOL    HW126366   4.006   4.741   1.722
 8489SOL    HW226367   3.979   4.899   1.756
 8490SOL     OW26368   4.199   5.355   2.704
 8490SOL    HW126369   4.168   5.296   2.778
 8490SOL    HW226370   4.128   5.363   2.634
 8491SOL     OW26371   2.505   0.409   2.092
 8491SOL    HW126372   2.538   0.324   2.133
 8491SOL    HW226373   2.537   0.487   2.146
 8492SOL     OW26374   6.070   3.606   4.968
 8492SOL    HW126375   6.113   3.551   4.895
 8492SOL    HW226376   5.974   3.580   4.977
 8493SOL     OW26377   4.254   1.811   0.133
 8493SOL    HW126378   4.324   1.878   0.110
 8493SOL    HW226379   4.294   1.739   0.189
 8494SOL     OW26380   3.900   5.467   6.231
 8494SOL    HW126381   3.969   5.525   6.275
 8494SOL    HW226382   3.821   5.523   6.206
 8495SOL     OW26383   0.094   2.812   0.910
 8495SOL    HW126384   7.014   2.809   0.914
 8495SOL    HW226385   0.127   2.879   0.977
 8496SOL     OW26386   0.033   2.820   3.671
 8496SOL    HW126387   0.081   2.829   3.758
 8496SOL    HW226388   6.965   2.866   3.677
 8497SOL     OW26389   5.873   5.913   2.899
 8497SOL    HW126390   5.854   5.967   2.817
 8497SOL    HW226391   5.878   5.974   2.978
 8498SOL     OW26392   0.572   0.663   0.810
 8498SOL    HW126393   0.662   0.637   0.775
 8498SOL    HW226394   0.501   0.607   0.767
 8499SOL     OW26395   3.744   3.813   6.400
 8499SOL    HW126396   3.670   3.856   6.452
 8499SOL    HW226397   3.722   3.816   6.302
 8500SOL     OW26398   3.097   0.016   5.795
 8500SOL    HW126399   3.014   6.985   5.818
 8500SOL    HW226400   3.169   6.974   5.767
 8501SOL     OW26401   1.679   4.065   6.451
 8501SOL    HW126402   1.585   4.035   6.468
 8501SOL    HW226403   1.734   3.987   6.422
 8502SOL     OW26404   6.268   0.022   1.557
 8502SOL    HW126405   6.357   0.066   1.572
 8502SOL    HW226406   6.200   0.091   1.533
 8503SOL     OW26407   2.683   5.030   3.432
 8503SOL    HW126408   2.724   4.995   3.516
 8503SOL    HW226409   2.755   5.055   3.367
 8504SOL     OW26410   1.376   5.224   3.229
 8504SOL    HW126411   1.407   5.289   3.161
 8504SOL    HW226412   1.452   5.196   3.287
 8505SOL     OW26413   5.017   3.286   3.088
 8505SOL    HW126414   5.103   3.274   3.138
 8505SOL    HW226415   4.963   3.358   3.131
 8506SOL     OW26416   1.363   6.412   0.224
 8506SOL    HW126417   1.428   6.383   0.154
 8506SOL    HW226418   1.327   6.331   0.272
 8507SOL     OW26419   1.254   0.990   5.636
 8507SOL    HW126420   1.160   0.968   5.612
 8507SOL    HW226421   1.297   0.910   5.678
 8508SOL     OW26422   0.762   1.863   6.034
 8508SOL    HW126423   0.749   1.769   6.002
 8508SOL    HW226424   0.721   1.926   5.969
 8509SOL     OW26425   6.706   1.784   4.995
 8509SOL    HW126426   6.702   1.688   5.022
 8509SOL    HW226427   6.792   1.824   5.025
 8510SOL     OW26428   5.749   6.371   2.451
 8510SOL    HW126429   5.764   6.288   2.397
 8510SOL    HW226430   5.833   6.395   2.499
 8511SOL     OW26431   6.386   4.552   1.718
 8511SOL    HW126432   6.469   4.606   1.737
 8511SOL    HW226433   6.334   4.597   1.645
 8512SOL     OW26434   5.463   2.601   7.001
 8512SOL    HW126435   5.540   2.604   0.043
 8512SOL    HW226436   5.432   2.694   6.981
 8513SOL     OW26437   6.561   4.865   1.325
 8513SOL    HW126438   6.530   4.903   1.412
 8513SOL    HW226439   6.627   4.793   1.342
 8514SOL     OW26440   2.802   1.943   4.812
 8514SOL    HW126441   2.864   2.018   4.833
 8514SOL    HW226442   2.707   1.973   4.824
 8515SOL     OW26443   1.139   0.511   1.239
 8515SOL    HW126444   1.203   0.552   1.174
 8515SOL    HW226445   1.066   0.577   1.259
 8516SOL     OW26446   6.261   2.437   2.456
 8516SOL    HW126447   6.348   2.472   2.421
 8516SOL    HW226448   6.206   2.403   2.380
 8517SOL     OW26449   1.767   2.770   4.817
 8517SOL    HW126450   1.765   2.834   4.894
 8517SOL    HW226451   1.824   2.691   4.841
 8518SOL     OW26452   5.084   4.955   6.652
 8518SOL    HW126453   5.157   4.898   6.688
 8518SOL    HW226454   5.093   4.964   6.553
 8519SOL     OW26455   1.345   3.929   0.534
 8519SOL    HW126456   1.390   3.843   0.559
 8519SOL    HW226457   1.400   4.006   0.567
 8520SOL     OW26458   4.120   3.693   4.988
 8520SOL    HW126459   4.029   3.654   5.004
 8520SOL    HW226460   4.128   3.718   4.891
 8521SOL     OW26461   1.533   6.143   5.565
 8521SOL    HW126462   1.519   6.063   5.623
 8521SOL    HW226463   1.454   6.153   5.503
 8522SOL     OW26464   1.621   5.928   0.634
 8522SOL    HW126465   1.711   5.921   0.591
 8522SOL    HW226466   1.552   5.888   0.575
 8523SOL     OW26467   2.651   0.791   6.859
 8523SOL    HW126468   2.617   0.877   6.896
 8523SOL    HW226469   2.598   0.766   6.777
 8524SOL     OW26470   1.756   5.655   4.597
 8524SOL    HW126471   1.738   5.643   4.694
 8524SOL    HW226472   1.718   5.743   4.566
 8525SOL     OW26473   0.521   4.919   1.370
 8525SOL    HW126474   0.463   4.838   1.374
 8525SOL    HW226475   0.534   4.955   1.462
 8526SOL     OW26476   2.380   6.138   0.324
 8526SOL    HW126477   2.351   6.211   0.262
 8526SOL    HW226478   2.464   6.166   0.371
 8527SOL     OW26479   3.441   0.514   6.277
 8527SOL    HW126480   3.357   0.493   6.326
 8527SOL    HW226481   3.479   0.430   6.238
 8528SOL     OW26482   5.286   2.387   0.002
 8528SOL    HW126483   5.315   2.313   6.963
 8528SOL    HW226484   5.333   2.471   6.998
 8529SOL     OW26485   1.449   6.435   6.596
 8529SOL    HW126486   1.438   6.490   6.513
 8529SOL    HW226487   1.378   6.459   6.662
 8530SOL     OW26488   3.385   4.146   4.513
 8530SOL    HW126489   3.305   4.095   4.479
 8530SOL    HW226490   3.376   4.242   4.487
 8531SOL     OW26491   6.500   5.750   3.808
 8531SOL    HW126492   6.543   5.783   3.892
 8531SOL    HW226493   6.534   5.802   3.730
 8532SOL     OW26494   2.966   5.592   4.779
 8532SOL    HW126495   3.002   5.647   4.704
 8532SOL    HW226496   2.956   5.497   4.749
 8533SOL     OW26497   1.122   6.595   5.861
 8533SOL    HW126498   1.191   6.523   5.851
 8533SOL    HW226499   1.167   6.684   5.861
 8534SOL     OW26500   4.152   2.139   4.020
 8534SOL    HW126501   4.247   2.127   3.990
 8534SOL    HW226502   4.103   2.197   3.955
 8535SOL     OW26503   5.890   1.219   2.853
 8535SOL    HW126504   5.836   1.135   2.858
 8535SOL    HW226505   5.970   1.210   2.912
 8536SOL     OW26506   0.193   0.885   4.616
 8536SOL    HW126507   0.151   0.831   4.543
 8536SOL    HW226508   0.279   0.843   4.643
 8537SOL     OW26509   6.931   0.969   2.917
 8537SOL    HW126510   6.872   0.936   2.991
 8537SOL    HW226511   0.005   0.946   2.936
 8538SOL     OW26512   0.971   2.745   6.847
 8538SOL    HW126513   0.981   2.844   6.852
 8538SOL    HW226514   1.000   2.713   6.757
 8539SOL     OW26515   6.765   2.735   3.288
 8539SOL    HW126516   6.782   2.712   3.193
 8539SOL    HW226517   6.713   2.661   3.332
 8540SOL     OW26518   4.304   6.985   0.430
 8540SOL    HW126519   4.235   6.921   0.462
 8540SOL    HW226520   4.268   0.057   0.435
 8541SOL     OW26521   2.135   2.220   3.505
 8541SOL    HW126522   2.114   2.239   3.409
 8541SOL    HW226523   2.230   2.192   3.514
 8542SOL     OW26524   4.213   3.737   6.610
 8542SOL    HW126525   4.276   3.770   6.539
 8542SOL    HW226526   4.182   3.814   6.665
 8543SOL     OW26527   1.779   2.732   6.941
 8543SOL    HW126528   1.760   2.634   6.948
 8543SOL    HW226529   1.753   2.777   0.006
 8544SOL     OW26530   5.695   2.499   4.400
 8544SOL    HW126531   5.789   2.513   4.366
 8544SOL    HW226532   5.694   2.423   4.464
 8545SOL     OW26533   5.104   6.443   4.560
 8545SOL    HW126534   5.149   6.392   4.486
 8545SOL    HW226535   5.052   6.519   4.521
 8546SOL     OW26536   4.724   1.637   4.639
 8546SOL    HW126537   4.756   1.601   4.726
 8546SOL    HW226538   4.765   1.585   4.564
 8547SOL     OW26539   0.971   4.265   3.096
 8547SOL    HW126540   1.012   4.209   3.168
 8547SOL    HW226541   0.871   4.259   3.102
 8548SOL     OW26542   5.815   1.183   5.489
 8548SOL    HW126543   5.790   1.280   5.485
 8548SOL    HW226544   5.735   1.127   5.467
 8549SOL     OW26545   6.443   3.373   4.772
 8549SOL    HW126546   6.515   3.338   4.712
 8549SOL    HW226547   6.471   3.460   4.811
 8550SOL     OW26548   1.476   4.399   6.750
 8550SOL    HW126549   1.451   4.333   6.678
 8550SOL    HW226550   1.421   4.482   6.739
 8551SOL     OW26551   3.356   4.081   0.120
 8551SOL    HW126552   3.330   3.998   0.072
 8551SOL    HW226553   3.405   4.142   0.058
 8552SOL     OW26554   2.030   6.468   3.942
 8552SOL    HW126555   1.963   6.438   4.009
 8552SOL    HW226556   2.118   6.483   3.988
 8553SOL     OW26557   5.401   6.969   0.254
 8553SOL    HW126558   5.384   6.958   0.156
 8553SOL    HW226559   5.485   6.920   0.279
 8554SOL     OW26560   6.565   3.815   6.657
 8554SOL    HW126561   6.621   3.897   6.666
 8554SOL    HW226562   6.519   3.796   6.744
 8555SOL     OW26563   1.227   6.801   3.711
 8555SOL    HW126564   1.283   6.867   3.660
 8555SOL    HW226565   1.202   6.841   3.799
 8556SOL     OW26566   6.178   0.471   3.485
 8556SOL    HW126567   6.136   0.539   3.547
 8556SOL    HW226568   6.270   0.449   3.518
 8557SOL     OW26569   0.010   0.454   1.604
 8557SOL    HW126570   0.063   0.531   1.570
 8557SOL    HW226571   0.070   0.374   1.615
 8558SOL     OW26572   1.099   5.433   1.785
 8558SOL    HW126573   1.085   5.478   1.697
 8558SOL    HW226574   1.195   5.439   1.811
 8559SOL     OW26575   1.085   0.118   1.002
 8559SOL    HW126576   1.060   0.139   1.097
 8559SOL    HW226577   1.024   0.168   0.940
 8560SOL     OW26578   6.421   2.063   0.192
 8560SOL    HW126579   6.352   2.130   0.218
 8560SOL    HW226580   6.385   1.971   0.209
 8561SOL     OW26581   4.516   6.604   3.475
 8561SOL    HW126582   4.514   6.704   3.482
 8561SOL    HW226583   4.596   6.576   3.422
 8562SOL     OW26584   3.135   6.380   3.868
 8562SOL    HW126585   3.212   6.396   3.806
 8562SOL    HW226586   3.156   6.304   3.929
 8563SOL     OW26587   3.125   2.640   6.778
 8563SOL    HW126588   3.219   2.607   6.781
 8563SOL    HW226589   3.121   2.724   6.723
 8564SOL     OW26590   1.350   0.132   3.670
 8564SOL    HW126591   1.353   0.212   3.610
 8564SOL    HW226592   1.385   0.156   3.761
 8565SOL     OW26593   3.641   6.527   1.228
 8565SOL    HW126594   3.737   6.516   1.204
 8565SOL    HW226595   3.629   6.613   1.278
 8566SOL     OW26596   1.718   2.434   3.652
 8566SOL    HW126597   1.759   2.344   3.636
 8566SOL    HW226598   1.703   2.480   3.565
 8567SOL     OW26599   5.115   1.002   1.450
 8567SOL    HW126600   5.058   1.060   1.393
 8567SOL    HW226601   5.116   1.037   1.543
 8568SOL     OW26602   5.463   1.153   0.231
 8568SOL    HW126603   5.556   1.188   0.235
 8568SOL    HW226604   5.423   1.151   0.323
 8569SOL     OW26605   4.183   1.249   4.408
 8569SOL    HW126606   4.219   1.197   4.485
 8569SOL    HW226607   4.256   1.305   4.368
 8570SOL     OW26608   0.123   4.389   0.089
 8570SOL    HW126609   0.160   4.310   0.138
 8570SOL    HW226610   0.036   4.363   0.046
 8571SOL     OW26611   0.015   4.237   5.149
 8571SOL    HW126612   0.013   4.147   5.105
 8571SOL    HW226613   0.093   4.289   5.115
 8572SOL     OW26614   2.554   5.082   5.074
 8572SOL    HW126615   2.644   5.109   5.107
 8572SOL    HW226616   2.556   4.986   5.047
 8573SOL     OW26617   3.109   5.947   5.523
 8573SOL    HW126618   3.118   5.892   5.440
 8573SOL    HW226619   3.170   5.911   5.594
 8574SOL     OW26620   0.906   3.751   5.346
 8574SOL    HW126621   0.961   3.806   5.283
 8574SOL    HW226622   0.959   3.732   5.429
 8575SOL     OW26623   3.418   2.601   0.486
 8575SOL    HW126624   3.439   2.602   0.389
 8575SOL    HW226625   3.320   2.584   0.499
 8576SOL     OW26626   1.523   6.806   1.351
 8576SOL    HW126627   1.488   6.878   1.291
 8576SOL    HW226628   1.540   6.723   1.297
 8577SOL     OW26629   6.498   6.059   3.419
 8577SOL    HW126630   6.478   6.156   3.435
 8577SOL    HW226631   6.579   6.051   3.360
 8578SOL     OW26632   4.064   6.847   3.601
 8578SOL    HW126633   4.120   6.922   3.637
 8578SOL    HW226634   4.090   6.827   3.507
 8579SOL     OW26635   1.227   5.021   3.149
 8579SOL    HW126636   1.132   5.051   3.152
 8579SOL    HW226637   1.283   5.082   3.205
 8580SOL     OW26638   1.963   5.158   0.274
 8580SOL    HW126639   2.056   5.172   0.240
 8580SOL    HW226640   1.898   5.182   0.203
 8581SOL     OW26641   3.379   1.785   1.250
 8581SOL    HW126642   3.429   1.699   1.251
 8581SOL    HW226643   3.428   1.853   1.303
 8582SOL     OW26644   4.307   4.079   1.629
 8582SOL    HW126645   4.349   4.140   1.695
 8582SOL    HW226646   4.295   4.127   1.542
 8583SOL     OW26647   6.024   6.980   6.256
 8583SOL    HW126648   6.083   6.983   6.337
 8583SOL    HW226649   6.059   6.912   6.192
 8584SOL     OW26650   6.698   5.933   0.842
 8584SOL    HW126651   6.778   5.899   0.891
 8584SOL    HW226652   6.618   5.880   0.868
 8585SOL     OW26653   0.281   1.099   0.216
 8585SOL    HW126654   0.224   1.031   0.263
 8585SOL    HW226655   0.262   1.096   0.118
 8586SOL     OW26656   3.881   5.748   3.350
 8586SOL    HW126657   3.880   5.797   3.263
 8586SOL    HW226658   3.881   5.814   3.426
 8587SOL     OW26659   0.170   2.139   1.649
 8587SOL    HW126660   0.238   2.211   1.633
 8587SOL    HW226661   0.078   2.176   1.636
 8588SOL     OW26662   4.797   2.814   0.111
 8588SOL    HW126663   4.866   2.742   0.110
 8588SOL    HW226664   4.842   2.903   0.107
 8589SOL     OW26665   3.367   2.080   4.547
 8589SOL    HW126666   3.344   2.080   4.644
 8589SOL    HW226667   3.285   2.062   4.493
 8590SOL     OW26668   6.058   5.110   5.513
 8590SOL    HW126669   6.031   5.035   5.453
 8590SOL    HW226670   6.019   5.196   5.479
 8591SOL     OW26671   1.234   3.356   6.895
 8591SOL    HW126672   1.293   3.324   6.821
 8591SOL    HW226673   1.228   3.455   6.893
 8592SOL     OW26674   5.983   4.538   0.082
 8592SOL    HW126675   6.033   4.622   0.058
 8592SOL    HW226676   5.892   4.562   0.116
 8593SOL     OW26677   1.086   0.506   2.636
 8593SOL    HW126678   1.085   0.600   2.669
 8593SOL    HW226679   1.016   0.453   2.684
 8594SOL     OW26680   3.504   3.566   4.376
 8594SOL    HW126681   3.488   3.660   4.405
 8594SOL    HW226682   3.419   3.527   4.340
 8595SOL     OW26683   1.687   1.808   2.739
 8595SOL    HW126684   1.611   1.791   2.678
 8595SOL    HW226685   1.759   1.858   2.691
 8596SOL     OW26686   6.143   5.376   1.482
 8596SOL    HW126687   6.161   5.286   1.442
 8596SOL    HW226688   6.079   5.426   1.424
 8597SOL     OW26689   2.446   1.427   0.991
 8597SOL    HW126690   2.422   1.383   1.078
 8597SOL    HW226691   2.489   1.515   1.009
 8598SOL     OW26692   5.715   5.338   0.942
 8598SOL    HW126693   5.725   5.420   0.998
 8598SOL    HW226694   5.703   5.258   1.001
 8599SOL     OW26695   1.952   2.713   2.801
 8599SOL    HW126696   1.941   2.768   2.883
 8599SOL    HW226697   1.920   2.619   2.820
 8600SOL     OW26698   6.512   4.364   6.606
 8600SOL    HW126699   6.422   4.320   6.607
 8600SOL    HW226700   6.519   4.422   6.525
 8601SOL     OW26701   0.251   0.070   4.441
 8601SOL    HW126702   0.282   0.165   4.451
 8601SOL    HW226703   0.244   0.028   4.532
 8602SOL     OW26704   2.872   5.275   2.450
 8602SOL    HW126705   2.860   5.339   2.374
 8602SOL    HW226706   2.813   5.195   2.436
 8603SOL     OW26707   4.069   3.381   0.720
 8603SOL    HW126708   4.139   3.356   0.787
 8603SOL    HW226709   4.002   3.307   0.713
 8604SOL     OW26710   5.124   2.906   3.743
 8604SOL    HW126711   5.120   2.985   3.804
 8604SOL    HW226712   5.187   2.838   3.780
 8605SOL     OW26713   2.353   6.066   2.550
 8605SOL    HW126714   2.323   6.017   2.632
 8605SOL    HW226715   2.288   6.050   2.475
 8606SOL     OW26716   3.808   4.554   5.791
 8606SOL    HW126717   3.721   4.568   5.742
 8606SOL    HW226718   3.858   4.478   5.750
 8607SOL     OW26719   4.683   5.583   1.447
 8607SOL    HW126720   4.732   5.667   1.425
 8607SOL    HW226721   4.633   5.595   1.532
 8608SOL     OW26722   4.671   5.905   2.054
 8608SOL    HW126723   4.674   5.899   2.154
 8608SOL    HW226724   4.700   5.818   2.014
 8609SOL     OW26725   3.508   0.714   5.358
 8609SOL    HW126726   3.430   0.725   5.296
 8609SOL    HW226727   3.580   0.662   5.311
 8610SOL     OW26728   0.720   6.171   4.167
 8610SOL    HW126729   0.761   6.112   4.097
 8610SOL    HW226730   0.676   6.115   4.237
 8611SOL     OW26731   2.140   2.032   3.906
 8611SOL    HW126732   2.189   2.009   3.989
 8611SOL    HW226733   2.201   2.078   3.842
 8612SOL     OW26734   4.285   2.959   5.396
 8612SOL    HW126735   4.344   3.007   5.461
 8612SOL    HW226736   4.196   3.005   5.392
 8613SOL     OW26737   1.603   1.553   1.281
 8613SOL    HW126738   1.598   1.652   1.294
 8613SOL    HW226739   1.523   1.522   1.229
 8614SOL     OW26740   0.944   1.895   3.449
 8614SOL    HW126741   0.919   1.798   3.454
 8614SOL    HW226742   0.916   1.932   3.361
 8615SOL     OW26743   4.398   2.355   5.217
 8615SOL    HW126744   4.379   2.313   5.306
 8615SOL    HW226745   4.313   2.383   5.174
 8616SOL     OW26746   1.015   4.482   0.332
 8616SOL    HW126747   1.093   4.504   0.390
 8616SOL    HW226748   0.934   4.468   0.390
 8617SOL     OW26749   5.982   2.431   1.199
 8617SOL    HW126750   5.975   2.483   1.284
 8617SOL    HW226751   6.020   2.340   1.218
 8618SOL     OW26752   4.765   0.190   3.463
 8618SOL    HW126753   4.738   0.189   3.367
 8618SOL    HW226754   4.851   0.140   3.474
 8619SOL     OW26755   4.550   5.231   6.922
 8619SOL    HW126756   4.513   5.313   6.964
 8619SOL    HW226757   4.529   5.152   6.979
 8620SOL     OW26758   6.768   6.111   3.284
 8620SOL    HW126759   6.777   6.043   3.212
 8620SOL    HW226760   6.856   6.156   3.299
 8621SOL     OW26761   5.804   0.725   3.504
 8621SOL    HW126762   5.763   0.673   3.579
 8621SOL    HW226763   5.879   0.672   3.465
 8622SOL     OW26764   4.753   5.590   0.302
 8622SOL    HW126765   4.702   5.674   0.286
 8622SOL    HW226766   4.831   5.609   0.361
 8623SOL     OW26767   6.790   3.513   2.926
 8623SOL    HW126768   6.873   3.484   2.879
 8623SOL    HW226769   6.727   3.555   2.860
 8624SOL     OW26770   0.503   4.121   2.886
 8624SOL    HW126771   0.403   4.117   2.890
 8624SOL    HW226772   0.541   4.090   2.973
 8625SOL     OW26773   3.583   0.328   4.649
 8625SOL    HW126774   3.620   0.388   4.720
 8625SOL    HW226775   3.567   0.380   4.566
 8626SOL     OW26776   2.876   3.424   3.402
 8626SOL    HW126777   2.895   3.510   3.355
 8626SOL    HW226778   2.932   3.351   3.361
 8627SOL     OW26779   1.677   6.992   0.007
 8627SOL    HW126780   1.687   6.947   0.096
 8627SOL    HW226781   1.582   0.001   7.017
 8628SOL     OW26782   5.269   0.864   6.699
 8628SOL    HW126783   5.212   0.818   6.768
 8628SOL    HW226784   5.363   0.867   6.731
 8629SOL     OW26785   1.484   3.942   4.095
 8629SOL    HW126786   1.515   4.034   4.118
 8629SOL    HW226787   1.564   3.884   4.079
 8630SOL     OW26788   5.556   4.709   3.726
 8630SOL    HW126789   5.611   4.704   3.809
 8630SOL    HW226790   5.460   4.726   3.750
 8631SOL     OW26791   3.863   5.838   5.228
 8631SOL    HW126792   3.788   5.785   5.268
 8631SOL    HW226793   3.825   5.920   5.185
 8632SOL     OW26794   4.027   0.091   3.365
 8632SOL    HW126795   4.009   0.157   3.438
 8632SOL    HW226796   4.117   0.108   3.326
 8633SOL     OW26797   6.280   1.072   3.698
 8633SOL    HW126798   6.221   1.003   3.742
 8633SOL    HW226799   6.275   1.157   3.750
 8634SOL     OW26800   6.431   5.172   1.839
 8634SOL    HW126801   6.423   5.174   1.939
 8634SOL    HW226802   6.525   5.192   1.813
 8635SOL     OW26803   6.041   3.827   5.387
 8635SOL    HW126804   5.981   3.869   5.319
 8635SOL    HW226805   5.985   3.786   5.459
 8636SOL     OW26806   6.465   5.778   0.995
 8636SOL    HW126807   6.429   5.830   1.072
 8636SOL    HW226808   6.390   5.753   0.934
 8637SOL     OW26809   2.326   0.655   0.961
 8637SOL    HW126810   2.237   0.622   0.929
 8637SOL    HW226811   2.313   0.719   1.037
 8638SOL     OW26812   3.424   4.651   0.258
 8638SOL    HW126813   3.345   4.683   0.205
 8638SOL    HW226814   3.507   4.694   0.224
 8639SOL     OW26815   6.363   3.633   1.843
 8639SOL    HW126816   6.428   3.557   1.849
 8639SOL    HW226817   6.367   3.687   1.927
 8640SOL     OW26818   5.020   5.659   0.995
 8640SOL    HW126819   5.064   5.749   0.988
 8640SOL    HW226820   5.070   5.592   0.940
 8641SOL     OW26821   5.917   4.365   3.069
 8641SOL    HW126822   5.923   4.309   2.986
 8641SOL    HW226823   5.844   4.330   3.128
 8642SOL     OW26824   4.109   1.485   1.466
 8642SOL    HW126825   4.055   1.557   1.509
 8642SOL    HW226826   4.186   1.461   1.525
 8643SOL     OW26827   5.108   0.254   5.901
 8643SOL    HW126828   5.150   0.278   5.814
 8643SOL    HW226829   5.033   0.189   5.885
 8644SOL     OW26830   6.534   3.373   5.250
 8644SOL    HW126831   6.614   3.338   5.299
 8644SOL    HW226832   6.490   3.445   5.305
 8645SOL     OW26833   5.981   4.794   1.588
 8645SOL    HW126834   5.921   4.716   1.567
 8645SOL    HW226835   6.075   4.762   1.594
 8646SOL     OW26836   5.260   0.949   0.550
 8646SOL    HW126837   5.275   1.041   0.515
 8646SOL    HW226838   5.266   0.949   0.650
 8647SOL     OW26839   4.322   5.130   0.469
 8647SOL    HW126840   4.289   5.212   0.423
 8647SOL    HW226841   4.421   5.139   0.485
 8648SOL     OW26842   5.417   1.289   3.981
 8648SOL    HW126843   5.494   1.346   3.953
 8648SOL    HW226844   5.366   1.260   3.901
 8649SOL     OW26845   6.283   4.393   5.708
 8649SOL    HW126846   6.344   4.376   5.631
 8649SOL    HW226847   6.188   4.385   5.678
 8650SOL     OW26848   2.082   4.794   3.141
 8650SOL    HW126849   2.129   4.721   3.191
 8650SOL    HW226850   2.145   4.838   3.078
 8651SOL     OW26851   3.258   1.503   0.351
 8651SOL    HW126852   3.327   1.433   0.371
 8651SOL    HW226853   3.227   1.544   0.437
 8652SOL     OW26854   1.815   3.587   3.695
 8652SOL    HW126855   1.736   3.535   3.661
 8652SOL    HW226856   1.790   3.634   3.779
 8653SOL     OW26857   0.331   3.227   0.026
 8653SOL    HW126858   0.324   3.220   6.947
 8653SOL    HW226859   0.249   3.272   0.061
 8654SOL     OW26860   0.566   0.101   3.316
 8654SOL    HW126861   0.531   0.185   3.357
 8654SOL    HW226862   0.665   0.108   3.303
 8655SOL     OW26863   6.305   6.376   4.680
 8655SOL    HW126864   6.279   6.423   4.765
 8655SOL    HW226865   6.281   6.279   4.687
 8656SOL     OW26866   6.090   1.612   1.036
 8656SOL    HW126867   6.093   1.702   0.995
 8656SOL    HW226868   6.157   1.606   1.110
 8657SOL     OW26869   4.162   3.962   6.751
 8657SOL    HW126870   4.078   4.003   6.714
 8657SOL    HW226871   4.241   3.996   6.699
 8658SOL     OW26872   6.261   5.307   7.018
 8658SOL    HW126873   6.289   5.377   0.063
 8658SOL    HW226874   6.172   5.330   6.980
 8659SOL     OW26875   5.410   0.695   4.331
 8659SOL    HW126876   5.432   0.778   4.279
 8659SOL    HW226877   5.480   0.626   4.313
 8660SOL     OW26878   5.788   3.844   1.187
 8660SOL    HW126879   5.716   3.904   1.152
 8660SOL    HW226880   5.838   3.804   1.111
 8661SOL     OW26881   6.977   3.965   1.366
 8661SOL    HW126882   0.016   3.898   1.321
 8661SOL    HW226883   7.008   3.979   1.460
 8662SOL     OW26884   6.916   6.853   0.933
 8662SOL    HW126885   6.910   6.891   1.026
 8662SOL    HW226886   7.007   6.869   0.896
 8663SOL     OW26887   2.218   5.270   0.415
 8663SOL    HW126888   2.159   5.342   0.450
 8663SOL    HW226889   2.267   5.227   0.491
 8664SOL     OW26890   4.530   5.829   6.921
 8664SOL    HW126891   4.585   5.913   6.921
 8664SOL    HW226892   4.574   5.761   6.863
 8665SOL     OW26893   5.164   5.641   5.675
 8665SOL    HW126894   5.098   5.694   5.621
 8665SOL    HW226895   5.243   5.620   5.619
 8666SOL     OW26896   5.321   2.486   4.552
 8666SOL    HW126897   5.342   2.584   4.547
 8666SOL    HW226898   5.345   2.452   4.643
 8667SOL     OW26899   5.004   1.303   4.241
 8667SOL    HW126900   5.089   1.353   4.224
 8667SOL    HW226901   4.955   1.290   4.155
 8668SOL     OW26902   3.898   2.152   4.516
 8668SOL    HW126903   3.968   2.168   4.445
 8668SOL    HW226904   3.864   2.059   4.508
 8669SOL     OW26905   4.207   0.522   5.507
 8669SOL    HW126906   4.180   0.564   5.593
 8669SOL    HW226907   4.224   0.593   5.439
 8670SOL     OW26908   3.886   5.386   4.312
 8670SOL    HW126909   3.880   5.461   4.378
 8670SOL    HW226910   3.830   5.408   4.232
 8671SOL     OW26911   5.821   6.911   3.625
 8671SOL    HW126912   5.799   6.824   3.668
 8671SOL    HW226913   5.912   6.941   3.653
 8672SOL     OW26914   3.873   4.898   4.375
 8672SOL    HW126915   3.935   4.885   4.452
 8672SOL    HW226916   3.889   4.828   4.306
 8673SOL     OW26917   6.003   1.898   0.620
 8673SOL    HW126918   5.987   1.970   0.552
 8673SOL    HW226919   6.023   1.938   0.709
 8674SOL     OW26920   6.891   6.950   2.907
 8674SOL    HW126921   6.991   6.950   2.907
 8674SOL    HW226922   6.857   6.857   2.897
 8675SOL     OW26923   2.093   1.164   2.691
 8675SOL    HW126924   2.134   1.139   2.604
 8675SOL    HW226925   2.156   1.143   2.765
 8676SOL     OW26926   4.670   6.781   2.657
 8676SOL    HW126927   4.673   6.681   2.665
 8676SOL    HW226928   4.587   6.815   2.702
 8677SOL     OW26929   2.618   4.946   5.506
 8677SOL    HW126930   2.658   4.854   5.508
 8677SOL    HW226931   2.525   4.940   5.470
 8678SOL     OW26932   0.980   6.983   6.588
 8678SOL    HW126933   1.017   6.898   6.626
 8678SOL    HW226934   1.047   0.004   6.527
 8679SOL     OW26935   6.517   2.598   5.101
 8679SOL    HW126936   6.558   2.629   5.187
 8679SOL    HW226937   6.444   2.532   5.121
 8680SOL     OW26938   1.483   3.929   6.767
 8680SOL    HW126939   1.393   3.953   6.801
 8680SOL    HW226940   1.483   3.834   6.736
 8681SOL     OW26941   3.441   3.971   0.684
 8681SOL    HW126942   3.533   3.962   0.721
 8681SOL    HW226943   3.434   4.057   0.632
 8682SOL     OW26944   2.491   6.361   3.069
 8682SOL    HW126945   2.506   6.459   3.061
 8682SOL    HW226946   2.579   6.313   3.062
 8683SOL     OW26947   6.778   3.204   0.690
 8683SOL    HW126948   6.743   3.184   0.598
 8683SOL    HW226949   6.877   3.194   0.690
 8684SOL     OW26950   5.886   3.713   4.539
 8684SOL    HW126951   5.931   3.736   4.453
 8684SOL    HW226952   5.819   3.640   4.523
 8685SOL     OW26953   0.612   2.346   6.008
 8685SOL    HW126954   0.552   2.303   6.076
 8685SOL    HW226955   0.701   2.300   6.009
 8686SOL     OW26956   6.706   2.192   3.283
 8686SOL    HW126957   6.632   2.258   3.275
 8686SOL    HW226958   6.720   2.145   3.196
 8687SOL     OW26959   3.580   7.016   2.976
 8687SOL    HW126960   3.522   7.021   2.895
 8687SOL    HW226961   3.631   0.081   2.986
 8688SOL     OW26962   2.595   0.322   1.570
 8688SOL    HW126963   2.556   0.363   1.652
 8688SOL    HW226964   2.537   0.247   1.539
 8689SOL     OW26965   4.953   5.791   0.087
 8689SOL    HW126966   4.950   5.873   0.030
 8689SOL    HW226967   4.944   5.817   0.183
 8690SOL     OW26968   0.396   1.095   3.113
 8690SOL    HW126969   0.365   1.184   3.081
 8690SOL    HW226970   0.475   1.066   3.060
 8691SOL     OW26971   5.510   2.049   0.035
 8691SOL    HW126972   5.439   2.095   7.002
 8691SOL    HW226973   5.499   1.950   0.027
 8692SOL     OW26974   2.342   1.520   4.117
 8692SOL    HW126975   2.326   1.604   4.169
 8692SOL    HW226976   2.283   1.519   4.036
 8693SOL     OW26977   5.511   1.990   0.978
 8693SOL    HW126978   5.564   2.038   1.047
 8693SOL    HW226979   5.455   1.919   1.022
 8694SOL     OW26980   4.757   6.984   6.040
 8694SOL    HW126981   4.661   7.004   6.060
 8694SOL    HW226982   4.780   6.894   6.077
 8695SOL     OW26983   4.721   4.354   5.802
 8695SOL    HW126984   4.802   4.398   5.841
 8695SOL    HW226985   4.719   4.371   5.703
 8696SOL     OW26986   2.470   5.769   1.552
 8696SOL    HW126987   2.451   5.783   1.455
 8696SOL    HW226988   2.568   5.781   1.570
 8697SOL     OW26989   6.360   4.116   0.332
 8697SOL    HW126990   6.383   4.022   0.354
 8697SOL    HW226991   6.444   4.171   0.328
 8698SOL     OW26992   5.459   6.091   4.310
 8698SOL    HW126993   5.378   6.057   4.357
 8698SOL    HW226994   5.510   6.015   4.271
 8699SOL     OW26995   1.459   1.824   5.401
 8699SOL    HW126996   1.505   1.800   5.316
 8699SOL    HW226997   1.403   1.746   5.432
 8700SOL     OW26998   3.093   1.263   5.407
 8700SOL    HW126999   3.030   1.226   5.475
 8700SOL    HW227000   3.098   1.362   5.415
 8701SOL     OW27001   0.568   1.672   4.741
 8701SOL    HW127002   0.581   1.677   4.840
 8701SOL    HW227003   0.503   1.599   4.720
 8702SOL     OW27004   5.533   5.368   0.145
 8702SOL    HW127005   5.585   5.283   0.148
 8702SOL    HW227006   5.496   5.387   0.236
 8703SOL     OW27007   2.512   5.842   0.808
 8703SOL    HW127008   2.437   5.823   0.744
 8703SOL    HW227009   2.479   5.829   0.902
 8704SOL     OW27010   0.091   4.576   2.104
 8704SOL    HW127011   0.150   4.629   2.166
 8704SOL    HW227012   0.107   4.479   2.119
 8705SOL     OW27013   5.066   0.144   6.195
 8705SOL    HW127014   5.073   0.144   6.095
 8705SOL    HW227015   5.071   0.238   6.228
 8706SOL     OW27016   5.159   1.936   0.214
 8706SOL    HW127017   5.242   1.985   0.240
 8706SOL    HW227018   5.098   1.931   0.293
 8707SOL     OW27019   5.087   2.804   6.206
 8707SOL    HW127020   5.132   2.884   6.246
 8707SOL    HW227021   5.117   2.793   6.112
 8708SOL     OW27022   3.998   1.377   1.129
 8708SOL    HW127023   4.096   1.361   1.139
 8708SOL    HW227024   3.983   1.449   1.062
 8709SOL     OW27025   6.395   4.077   0.962
 8709SOL    HW127026   6.485   4.048   0.994
 8709SOL    HW227027   6.324   4.024   1.009
 8710SOL     OW27028   2.231   3.042   3.563
 8710SOL    HW127029   2.267   2.951   3.582
 8710SOL    HW227030   2.272   3.077   3.478
 8711SOL     OW27031   6.740   0.891   3.089
 8711SOL    HW127032   6.650   0.892   3.046
 8711SOL    HW227033   6.740   0.953   3.168
 8712SOL     OW27034   3.532   1.415   5.121
 8712SOL    HW127035   3.551   1.437   5.026
 8712SOL    HW227036   3.614   1.377   5.164
 8713SOL     OW27037   6.761   4.729   3.889
 8713SOL    HW127038   6.769   4.828   3.876
 8713SOL    HW227039   6.812   4.682   3.817
 8714SOL     OW27040   1.823   0.905   5.595
 8714SOL    HW127041   1.808   0.817   5.550
 8714SOL    HW227042   1.765   0.911   5.676
 8715SOL     OW27043   6.458   2.108   1.628
 8715SOL    HW127044   6.376   2.165   1.615
 8715SOL    HW227045   6.430   2.020   1.666
 8716SOL     OW27046   1.278   1.413   1.412
 8716SOL    HW127047   1.214   1.486   1.387
 8716SOL    HW227048   1.231   1.325   1.405
 8717SOL     OW27049   4.191   3.597   1.750
 8717SOL    HW127050   4.258   3.644   1.692
 8717SOL    HW227051   4.188   3.641   1.840
 8718SOL     OW27052   6.550   3.010   5.198
 8718SOL    HW127053   6.489   3.088   5.189
 8718SOL    HW227054   6.645   3.042   5.197
 8719SOL     OW27055   0.695   0.218   5.321
 8719SOL    HW127056   0.708   0.153   5.396
 8719SOL    HW227057   0.768   0.207   5.254
 8720SOL     OW27058   5.733   4.567   5.339
 8720SOL    HW127059   5.700   4.479   5.372
 8720SOL    HW227060   5.692   4.586   5.250
 8721SOL     OW27061   7.016   2.214   4.467
 8721SOL    HW127062   6.961   2.132   4.447
 8721SOL    HW227063   7.020   2.229   4.565
 8722SOL     OW27064   3.831   2.487   0.586
 8722SOL    HW127065   3.738   2.472   0.622
 8722SOL    HW227066   3.869   2.569   0.628
 8723SOL     OW27067   6.984   5.598   1.397
 8723SOL    HW127068   6.949   5.687   1.369
 8723SOL    HW227069   0.019   5.559   1.324
 8724SOL     OW27070   5.549   0.260   5.455
 8724SOL    HW127071   5.613   0.240   5.381
 8724SOL    HW227072   5.483   0.185   5.464
 8725SOL     OW27073   2.057   6.657   0.321
 8725SOL    HW127074   2.022   6.600   0.395
 8725SOL    HW227075   2.144   6.620   0.289
 8726SOL     OW27076   5.925   0.318   1.480
 8726SOL    HW127077   5.828   0.341   1.494
 8726SOL    HW227078   5.963   0.378   1.410
 8727SOL     OW27079   6.430   6.325   1.356
 8727SOL    HW127080   6.521   6.307   1.394
 8727SOL    HW227081   6.412   6.423   1.360
 8728SOL     OW27082   2.842   6.736   5.005
 8728SOL    HW127083   2.861   6.833   5.023
 8728SOL    HW227084   2.743   6.725   4.990
 8729SOL     OW27085   4.587   5.878   3.632
 8729SOL    HW127086   4.629   5.967   3.616
 8729SOL    HW227087   4.540   5.848   3.548
 8730SOL     OW27088   0.192   6.044   2.197
 8730SOL    HW127089   0.123   6.062   2.267
 8730SOL    HW227090   0.218   6.130   2.154
 8731SOL     OW27091   1.154   1.724   2.938
 8731SOL    HW127092   1.230   1.786   2.960
 8731SOL    HW227093   1.105   1.759   2.859
 8732SOL     OW27094   5.730   3.722   1.661
 8732SOL    HW127095   5.713   3.770   1.574
 8732SOL    HW227096   5.707   3.626   1.650
 8733SOL     OW27097   1.100   6.144   1.481
 8733SOL    HW127098   1.131   6.234   1.450
 8733SOL    HW227099   1.007   6.129   1.448
 8734SOL     OW27100   0.027   6.169   1.348
 8734SOL    HW127101   0.112   6.203   1.308
 8734SOL    HW227102   6.984   6.245   1.362
 8735SOL     OW27103   7.015   2.091   6.611
 8735SOL    HW127104   0.056   2.088   6.532
 8735SOL    HW227105   6.973   2.001   6.623
 8736SOL     OW27106   0.718   4.871   6.668
 8736SOL    HW127107   0.810   4.846   6.637
 8736SOL    HW227108   0.724   4.952   6.726
 8737SOL     OW27109   3.500   5.991   6.279
 8737SOL    HW127110   3.416   5.939   6.290
 8737SOL    HW227111   3.552   5.954   6.202
 8738SOL     OW27112   1.306   3.434   3.811
 8738SOL    HW127113   1.374   3.437   3.884
 8738SOL    HW227114   1.219   3.404   3.847
 8739SOL     OW27115   0.205   3.562   5.468
 8739SOL    HW127116   0.144   3.600   5.538
 8739SOL    HW227117   0.260   3.489   5.508
 8740SOL     OW27118   3.300   6.567   0.605
 8740SOL    HW127119   3.289   6.667   0.610
 8740SOL    HW227120   3.372   6.545   0.540
 8741SOL     OW27121   1.745   3.300   2.663
 8741SOL    HW127122   1.773   3.357   2.741
 8741SOL    HW227123   1.734   3.357   2.582
 8742SOL     OW27124   4.192   0.135   1.508
 8742SOL    HW127125   4.140   0.220   1.500
 8742SOL    HW227126   4.148   0.064   1.453
 8743SOL     OW27127   2.448   5.241   2.457
 8743SOL    HW127128   2.476   5.172   2.389
 8743SOL    HW227129   2.490   5.329   2.434
 8744SOL     OW27130   4.121   2.245   6.232
 8744SOL    HW127131   4.173   2.327   6.257
 8744SOL    HW227132   4.025   2.258   6.255
 8745SOL     OW27133   6.071   2.576   5.897
 8745SOL    HW127134   6.147   2.513   5.908
 8745SOL    HW227135   6.093   2.642   5.824
 8746SOL     OW27136   5.083   5.059   5.767
 8746SOL    HW127137   5.165   5.021   5.809
 8746SOL    HW227138   5.104   5.089   5.674
 8747SOL     OW27139   1.786   2.346   3.930
 8747SOL    HW127140   1.811   2.340   3.834
 8747SOL    HW227141   1.696   2.389   3.939
 8748SOL     OW27142   1.443   0.410   6.872
 8748SOL    HW127143   1.354   0.394   6.915
 8748SOL    HW227144   1.432   0.415   6.772
 8749SOL     OW27145   4.171   0.416   3.460
 8749SOL    HW127146   4.146   0.414   3.363
 8749SOL    HW227147   4.112   0.481   3.508
 8750SOL     OW27148   2.172   1.574   5.220
 8750SOL    HW127149   2.201   1.492   5.169
 8750SOL    HW227150   2.073   1.571   5.234
 8751SOL     OW27151   1.495   0.008   2.722
 8751SOL    HW127152   1.569   6.966   2.699
 8751SOL    HW227153   1.530   0.102   2.723
 8752SOL     OW27154   1.607   2.446   6.129
 8752SOL    HW127155   1.637   2.491   6.045
 8752SOL    HW227156   1.602   2.347   6.114
 8753SOL     OW27157   5.146   1.706   4.823
 8753SOL    HW127158   5.235   1.751   4.813
 8753SOL    HW227159   5.118   1.710   4.919
 8754SOL     OW27160   1.706   1.832   5.932
 8754SOL    HW127161   1.618   1.872   5.906
 8754SOL    HW227162   1.777   1.861   5.868
 8755SOL     OW27163   2.236   1.676   0.567
 8755SOL    HW127164   2.274   1.591   0.532
 8755SOL    HW227165   2.240   1.676   0.667
 8756SOL     OW27166   2.216   3.048   4.216
 8756SOL    HW127167   2.167   2.976   4.264
 8756SOL    HW227168   2.207   3.034   4.117
 8757SOL     OW27169   4.437   6.331   4.873
 8757SOL    HW127170   4.362   6.316   4.937
 8757SOL    HW227171   4.464   6.244   4.832
 8758SOL     OW27172   6.273   6.736   1.225
 8758SOL    HW127173   6.320   6.692   1.302
 8758SOL    HW227174   6.212   6.670   1.181
 8759SOL     OW27175   5.017   0.463   5.684
 8759SOL    HW127176   5.106   0.419   5.674
 8759SOL    HW227177   5.015   0.547   5.630
 8760SOL     OW27178   1.634   1.705   4.084
 8760SOL    HW127179   1.660   1.743   3.995
 8760SOL    HW227180   1.541   1.735   4.107
 8761SOL     OW27181   4.369   6.786   0.022
 8761SOL    HW127182   4.321   6.737   0.096
 8761SOL    HW227183   4.345   6.883   0.026
 8762SOL     OW27184   1.157   4.327   1.156
 8762SOL    HW127185   1.075   4.306   1.103
 8762SOL    HW227186   1.133   4.389   1.231
 8763SOL     OW27187   0.279   6.469   6.147
 8763SOL    HW127188   0.235   6.529   6.215
 8763SOL    HW227189   0.286   6.377   6.185
 8764SOL     OW27190   4.170   1.855   4.905
 8764SOL    HW127191   4.252   1.799   4.889
 8764SOL    HW227192   4.128   1.828   4.992
 8765SOL     OW27193   5.785   0.395   4.549
 8765SOL    HW127194   5.739   0.483   4.566
 8765SOL    HW227195   5.843   0.402   4.468
 8766SOL     OW27196   1.888   4.552   2.369
 8766SOL    HW127197   1.886   4.518   2.463
 8766SOL    HW227198   1.974   4.599   2.352
 8767SOL     OW27199   4.335   0.653   3.756
 8767SOL    HW127200   4.410   0.593   3.781
 8767SOL    HW227201   4.348   0.743   3.799
 8768SOL     OW27202   1.952   3.155   0.188
 8768SOL    HW127203   1.924   3.125   0.279
 8768SOL    HW227204   1.897   3.108   0.119
 8769SOL     OW27205   1.985   6.957   5.882
 8769SOL    HW127206   1.959   7.017   5.957
 8769SOL    HW227207   2.033   6.877   5.918
 8770SOL     OW27208   5.260   3.068   1.531
 8770SOL    HW127209   5.291   3.058   1.625
 8770SOL    HW227210   5.164   3.096   1.530
 8771SOL     OW27211   1.099   1.672   6.266
 8771SOL    HW127212   1.180   1.712   6.224
 8771SOL    HW227213   1.060   1.602   6.205
 8772SOL     OW27214   5.666   1.308   6.686
 8772SOL    HW127215   5.717   1.394   6.691
 8772SOL    HW227216   5.591   1.318   6.620
 8773SOL     OW27217   2.458   2.632   2.990
 8773SOL    HW127218   2.362   2.630   3.016
 8773SOL    HW227219   2.466   2.635   2.890
 8774SOL     OW27220   1.322   1.204   1.086
 8774SOL    HW127221   1.252   1.175   1.151
 8774SOL    HW227222   1.370   1.123   1.050
 8775SOL     OW27223   6.407   0.058   3.648
 8775SOL    HW127224   6.474   0.125   3.679
 8775SOL    HW227225   6.327   0.106   3.610
 8776SOL     OW27226   3.485   3.003   5.123
 8776SOL    HW127227   3.465   3.094   5.159
 8776SOL    HW227228   3.426   2.935   5.167
 8777SOL     OW27229   6.284   6.295   1.821
 8777SOL    HW127230   6.318   6.261   1.734
 8777SOL    HW227231   6.344   6.264   1.895
 8778SOL     OW27232   0.466   2.344   3.796
 8778SOL    HW127233   0.478   2.367   3.892
 8778SOL    HW227234   0.401   2.269   3.787
 8779SOL     OW27235   0.706   5.077   0.693
 8779SOL    HW127236   0.725   4.984   0.724
 8779SOL    HW227237   0.609   5.097   0.704
 8780SOL     OW27238   1.164   5.678   4.390
 8780SOL    HW127239   1.260   5.691   4.415
 8780SOL    HW227240   1.156   5.600   4.328
 8781SOL     OW27241   0.767   2.048   2.676
 8781SOL    HW127242   0.836   2.067   2.747
 8781SOL    HW227243   0.769   2.122   2.608
 8782SOL     OW27244   4.677   1.134   3.212
 8782SOL    HW127245   4.661   1.188   3.296
 8782SOL    HW227246   4.710   1.195   3.140
 8783SOL     OW27247   5.667   3.513   4.533
 8783SOL    HW127248   5.702   3.420   4.545
 8783SOL    HW227249   5.585   3.511   4.476
 8784SOL     OW27250   5.270   5.046   5.527
 8784SOL    HW127251   5.208   5.056   5.450
 8784SOL    HW227252   5.291   5.137   5.564
 8785SOL     OW27253   6.141   4.842   6.582
 8785SOL    HW127254   6.168   4.902   6.658
 8785SOL    HW227255   6.103   4.897   6.508
 8786SOL     OW27256   1.985   6.938   0.314
 8786SOL    HW127257   2.041   6.858   0.337
 8786SOL    HW227258   1.890   6.910   0.300
 8787SOL     OW27259   1.451   3.641   0.842
 8787SOL    HW127260   1.436   3.631   0.744
 8787SOL    HW227261   1.402   3.721   0.876
 8788SOL     OW27262   1.271   1.672   5.493
 8788SOL    HW127263   1.252   1.574   5.502
 8788SOL    HW227264   1.234   1.721   5.571
 8789SOL     OW27265   6.944   0.770   6.472
 8789SOL    HW127266   6.886   0.721   6.537
 8789SOL    HW227267   6.894   0.849   6.436
 8790SOL     OW27268   5.706   1.770   6.793
 8790SOL    HW127269   5.623   1.718   6.810
 8790SOL    HW227270   5.692   1.833   6.717
 8791SOL     OW27271   4.780   6.615   5.820
 8791SOL    HW127272   4.704   6.649   5.765
 8791SOL    HW227273   4.750   6.599   5.914
 8792SOL     OW27274   5.167   0.389   2.877
 8792SOL    HW127275   5.105   0.422   2.806
 8792SOL    HW227276   5.162   0.450   2.956
 8793SOL     OW27277   1.269   5.839   3.702
 8793SOL    HW127278   1.297   5.751   3.740
 8793SOL    HW227279   1.348   5.899   3.695
 8794SOL     OW27280   1.798   0.073   2.295
 8794SOL    HW127281   1.833   7.007   2.260
 8794SOL    HW227282   1.737   0.114   2.228
 8795SOL     OW27283   1.762   6.051   5.808
 8795SOL    HW127284   1.804   6.141   5.789
 8795SOL    HW227285   1.765   5.996   5.725
 8796SOL     OW27286   4.579   2.212   5.436
 8796SOL    HW127287   4.564   2.171   5.345
 8796SOL    HW227288   4.579   2.311   5.428
 8797SOL     OW27289   0.090   6.862   6.850
 8797SOL    HW127290   0.094   6.925   6.928
 8797SOL    HW227291   0.149   6.783   6.868
 8798SOL     OW27292   4.728   3.833   5.517
 8798SOL    HW127293   4.659   3.761   5.519
 8798SOL    HW227294   4.730   3.875   5.427
 8799SOL     OW27295   2.910   5.106   3.325
 8799SOL    HW127296   2.942   5.162   3.249
 8799SOL    HW227297   2.986   5.085   3.386
 8800SOL     OW27298   4.405   4.972   7.019
 8800SOL    HW127299   4.396   4.872   7.017
 8800SOL    HW227300   4.351   5.012   6.946
 8801SOL     OW27301   2.824   1.190   4.761
 8801SOL    HW127302   2.820   1.286   4.734
 8801SOL    HW227303   2.741   1.143   4.730
 8802SOL     OW27304   2.771   6.160   2.385
 8802SOL    HW127305   2.820   6.076   2.406
 8802SOL    HW227306   2.736   6.200   2.470
 8803SOL     OW27307   3.295   5.485   0.509
 8803SOL    HW127308   3.395   5.490   0.517
 8803SOL    HW227309   3.267   5.520   0.420
 8804SOL     OW27310   4.734   0.521   1.107
 8804SOL    HW127311   4.634   0.515   1.098
 8804SOL    HW227312   4.777   0.485   1.024
 8805SOL     OW27313   0.457   0.388   3.076
 8805SOL    HW127314   0.391   0.451   3.117
 8805SOL    HW227315   0.418   0.296   3.074
 8806SOL     OW27316   1.731   4.631   6.589
 8806SOL    HW127317   1.806   4.615   6.525
 8806SOL    HW227318   1.738   4.566   6.665
 8807SOL     OW27319   1.038   6.135   6.204
 8807SOL    HW127320   0.973   6.184   6.263
 8807SOL    HW227321   1.008   6.041   6.192
 8808SOL     OW27322   5.133   1.584   1.066
 8808SOL    HW127323   5.150   1.559   1.161
 8808SOL    HW227324   5.213   1.631   1.029
 8809SOL     OW27325   6.003   3.923   1.479
 8809SOL    HW127326   5.939   3.962   1.413
 8809SOL    HW227327   5.976   3.949   1.571
 8810SOL     OW27328   3.730   1.304   4.289
 8810SOL    HW127329   3.643   1.309   4.239
 8810SOL    HW227330   3.751   1.393   4.328
 8811SOL     OW27331   1.141   1.225   2.707
 8811SOL    HW127332   1.211   1.284   2.666
 8811SOL    HW227333   1.054   1.275   2.712
 8812SOL     OW27334   1.977   0.905   0.860
 8812SOL    HW127335   1.937   0.948   0.941
 8812SOL    HW227336   1.921   0.926   0.780
 8813SOL     OW27337   2.123   6.322   1.811
 8813SOL    HW127338   2.023   6.315   1.818
 8813SOL    HW227339   2.150   6.417   1.823
 8814SOL     OW27340   6.268   0.963   6.147
 8814SOL    HW127341   6.280   0.876   6.099
 8814SOL    HW227342   6.198   0.952   6.217
 8815SOL     OW27343   0.211   6.553   2.734
 8815SOL    HW127344   0.122   6.515   2.762
 8815SOL    HW227345   0.212   6.651   2.754
 8816SOL     OW27346   1.166   5.778   1.422
 8816SOL    HW127347   1.153   5.839   1.500
 8816SOL    HW227348   1.259   5.742   1.424
 8817SOL     OW27349   1.225   5.098   5.342
 8817SOL    HW127350   1.127   5.080   5.334
 8817SOL    HW227351   1.240   5.173   5.407
 8818SOL     OW27352   0.184   5.715   4.078
 8818SOL    HW127353   0.102   5.770   4.093
 8818SOL    HW227354   0.234   5.750   3.999
 8819SOL     OW27355   4.346   6.429   4.419
 8819SOL    HW127356   4.320   6.337   4.449
 8819SOL    HW227357   4.284   6.460   4.347
 8820SOL     OW27358   1.491   2.008   3.948
 8820SOL    HW127359   1.496   2.107   3.961
 8820SOL    HW227360   1.395   1.978   3.954
 8821SOL     OW27361   2.108   0.813   6.491
 8821SOL    HW127362   2.205   0.826   6.509
 8821SOL    HW227363   2.075   0.884   6.429
 8822SOL     OW27364   0.653   2.245   3.522
 8822SOL    HW127365   0.602   2.169   3.562
 8822SOL    HW227366   0.595   2.327   3.518
 8823SOL     OW27367   1.814   5.897   1.354
 8823SOL    HW127368   1.867   5.980   1.371
 8823SOL    HW227369   1.828   5.832   1.430
 8824SOL     OW27370   3.549   3.783   1.038
 8824SOL    HW127371   3.581   3.858   1.095
 8824SOL    HW227372   3.453   3.798   1.013
 8825SOL     OW27373   0.959   1.239   2.140
 8825SOL    HW127374   0.874   1.253   2.089
 8825SOL    HW227375   1.015   1.171   2.093
 8826SOL     OW27376   4.966   1.861   6.646
 8826SOL    HW127377   4.994   1.940   6.592
 8826SOL    HW227378   4.935   1.788   6.584
 8827SOL     OW27379   1.261   1.588   3.326
 8827SOL    HW127380   1.312   1.578   3.411
 8827SOL    HW227381   1.250   1.685   3.304
 8828SOL     OW27382   2.776   0.272   2.869
 8828SOL    HW127383   2.690   0.227   2.845
 8828SOL    HW227384   2.852   0.228   2.821
 8829SOL     OW27385   6.949   1.941   0.416
 8829SOL    HW127386   6.897   1.918   0.334
 8829SOL    HW227387   0.025   1.943   0.395
 8830SOL     OW27388   0.478   2.091   0.747
 8830SOL    HW127389   0.544   2.018   0.731
 8830SOL    HW227390   0.509   2.176   0.703
 8831SOL     OW27391   6.814   0.533   2.677
 8831SOL    HW127392   6.756   0.511   2.599
 8831SOL    HW227393   6.844   0.628   2.671
 8832SOL     OW27394   6.487   0.786   2.486
 8832SOL    HW127395   6.548   0.739   2.422
 8832SOL    HW227396   6.393   0.753   2.473
 8833SOL     OW27397   2.025   4.774   3.570
 8833SOL    HW127398   2.001   4.713   3.493
 8833SOL    HW227399   1.958   4.847   3.577
 8834SOL     OW27400   5.896   3.854   5.169
 8834SOL    HW127401   5.865   3.761   5.151
 8834SOL    HW227402   5.895   3.907   5.084
 8835SOL     OW27403   6.821   6.935   6.198
 8835SOL    HW127404   6.825   0.013   6.211
 8835SOL    HW227405   6.911   6.900   6.172
 8836SOL     OW27406   4.518   1.058   0.022
 8836SOL    HW127407   4.490   0.966   7.015
 8836SOL    HW227408   4.439   1.106   0.060
 8837SOL     OW27409   0.233   1.495   2.034
 8837SOL    HW127410   0.167   1.532   2.100
 8837SOL    HW227411   0.218   1.536   1.944
 8838SOL     OW27412   2.427   5.384   3.791
 8838SOL    HW127413   2.343   5.438   3.795
 8838SOL    HW227414   2.435   5.342   3.700
 8839SOL     OW27415   6.595   0.029   3.968
 8839SOL    HW127416   6.685   0.009   3.928
 8839SOL    HW227417   6.588   7.005   4.057
 8840SOL     OW27418   5.654   2.489   2.151
 8840SOL    HW127419   5.653   2.459   2.247
 8840SOL    HW227420   5.747   2.516   2.126
 8841SOL     OW27421   1.726   1.391   5.275
 8841SOL    HW127422   1.678   1.344   5.201
 8841SOL    HW227423   1.686   1.365   5.363
 8842SOL     OW27424   2.205   3.042   1.771
 8842SOL    HW127425   2.178   3.137   1.782
 8842SOL    HW227426   2.256   3.012   1.852
 8843SOL     OW27427   0.982   3.064   5.179
 8843SOL    HW127428   0.975   3.002   5.257
 8843SOL    HW227429   1.078   3.078   5.156
 8844SOL     OW27430   6.902   1.340   6.364
 8844SOL    HW127431   6.851   1.327   6.449
 8844SOL    HW227432   6.838   1.350   6.288
 8845SOL     OW27433   5.652   4.402   6.936
 8845SOL    HW127434   5.606   4.431   6.852
 8845SOL    HW227435   5.739   4.450   6.946
 8846SOL     OW27436   1.740   4.642   4.152
 8846SOL    HW127437   1.808   4.572   4.130
 8846SOL    HW227438   1.776   4.701   4.225
 8847SOL     OW27439   3.121   0.592   2.416
 8847SOL    HW127440   3.077   0.521   2.361
 8847SOL    HW227441   3.088   0.587   2.510
 8848SOL     OW27442   1.347   0.469   2.989
 8848SOL    HW127443   1.332   0.490   2.892
 8848SOL    HW227444   1.439   0.499   3.016
 8849SOL     OW27445   2.912   6.670   1.140
 8849SOL    HW127446   2.845   6.742   1.160
 8849SOL    HW227447   2.864   6.588   1.107
 8850SOL     OW27448   3.489   2.898   6.635
 8850SOL    HW127449   3.483   2.801   6.660
 8850SOL    HW227450   3.444   2.913   6.547
 8851SOL     OW27451   1.148   3.353   2.920
 8851SOL    HW127452   1.197   3.338   3.005
 8851SOL    HW227453   1.148   3.269   2.866
 8852SOL     OW27454   0.958   1.913   6.212
 8852SOL    HW127455   0.885   1.886   6.148
 8852SOL    HW227456   1.015   1.833   6.233
 8853SOL     OW27457   4.053   0.660   0.488
 8853SOL    HW127458   4.050   0.727   0.414
 8853SOL    HW227459   4.046   0.707   0.576
 8854SOL     OW27460   1.062   3.247   4.914
 8854SOL    HW127461   1.142   3.301   4.888
 8854SOL    HW227462   1.066   3.158   4.868
 8855SOL     OW27463   5.719   5.452   1.182
 8855SOL    HW127464   5.652   5.390   1.223
 8855SOL    HW227465   5.801   5.455   1.238
 8856SOL     OW27466   0.262   5.972   5.649
 8856SOL    HW127467   0.193   5.902   5.633
 8856SOL    HW227468   0.277   5.983   5.747
 8857SOL     OW27469   6.442   1.644   5.505
 8857SOL    HW127470   6.384   1.722   5.530
 8857SOL    HW227471   6.486   1.608   5.586
 8858SOL     OW27472   6.517   5.367   4.379
 8858SOL    HW127473   6.488   5.409   4.293
 8858SOL    HW227474   6.607   5.401   4.405
 8859SOL     OW27475   1.063   0.230   3.647
 8859SOL    HW127476   0.996   0.161   3.622
 8859SOL    HW227477   1.153   0.188   3.655
 8860SOL     OW27478   0.174   3.204   2.062
 8860SOL    HW127479   0.167   3.152   2.148
 8860SOL    HW227480   0.084   3.214   2.022
 8861SOL     OW27481   4.592   2.448   1.475
 8861SOL    HW127482   4.564   2.475   1.567
 8861SOL    HW227483   4.519   2.468   1.410
 8862SOL     OW27484   4.757   4.678   4.886
 8862SOL    HW127485   4.805   4.688   4.799
 8862SOL    HW227486   4.681   4.615   4.875
 8863SOL     OW27487   2.156   4.020   3.646
 8863SOL    HW127488   2.193   4.106   3.609
 8863SOL    HW227489   2.056   4.022   3.641
 8864SOL     OW27490   6.178   1.806   5.108
 8864SOL    HW127491   6.123   1.749   5.046
 8864SOL    HW227492   6.222   1.748   5.176
 8865SOL     OW27493   2.185   1.648   6.617
 8865SOL    HW127494   2.099   1.599   6.628
 8865SOL    HW227495   2.195   1.677   6.522
 8866SOL     OW27496   5.708   6.277   1.843
 8866SOL    HW127497   5.804   6.299   1.830
 8866SOL    HW227498   5.655   6.312   1.766
 8867SOL     OW27499   5.957   4.184   2.876
 8867SOL    HW127500   6.019   4.107   2.885
 8867SOL    HW227501   5.896   4.169   2.797
 8868SOL     OW27502   6.914   3.093   3.543
 8868SOL    HW127503   6.987   3.152   3.575
 8868SOL    HW227504   6.874   3.043   3.620
 8869SOL     OW27505   3.502   6.998   3.232
 8869SOL    HW127506   3.524   7.015   3.136
 8869SOL    HW227507   3.564   0.031   3.290
 8870SOL     OW27508   1.390   0.946   3.573
 8870SOL    HW127509   1.459   0.919   3.506
 8870SOL    HW227510   1.433   1.003   3.643
 8871SOL     OW27511   0.333   0.765   2.704
 8871SOL    HW127512   0.362   0.706   2.629
 8871SOL    HW227513   0.413   0.804   2.750
 8872SOL     OW27514   0.140   5.335   4.757
 8872SOL    HW127515   0.052   5.303   4.720
 8872SOL    HW227516   0.134   5.434   4.773
 8873SOL     OW27517   2.031   1.457   2.595
 8873SOL    HW127518   1.939   1.481   2.625
 8873SOL    HW227519   2.056   1.367   2.631
 8874SOL     OW27520   3.580   6.626   0.537
 8874SOL    HW127521   3.590   6.551   0.471
 8874SOL    HW227522   3.654   6.621   0.604
 8875SOL     OW27523   6.622   3.318   4.033
 8875SOL    HW127524   6.588   3.257   4.105
 8875SOL    HW227525   6.561   3.313   3.954
 8876SOL     OW27526   4.007   1.024   6.374
 8876SOL    HW127527   4.045   1.019   6.282
 8876SOL    HW227528   3.926   1.083   6.373
 8877SOL     OW27529   1.828   4.181   1.139
 8877SOL    HW127530   1.796   4.127   1.061
 8877SOL    HW227531   1.893   4.250   1.107
 8878SOL     OW27532   5.153   3.993   0.838
 8878SOL    HW127533   5.060   3.996   0.799
 8878SOL    HW227534   5.165   4.071   0.899
 8879SOL     OW27535   5.658   5.062   3.008
 8879SOL    HW127536   5.706   5.114   2.937
 8879SOL    HW227537   5.691   4.967   3.008
 8880SOL     OW27538   4.381   1.026   4.116
 8880SOL    HW127539   4.335   0.979   4.191
 8880SOL    HW227540   4.326   1.103   4.084
 8881SOL     OW27541   4.243   4.770   4.487
 8881SOL    HW127542   4.162   4.788   4.543
 8881SOL    HW227543   4.313   4.725   4.542
 8882SOL     OW27544   4.321   0.334   0.681
 8882SOL    HW127545   4.245   0.388   0.719
 8882SOL    HW227546   4.401   0.392   0.669
 8883SOL     OW27547   6.564   6.305   4.701
 8883SOL    HW127548   6.573   6.205   4.692
 8883SOL    HW227549   6.468   6.330   4.690
 8884SOL     OW27550   5.393   3.458   5.139
 8884SOL    HW127551   5.345   3.401   5.206
 8884SOL    HW227552   5.475   3.498   5.181
 8885SOL     OW27553   6.467   5.623   0.702
 8885SOL    HW127554   6.441   5.636   0.607
 8885SOL    HW227555   6.385   5.611   0.758
 8886SOL     OW27556   4.182   5.307   6.220
 8886SOL    HW127557   4.132   5.360   6.289
 8886SOL    HW227558   4.125   5.230   6.190
 8887SOL     OW27559   4.897   1.179   1.218
 8887SOL    HW127560   4.893   1.223   1.308
 8887SOL    HW227561   4.950   1.237   1.155
 8888SOL     OW27562   2.542   1.888   2.891
 8888SOL    HW127563   2.497   1.938   2.965
 8888SOL    HW227564   2.563   1.795   2.922
 8889SOL     OW27565   0.512   5.997   6.531
 8889SOL    HW127566   0.532   6.033   6.440
 8889SOL    HW227567   0.531   5.899   6.533
 8890SOL     OW27568   0.047   6.602   0.276
 8890SOL    HW127569   0.128   6.543   0.275
 8890SOL    HW227570   0.054   6.667   0.351
 8891SOL     OW27571   6.007   3.639   6.724
 8891SOL    HW127572   6.054   3.727   6.735
 8891SOL    HW227573   5.987   3.601   6.814
 8892SOL     OW27574   3.415   5.183   3.839
 8892SOL    HW127575   3.507   5.174   3.878
 8892SOL    HW227576   3.347   5.182   3.912
 8893SOL     OW27577   1.323   5.120   4.604
 8893SOL    HW127578   1.366   5.209   4.618
 8893SOL    HW227579   1.392   5.048   4.603
 8894SOL     OW27580   4.613   1.532   0.468
 8894SOL    HW127581   4.671   1.548   0.548
 8894SOL    HW227582   4.640   1.595   0.395
 8895SOL     OW27583   6.933   3.946   1.051
 8895SOL    HW127584   6.896   3.868   1.101
 8895SOL    HW227585   0.010   3.932   1.035
 8896SOL     OW27586   0.443   2.812   4.859
 8896SOL    HW127587   0.423   2.721   4.823
 8896SOL    HW227588   0.359   2.851   4.899
 8897SOL     OW27589   2.053   3.805   3.810
 8897SOL    HW127590   1.957   3.833   3.811
 8897SOL    HW227591   2.105   3.870   3.755
 8898SOL     OW27592   4.740   4.280   2.669
 8898SOL    HW127593   4.799   4.220   2.613
 8898SOL    HW227594   4.722   4.364   2.619
 8899SOL     OW27595   0.794   3.744   4.772
 8899SOL    HW127596   0.866   3.814   4.774
 8899SOL    HW227597   0.803   3.684   4.851
 8900SOL     OW27598   5.041   2.614   3.918
 8900SOL    HW127599   5.023   2.587   4.013
 8900SOL    HW227600   5.088   2.540   3.871
 8901SOL     OW27601   1.570   3.324   4.685
 8901SOL    HW127602   1.551   3.226   4.694
 8901SOL    HW227603   1.566   3.367   4.775
 8902SOL     OW27604   0.291   4.758   0.596
 8902SOL    HW127605   0.322   4.668   0.566
 8902SOL    HW227606   0.194   4.770   0.572
 8903SOL     OW27607   1.456   6.438   5.364
 8903SOL    HW127608   1.546   6.406   5.394
 8903SOL    HW227609   1.464   6.481   5.274
 8904SOL     OW27610   0.202   0.596   2.943
 8904SOL    HW127611   0.166   0.644   3.023
 8904SOL    HW227612   0.225   0.662   2.872
 8905SOL     OW27613   1.765   4.020   2.317
 8905SOL    HW127614   1.741   4.048   2.410
 8905SOL    HW227615   1.686   3.976   2.274
 8906SOL     OW27616   6.427   0.460   0.792
 8906SOL    HW127617   6.369   0.460   0.710
 8906SOL    HW227618   6.475   0.373   0.799
 8907SOL     OW27619   2.990   3.264   4.878
 8907SOL    HW127620   2.997   3.339   4.813
 8907SOL    HW227621   2.915   3.203   4.849
 8908SOL     OW27622   1.085   5.290   0.152
 8908SOL    HW127623   1.060   5.218   0.218
 8908SOL    HW227624   1.075   5.255   0.059
 8909SOL     OW27625   2.963   0.113   0.316
 8909SOL    HW127626   3.051   0.070   0.297
 8909SOL    HW227627   2.902   0.098   0.238
 8910SOL     OW27628   2.438   1.016   3.749
 8910SOL    HW127629   2.430   0.932   3.695
 8910SOL    HW227630   2.498   1.000   3.827
 8911SOL     OW27631   4.463   2.248   4.074
 8911SOL    HW127632   4.429   2.215   4.163
 8911SOL    HW227633   4.557   2.219   4.062
 8912SOL     OW27634   3.686   3.877   4.220
 8912SOL    HW127635   3.656   3.887   4.125
 8912SOL    HW227636   3.702   3.968   4.259
 8913SOL     OW27637   5.218   6.650   6.429
 8913SOL    HW127638   5.264   6.662   6.517
 8913SOL    HW227639   5.252   6.719   6.365
 8914SOL     OW27640   4.252   5.386   6.787
 8914SOL    HW127641   4.329   5.425   6.737
 8914SOL    HW227642   4.169   5.437   6.765
 8915SOL     OW27643   1.343   1.412   4.115
 8915SOL    HW127644   1.266   1.475   4.105
 8915SOL    HW227645   1.311   1.318   4.107
 8916SOL     OW27646   4.281   1.194   0.065
 8916SOL    HW127647   4.305   1.235   6.998
 8916SOL    HW227648   4.183   1.175   0.067
 8917SOL     OW27649   5.733   1.885   0.356
 8917SOL    HW127650   5.745   1.869   0.454
 8917SOL    HW227651   5.734   1.983   0.337
 8918SOL     OW27652   0.855   3.819   2.741
 8918SOL    HW127653   0.930   3.841   2.802
 8918SOL    HW227654   0.886   3.753   2.673
 8919SOL     OW27655   6.048   3.717   1.158
 8919SOL    HW127656   5.975   3.722   1.226
 8919SOL    HW227657   6.093   3.628   1.164
 8920SOL     OW27658   6.204   2.141   6.899
 8920SOL    HW127659   6.211   2.061   6.959
 8920SOL    HW227660   6.283   2.145   6.839
 8921SOL     OW27661   1.995   2.837   1.896
 8921SOL    HW127662   2.046   2.804   1.976
 8921SOL    HW227663   2.059   2.877   1.830
 8922SOL     OW27664   3.551   6.921   3.727
 8922SOL    HW127665   3.510   6.972   3.802
 8922SOL    HW227666   3.639   6.884   3.757
 8923SOL     OW27667   1.906   2.483   4.907
 8923SOL    HW127668   1.808   2.467   4.914
 8923SOL    HW227669   1.956   2.408   4.951
 8924SOL     OW27670   5.415   5.671   4.905
 8924SOL    HW127671   5.428   5.582   4.947
 8924SOL    HW227672   5.405   5.741   4.975
 8925SOL     OW27673   1.115   6.957   3.371
 8925SOL    HW127674   1.025   6.913   3.372
 8925SOL    HW227675   1.153   6.954   3.279
 8926SOL     OW27676   5.874   2.375   6.228
 8926SOL    HW127677   5.974   2.369   6.221
 8926SOL    HW227678   5.847   2.370   6.324
 8927SOL     OW27679   0.881   0.939   6.022
 8927SOL    HW127680   0.840   0.919   6.110
 8927SOL    HW227681   0.810   0.945   5.952
 8928SOL     OW27682   1.441   6.467   5.083
 8928SOL    HW127683   1.427   6.559   5.047
 8928SOL    HW227684   1.531   6.434   5.058
 8929SOL     OW27685   6.747   3.041   4.839
 8929SOL    HW127686   6.670   2.986   4.807
 8929SOL    HW227687   6.713   3.126   4.879
 8930SOL     OW27688   1.604   4.356   3.251
 8930SOL    HW127689   1.680   4.295   3.272
 8930SOL    HW227690   1.627   4.449   3.279
 8931SOL     OW27691   3.943   2.206   1.264
 8931SOL    HW127692   3.868   2.237   1.323
 8931SOL    HW227693   4.025   2.260   1.283
 8932SOL     OW27694   0.153   3.118   3.656
 8932SOL    HW127695   0.211   3.159   3.586
 8932SOL    HW227696   0.205   3.048   3.706
 8933SOL     OW27697   3.407   1.686   5.744
 8933SOL    HW127698   3.351   1.603   5.748
 8933SOL    HW227699   3.360   1.755   5.689
 8934SOL     OW27700   3.412   6.122   3.490
 8934SOL    HW127701   3.334   6.161   3.540
 8934SOL    HW227702   3.443   6.186   3.421
 8935SOL     OW27703   0.173   4.561   0.932
 8935SOL    HW127704   0.207   4.651   0.959
 8935SOL    HW227705   0.249   4.503   0.905
 8936SOL     OW27706   2.216   2.709   0.366
 8936SOL    HW127707   2.277   2.637   0.400
 8936SOL    HW227708   2.222   2.789   0.426
 8937SOL     OW27709   0.853   5.871   5.715
 8937SOL    HW127710   0.794   5.813   5.658
 8937SOL    HW227711   0.797   5.944   5.755
 8938SOL     OW27712   6.003   5.519   1.271
 8938SOL    HW127713   6.102   5.533   1.269
 8938SOL    HW227714   5.961   5.583   1.335
 8939SOL     OW27715   5.354   2.073   4.687
 8939SOL    HW127716   5.266   2.117   4.705
 8939SOL    HW227717   5.369   2.001   4.756
 8940SOL     OW27718   5.879   0.789   3.012
 8940SOL    HW127719   5.846   0.833   2.928
 8940SOL    HW227720   5.862   0.691   3.007
 8941SOL     OW27721   5.355   2.355   6.425
 8941SOL    HW127722   5.262   2.359   6.389
 8941SOL    HW227723   5.414   2.308   6.359
 8942SOL     OW27724   0.633   2.352   5.498
 8942SOL    HW127725   0.680   2.365   5.585
 8942SOL    HW227726   0.688   2.390   5.424
 8943SOL     OW27727   5.358   3.832   0.968
 8943SOL    HW127728   5.305   3.795   1.044
 8943SOL    HW227729   5.297   3.881   0.905
 8944SOL     OW27730   4.326   5.545   0.536
 8944SOL    HW127731   4.236   5.567   0.498
 8944SOL    HW227732   4.314   5.491   0.619
 8945SOL     OW27733   2.640   1.060   4.432
 8945SOL    HW127734   2.619   1.000   4.355
 8945SOL    HW227735   2.634   1.155   4.402
 8946SOL     OW27736   3.327   1.788   4.254
 8946SOL    HW127737   3.416   1.800   4.299
 8946SOL    HW227738   3.272   1.724   4.308
 8947SOL     OW27739   4.240   3.942   5.323
 8947SOL    HW127740   4.273   4.036   5.337
 8947SOL    HW227741   4.153   3.944   5.274
 8948SOL     OW27742   6.065   5.020   3.110
 8948SOL    HW127743   6.119   5.097   3.141
 8948SOL    HW227744   6.060   5.021   3.010
 8949SOL     OW27745   2.011   6.131   0.129
 8949SOL    HW127746   1.979   6.101   0.218
 8949SOL    HW227747   1.937   6.180   0.082
 8950SOL     OW27748   4.601   2.664   4.155
 8950SOL    HW127749   4.564   2.573   4.173
 8950SOL    HW227750   4.609   2.678   4.056
 8951SOL     OW27751   1.859   2.484   5.477
 8951SOL    HW127752   1.919   2.421   5.429
 8951SOL    HW227753   1.912   2.560   5.513
 8952SOL     OW27754   0.136   1.366   2.438
 8952SOL    HW127755   0.045   1.374   2.478
 8952SOL    HW227756   0.170   1.456   2.412
 8953SOL     OW27757   1.231   3.189   0.080
 8953SOL    HW127758   1.303   3.168   0.014
 8953SOL    HW227759   1.194   3.279   0.061
 8954SOL     OW27760   1.869   5.994   6.418
 8954SOL    HW127761   1.800   6.019   6.486
 8954SOL    HW227762   1.895   5.898   6.430
 8955SOL     OW27763   6.546   4.014   3.356
 8955SOL    HW127764   6.503   4.072   3.287
 8955SOL    HW227765   6.503   4.030   3.445
 8956SOL     OW27766   1.210   0.488   6.145
 8956SOL    HW127767   1.161   0.503   6.060
 8956SOL    HW227768   1.234   0.392   6.154
 8957SOL     OW27769   3.114   4.864   2.523
 8957SOL    HW127770   3.073   4.879   2.613
 8957SOL    HW227771   3.043   4.845   2.456
 8958SOL     OW27772   1.720   6.616   4.091
 8958SOL    HW127773   1.767   6.530   4.110
 8958SOL    HW227774   1.783   6.680   4.048
 8959SOL     OW27775   1.587   4.384   0.500
 8959SOL    HW127776   1.654   4.312   0.483
 8959SOL    HW227777   1.495   4.350   0.481
 8960SOL     OW27778   3.922   5.436   1.025
 8960SOL    HW127779   3.948   5.439   0.928
 8960SOL    HW227780   3.931   5.343   1.060
 8961SOL     OW27781   1.193   2.135   3.804
 8961SOL    HW127782   1.219   2.053   3.753
 8961SOL    HW227783   1.154   2.202   3.741
 8962SOL     OW27784   5.799   0.363   3.158
 8962SOL    HW127785   5.790   0.264   3.143
 8962SOL    HW227786   5.830   0.380   3.252
 8963SOL     OW27787   6.113   1.059   4.104
 8963SOL    HW127788   6.032   1.054   4.045
 8963SOL    HW227789   6.118   0.977   4.160
 8964SOL     OW27790   5.054   4.670   2.577
 8964SOL    HW127791   4.998   4.699   2.655
 8964SOL    HW227792   5.096   4.582   2.597
 8965SOL     OW27793   1.531   5.210   2.034
 8965SOL    HW127794   1.572   5.286   2.084
 8965SOL    HW227795   1.465   5.246   1.967
 8966SOL     OW27796   2.298   2.650   6.038
 8966SOL    HW127797   2.371   2.599   6.083
 8966SOL    HW227798   2.210   2.626   6.081
 8967SOL     OW27799   4.506   0.590   0.210
 8967SOL    HW127800   4.576   0.653   0.176
 8967SOL    HW227801   4.426   0.593   0.149
 8968SOL     OW27802   4.875   5.952   1.804
 8968SOL    HW127803   4.856   5.854   1.800
 8968SOL    HW227804   4.794   6.000   1.841
 8969SOL     OW27805   6.475   0.778   4.332
 8969SOL    HW127806   6.511   0.837   4.259
 8969SOL    HW227807   6.408   0.829   4.385
 8970SOL     OW27808   3.416   1.933   1.746
 8970SOL    HW127809   3.341   1.966   1.688
 8970SOL    HW227810   3.501   1.977   1.719
 8971SOL     OW27811   3.922   5.257   2.669
 8971SOL    HW127812   3.909   5.172   2.619
 8971SOL    HW227813   3.834   5.290   2.702
 8972SOL     OW27814   5.277   6.843   5.472
 8972SOL    HW127815   5.219   6.774   5.428
 8972SOL    HW227816   5.370   6.836   5.436
 8973SOL     OW27817   1.525   4.899   0.262
 8973SOL    HW127818   1.598   4.912   0.195
 8973SOL    HW227819   1.494   4.804   0.258
 8974SOL     OW27820   0.841   3.580   4.991
 8974SOL    HW127821   0.830   3.483   4.967
 8974SOL    HW227822   0.787   3.600   5.073
 8975SOL     OW27823   3.122   6.889   0.370
 8975SOL    HW127824   3.216   6.859   0.392
 8975SOL    HW227825   3.078   6.819   0.314
 8976SOL     OW27826   1.459   5.406   4.204
 8976SOL    HW127827   1.473   5.475   4.274
 8976SOL    HW227828   1.508   5.322   4.229
 8977SOL     OW27829   6.534   1.580   6.000
 8977SOL    HW127830   6.595   1.574   5.920
 8977SOL    HW227831   6.445   1.614   5.970
 8978SOL     OW27832   5.750   6.985   0.441
 8978SOL    HW127833   5.716   6.903   0.395
 8978SOL    HW227834   5.674   0.025   0.462
 8979SOL     OW27835   1.820   4.042   5.013
 8979SOL    HW127836   1.801   4.137   5.038
 8979SOL    HW227837   1.766   4.018   4.933
 8980SOL     OW27838   3.759   3.052   4.334
 8980SOL    HW127839   3.820   3.042   4.413
 8980SOL    HW227840   3.704   3.135   4.345
 8981SOL     OW27841   3.823   1.555   5.205
 8981SOL    HW127842   3.785   1.464   5.223
 8981SOL    HW227843   3.766   1.624   5.248
 8982SOL     OW27844   2.877   4.145   0.788
 8982SOL    HW127845   2.977   4.152   0.784
 8982SOL    HW227846   2.848   4.135   0.883
 8983SOL     OW27847   4.361   5.577   0.234
 8983SOL    HW127848   4.447   5.620   0.205
 8983SOL    HW227849   4.330   5.621   0.318
 8984SOL     OW27850   2.129   5.848   3.157
 8984SOL    HW127851   2.180   5.773   3.115
 8984SOL    HW227852   2.172   5.872   3.244
 8985SOL     OW27853   3.867   2.884   6.471
 8985SOL    HW127854   3.767   2.882   6.464
 8985SOL    HW227855   3.899   2.797   6.507
 8986SOL     OW27856   3.787   4.861   2.990
 8986SOL    HW127857   3.769   4.871   2.892
 8986SOL    HW227858   3.700   4.855   3.039
 8987SOL     OW27859   5.394   6.281   1.917
 8987SOL    HW127860   5.381   6.197   1.971
 8987SOL    HW227861   5.412   6.358   1.979
 8988SOL     OW27862   0.567   5.503   4.222
 8988SOL    HW127863   0.583   5.444   4.301
 8988SOL    HW227864   0.469   5.507   4.202
 8989SOL     OW27865   4.165   2.644   6.375
 8989SOL    HW127866   4.127   2.720   6.323
 8989SOL    HW227867   4.195   2.676   6.465
 8990SOL     OW27868   6.602   5.401   3.313
 8990SOL    HW127869   6.629   5.493   3.342
 8990SOL    HW227870   6.607   5.339   3.391
 8991SOL     OW27871   1.503   2.347   5.158
 8991SOL    HW127872   1.537   2.399   5.236
 8991SOL    HW227873   1.403   2.347   5.159
 8992SOL     OW27874   6.082   2.222   6.634
 8992SOL    HW127875   6.076   2.321   6.618
 8992SOL    HW227876   6.110   2.206   6.729
 8993SOL     OW27877   4.792   2.512   6.458
 8993SOL    HW127878   4.732   2.438   6.427
 8993SOL    HW227879   4.814   2.571   6.381
 8994SOL     OW27880   1.852   4.783   4.355
 8994SOL    HW127881   1.919   4.734   4.412
 8994SOL    HW227882   1.789   4.833   4.414
 8995SOL     OW27883   6.880   1.783   1.360
 8995SOL    HW127884   6.923   1.808   1.447
 8995SOL    HW227885   6.783   1.766   1.374
 8996SOL     OW27886   5.105   4.523   6.326
 8996SOL    HW127887   5.104   4.578   6.409
 8996SOL    HW227888   5.101   4.584   6.246
 8997SOL     OW27889   5.126   1.330   4.870
 8997SOL    HW127890   5.211   1.360   4.827
 8997SOL    HW227891   5.060   1.304   4.799
 8998SOL     OW27892   6.002   4.213   4.537
 8998SOL    HW127893   5.965   4.301   4.509
 8998SOL    HW227894   6.054   4.173   4.462
 8999SOL     OW27895   4.952   6.766   6.008
 8999SOL    HW127896   4.910   6.758   6.099
 8999SOL    HW227897   4.885   6.800   5.943
 9000SOL     OW27898   1.720   4.210   1.398
 9000SOL    HW127899   1.764   4.171   1.317
 9000SOL    HW227900   1.789   4.223   1.470
 9001SOL     OW27901   0.403   4.927   2.024
 9001SOL    HW127902   0.333   4.865   2.061
 9001SOL    HW227903   0.369   4.969   1.940
 9002SOL     OW27904   1.044   4.357   6.229
 9002SOL    HW127905   0.997   4.334   6.144
 9002SOL    HW227906   1.122   4.415   6.209
 9003SOL     OW27907   5.638   1.457   1.688
 9003SOL    HW127908   5.576   1.380   1.681
 9003SOL    HW227909   5.604   1.523   1.755
 9004SOL     OW27910   4.092   4.751   0.622
 9004SOL    HW127911   4.014   4.801   0.584
 9004SOL    HW227912   4.074   4.653   0.617
 9005SOL     OW27913   5.646   0.937   5.490
 9005SOL    HW127914   5.617   0.992   5.569
 9005SOL    HW227915   5.688   0.853   5.522
 9006SOL     OW27916   3.768   6.923   0.688
 9006SOL    HW127917   3.746   7.020   0.700
 9006SOL    HW227918   3.803   6.907   0.596
 9007SOL     OW27919   2.620   1.392   2.544
 9007SOL    HW127920   2.676   1.468   2.579
 9007SOL    HW227921   2.659   1.306   2.576
 9008SOL     OW27922   0.381   5.556   3.005
 9008SOL    HW127923   0.329   5.632   3.045
 9008SOL    HW227924   0.324   5.475   2.999
 9009SOL     OW27925   4.123   5.654   0.393
 9009SOL    HW127926   4.113   5.745   0.434
 9009SOL    HW227927   4.102   5.660   0.295
 9010SOL     OW27928   1.443   6.541   3.994
 9010SOL    HW127929   1.470   6.544   3.898
 9010SOL    HW227930   1.522   6.559   4.052
 9011SOL     OW27931   4.406   0.506   3.095
 9011SOL    HW127932   4.338   0.565   3.050
 9011SOL    HW227933   4.493   0.555   3.101
 9012SOL     OW27934   2.074   5.711   6.937
 9012SOL    HW127935   2.082   5.615   6.964
 9012SOL    HW227936   2.126   5.768   7.000
 9013SOL     OW27937   1.792   6.355   4.099
 9013SOL    HW127938   1.836   6.271   4.131
 9013SOL    HW227939   1.695   6.352   4.121
 9014SOL     OW27940   6.109   2.337   2.242
 9014SOL    HW127941   6.027   2.296   2.281
 9014SOL    HW227942   6.090   2.370   2.150
 9015SOL     OW27943   5.571   1.914   0.697
 9015SOL    HW127944   5.547   1.954   0.786
 9015SOL    HW227945   5.624   1.980   0.644
 9016SOL     OW27946   5.712   5.517   5.911
 9016SOL    HW127947   5.807   5.544   5.929
 9016SOL    HW227948   5.686   5.544   5.818
 9017SOL     OW27949   3.197   0.394   4.987
 9017SOL    HW127950   3.130   0.319   4.991
 9017SOL    HW227951   3.283   0.360   4.949
 9018SOL     OW27952   4.132   3.175   6.552
 9018SOL    HW127953   4.091   3.204   6.465
 9018SOL    HW227954   4.214   3.120   6.533
 9019SOL     OW27955   0.511   2.736   3.095
 9019SOL    HW127956   0.417   2.758   3.122
 9019SOL    HW227957   0.574   2.798   3.142
 9020SOL     OW27958   6.142   6.018   1.761
 9020SOL    HW127959   6.094   5.993   1.845
 9020SOL    HW227960   6.198   6.100   1.777
 9021SOL     OW27961   6.784   0.684   4.091
 9021SOL    HW127962   6.724   0.620   4.139
 9021SOL    HW227963   6.763   0.777   4.120
 9022SOL     OW27964   3.973   2.338   6.551
 9022SOL    HW127965   3.913   2.321   6.629
 9022SOL    HW227966   4.061   2.373   6.584
 9023SOL     OW27967   4.671   3.429   0.996
 9023SOL    HW127968   4.638   3.351   1.050
 9023SOL    HW227969   4.594   3.471   0.948
 9024SOL     OW27970   1.605   5.099   6.206
 9024SOL    HW127971   1.570   5.055   6.123
 9024SOL    HW227972   1.705   5.095   6.206
 9025SOL     OW27973   0.289   5.807   0.925
 9025SOL    HW127974   0.372   5.862   0.911
 9025SOL    HW227975   0.311   5.710   0.915
 9026SOL     OW27976   3.741   1.758   0.276
 9026SOL    HW127977   3.736   1.698   0.196
 9026SOL    HW227978   3.826   1.810   0.274
 9027SOL     OW27979   0.456   3.640   3.841
 9027SOL    HW127980   0.372   3.613   3.793
 9027SOL    HW227981   0.535   3.602   3.794
 9028SOL     OW27982   3.484   3.969   5.435
 9028SOL    HW127983   3.526   3.917   5.511
 9028SOL    HW227984   3.548   3.971   5.358
 9029SOL     OW27985   4.183   6.924   4.895
 9029SOL    HW127986   4.251   6.996   4.890
 9029SOL    HW227987   4.093   6.962   4.873
 9030SOL     OW27988   2.777   1.970   3.699
 9030SOL    HW127989   2.820   2.052   3.661
 9030SOL    HW227990   2.796   1.966   3.797
 9031SOL     OW27991   4.675   0.247   4.602
 9031SOL    HW127992   4.759   0.202   4.635
 9031SOL    HW227993   4.683   0.265   4.504
 9032SOL     OW27994   4.620   3.383   1.721
 9032SOL    HW127995   4.626   3.460   1.658
 9032SOL    HW227996   4.711   3.362   1.756
 9033SOL     OW27997   1.404   5.776   3.010
 9033SOL    HW127998   1.489   5.736   3.044
 9033SOL    HW227999   1.326   5.723   3.043
 9034SOL     OW28000   3.105   6.459   4.747
 9034SOL    HW128001   3.028   6.522   4.740
 9034SOL    HW228002   3.126   6.423   4.656
 9035SOL     OW28003   1.748   4.962   0.618
 9035SOL    HW128004   1.840   4.984   0.585
 9035SOL    HW228005   1.711   5.040   0.668
 9036SOL     OW28006   1.317   3.665   5.616
 9036SOL    HW128007   1.328   3.574   5.655
 9036SOL    HW228008   1.406   3.711   5.613
 9037SOL     OW28009   0.748   2.175   3.099
 9037SOL    HW128010   0.760   2.250   3.164
 9037SOL    HW228011   0.656   2.137   3.109
 9038SOL     OW28012   4.489   3.187   6.272
 9038SOL    HW128013   4.526   3.210   6.362
 9038SOL    HW228014   4.504   3.262   6.209
 9039SOL     OW28015   3.002   5.190   0.118
 9039SOL    HW128016   2.942   5.264   0.147
 9039SOL    HW228017   2.996   5.178   0.019
 9040SOL     OW28018   1.745   2.094   1.238
 9040SOL    HW128019   1.784   2.043   1.315
 9040SOL    HW228020   1.819   2.129   1.181
 9041SOL     OW28021   0.003   2.216   0.696
 9041SOL    HW128022   7.005   2.125   0.734
 9041SOL    HW228023   6.948   2.244   0.638
 9042SOL     OW28024   3.680   5.661   6.143
 9042SOL    HW128025   3.590   5.650   6.185
 9042SOL    HW228026   3.706   5.758   6.145
 9043SOL     OW28027   2.814   1.087   0.611
 9043SOL    HW128028   2.867   1.036   0.544
 9043SOL    HW228029   2.725   1.111   0.571
 9044SOL     OW28030   0.577   0.147   6.428
 9044SOL    HW128031   0.573   0.184   6.521
 9044SOL    HW228032   0.515   0.199   6.369
 9045SOL     OW28033   4.331   0.089   2.787
 9045SOL    HW128034   4.253   0.092   2.723
 9045SOL    HW228035   4.352   0.182   2.818
 9046SOL     OW28036   2.974   3.816   2.927
 9046SOL    HW128037   2.989   3.781   2.835
 9046SOL    HW228038   3.029   3.899   2.941
 9047SOL     OW28039   1.442   4.151   5.984
 9047SOL    HW128040   1.517   4.106   5.935
 9047SOL    HW228041   1.428   4.106   6.072
 9048SOL     OW28042   6.179   2.202   5.745
 9048SOL    HW128043   6.110   2.220   5.814
 9048SOL    HW228044   6.139   2.212   5.654
 9049SOL     OW28045   3.098   6.140   6.355
 9049SOL    HW128046   3.046   6.180   6.280
 9049SOL    HW228047   3.186   6.186   6.363
 9050SOL     OW28048   0.316   4.336   1.250
 9050SOL    HW128049   0.266   4.280   1.183
 9050SOL    HW228050   0.257   4.355   1.328
 9051SOL     OW28051   2.290   1.986   1.094
 9051SOL    HW128052   2.373   1.931   1.104
 9051SOL    HW228053   2.312   2.082   1.108
 9052SOL     OW28054   1.683   3.190   5.050
 9052SOL    HW128055   1.712   3.252   4.977
 9052SOL    HW228056   1.670   3.241   5.135
 9053SOL     OW28057   1.638   1.862   1.146
 9053SOL    HW128058   1.723   1.822   1.112
 9053SOL    HW228059   1.654   1.955   1.177
 9054SOL     OW28060   2.635   5.413   3.353
 9054SOL    HW128061   2.694   5.383   3.278
 9054SOL    HW228062   2.670   5.497   3.392
 9055SOL     OW28063   0.220   4.320   4.710
 9055SOL    HW128064   0.316   4.344   4.724
 9055SOL    HW228065   0.206   4.224   4.735
 9056SOL     OW28066   6.602   1.845   2.421
 9056SOL    HW128067   6.699   1.838   2.397
 9056SOL    HW228068   6.586   1.931   2.469
 9057SOL     OW28069   4.438   1.384   4.392
 9057SOL    HW128070   4.537   1.397   4.402
 9057SOL    HW228071   4.406   1.319   4.462
 9058SOL     OW28072   1.834   0.942   6.582
 9058SOL    HW128073   1.915   0.990   6.615
 9058SOL    HW228074   1.813   0.973   6.489
 9059SOL     OW28075   1.432   1.504   2.352
 9059SOL    HW128076   1.496   1.490   2.276
 9059SOL    HW228077   1.459   1.585   2.404
 9060SOL     OW28078   5.673   2.943   5.018
 9060SOL    HW128079   5.599   2.941   4.952
 9060SOL    HW228080   5.645   2.895   5.101
 9061SOL     OW28081   5.228   5.713   2.385
 9061SOL    HW128082   5.140   5.752   2.414
 9061SOL    HW228083   5.259   5.648   2.454
 9062SOL     OW28084   1.230   5.155   1.040
 9062SOL    HW128085   1.209   5.250   1.064
 9062SOL    HW228086   1.148   5.099   1.045
 9063SOL     OW28087   3.337   2.058   2.569
 9063SOL    HW128088   3.322   2.110   2.485
 9063SOL    HW228089   3.371   1.967   2.546
 9064SOL     OW28090   6.479   3.231   6.764
 9064SOL    HW128091   6.515   3.307   6.710
 9064SOL    HW228092   6.533   3.149   6.747
 9065SOL     OW28093   2.154   1.015   0.494
 9065SOL    HW128094   2.166   0.981   0.587
 9065SOL    HW228095   2.076   0.968   0.451
 9066SOL     OW28096   4.589   6.706   0.201
 9066SOL    HW128097   4.640   6.792   0.191
 9066SOL    HW228098   4.503   6.713   0.151
 9067SOL     OW28099   1.708   6.794   3.730
 9067SOL    HW128100   1.639   6.854   3.689
 9067SOL    HW228101   1.736   6.831   3.818
 9068SOL     OW28102   1.513   5.500   6.764
 9068SOL    HW128103   1.430   5.470   6.811
 9068SOL    HW228104   1.593   5.457   6.807
 9069SOL     OW28105   1.513   2.417   6.404
 9069SOL    HW128106   1.504   2.516   6.413
 9069SOL    HW228107   1.603   2.395   6.367
 9070SOL     OW28108   1.014   4.642   4.420
 9070SOL    HW128109   0.947   4.572   4.394
 9070SOL    HW228110   0.966   4.727   4.443
 9071SOL     OW28111   6.059   6.651   6.946
 9071SOL    HW128112   6.109   6.737   6.961
 9071SOL    HW228113   6.003   6.659   6.864
 9072SOL     OW28114   5.966   4.291   6.709
 9072SOL    HW128115   5.983   4.318   6.804
 9072SOL    HW228116   5.878   4.243   6.704
 9073SOL     OW28117   1.920   0.682   1.570
 9073SOL    HW128118   1.898   0.588   1.543
 9073SOL    HW228119   1.923   0.687   1.670
 9074SOL     OW28120   1.207   6.930   3.093
 9074SOL    HW128121   1.246   7.005   3.039
 9074SOL    HW228122   1.134   6.885   3.042
 9075SOL     OW28123   6.907   0.993   2.277
 9075SOL    HW128124   6.920   0.899   2.309
 9075SOL    HW228125   6.810   1.016   2.282
 9076SOL     OW28126   6.589   1.005   5.993
 9076SOL    HW128127   6.524   1.021   5.919
 9076SOL    HW228128   6.545   1.021   6.081
 9077SOL     OW28129   5.874   6.817   2.253
 9077SOL    HW128130   5.974   6.815   2.260
 9077SOL    HW228131   5.838   6.892   2.308
 9078SOL     OW28132   3.777   2.939   5.127
 9078SOL    HW128133   3.834   2.945   5.045
 9078SOL    HW228134   3.684   2.968   5.105
 9079SOL     OW28135   3.755   0.418   5.985
 9079SOL    HW128136   3.806   0.383   6.064
 9079SOL    HW228137   3.775   0.515   5.973
 9080SOL     OW28138   5.130   1.956   0.976
 9080SOL    HW128139   5.166   2.048   0.959
 9080SOL    HW228140   5.177   1.917   1.056
 9081SOL     OW28141   5.637   6.895   2.056
 9081SOL    HW128142   5.651   6.994   2.068
 9081SOL    HW228143   5.720   6.846   2.085
 9082SOL     OW28144   3.488   1.374   3.534
 9082SOL    HW128145   3.442   1.350   3.620
 9082SOL    HW228146   3.481   1.473   3.520
 9083SOL     OW28147   4.407   4.686   4.713
 9083SOL    HW128148   4.460   4.603   4.694
 9083SOL    HW228149   4.355   4.674   4.797
 9084SOL     OW28150   2.920   3.233   3.101
 9084SOL    HW128151   2.820   3.223   3.097
 9084SOL    HW228152   2.960   3.150   3.140
 9085SOL     OW28153   0.902   2.213   0.686
 9085SOL    HW128154   0.978   2.273   0.662
 9085SOL    HW228155   0.924   2.163   0.769
 9086SOL     OW28156   0.318   4.363   0.811
 9086SOL    HW128157   0.396   4.412   0.772
 9086SOL    HW228158   0.346   4.271   0.838
 9087SOL     OW28159   4.850   3.663   1.842
 9087SOL    HW128160   4.947   3.654   1.818
 9087SOL    HW228161   4.827   3.595   1.912
 9088SOL     OW28162   5.210   0.098   0.164
 9088SOL    HW128163   5.287   0.062   0.217
 9088SOL    HW228164   5.237   0.186   0.123
 9089SOL     OW28165   4.724   0.301   5.459
 9089SOL    HW128166   4.697   0.295   5.363
 9089SOL    HW228167   4.809   0.250   5.473
 9090SOL     OW28168   6.345   1.653   4.733
 9090SOL    HW128169   6.350   1.713   4.653
 9090SOL    HW228170   6.254   1.661   4.775
 9091SOL     OW28171   2.964   3.493   6.907
 9091SOL    HW128172   3.052   3.510   6.953
 9091SOL    HW228173   2.890   3.502   6.974
 9092SOL     OW28174   0.183   2.376   0.029
 9092SOL    HW128175   0.277   2.399   0.053
 9092SOL    HW228176   0.176   2.360   6.951
 9093SOL     OW28177   1.201   6.130   5.860
 9093SOL    HW128178   1.149   6.170   5.935
 9093SOL    HW228179   1.294   6.110   5.890
 9094SOL     OW28180   0.772   3.653   1.859
 9094SOL    HW128181   0.786   3.752   1.852
 9094SOL    HW228182   0.860   3.606   1.847
 9095SOL     OW28183   5.941   6.429   4.803
 9095SOL    HW128184   5.995   6.359   4.851
 9095SOL    HW228185   5.887   6.386   4.731
 9096SOL     OW28186   6.291   5.877   3.395
 9096SOL    HW128187   6.364   5.942   3.375
 9096SOL    HW228188   6.208   5.904   3.345
 9097SOL     OW28189   1.303   2.871   6.106
 9097SOL    HW128190   1.253   2.856   6.191
 9097SOL    HW228191   1.398   2.894   6.126
 9098SOL     OW28192   1.680   3.649   3.932
 9098SOL    HW128193   1.711   3.657   4.027
 9098SOL    HW228194   1.612   3.576   3.925
 9099SOL     OW28195   2.737   2.801   6.949
 9099SOL    HW128196   2.682   2.882   6.966
 9099SOL    HW228197   2.678   2.726   6.919
 9100SOL     OW28198   0.571   4.759   3.073
 9100SOL    HW128199   0.605   4.680   3.124
 9100SOL    HW228200   0.630   4.838   3.092
 9101SOL     OW28201   1.058   2.885   1.828
 9101SOL    HW128202   0.969   2.841   1.839
 9101SOL    HW228203   1.130   2.818   1.843
 9102SOL     OW28204   4.019   6.505   3.236
 9102SOL    HW128205   3.999   6.464   3.147
 9102SOL    HW228206   3.937   6.506   3.292
 9103SOL     OW28207   6.203   1.499   0.608
 9103SOL    HW128208   6.129   1.556   0.574
 9103SOL    HW228209   6.188   1.476   0.704
 9104SOL     OW28210   6.049   1.265   6.798
 9104SOL    HW128211   6.082   1.209   6.874
 9104SOL    HW228212   5.966   1.223   6.760
 9105SOL     OW28213   2.242   0.438   6.353
 9105SOL    HW128214   2.213   0.348   6.321
 9105SOL    HW228215   2.200   0.509   6.296
 9106SOL     OW28216   1.526   4.148   1.026
 9106SOL    HW128217   1.545   4.122   1.121
 9106SOL    HW228218   1.449   4.212   1.024
 9107SOL     OW28219   2.360   0.932   0.061
 9107SOL    HW128220   2.456   0.942   0.035
 9107SOL    HW228221   2.315   1.022   0.060
 9108SOL     OW28222   5.887   5.511   6.228
 9108SOL    HW128223   5.969   5.454   6.232
 9108SOL    HW228224   5.907   5.593   6.176
 9109SOL     OW28225   5.327   3.533   2.478
 9109SOL    HW128226   5.255   3.480   2.433
 9109SOL    HW228227   5.300   3.629   2.481
 9110SOL     OW28228   1.511   6.138   4.558
 9110SOL    HW128229   1.502   6.205   4.631
 9110SOL    HW228230   1.422   6.125   4.513
 9111SOL     OW28231   4.254   2.478   6.201
 9111SOL    HW128232   4.297   2.502   6.114
 9111SOL    HW228233   4.246   2.560   6.257
 9112SOL     OW28234   0.963   5.676   2.048
 9112SOL    HW128235   0.923   5.611   2.112
 9112SOL    HW228236   0.966   5.767   2.090
 9113SOL     OW28237   5.608   1.466   3.924
 9113SOL    HW128238   5.627   1.514   4.010
 9113SOL    HW228239   5.687   1.474   3.863
 9114SOL     OW28240   1.313   6.203   5.426
 9114SOL    HW128241   1.365   6.286   5.407
 9114SOL    HW228242   1.218   6.227   5.449
 9115SOL     OW28243   5.062   4.351   3.926
 9115SOL    HW128244   5.131   4.423   3.925
 9115SOL    HW228245   5.100   4.266   3.890
 9116SOL     OW28246   1.499   6.911   3.610
 9116SOL    HW128247   1.531   6.912   3.516
 9116SOL    HW228248   1.456   7.000   3.632
 9117SOL     OW28249   3.394   6.827   0.470
 9117SOL    HW128250   3.425   6.921   0.462
 9117SOL    HW228251   3.465   6.771   0.513
 9118SOL     OW28252   6.130   4.297   1.597
 9118SOL    HW128253   6.220   4.291   1.553
 9118SOL    HW228254   6.115   4.215   1.652
 9119SOL     OW28255   3.376   0.374   0.549
 9119SOL    HW128256   3.346   0.283   0.574
 9119SOL    HW228257   3.471   0.387   0.576
 9120SOL     OW28258   5.864   3.969   4.921
 9120SOL    HW128259   5.909   3.957   4.832
 9120SOL    HW228260   5.853   4.066   4.940
 9121SOL     OW28261   3.276   0.822   5.210
 9121SOL    HW128262   3.195   0.810   5.153
 9121SOL    HW228263   3.258   0.892   5.279
 9122SOL     OW28264   1.535   3.856   2.183
 9122SOL    HW128265   1.442   3.884   2.161
 9122SOL    HW228266   1.557   3.771   2.134
 9123SOL     OW28267   0.269   0.294   4.150
 9123SOL    HW128268   0.274   0.336   4.241
 9123SOL    HW228269   0.341   0.226   4.141
 9124SOL     OW28270   2.911   5.445   1.187
 9124SOL    HW128271   3.004   5.430   1.220
 9124SOL    HW228272   2.895   5.543   1.176
 9125SOL     OW28273   4.614   5.821   0.876
 9125SOL    HW128274   4.587   5.890   0.809
 9125SOL    HW228275   4.679   5.758   0.834
 9126SOL     OW28276   3.800   4.632   0.284
 9126SOL    HW128277   3.895   4.603   0.295
 9126SOL    HW228278   3.759   4.645   0.374
 9127SOL     OW28279   6.924   4.751   4.133
 9127SOL    HW128280   6.876   4.746   4.045
 9127SOL    HW228281   6.857   4.764   4.206
 9128SOL     OW28282   5.923   3.875   6.199
 9128SOL    HW128283   6.014   3.889   6.162
 9128SOL    HW228284   5.880   3.964   6.216
 9129SOL     OW28285   1.078   2.738   0.836
 9129SOL    HW128286   1.128   2.656   0.809
 9129SOL    HW228287   1.138   2.818   0.827
 9130SOL     OW28288   3.054   4.010   4.738
 9130SOL    HW128289   3.019   4.041   4.826
 9130SOL    HW228290   3.152   4.025   4.734
 9131SOL     OW28291   4.909   2.459   0.412
 9131SOL    HW128292   4.832   2.521   0.427
 9131SOL    HW228293   4.919   2.441   0.314
 9132SOL     OW28294   6.766   4.097   3.618
 9132SOL    HW128295   6.823   4.101   3.700
 9132SOL    HW228296   6.712   4.012   3.620
 9133SOL     OW28297   4.644   0.802   0.890
 9133SOL    HW128298   4.664   0.850   0.975
 9133SOL    HW228299   4.723   0.748   0.863
 9134SOL     OW28300   4.524   4.879   0.472
 9134SOL    HW128301   4.573   4.963   0.496
 9134SOL    HW228302   4.463   4.854   0.546
 9135SOL     OW28303   6.578   6.670   2.354
 9135SOL    HW128304   6.565   6.615   2.436
 9135SOL    HW228305   6.493   6.670   2.301
 9136SOL     OW28306   6.474   4.704   0.186
 9136SOL    HW128307   6.414   4.784   0.183
 9136SOL    HW228308   6.471   4.663   0.277
 9137SOL     OW28309   5.274   6.266   6.195
 9137SOL    HW128310   5.197   6.214   6.158
 9137SOL    HW228311   5.258   6.284   6.292
 9138SOL     OW28312   3.097   3.148   0.303
 9138SOL    HW128313   3.046   3.066   0.278
 9138SOL    HW228314   3.063   3.183   0.391
 9139SOL     OW28315   6.596   0.251   1.100
 9139SOL    HW128316   6.566   0.174   1.157
 9139SOL    HW228317   6.565   0.337   1.142
 9140SOL     OW28318   1.197   3.603   3.265
 9140SOL    HW128319   1.148   3.601   3.178
 9140SOL    HW228320   1.294   3.583   3.249
 9141SOL     OW28321   6.617   5.752   4.956
 9141SOL    HW128322   6.713   5.722   4.954
 9141SOL    HW228323   6.567   5.706   4.883
 9142SOL     OW28324   1.442   4.358   4.575
 9142SOL    HW128325   1.345   4.336   4.584
 9142SOL    HW228326   1.496   4.276   4.592
 9143SOL     OW28327   6.557   4.334   2.805
 9143SOL    HW128328   6.598   4.397   2.871
 9143SOL    HW228329   6.604   4.246   2.807
 9144SOL     OW28330   2.595   4.824   5.004
 9144SOL    HW128331   2.687   4.785   5.000
 9144SOL    HW228332   2.531   4.763   4.958
 9145SOL     OW28333   1.459   5.919   5.704
 9145SOL    HW128334   1.374   5.878   5.671
 9145SOL    HW228335   1.493   5.866   5.781
 9146SOL     OW28336   5.601   2.563   3.572
 9146SOL    HW128337   5.511   2.522   3.581
 9146SOL    HW228338   5.621   2.616   3.655
 9147SOL     OW28339   4.101   0.280   5.119
 9147SOL    HW128340   4.166   0.220   5.072
 9147SOL    HW228341   4.010   0.241   5.113
 9148SOL     OW28342   5.570   5.817   1.425
 9148SOL    HW128343   5.481   5.805   1.470
 9148SOL    HW228344   5.640   5.833   1.494
 9149SOL     OW28345   0.123   3.781   1.238
 9149SOL    HW128346   0.223   3.778   1.243
 9149SOL    HW228347   0.089   3.695   1.200
 9150SOL     OW28348   2.186   2.927   0.192
 9150SOL    HW128349   2.245   2.854   0.226
 9150SOL    HW228350   2.096   2.919   0.234
 9151SOL     OW28351   1.601   3.455   3.592
 9151SOL    HW128352   1.566   3.371   3.633
 9151SOL    HW228353   1.524   3.508   3.556
 9152SOL     OW28354   1.637   4.051   2.035
 9152SOL    HW128355   1.600   3.969   2.080
 9152SOL    HW228356   1.727   4.030   1.998
 9153SOL     OW28357   0.709   3.343   6.141
 9153SOL    HW128358   0.743   3.401   6.215
 9153SOL    HW228359   0.616   3.371   6.116
 9154SOL     OW28360   5.499   5.380   2.919
 9154SOL    HW128361   5.472   5.467   2.877
 9154SOL    HW228362   5.553   5.327   2.854
 9155SOL     OW28363   1.309   6.566   3.095
 9155SOL    HW128364   1.393   6.609   3.061
 9155SOL    HW228365   1.235   6.582   3.030
 9156SOL     OW28366   6.578   3.953   6.172
 9156SOL    HW128367   6.603   4.027   6.234
 9156SOL    HW228368   6.647   3.880   6.178
 9157SOL     OW28369   1.459   4.525   6.443
 9157SOL    HW128370   1.471   4.428   6.463
 9157SOL    HW228371   1.526   4.579   6.493
 9158SOL     OW28372   6.790   4.104   4.750
 9158SOL    HW128373   6.694   4.081   4.735
 9158SOL    HW228374   6.800   4.204   4.756
 9159SOL     OW28375   3.040   1.668   4.125
 9159SOL    HW128376   3.093   1.747   4.096
 9159SOL    HW228377   2.944   1.680   4.100
 9160SOL     OW28378   0.607   4.261   1.779
 9160SOL    HW128379   0.579   4.209   1.698
 9160SOL    HW228380   0.706   4.267   1.783
 9161SOL     OW28381   6.752   4.223   2.448
 9161SOL    HW128382   6.691   4.240   2.370
 9161SOL    HW228383   6.729   4.135   2.490
 9162SOL     OW28384   4.222   1.999   1.563
 9162SOL    HW128385   4.231   2.085   1.613
 9162SOL    HW228386   4.270   1.926   1.612
 9163SOL     OW28387   2.015   2.303   3.278
 9163SOL    HW128388   1.977   2.378   3.331
 9163SOL    HW228389   2.099   2.333   3.234
 9164SOL     OW28390   2.751   6.139   6.807
 9164SOL    HW128391   2.820   6.142   6.735
 9164SOL    HW228392   2.792   6.168   6.894
 9165SOL     OW28393   6.058   1.675   5.798
 9165SOL    HW128394   6.008   1.750   5.841
 9165SOL    HW228395   6.000   1.594   5.792
 9166SOL     OW28396   4.908   6.260   1.299
 9166SOL    HW128397   4.924   6.310   1.385
 9166SOL    HW228398   4.914   6.323   1.222
 9167SOL     OW28399   1.961   1.241   5.142
 9167SOL    HW128400   1.895   1.295   5.196
 9167SOL    HW228401   1.920   1.153   5.119
 9168SOL     OW28402   6.470   6.017   4.593
 9168SOL    HW128403   6.395   6.012   4.527
 9168SOL    HW228404   6.550   5.971   4.557
 9169SOL     OW28405   6.643   6.276   1.830
 9169SOL    HW128406   6.722   6.273   1.892
 9169SOL    HW228407   6.571   6.216   1.865
 9170SOL     OW28408   1.456   0.941   6.448
 9170SOL    HW128409   1.531   0.887   6.410
 9170SOL    HW228410   1.492   1.024   6.490
 9171SOL     OW28411   3.507   5.047   6.179
 9171SOL    HW128412   3.594   5.097   6.178
 9171SOL    HW228413   3.441   5.096   6.236
 9172SOL     OW28414   4.587   1.868   4.665
 9172SOL    HW128415   4.508   1.878   4.604
 9172SOL    HW228416   4.632   1.781   4.647
 9173SOL     OW28417   5.592   3.658   4.924
 9173SOL    HW128418   5.503   3.613   4.935
 9173SOL    HW228419   5.578   3.755   4.906
 9174SOL     OW28420   6.893   5.031   0.855
 9174SOL    HW128421   6.814   5.092   0.856
 9174SOL    HW228422   6.871   4.948   0.805
 9175SOL     OW28423   2.204   7.012   0.180
 9175SOL    HW128424   2.126   6.972   0.227
 9175SOL    HW228425   2.269   0.025   0.247
 9176SOL     OW28426   1.668   1.527   2.161
 9176SOL    HW128427   1.715   1.594   2.219
 9176SOL    HW228428   1.610   1.575   2.096
 9177SOL     OW28429   0.425   5.584   3.558
 9177SOL    HW128430   0.429   5.488   3.582
 9177SOL    HW228431   0.503   5.608   3.499
 9178SOL     OW28432   1.900   4.841   0.971
 9178SOL    HW128433   1.955   4.908   0.923
 9178SOL    HW228434   1.899   4.862   1.069
 9179SOL     OW28435   3.147   5.175   3.946
 9179SOL    HW128436   3.058   5.151   3.907
 9179SOL    HW228437   3.191   5.091   3.979
 9180SOL     OW28438   0.292   1.418   5.231
 9180SOL    HW128439   0.220   1.411   5.161
 9180SOL    HW228440   0.370   1.362   5.203
 9181SOL     OW28441   2.392   2.081   3.502
 9181SOL    HW128442   2.441   1.996   3.523
 9181SOL    HW228443   2.415   2.111   3.410
 9182SOL     OW28444   0.679   1.620   2.910
 9182SOL    HW128445   0.720   1.543   2.959
 9182SOL    HW228446   0.636   1.682   2.976
 9183SOL     OW28447   1.550   1.925   6.255
 9183SOL    HW128448   1.599   1.852   6.207
 9183SOL    HW228449   1.478   1.884   6.312
 9184SOL     OW28450   3.987   3.647   0.690
 9184SOL    HW128451   4.063   3.709   0.670
 9184SOL    HW228452   4.023   3.555   0.706
 9185SOL     OW28453   1.580   0.760   6.271
 9185SOL    HW128454   1.639   0.681   6.286
 9185SOL    HW228455   1.595   0.795   6.178
 9186SOL     OW28456   5.268   1.022   6.345
 9186SOL    HW128457   5.191   0.987   6.398
 9186SOL    HW228458   5.343   1.045   6.407
 9187SOL     OW28459   5.719   2.399   0.544
 9187SOL    HW128460   5.642   2.414   0.607
 9187SOL    HW228461   5.686   2.407   0.450
 9188SOL     OW28462   1.617   0.168   2.108
 9188SOL    HW128463   1.554   0.244   2.125
 9188SOL    HW228464   1.667   0.185   2.022
 9189SOL     OW28465   4.706   1.203   5.773
 9189SOL    HW128466   4.708   1.151   5.858
 9189SOL    HW228467   4.784   1.177   5.716
 9190SOL     OW28468   5.635   1.918   5.427
 9190SOL    HW128469   5.568   1.854   5.465
 9190SOL    HW228470   5.617   1.930   5.329
 9191SOL     OW28471   5.307   0.199   0.999
 9191SOL    HW128472   5.373   0.125   0.986
 9191SOL    HW228473   5.354   0.287   0.994
 9192SOL     OW28474   4.927   3.766   3.845
 9192SOL    HW128475   4.941   3.836   3.775
 9192SOL    HW228476   4.914   3.677   3.802
 9193SOL     OW28477   3.394   2.846   3.317
 9193SOL    HW128478   3.388   2.805   3.226
 9193SOL    HW228479   3.490   2.870   3.336
 9194SOL     OW28480   4.125   5.861   2.624
 9194SOL    HW128481   4.076   5.947   2.612
 9194SOL    HW228482   4.060   5.790   2.653
 9195SOL     OW28483   6.782   2.852   2.825
 9195SOL    HW128484   6.743   2.780   2.882
 9195SOL    HW228485   6.709   2.903   2.781
 9196SOL     OW28486   5.120   6.748   3.792
 9196SOL    HW128487   5.022   6.750   3.810
 9196SOL    HW228488   5.146   6.831   3.743
 9197SOL     OW28489   3.985   2.553   6.075
 9197SOL    HW128490   3.951   2.643   6.048
 9197SOL    HW228491   4.061   2.565   6.139
 9198SOL     OW28492   5.868   2.245   5.504
 9198SOL    HW128493   5.793   2.262   5.568
 9198SOL    HW228494   5.895   2.148   5.510
 9199SOL     OW28495   2.021   3.548   6.102
 9199SOL    HW128496   1.983   3.514   6.016
 9199SOL    HW228497   1.947   3.580   6.161
 9200SOL     OW28498   5.671   6.503   0.902
 9200SOL    HW128499   5.631   6.448   0.976
 9200SOL    HW228500   5.682   6.445   0.821
 9201SOL     OW28501   1.377   3.842   2.632
 9201SOL    HW128502   1.438   3.850   2.552
 9201SOL    HW228503   1.400   3.760   2.683
 9202SOL     OW28504   3.132   5.557   3.874
 9202SOL    HW128505   3.162   5.497   3.949
 9202SOL    HW228506   3.191   5.542   3.795
 9203SOL     OW28507   4.874   0.798   6.275
 9203SOL    HW128508   4.931   0.877   6.253
 9203SOL    HW228509   4.782   0.829   6.301
 9204SOL     OW28510   5.227   4.120   2.208
 9204SOL    HW128511   5.130   4.141   2.212
 9204SOL    HW228512   5.272   4.184   2.145
 9205SOL     OW28513   4.904   3.093   2.268
 9205SOL    HW128514   4.916   2.994   2.269
 9205SOL    HW228515   4.854   3.120   2.185
 9206SOL     OW28516   0.987   6.572   3.378
 9206SOL    HW128517   1.079   6.535   3.372
 9206SOL    HW228518   0.922   6.504   3.343
 9207SOL     OW28519   4.091   6.244   6.959
 9207SOL    HW128520   4.170   6.305   6.949
 9207SOL    HW228521   4.047   6.231   6.870
 9208SOL     OW28522   4.787   4.344   1.906
 9208SOL    HW128523   4.702   4.308   1.945
 9208SOL    HW228524   4.770   4.434   1.866
 9209SOL     OW28525   3.816   0.035   3.166
 9209SOL    HW128526   3.751   7.006   3.223
 9209SOL    HW228527   3.902   0.045   3.216
 9210SOL     OW28528   1.323   6.631   0.380
 9210SOL    HW128529   1.236   6.679   0.390
 9210SOL    HW228530   1.312   6.557   0.312
 9211SOL     OW28531   5.161   1.469   6.240
 9211SOL    HW128532   5.152   1.511   6.330
 9211SOL    HW228533   5.099   1.391   6.233
 9212SOL     OW28534   5.319   3.591   4.908
 9212SOL    HW128535   5.314   3.546   4.997
 9212SOL    HW228536   5.279   3.682   4.914
 9213SOL     OW28537   6.406   6.986   2.638
 9213SOL    HW128538   6.454   0.017   2.708
 9213SOL    HW228539   6.429   0.001   2.548
 9214SOL     OW28540   2.482   2.413   5.496
 9214SOL    HW128541   2.573   2.447   5.520
 9214SOL    HW228542   2.413   2.481   5.521
 9215SOL     OW28543   0.057   2.848   2.878
 9215SOL    HW128544   6.983   2.856   2.847
 9215SOL    HW228545   0.111   2.800   2.808
 9216SOL     OW28546   2.822   5.738   3.991
 9216SOL    HW128547   2.838   5.824   3.942
 9216SOL    HW228548   2.747   5.688   3.947
 9217SOL     OW28549   4.250   1.222   6.425
 9217SOL    HW128550   4.349   1.220   6.435
 9217SOL    HW228551   4.217   1.129   6.406
 9218SOL     OW28552   5.749   5.831   6.043
 9218SOL    HW128553   5.667   5.800   6.091
 9218SOL    HW228554   5.830   5.807   6.096
 9219SOL     OW28555   3.397   2.272   5.767
 9219SOL    HW128556   3.422   2.368   5.754
 9219SOL    HW228557   3.305   2.256   5.731
 9220SOL     OW28558   0.544   7.003   2.954
 9220SOL    HW128559   0.534   6.912   2.912
 9220SOL    HW228560   0.519   0.052   2.887
 9221SOL     OW28561   2.022   1.477   0.220
 9221SOL    HW128562   1.990   1.539   0.148
 9221SOL    HW228563   1.946   1.420   0.250
 9222SOL     OW28564   1.724   3.234   4.349
 9222SOL    HW128565   1.773   3.311   4.309
 9222SOL    HW228566   1.714   3.248   4.447
 9223SOL     OW28567   0.462   2.967   5.405
 9223SOL    HW128568   0.499   2.943   5.315
 9223SOL    HW228569   0.405   2.892   5.438
 9224SOL     OW28570   2.589   4.755   3.340
 9224SOL    HW128571   2.624   4.735   3.248
 9224SOL    HW228572   2.607   4.851   3.362
 9225SOL     OW28573   5.716   6.088   6.207
 9225SOL    HW128574   5.683   6.040   6.126
 9225SOL    HW228575   5.641   6.141   6.247
 9226SOL     OW28576   0.666   0.765   0.391
 9226SOL    HW128577   0.735   0.779   0.320
 9226SOL    HW228578   0.576   0.760   0.348
 9227SOL     OW28579   2.900   4.190   0.495
 9227SOL    HW128580   2.959   4.109   0.495
 9227SOL    HW228581   2.865   4.206   0.588
 9228SOL     OW28582   3.443   3.466   5.044
 9228SOL    HW128583   3.491   3.506   4.966
 9228SOL    HW228584   3.507   3.454   5.120
 9229SOL     OW28585   6.608   5.002   0.173
 9229SOL    HW128586   6.701   5.024   0.143
 9229SOL    HW228587   6.550   4.988   0.093
 9230SOL     OW28588   4.084   1.338   5.169
 9230SOL    HW128589   4.093   1.316   5.071
 9230SOL    HW228590   4.013   1.406   5.181
 9231SOL     OW28591   6.695   6.199   2.530
 9231SOL    HW128592   6.621   6.175   2.593
 9231SOL    HW228593   6.754   6.119   2.517
 9232SOL     OW28594   1.285   5.286   2.296
 9232SOL    HW128595   1.239   5.199   2.279
 9232SOL    HW228596   1.353   5.275   2.368
 9233SOL     OW28597   0.878   6.613   6.080
 9233SOL    HW128598   0.861   6.710   6.062
 9233SOL    HW228599   0.923   6.572   6.001
 9234SOL     OW28600   2.543   3.769   6.735
 9234SOL    HW128601   2.465   3.725   6.780
 9234SOL    HW228602   2.596   3.820   6.802
 9235SOL     OW28603   1.892   1.693   3.116
 9235SOL    HW128604   1.940   1.680   3.029
 9235SOL    HW228605   1.859   1.787   3.122
 9236SOL     OW28606   1.785   3.046   6.649
 9236SOL    HW128607   1.878   3.030   6.616
 9236SOL    HW228608   1.747   3.126   6.604
 9237SOL     OW28609   5.719   5.259   3.216
 9237SOL    HW128610   5.680   5.202   3.144
 9237SOL    HW228611   5.724   5.354   3.185
 9238SOL     OW28612   1.797   2.950   4.590
 9238SOL    HW128613   1.707   2.967   4.551
 9238SOL    HW228614   1.788   2.892   4.671
 9239SOL     OW28615   1.461   4.330   0.016
 9239SOL    HW128616   1.465   4.427   0.040
 9239SOL    HW228617   1.464   4.320   6.937
 9240SOL     OW28618   4.676   1.788   3.284
 9240SOL    HW128619   4.614   1.844   3.339
 9240SOL    HW228620   4.753   1.758   3.341
 9241SOL     OW28621   5.136   0.377   0.758
 9241SOL    HW128622   5.152   0.450   0.825
 9241SOL    HW228623   5.083   0.303   0.800
 9242SOL     OW28624   1.997   2.539   0.353
 9242SOL    HW128625   2.080   2.591   0.373
 9242SOL    HW228626   1.992   2.521   0.255
 9243SOL     OW28627   1.543   0.235   0.065
 9243SOL    HW128628   1.624   0.192   0.104
 9243SOL    HW228629   1.564   0.329   0.040
 9244SOL     OW28630   3.889   6.814   5.997
 9244SOL    HW128631   3.801   6.789   6.038
 9244SOL    HW228632   3.875   6.889   5.932
 9245SOL     OW28633   1.342   4.869   2.844
 9245SOL    HW128634   1.382   4.843   2.932
 9245SOL    HW228635   1.253   4.912   2.860
 9246SOL     OW28636   5.287   0.230   6.490
 9246SOL    HW128637   5.281   0.301   6.561
 9246SOL    HW228638   5.383   0.206   6.474
 9247SOL     OW28639   4.051   5.585   2.819
 9247SOL    HW128640   4.136   5.547   2.783
 9247SOL    HW228641   4.035   5.551   2.911
 9248SOL     OW28642   2.350   0.692   6.730
 9248SOL    HW128643   2.289   0.743   6.790
 9248SOL    HW228644   2.372   0.748   6.650
 9249SOL     OW28645   2.586   6.217   0.485
 9249SOL    HW128646   2.558   6.161   0.563
 9249SOL    HW228647   2.577   6.314   0.508
 9250SOL     OW28648   0.431   2.754   4.251
 9250SOL    HW128649   0.355   2.731   4.310
 9250SOL    HW228650   0.449   2.852   4.256
 9251SOL     OW28651   2.786   2.050   0.706
 9251SOL    HW128652   2.740   2.065   0.793
 9251SOL    HW228653   2.868   2.108   0.701
 9252SOL     OW28654   5.793   1.649   5.405
 9252SOL    HW128655   5.849   1.621   5.327
 9252SOL    HW228656   5.726   1.718   5.376
 9253SOL     OW28657   1.524   6.037   4.895
 9253SOL    HW128658   1.492   6.108   4.957
 9253SOL    HW228659   1.581   6.079   4.823
 9254SOL     OW28660   0.212   4.888   2.202
 9254SOL    HW128661   0.132   4.909   2.146
 9254SOL    HW228662   0.248   4.973   2.241
 9255SOL     OW28663   6.629   4.489   1.027
 9255SOL    HW128664   6.576   4.474   1.110
 9255SOL    HW228665   6.594   4.569   0.979
 9256SOL     OW28666   2.838   6.428   1.035
 9256SOL    HW128667   2.906   6.358   1.057
 9256SOL    HW228668   2.790   6.403   0.952
 9257SOL     OW28669   6.298   5.825   4.417
 9257SOL    HW128670   6.365   5.766   4.373
 9257SOL    HW228671   6.210   5.817   4.370
 9258SOL     OW28672   3.577   5.188   1.096
 9258SOL    HW128673   3.641   5.165   1.169
 9258SOL    HW228674   3.606   5.273   1.051
 9259SOL     OW28675   1.745   2.134   0.349
 9259SOL    HW128676   1.683   2.195   0.399
 9259SOL    HW228677   1.692   2.079   0.284
 9260SOL     OW28678   5.159   3.782   4.561
 9260SOL    HW128679   5.220   3.702   4.561
 9260SOL    HW228680   5.203   3.857   4.610
 9261SOL     OW28681   3.281   2.128   1.171
 9261SOL    HW128682   3.325   2.046   1.136
 9261SOL    HW228683   3.184   2.127   1.147
 9262SOL     OW28684   6.948   6.106   5.721
 9262SOL    HW128685   6.901   6.184   5.762
 9262SOL    HW228686   6.941   6.027   5.782
 9263SOL     OW28687   2.011   4.541   3.356
 9263SOL    HW128688   1.980   4.492   3.275
 9263SOL    HW228689   2.108   4.565   3.346
 9264SOL     OW28690   5.309   4.375   6.393
 9264SOL    HW128691   5.237   4.435   6.358
 9264SOL    HW228692   5.273   4.319   6.468
 9265SOL     OW28693   5.868   1.578   1.615
 9265SOL    HW128694   5.780   1.537   1.641
 9265SOL    HW228695   5.937   1.507   1.607
 9266SOL     OW28696   1.462   4.604   1.284
 9266SOL    HW128697   1.463   4.522   1.340
 9266SOL    HW228698   1.369   4.621   1.251
 9267SOL     OW28699   6.624   0.383   4.085
 9267SOL    HW128700   6.644   0.458   4.148
 9267SOL    HW228701   6.531   0.350   4.100
 9268SOL     OW28702   0.291   0.090   1.221
 9268SOL    HW128703   0.325   0.094   1.127
 9268SOL    HW228704   0.349   0.029   1.276
 9269SOL     OW28705   2.911   0.960   0.398
 9269SOL    HW128706   2.969   0.880   0.413
 9269SOL    HW228707   2.829   0.933   0.348
 9270SOL     OW28708   2.809   0.347   6.553
 9270SOL    HW128709   2.810   0.250   6.579
 9270SOL    HW228710   2.772   0.401   6.629
 9271SOL     OW28711   1.432   5.797   4.976
 9271SOL    HW128712   1.489   5.876   4.952
 9271SOL    HW228713   1.415   5.742   4.895
 9272SOL     OW28714   7.009   6.597   6.080
 9272SOL    HW128715   6.975   6.553   6.163
 9272SOL    HW228716   0.073   6.554   6.051
 9273SOL     OW28717   5.133   4.306   3.570
 9273SOL    HW128718   5.051   4.264   3.607
 9273SOL    HW228719   5.202   4.236   3.554
 9274SOL     OW28720   0.769   3.320   0.726
 9274SOL    HW128721   0.751   3.240   0.668
 9274SOL    HW228722   0.768   3.292   0.822
 9275SOL     OW28723   6.205   0.854   0.335
 9275SOL    HW128724   6.205   0.852   0.435
 9275SOL    HW228725   6.190   0.947   0.303
 9276SOL     OW28726   2.503   5.285   0.085
 9276SOL    HW128727   2.516   5.268   0.183
 9276SOL    HW228728   2.548   5.370   0.059
 9277SOL     OW28729   5.509   5.329   2.195
 9277SOL    HW128730   5.519   5.275   2.112
 9277SOL    HW228731   5.441   5.286   2.255
 9278SOL     OW28732   1.023   6.971   5.445
 9278SOL    HW128733   0.954   0.005   5.493
 9278SOL    HW228734   1.008   6.977   5.347
 9279SOL     OW28735   3.501   5.489   1.737
 9279SOL    HW128736   3.472   5.560   1.802
 9279SOL    HW228737   3.437   5.413   1.740
 9280SOL     OW28738   1.825   6.528   2.930
 9280SOL    HW128739   1.760   6.510   3.004
 9280SOL    HW228740   1.840   6.443   2.878
 9281SOL     OW28741   2.032   5.784   0.687
 9281SOL    HW128742   1.953   5.803   0.629
 9281SOL    HW228743   2.019   5.827   0.777
 9282SOL     OW28744   3.300   6.866   5.283
 9282SOL    HW128745   3.335   6.807   5.211
 9282SOL    HW228746   3.374   6.923   5.318
 9283SOL     OW28747   4.164   6.500   1.281
 9283SOL    HW128748   4.242   6.546   1.239
 9283SOL    HW228749   4.194   6.448   1.361
 9284SOL     OW28750   4.424   4.078   5.638
 9284SOL    HW128751   4.408   3.985   5.604
 9284SOL    HW228752   4.472   4.073   5.725
 9285SOL     OW28753   0.590   5.332   2.938
 9285SOL    HW128754   0.608   5.420   2.893
 9285SOL    HW228755   0.493   5.310   2.931
 9286SOL     OW28756   4.140   6.925   1.748
 9286SOL    HW128757   4.081   6.848   1.775
 9286SOL    HW228758   4.093   6.980   1.680
 9287SOL     OW28759   3.667   4.225   5.666
 9287SOL    HW128760   3.639   4.217   5.762
 9287SOL    HW228761   3.585   4.229   5.608
 9288SOL     OW28762   3.605   1.530   2.557
 9288SOL    HW128763   3.511   1.539   2.525
 9288SOL    HW228764   3.641   1.620   2.580
 9289SOL     OW28765   5.108   6.962   0.505
 9289SOL    HW128766   5.170   6.987   0.430
 9289SOL    HW228767   5.014   6.983   0.478
 9290SOL     OW28768   5.109   1.306   4.489
 9290SOL    HW128769   5.097   1.393   4.537
 9290SOL    HW228770   5.058   1.309   4.402
 9291SOL     OW28771   1.370   4.028   6.210
 9291SOL    HW128772   1.383   3.932   6.185
 9291SOL    HW228773   1.276   4.043   6.240
 9292SOL     OW28774   1.242   1.144   0.066
 9292SOL    HW128775   1.162   1.124   0.010
 9292SOL    HW228776   1.293   1.059   0.082
 9293SOL     OW28777   5.086   2.451   4.439
 9293SOL    HW128778   5.177   2.442   4.479
 9293SOL    HW228779   5.032   2.515   4.494
 9294SOL     OW28780   4.481   6.938   6.350
 9294SOL    HW128781   4.541   6.954   6.429
 9294SOL    HW228782   4.491   7.014   6.285
 9295SOL     OW28783   0.175   1.219   4.812
 9295SOL    HW128784   0.194   1.222   4.713
 9295SOL    HW228785   0.135   1.130   4.836
 9296SOL     OW28786   2.424   5.255   5.918
 9296SOL    HW128787   2.439   5.172   5.864
 9296SOL    HW228788   2.449   5.238   6.013
 9297SOL     OW28789   6.173   5.997   2.326
 9297SOL    HW128790   6.244   6.026   2.391
 9297SOL    HW228791   6.180   6.053   2.243
 9298SOL     OW28792   1.082   4.266   6.499
 9298SOL    HW128793   1.030   4.327   6.559
 9298SOL    HW228794   1.081   4.303   6.406
 9299SOL     OW28795   2.472   2.565   4.514
 9299SOL    HW128796   2.416   2.638   4.553
 9299SOL    HW228797   2.513   2.511   4.587
 9300SOL     OW28798   1.819   6.098   5.421
 9300SOL    HW128799   1.731   6.056   5.401
 9300SOL    HW228800   1.805   6.181   5.475
 9301SOL     OW28801   6.821   4.269   4.366
 9301SOL    HW128802   6.872   4.184   4.374
 9301SOL    HW228803   6.883   4.347   4.372
 9302SOL     OW28804   2.167   3.622   4.784
 9302SOL    HW128805   2.152   3.642   4.687
 9302SOL    HW228806   2.225   3.693   4.824
 9303SOL     OW28807   2.369   4.503   0.027
 9303SOL    HW128808   2.448   4.475   0.081
 9303SOL    HW228809   2.363   4.445   6.966
 9304SOL     OW28810   4.851   5.521   6.586
 9304SOL    HW128811   4.821   5.529   6.491
 9304SOL    HW228812   4.933   5.464   6.591
 9305SOL     OW28813   1.370   2.163   1.067
 9305SOL    HW128814   1.424   2.095   1.117
 9305SOL    HW228815   1.424   2.246   1.054
 9306SOL     OW28816   6.868   6.300   5.003
 9306SOL    HW128817   6.947   6.243   5.026
 9306SOL    HW228818   6.796   6.243   4.965
 9307SOL     OW28819   1.583   3.541   1.582
 9307SOL    HW128820   1.660   3.596   1.612
 9307SOL    HW228821   1.601   3.505   1.490
 9308SOL     OW28822   1.891   3.162   1.932
 9308SOL    HW128823   1.870   3.064   1.927
 9308SOL    HW228824   1.825   3.213   1.876
 9309SOL     OW28825   5.098   5.384   6.674
 9309SOL    HW128826   5.110   5.339   6.762
 9309SOL    HW228827   5.071   5.317   6.605
 9310SOL     OW28828   5.944   5.981   7.015
 9310SOL    HW128829   6.008   6.043   6.970
 9310SOL    HW228830   5.861   6.031   0.019
 9311SOL     OW28831   4.918   3.638   0.606
 9311SOL    HW128832   4.960   3.547   0.612
 9311SOL    HW228833   4.823   3.628   0.577
 9312SOL     OW28834   0.712   2.936   3.174
 9312SOL    HW128835   0.690   3.005   3.243
 9312SOL    HW228836   0.757   2.980   3.096
 9313SOL     OW28837   0.603   0.643   2.165
 9313SOL    HW128838   0.504   0.635   2.152
 9313SOL    HW228839   0.625   0.737   2.190
 9314SOL     OW28840   5.403   4.242   0.830
 9314SOL    HW128841   5.371   4.222   0.738
 9314SOL    HW228842   5.325   4.244   0.893
 9315SOL     OW28843   4.748   6.585   6.397
 9315SOL    HW128844   4.785   6.504   6.444
 9315SOL    HW228845   4.821   6.633   6.351
 9316SOL     OW28846   5.219   0.949   5.824
 9316SOL    HW128847   5.264   0.978   5.908
 9316SOL    HW228848   5.163   0.868   5.842
 9317SOL     OW28849   3.533   6.301   3.310
 9317SOL    HW128850   3.512   6.305   3.212
 9317SOL    HW228851   3.480   6.371   3.358
 9318SOL     OW28852   3.825   7.021   2.058
 9318SOL    HW128853   3.904   6.964   2.079
 9318SOL    HW228854   3.796   0.049   2.140
 9319SOL     OW28855   3.299   2.222   6.762
 9319SOL    HW128856   3.282   2.128   6.732
 9319SOL    HW228857   3.212   2.266   6.785
 9320SOL     OW28858   6.358   6.480   6.606
 9320SOL    HW128859   6.426   6.551   6.588
 9320SOL    HW228860   6.371   6.445   6.699
 9321SOL     OW28861   0.490   2.962   5.109
 9321SOL    HW128862   0.499   2.914   5.022
 9321SOL    HW228863   0.398   3.003   5.115
 9322SOL     OW28864   6.196   3.216   6.815
 9322SOL    HW128865   6.295   3.231   6.805
 9322SOL    HW228866   6.148   3.264   6.741
 9323SOL     OW28867   0.640   2.006   5.842
 9323SOL    HW128868   0.691   2.029   5.759
 9323SOL    HW228869   0.580   2.082   5.867
 9324SOL     OW28870   0.508   4.120   1.986
 9324SOL    HW128871   0.544   4.186   1.919
 9324SOL    HW228872   0.575   4.047   1.999
 9325SOL     OW28873   1.132   4.140   3.294
 9325SOL    HW128874   1.135   4.042   3.274
 9325SOL    HW228875   1.216   4.167   3.341
 9326SOL     OW28876   4.627   4.113   1.678
 9326SOL    HW128877   4.696   4.182   1.656
 9326SOL    HW228878   4.561   4.151   1.743
 9327SOL     OW28879   2.837   1.104   3.152
 9327SOL    HW128880   2.829   1.181   3.088
 9327SOL    HW228881   2.903   1.126   3.223
 9328SOL     OW28882   2.231   0.847   3.866
 9328SOL    HW128883   2.307   0.785   3.888
 9328SOL    HW228884   2.267   0.927   3.818
 9329SOL     OW28885   0.202   5.298   6.686
 9329SOL    HW128886   0.166   5.375   6.739
 9329SOL    HW228887   0.133   5.225   6.682
 9330SOL     OW28888   6.595   6.264   6.975
 9330SOL    HW128889   6.565   6.322   0.030
 9330SOL    HW228890   6.650   6.318   6.912
 9331SOL     OW28891   2.098   3.246   3.773
 9331SOL    HW128892   2.100   3.346   3.761
 9331SOL    HW228893   2.147   3.203   3.697
 9332SOL     OW28894   5.331   6.098   0.777
 9332SOL    HW128895   5.287   6.175   0.822
 9332SOL    HW228896   5.387   6.048   0.844
 9333SOL     OW28897   3.801   3.438   1.009
 9333SOL    HW128898   3.858   3.362   1.042
 9333SOL    HW228899   3.793   3.433   0.910
 9334SOL     OW28900   6.275   6.180   5.994
 9334SOL    HW128901   6.223   6.130   6.063
 9334SOL    HW228902   6.213   6.239   5.942
 9335SOL     OW28903   0.993   3.446   1.963
 9335SOL    HW128904   0.918   3.416   2.022
 9335SOL    HW228905   1.075   3.392   1.984
 9336SOL     OW28906   5.534   0.081   5.739
 9336SOL    HW128907   5.472   0.015   5.696
 9336SOL    HW228908   5.618   0.087   5.685
 9337SOL     OW28909   2.228   0.506   6.066
 9337SOL    HW128910   2.327   0.512   6.057
 9337SOL    HW228911   2.202   0.411   6.084
 9338SOL     OW28912   5.624   6.476   0.233
 9338SOL    HW128913   5.533   6.504   0.204
 9338SOL    HW228914   5.693   6.525   0.180
 9339SOL     OW28915   6.780   4.098   5.574
 9339SOL    HW128916   6.686   4.078   5.602
 9339SOL    HW228917   6.844   4.054   5.636
 9340SOL     OW28918   3.451   5.027   0.893
 9340SOL    HW128919   3.484   5.068   0.978
 9340SOL    HW228920   3.480   4.931   0.889
 9341SOL     OW28921   5.472   5.156   6.497
 9341SOL    HW128922   5.543   5.130   6.562
 9341SOL    HW228923   5.433   5.074   6.455
 9342SOL     OW28924   3.457   0.216   4.195
 9342SOL    HW128925   3.495   0.306   4.215
 9342SOL    HW228926   3.364   0.226   4.158
 9343SOL     OW28927   4.528   4.009   0.944
 9343SOL    HW128928   4.573   4.033   0.859
 9343SOL    HW228929   4.470   4.084   0.975
 9344SOL     OW28930   6.322   0.117   5.247
 9344SOL    HW128931   6.247   0.145   5.187
 9344SOL    HW228932   6.318   0.018   5.261
 9345SOL     OW28933   0.651   4.945   0.168
 9345SOL    HW128934   0.632   5.009   0.242
 9345SOL    HW228935   0.589   4.867   0.175
 9346SOL     OW28936   6.026   6.478   1.320
 9346SOL    HW128937   6.054   6.487   1.224
 9346SOL    HW228938   6.105   6.452   1.375
 9347SOL     OW28939   3.693   5.510   0.762
 9347SOL    HW128940   3.684   5.562   0.677
 9347SOL    HW228941   3.788   5.515   0.794
 9348SOL     OW28942   2.453   5.597   1.914
 9348SOL    HW128943   2.418   5.652   1.838
 9348SOL    HW228944   2.445   5.500   1.891
 9349SOL     OW28945   6.446   6.099   1.972
 9349SOL    HW128946   6.366   6.046   1.999
 9349SOL    HW228947   6.528   6.042   1.982
 9350SOL     OW28948   6.638   1.061   6.428
 9350SOL    HW128949   6.584   1.080   6.346
 9350SOL    HW228950   6.735   1.077   6.408
 9351SOL     OW28951   3.691   3.014   6.082
 9351SOL    HW128952   3.623   3.030   6.011
 9351SOL    HW228953   3.647   2.971   6.161
 9352SOL     OW28954   3.216   2.555   6.106
 9352SOL    HW128955   3.175   2.474   6.149
 9352SOL    HW228956   3.316   2.544   6.105
 9353SOL     OW28957   0.470   3.801   0.850
 9353SOL    HW128958   0.533   3.837   0.918
 9353SOL    HW228959   0.433   3.714   0.882
 9354SOL     OW28960   4.870   2.123   1.994
 9354SOL    HW128961   4.810   2.057   2.040
 9354SOL    HW228962   4.855   2.119   1.896
 9355SOL     OW28963   6.184   0.527   2.969
 9355SOL    HW128964   6.279   0.516   2.996
 9355SOL    HW228965   6.135   0.580   3.038
 9356SOL     OW28966   4.481   4.648   2.405
 9356SOL    HW128967   4.383   4.646   2.424
 9356SOL    HW228968   4.498   4.696   2.319
 9357SOL     OW28969   3.282   2.818   0.870
 9357SOL    HW128970   3.280   2.718   0.876
 9357SOL    HW228971   3.238   2.847   0.785
 9358SOL     OW28972   5.669   4.450   2.241
 9358SOL    HW128973   5.761   4.415   2.259
 9358SOL    HW228974   5.603   4.378   2.259
 9359SOL     OW28975   5.289   4.247   5.721
 9359SOL    HW128976   5.368   4.190   5.744
 9359SOL    HW228977   5.276   4.317   5.792
 9360SOL     OW28978   2.205   0.221   6.142
 9360SOL    HW128979   2.107   0.205   6.139
 9360SOL    HW228980   2.246   0.197   6.054
 9361SOL     OW28981   2.748   0.499   2.443
 9361SOL    HW128982   2.723   0.581   2.390
 9361SOL    HW228983   2.821   0.450   2.395
 9362SOL     OW28984   2.535   1.647   3.060
 9362SOL    HW128985   2.582   1.664   3.147
 9362SOL    HW228986   2.560   1.556   3.026
 9363SOL     OW28987   2.816   5.796   2.023
 9363SOL    HW128988   2.749   5.843   2.081
 9363SOL    HW228989   2.903   5.845   2.026
 9364SOL     OW28990   5.422   5.027   0.001
 9364SOL    HW128991   5.446   5.107   6.967
 9364SOL    HW228992   5.326   5.002   7.004
 9365SOL     OW28993   2.224   1.343   5.115
 9365SOL    HW128994   2.289   1.297   5.176
 9365SOL    HW228995   2.132   1.308   5.133
 9366SOL     OW28996   3.194   1.567   0.590
 9366SOL    HW128997   3.270   1.554   0.654
 9366SOL    HW228998   3.119   1.614   0.637
 9367SOL     OW28999   0.053   5.946   2.993
 9367SOL    HW129000   0.099   5.868   2.952
 9367SOL    HW229001   0.110   5.983   3.066
 9368SOL     OW29002   3.490   2.587   1.449
 9368SOL    HW129003   3.425   2.563   1.377
 9368SOL    HW229004   3.519   2.682   1.438
 9369SOL     OW29005   0.060   2.378   5.002
 9369SOL    HW129006   0.076   2.281   5.016
 9369SOL    HW229007   0.087   2.429   5.084
 9370SOL     OW29008   6.183   1.012   3.032
 9370SOL    HW129009   6.235   0.987   2.950
 9370SOL    HW229010   6.175   1.112   3.037
 9371SOL     OW29011   0.379   6.715   0.427
 9371SOL    HW129012   0.454   6.759   0.478
 9371SOL    HW229013   0.417   6.668   0.348
 9372SOL     OW29014   6.397   6.669   5.734
 9372SOL    HW129015   6.364   6.761   5.714
 9372SOL    HW229016   6.367   6.642   5.825
 9373SOL     OW29017   4.466   1.231   3.647
 9373SOL    HW129018   4.369   1.255   3.641
 9373SOL    HW229019   4.475   1.136   3.676
 9374SOL     OW29020   5.272   3.927   0.541
 9374SOL    HW129021   5.235   3.898   0.629
 9374SOL    HW229022   5.321   3.851   0.498
 9375SOL     OW29023   0.895   1.054   4.164
 9375SOL    HW129024   0.891   1.102   4.076
 9375SOL    HW229025   0.906   1.121   4.237
 9376SOL     OW29026   1.839   3.238   2.224
 9376SOL    HW129027   1.769   3.169   2.238
 9376SOL    HW229028   1.872   3.234   2.130
 9377SOL     OW29029   6.116   5.633   3.985
 9377SOL    HW129030   6.022   5.658   3.962
 9377SOL    HW229031   6.145   5.683   4.066
 9378SOL     OW29032   3.083   6.441   0.685
 9378SOL    HW129033   3.012   6.509   0.665
 9378SOL    HW229034   3.171   6.474   0.650
 9379SOL     OW29035   5.246   4.662   4.673
 9379SOL    HW129036   5.192   4.623   4.748
 9379SOL    HW229037   5.195   4.654   4.588
 9380SOL     OW29038   6.353   6.781   6.304
 9380SOL    HW129039   6.419   6.711   6.275
 9380SOL    HW229040   6.297   6.807   6.226
 9381SOL     OW29041   2.349   1.202   6.501
 9381SOL    HW129042   2.270   1.173   6.447
 9381SOL    HW229043   2.331   1.292   6.540
 9382SOL     OW29044   4.443   2.475   2.829
 9382SOL    HW129045   4.427   2.569   2.859
 9382SOL    HW229046   4.418   2.412   2.903
 9383SOL     OW29047   4.704   5.508   5.251
 9383SOL    HW129048   4.629   5.446   5.273
 9383SOL    HW229049   4.791   5.458   5.255
 9384SOL     OW29050   4.840   5.818   1.368
 9384SOL    HW129051   4.834   5.839   1.270
 9384SOL    HW229052   4.868   5.899   1.419
 9385SOL     OW29053   3.827   1.442   3.280
 9385SOL    HW129054   3.834   1.439   3.181
 9385SOL    HW229055   3.883   1.516   3.316
 9386SOL     OW29056   3.264   6.666   4.487
 9386SOL    HW129057   3.319   6.695   4.566
 9386SOL    HW229058   3.238   6.570   4.498
 9387SOL     OW29059   3.781   0.167   6.687
 9387SOL    HW129060   3.857   0.219   6.648
 9387SOL    HW229061   3.695   0.213   6.668
 9388SOL     OW29062   6.686   0.391   3.163
 9388SOL    HW129063   6.724   0.482   3.180
 9388SOL    HW229064   6.700   0.367   3.067
 9389SOL     OW29065   2.786   0.723   6.251
 9389SOL    HW129066   2.768   0.813   6.290
 9389SOL    HW229067   2.776   0.727   6.151
 9390SOL     OW29068   3.292   5.441   2.419
 9390SOL    HW129069   3.348   5.441   2.502
 9390SOL    HW229070   3.229   5.363   2.422
 9391SOL     OW29071   0.648   1.174   5.481
 9391SOL    HW129072   0.738   1.152   5.442
 9391SOL    HW229073   0.588   1.095   5.470
 9392SOL     OW29074   1.255   6.073   4.747
 9392SOL    HW129075   1.180   6.022   4.707
 9392SOL    HW229076   1.339   6.018   4.743
 9393SOL     OW29077   3.752   2.245   5.248
 9393SOL    HW129078   3.681   2.233   5.178
 9393SOL    HW229079   3.835   2.281   5.206
 9394SOL     OW29080   6.018   2.431   2.678
 9394SOL    HW129081   6.078   2.403   2.603
 9394SOL    HW229082   5.924   2.439   2.645
 9395SOL     OW29083   2.156   3.239   7.008
 9395SOL    HW129084   2.115   3.188   0.064
 9395SOL    HW229085   2.083   3.269   6.947
 9396SOL     OW29086   6.457   0.334   6.513
 9396SOL    HW129087   6.423   0.409   6.570
 9396SOL    HW229088   6.449   0.358   6.417
 9397SOL     OW29089   2.705   0.577   1.065
 9397SOL    HW129090   2.677   0.673   1.069
 9397SOL    HW229091   2.689   0.535   1.154
 9398SOL     OW29092   2.599   1.646   6.493
 9398SOL    HW129093   2.580   1.731   6.542
 9398SOL    HW229094   2.555   1.648   6.403
 9399SOL     OW29095   6.925   0.408   5.592
 9399SOL    HW129096   6.921   0.467   5.512
 9399SOL    HW229097   6.964   0.459   5.669
 9400SOL     OW29098   5.439   2.523   2.773
 9400SOL    HW129099   5.468   2.530   2.869
 9400SOL    HW229100   5.364   2.458   2.766
 9401SOL     OW29101   3.152   0.379   3.091
 9401SOL    HW129102   3.245   0.388   3.128
 9401SOL    HW229103   3.087   0.373   3.167
 9402SOL     OW29104   2.306   5.080   6.489
 9402SOL    HW129105   2.316   4.981   6.489
 9402SOL    HW229106   2.394   5.123   6.508
 9403SOL     OW29107   5.608   1.306   4.384
 9403SOL    HW129108   5.530   1.277   4.440
 9403SOL    HW229109   5.589   1.395   4.343
 9404SOL     OW29110   1.109   4.039   6.328
 9404SOL    HW129111   1.030   3.978   6.331
 9404SOL    HW229112   1.081   4.130   6.361
 9405SOL     OW29113   5.785   6.984   1.137
 9405SOL    HW129114   5.883   6.976   1.121
 9405SOL    HW229115   5.743   6.893   1.141
 9406SOL     OW29116   0.038   1.443   5.362
 9406SOL    HW129117   0.134   1.441   5.335
 9406SOL    HW229118   7.004   1.398   5.292
 9407SOL     OW29119   3.210   6.186   2.705
 9407SOL    HW129120   3.272   6.257   2.736
 9407SOL    HW229121   3.188   6.199   2.608
 9408SOL     OW29122   3.847   2.080   5.926
 9408SOL    HW129123   3.750   2.105   5.937
 9408SOL    HW229124   3.872   2.013   5.996
 9409SOL     OW29125   5.526   4.323   3.546
 9409SOL    HW129126   5.503   4.235   3.590
 9409SOL    HW229127   5.558   4.306   3.453
 9410SOL     OW29128   4.244   6.489   2.523
 9410SOL    HW129129   4.155   6.486   2.568
 9410SOL    HW229130   4.285   6.580   2.536
 9411SOL     OW29131   4.887   5.101   0.702
 9411SOL    HW129132   4.975   5.147   0.711
 9411SOL    HW229133   4.895   5.028   0.634
 9412SOL     OW29134   6.549   2.415   1.138
 9412SOL    HW129135   6.472   2.444   1.193
 9412SOL    HW229136   6.552   2.468   1.053
 9413SOL     OW29137   3.639   5.925   6.020
 9413SOL    HW129138   3.554   5.905   5.971
 9413SOL    HW229139   3.699   5.979   5.962
 9414SOL     OW29140   2.313   1.941   1.766
 9414SOL    HW129141   2.359   2.008   1.824
 9414SOL    HW229142   2.220   1.971   1.746
 9415SOL     OW29143   2.885   7.006   2.131
 9415SOL    HW129144   2.970   6.982   2.084
 9415SOL    HW229145   2.829   6.924   2.143
 9416SOL     OW29146   0.939   2.586   1.561
 9416SOL    HW129147   0.867   2.605   1.494
 9416SOL    HW229148   1.019   2.643   1.543
 9417SOL     OW29149   2.323   5.880   4.713
 9417SOL    HW129150   2.251   5.820   4.747
 9417SOL    HW229151   2.380   5.830   4.648
 9418SOL     OW29152   3.565   5.233   0.744
 9418SOL    HW129153   3.488   5.297   0.736
 9418SOL    HW229154   3.532   5.147   0.785
 9419SOL     OW29155   3.239   6.868   5.627
 9419SOL    HW129156   3.339   6.869   5.624
 9419SOL    HW229157   3.203   6.894   5.538
 9420SOL     OW29158   0.246   1.350   4.210
 9420SOL    HW129159   0.155   1.321   4.240
 9420SOL    HW229160   0.259   1.322   4.114
 9421SOL     OW29161   1.358   4.467   5.637
 9421SOL    HW129162   1.338   4.560   5.668
 9421SOL    HW229163   1.457   4.453   5.635
 9422SOL     OW29164   4.591   1.267   2.462
 9422SOL    HW129165   4.645   1.338   2.508
 9422SOL    HW229166   4.524   1.229   2.526
 9423SOL     OW29167   3.987   0.899   4.735
 9423SOL    HW129168   4.056   0.908   4.806
 9423SOL    HW229169   3.895   0.900   4.776
 9424SOL     OW29170   2.828   6.347   4.390
 9424SOL    HW129171   2.809   6.366   4.294
 9424SOL    HW229172   2.771   6.269   4.420
 9425SOL     OW29173   1.347   3.132   4.335
 9425SOL    HW129174   1.417   3.061   4.322
 9425SOL    HW229175   1.391   3.222   4.336
 9426SOL     OW29176   3.536   0.293   6.918
 9426SOL    HW129177   3.633   0.319   6.917
 9426SOL    HW229178   3.481   0.371   6.948
 9427SOL     OW29179   3.040   5.110   4.248
 9427SOL    HW129180   2.992   5.187   4.206
 9427SOL    HW229181   3.074   5.136   4.338
 9428SOL     OW29182   5.258   6.895   2.852
 9428SOL    HW129183   5.186   6.828   2.834
 9428SOL    HW229184   5.251   6.970   2.787
 9429SOL     OW29185   0.272   3.478   2.618
 9429SOL    HW129186   0.321   3.552   2.574
 9429SOL    HW229187   0.312   3.390   2.591
 9430SOL     OW29188   6.229   6.602   1.663
 9430SOL    HW129189   6.252   6.617   1.759
 9430SOL    HW229190   6.155   6.664   1.636
 9431SOL     OW29191   6.531   4.169   2.110
 9431SOL    HW129192   6.524   4.176   2.209
 9431SOL    HW229193   6.557   4.258   2.072
 9432SOL     OW29194   6.807   6.935   3.843
 9432SOL    HW129195   6.901   6.919   3.874
 9432SOL    HW229196   6.807   6.999   3.766
 9433SOL     OW29197   3.209   5.022   4.981
 9433SOL    HW129198   3.176   5.116   4.994
 9433SOL    HW229199   3.134   4.958   4.996
 9434SOL     OW29200   5.115   5.107   2.347
 9434SOL    HW129201   5.028   5.072   2.314
 9434SOL    HW229202   5.112   5.207   2.350
 9435SOL     OW29203   1.488   0.724   4.644
 9435SOL    HW129204   1.389   0.707   4.647
 9435SOL    HW229205   1.536   0.643   4.677
 9436SOL     OW29206   2.376   3.003   6.592
 9436SOL    HW129207   2.406   3.055   6.512
 9436SOL    HW229208   2.420   3.039   6.674
 9437SOL     OW29209   1.498   4.661   4.019
 9437SOL    HW129210   1.582   4.680   4.069
 9437SOL    HW229211   1.441   4.743   4.016
 9438SOL     OW29212   1.342   6.602   2.329
 9438SOL    HW129213   1.383   6.539   2.263
 9438SOL    HW229214   1.414   6.653   2.376
 9439SOL     OW29215   0.181   2.803   1.922
 9439SOL    HW129216   0.203   2.786   2.018
 9439SOL    HW229217   0.265   2.823   1.872
 9440SOL     OW29218   5.151   6.597   5.902
 9440SOL    HW129219   5.239   6.589   5.950
 9440SOL    HW229220   5.090   6.657   5.954
 9441SOL     OW29221   1.440   4.915   5.518
 9441SOL    HW129222   1.526   4.874   5.549
 9441SOL    HW229223   1.455   4.963   5.432
 9442SOL     OW29224   0.074   3.545   1.123
 9442SOL    HW129225   0.072   3.507   1.030
 9442SOL    HW229226   0.060   3.471   1.189
 9443SOL     OW29227   1.579   3.876   1.638
 9443SOL    HW129228   1.638   3.953   1.663
 9443SOL    HW229229   1.621   3.790   1.667
 9444SOL     OW29230   0.130   3.501   6.731
 9444SOL    HW129231   0.194   3.459   6.666
 9444SOL    HW229232   0.038   3.498   6.692
 9445SOL     OW29233   5.632   3.846   1.426
 9445SOL    HW129234   5.564   3.773   1.435
 9445SOL    HW229235   5.677   3.839   1.337
 9446SOL     OW29236   6.762   5.962   1.642
 9446SOL    HW129237   6.759   5.903   1.723
 9446SOL    HW229238   6.853   6.003   1.635
 9447SOL     OW29239   5.689   3.104   1.992
 9447SOL    HW129240   5.695   3.016   2.039
 9447SOL    HW229241   5.650   3.172   2.054
 9448SOL     OW29242   6.187   6.805   0.455
 9448SOL    HW129243   6.243   6.888   0.460
 9448SOL    HW229244   6.099   6.822   0.498
 9449SOL     OW29245   6.771   5.056   5.183
 9449SOL    HW129246   6.687   5.105   5.158
 9449SOL    HW229247   6.797   5.080   5.276
 9450SOL     OW29248   3.385   4.974   4.274
 9450SOL    HW129249   3.300   4.972   4.326
 9450SOL    HW229250   3.462   4.972   4.337
 9451SOL     OW29251   4.873   5.087   6.230
 9451SOL    HW129252   4.889   5.101   6.132
 9451SOL    HW229253   4.798   5.146   6.260
 9452SOL     OW29254   2.448   4.864   1.535
 9452SOL    HW129255   2.459   4.834   1.440
 9452SOL    HW229256   2.538   4.890   1.572
 9453SOL     OW29257   3.026   5.188   2.788
 9453SOL    HW129258   2.999   5.211   2.882
 9453SOL    HW229259   3.024   5.270   2.732
 9454SOL     OW29260   2.168   2.901   5.446
 9454SOL    HW129261   2.101   2.829   5.428
 9454SOL    HW229262   2.164   2.969   5.372
 9455SOL     OW29263   3.942   1.589   2.211
 9455SOL    HW129264   3.914   1.668   2.156
 9455SOL    HW229265   4.020   1.615   2.268
 9456SOL     OW29266   1.376   3.532   1.260
 9456SOL    HW129267   1.329   3.467   1.320
 9456SOL    HW229268   1.347   3.518   1.166
 9457SOL     OW29269   0.710   3.649   0.752
 9457SOL    HW129270   0.657   3.589   0.813
 9457SOL    HW229271   0.739   3.597   0.671
 9458SOL     OW29272   6.504   5.775   5.204
 9458SOL    HW129273   6.550   5.785   5.116
 9458SOL    HW229274   6.446   5.694   5.203
 9459SOL     OW29275   6.036   5.578   1.725
 9459SOL    HW129276   5.968   5.512   1.694
 9459SOL    HW229277   6.116   5.530   1.760
 9460SOL     OW29278   1.123   2.082   5.392
 9460SOL    HW129279   1.030   2.047   5.388
 9460SOL    HW229280   1.174   2.051   5.312
 9461SOL     OW29281   1.303   1.016   3.922
 9461SOL    HW129282   1.222   0.995   3.977
 9461SOL    HW229283   1.275   1.039   3.829
 9462SOL     OW29284   0.912   3.360   2.430
 9462SOL    HW129285   0.898   3.451   2.471
 9462SOL    HW229286   0.974   3.307   2.488
 9463SOL     OW29287   5.666   1.342   0.317
 9463SOL    HW129288   5.630   1.341   0.410
 9463SOL    HW229289   5.667   1.436   0.283
 9464SOL     OW29290   5.990   0.172   6.085
 9464SOL    HW129291   5.896   0.186   6.114
 9464SOL    HW229292   6.035   0.108   6.148
 9465SOL     OW29293   6.379   1.164   4.033
 9465SOL    HW129294   6.282   1.148   4.051
 9465SOL    HW229295   6.431   1.082   4.057
 9466SOL     OW29296   3.047   2.349   6.808
 9466SOL    HW129297   3.105   2.407   6.751
 9466SOL    HW229298   2.955   2.389   6.814
 9467SOL     OW29299   2.119   3.183   2.064
 9467SOL    HW129300   2.160   3.271   2.043
 9467SOL    HW229301   2.047   3.162   1.998
 9468SOL     OW29302   0.192   3.225   5.857
 9468SOL    HW129303   0.161   3.316   5.886
 9468SOL    HW229304   0.169   3.212   5.761
 9469SOL     OW29305   6.058   4.807   1.879
 9469SOL    HW129306   6.102   4.723   1.908
 9469SOL    HW229307   5.966   4.786   1.843
 9470SOL     OW29308   5.195   3.661   0.760
 9470SOL    HW129309   5.133   3.705   0.695
 9470SOL    HW229310   5.161   3.674   0.853
 9471SOL     OW29311   0.585   1.966   5.401
 9471SOL    HW129312   0.684   1.978   5.411
 9471SOL    HW229313   0.558   1.990   5.308
 9472SOL     OW29314   6.286   4.331   3.896
 9472SOL    HW129315   6.348   4.281   3.956
 9472SOL    HW229316   6.339   4.394   3.839
 9473SOL     OW29317   2.809   5.304   5.690
 9473SOL    HW129318   2.908   5.317   5.691
 9473SOL    HW229319   2.783   5.253   5.607
 9474SOL     OW29320   4.287   5.064   1.976
 9474SOL    HW129321   4.237   5.142   2.013
 9474SOL    HW229322   4.279   5.063   1.876
 9475SOL     OW29323   2.439   3.621   1.462
 9475SOL    HW129324   2.397   3.669   1.385
 9475SOL    HW229325   2.407   3.662   1.548
 9476SOL     OW29326   3.458   3.343   5.600
 9476SOL    HW129327   3.396   3.265   5.609
 9476SOL    HW229328   3.501   3.362   5.688
 9477SOL     OW29329   1.214   2.601   1.522
 9477SOL    HW129330   1.191   2.507   1.498
 9477SOL    HW229331   1.297   2.602   1.579
 9478SOL     OW29332   6.011   4.791   5.523
 9478SOL    HW129333   6.024   4.767   5.619
 9478SOL    HW229334   5.913   4.800   5.504
 9479SOL     OW29335   6.161   6.035   6.317
 9479SOL    HW129336   6.151   5.949   6.367
 9479SOL    HW229337   6.210   6.101   6.374
 9480SOL     OW29338   5.830   4.780   6.953
 9480SOL    HW129339   5.751   4.822   6.908
 9480SOL    HW229340   5.888   4.737   6.884
 9481SOL     OW29341   0.129   3.754   2.339
 9481SOL    HW129342   0.104   3.685   2.407
 9481SOL    HW229343   0.185   3.713   2.267
 9482SOL     OW29344   4.528   0.933   2.043
 9482SOL    HW129345   4.610   0.935   1.986
 9482SOL    HW229346   4.545   0.877   2.125
 9483SOL     OW29347   1.600   1.747   6.863
 9483SOL    HW129348   1.571   1.780   6.773
 9483SOL    HW229349   1.682   1.691   6.853
 9484SOL     OW29350   6.738   1.448   3.652
 9484SOL    HW129351   6.639   1.447   3.640
 9484SOL    HW229352   6.782   1.448   3.562
 9485SOL     OW29353   0.860   0.289   2.250
 9485SOL    HW129354   0.829   0.374   2.292
 9485SOL    HW229355   0.946   0.304   2.202
 9486SOL     OW29356   3.083   6.005   1.526
 9486SOL    HW129357   3.032   5.920   1.513
 9486SOL    HW229358   3.138   5.999   1.609
 9487SOL     OW29359   2.986   3.610   4.167
 9487SOL    HW129360   2.927   3.533   4.143
 9487SOL    HW229361   2.992   3.672   4.089
 9488SOL     OW29362   1.353   6.472   1.217
 9488SOL    HW129363   1.300   6.450   1.135
 9488SOL    HW229364   1.436   6.520   1.191
 9489SOL     OW29365   3.871   5.017   0.579
 9489SOL    HW129366   3.801   4.963   0.626
 9489SOL    HW229367   3.878   4.986   0.484
 9490SOL     OW29368   4.618   1.156   1.619
 9490SOL    HW129369   4.559   1.075   1.627
 9490SOL    HW229370   4.569   1.228   1.571
 9491SOL     OW29371   5.647   4.696   5.994
 9491SOL    HW129372   5.606   4.673   5.906
 9491SOL    HW229373   5.739   4.733   5.981
 9492SOL     OW29374   3.217   3.889   1.598
 9492SOL    HW129375   3.308   3.857   1.626
 9492SOL    HW229376   3.218   3.988   1.588
 9493SOL     OW29377   4.738   6.223   3.058
 9493SOL    HW129378   4.683   6.230   3.142
 9493SOL    HW229379   4.787   6.309   3.044
 9494SOL     OW29380   4.464   3.325   5.407
 9494SOL    HW129381   4.503   3.415   5.385
 9494SOL    HW229382   4.396   3.300   5.338
 9495SOL     OW29383   5.895   2.440   5.291
 9495SOL    HW129384   5.891   2.366   5.358
 9495SOL    HW229385   5.965   2.419   5.222
 9496SOL     OW29386   5.723   4.155   0.086
 9496SOL    HW129387   5.688   4.213   0.011
 9496SOL    HW229388   5.796   4.097   0.051
 9497SOL     OW29389   5.666   6.176   6.596
 9497SOL    HW129390   5.609   6.162   6.678
 9497SOL    HW229391   5.740   6.110   6.595
 9498SOL     OW29392   3.693   6.974   6.232
 9498SOL    HW129393   3.677   6.985   6.133
 9498SOL    HW229394   3.605   6.971   6.279
 9499SOL     OW29395   3.260   3.809   5.345
 9499SOL    HW129396   3.340   3.840   5.395
 9499SOL    HW229397   3.201   3.887   5.324
 9500SOL     OW29398   5.172   5.739   1.782
 9500SOL    HW129399   5.263   5.723   1.819
 9500SOL    HW229400   5.170   5.828   1.736
 9501SOL     OW29401   3.168   1.369   4.626
 9501SOL    HW129402   3.138   1.291   4.571
 9501SOL    HW229403   3.264   1.356   4.653
 9502SOL     OW29404   5.796   2.548   5.594
 9502SOL    HW129405   5.806   2.551   5.494
 9502SOL    HW229406   5.758   2.635   5.626
 9503SOL     OW29407   1.114   6.732   1.302
 9503SOL    HW129408   1.124   6.810   1.240
 9503SOL    HW229409   1.025   6.689   1.287
 9504SOL     OW29410   0.692   2.936   6.713
 9504SOL    HW129411   0.712   2.997   6.789
 9504SOL    HW229412   0.609   2.884   6.733
 9505SOL     OW29413   5.969   3.013   3.384
 9505SOL    HW129414   5.883   2.967   3.408
 9505SOL    HW229415   5.993   2.992   3.289
 9506SOL     OW29416   6.593   3.905   0.507
 9506SOL    HW129417   6.517   3.912   0.572
 9506SOL    HW229418   6.645   3.821   0.524
 9507SOL     OW29419   0.963   1.555   3.643
 9507SOL    HW129420   1.034   1.505   3.593
 9507SOL    HW229421   0.975   1.541   3.742
 9508SOL     OW29422   5.809   1.892   0.850
 9508SOL    HW129423   5.796   1.853   0.941
 9508SOL    HW229424   5.727   1.877   0.796
 9509SOL     OW29425   2.519   6.151   5.861
 9509SOL    HW129426   2.565   6.063   5.874
 9509SOL    HW229427   2.423   6.142   5.890
 9510SOL     OW29428   6.132   4.597   3.477
 9510SOL    HW129429   6.156   4.624   3.570
 9510SOL    HW229430   6.158   4.670   3.413
 9511SOL     OW29431   0.807   1.548   0.804
 9511SOL    HW129432   0.896   1.569   0.765
 9511SOL    HW229433   0.785   1.615   0.874
 9512SOL     OW29434   1.438   2.258   3.992
 9512SOL    HW129435   1.458   2.356   3.996
 9512SOL    HW229436   1.341   2.243   4.013
 9513SOL     OW29437   2.232   4.013   4.201
 9513SOL    HW129438   2.218   4.015   4.300
 9513SOL    HW229439   2.186   3.932   4.163
 9514SOL     OW29440   2.371   2.813   6.866
 9514SOL    HW129441   2.410   2.877   6.801
 9514SOL    HW229442   2.271   2.816   6.860
 9515SOL     OW29443   1.844   5.526   6.341
 9515SOL    HW129444   1.795   5.607   6.373
 9515SOL    HW229445   1.907   5.552   6.267
 9516SOL     OW29446   5.000   3.644   4.107
 9516SOL    HW129447   5.080   3.586   4.095
 9516SOL    HW229448   4.990   3.703   4.026
 9517SOL     OW29449   0.258   5.816   2.091
 9517SOL    HW129450   0.229   5.903   2.133
 9517SOL    HW229451   0.300   5.758   2.161
 9518SOL     OW29452   0.508   2.223   6.231
 9518SOL    HW129453   0.477   2.128   6.225
 9518SOL    HW229454   0.520   2.248   6.326
 9519SOL     OW29455   3.526   3.885   3.115
 9519SOL    HW129456   3.463   3.846   3.047
 9519SOL    HW229457   3.543   3.818   3.187
 9520SOL     OW29458   6.889   0.043   5.123
 9520SOL    HW129459   6.963   0.110   5.121
 9520SOL    HW229460   6.926   6.973   5.138
 9521SOL     OW29461   3.238   0.548   1.181
 9521SOL    HW129462   3.292   0.544   1.096
 9521SOL    HW229463   3.143   0.568   1.159
 9522SOL     OW29464   3.556   6.018   2.074
 9522SOL    HW129465   3.571   5.966   1.989
 9522SOL    HW229466   3.482   6.083   2.060
 9523SOL     OW29467   2.432   5.026   4.066
 9523SOL    HW129468   2.341   4.985   4.063
 9523SOL    HW229469   2.474   5.021   3.976
 9524SOL     OW29470   1.573   4.265   1.756
 9524SOL    HW129471   1.479   4.252   1.724
 9524SOL    HW229472   1.612   4.176   1.780
 9525SOL     OW29473   1.998   3.070   5.589
 9525SOL    HW129474   2.060   3.132   5.637
 9525SOL    HW229475   2.050   3.011   5.528
 9526SOL     OW29476   5.374   4.599   6.939
 9526SOL    HW129477   5.437   4.599   6.862
 9526SOL    HW229478   5.416   4.648   7.016
 9527SOL     OW29479   3.773   6.558   3.339
 9527SOL    HW129480   3.776   6.578   3.437
 9527SOL    HW229481   3.697   6.607   3.297
 9528SOL     OW29482   5.592   1.735   1.193
 9528SOL    HW129483   5.587   1.638   1.216
 9528SOL    HW229484   5.679   1.754   1.147
 9529SOL     OW29485   6.185   1.485   1.834
 9529SOL    HW129486   6.243   1.524   1.762
 9529SOL    HW229487   6.143   1.559   1.887
 9530SOL     OW29488   0.835   5.654   3.880
 9530SOL    HW129489   0.895   5.668   3.959
 9530SOL    HW229490   0.810   5.743   3.842
 9531SOL     OW29491   3.795   4.930   2.732
 9531SOL    HW129492   3.776   4.897   2.639
 9531SOL    HW229493   3.749   5.018   2.745
 9532SOL     OW29494   6.075   5.098   2.437
 9532SOL    HW129495   6.106   5.074   2.345
 9532SOL    HW229496   6.005   5.033   2.467
 9533SOL     OW29497   2.255   4.625   3.291
 9533SOL    HW129498   2.288   4.713   3.324
 9533SOL    HW229499   2.327   4.580   3.238
 9534SOL     OW29500   5.519   4.907   5.281
 9534SOL    HW129501   5.601   4.880   5.331
 9534SOL    HW229502   5.451   4.834   5.286
 9535SOL     OW29503   1.007   0.900   5.602
 9535SOL    HW129504   0.997   0.810   5.643
 9535SOL    HW229505   0.971   0.969   5.665
 9536SOL     OW29506   4.008   3.856   4.397
 9536SOL    HW129507   4.003   3.922   4.472
 9536SOL    HW229508   4.003   3.763   4.434
 9537SOL     OW29509   1.622   1.247   3.577
 9537SOL    HW129510   1.603   1.212   3.485
 9537SOL    HW229511   1.563   1.201   3.643
 9538SOL     OW29512   3.142   0.869   4.823
 9538SOL    HW129513   3.171   0.957   4.860
 9538SOL    HW229514   3.203   0.797   4.857
 9539SOL     OW29515   3.710   2.965   2.825
 9539SOL    HW129516   3.737   2.909   2.903
 9539SOL    HW229517   3.779   2.958   2.753
 9540SOL     OW29518   4.753   4.936   4.150
 9540SOL    HW129519   4.731   4.909   4.244
 9540SOL    HW229520   4.688   5.005   4.119
 9541SOL     OW29521   1.709   5.829   5.089
 9541SOL    HW129522   1.761   5.796   5.167
 9541SOL    HW229523   1.706   5.758   5.018
 9542SOL     OW29524   5.954   4.447   4.359
 9542SOL    HW129525   5.928   4.528   4.412
 9542SOL    HW229526   6.041   4.465   4.312
 9543SOL     OW29527   2.490   0.516   6.055
 9543SOL    HW129528   2.576   0.510   6.005
 9543SOL    HW229529   2.504   0.568   6.140
 9544SOL     OW29530   5.390   3.593   3.824
 9544SOL    HW129531   5.318   3.598   3.755
 9544SOL    HW229532   5.348   3.591   3.915
 9545SOL     OW29533   1.380   4.504   1.851
 9545SOL    HW129534   1.399   4.602   1.858
 9545SOL    HW229535   1.453   4.452   1.895
 9546SOL     OW29536   2.537   1.894   6.617
 9546SOL    HW129537   2.532   1.854   6.708
 9546SOL    HW229538   2.613   1.960   6.614
 9547SOL     OW29539   3.755   6.037   4.122
 9547SOL    HW129540   3.770   6.126   4.079
 9547SOL    HW229541   3.828   6.020   4.188
 9548SOL     OW29542   1.278   4.586   6.942
 9548SOL    HW129543   1.293   4.621   6.849
 9548SOL    HW229544   1.259   4.488   6.937
 9549SOL     OW29545   4.412   2.190   1.359
 9549SOL    HW129546   4.479   2.203   1.432
 9549SOL    HW229547   4.357   2.109   1.378
 9550SOL     OW29548   5.119   2.743   1.840
 9550SOL    HW129549   5.027   2.780   1.829
 9550SOL    HW229550   5.143   2.687   1.761
 9551SOL     OW29551   6.845   2.299   6.577
 9551SOL    HW129552   6.902   2.221   6.605
 9551SOL    HW229553   6.852   2.312   6.478
 9552SOL     OW29554   2.981   1.657   6.697
 9552SOL    HW129555   3.048   1.584   6.711
 9552SOL    HW229556   2.895   1.631   6.741
 9553SOL     OW29557   5.805   2.044   6.586
 9553SOL    HW129558   5.876   2.066   6.519
 9553SOL    HW229559   5.845   2.038   6.677
 9554SOL     OW29560   1.974   6.739   4.160
 9554SOL    HW129561   2.036   6.762   4.085
 9554SOL    HW229562   2.023   6.686   4.229
 9555SOL     OW29563   6.406   0.599   4.046
 9555SOL    HW129564   6.352   0.537   3.987
 9555SOL    HW229565   6.384   0.581   4.141
 9556SOL     OW29566   2.093   4.060   1.024
 9556SOL    HW129567   2.043   4.144   1.046
 9556SOL    HW229568   2.129   4.067   0.931
 9557SOL     OW29569   4.894   0.455   1.893
 9557SOL    HW129570   4.897   0.418   1.800
 9557SOL    HW229571   4.798   0.464   1.922
 9558SOL     OW29572   5.437   6.744   6.231
 9558SOL    HW129573   5.412   6.674   6.164
 9558SOL    HW229574   5.388   6.829   6.211
 9559SOL     OW29575   1.628   3.923   0.458
 9559SOL    HW129576   1.625   3.912   0.359
 9559SOL    HW229577   1.636   4.020   0.480
 9560SOL     OW29578   3.035   6.640   2.071
 9560SOL    HW129579   3.086   6.554   2.070
 9560SOL    HW229580   2.952   6.630   2.016
 9561SOL     OW29581   1.209   0.717   1.035
 9561SOL    HW129582   1.196   0.804   0.987
 9561SOL    HW229583   1.160   0.645   0.987
 9562SOL     OW29584   2.934   5.203   3.728
 9562SOL    HW129585   2.843   5.239   3.749
 9562SOL    HW229586   2.933   5.103   3.734
 9563SOL     OW29587   0.841   5.896   1.140
 9563SOL    HW129588   0.782   5.826   1.180
 9563SOL    HW229589   0.874   5.865   1.051
 9564SOL     OW29590   1.675   6.921   0.533
 9564SOL    HW129591   1.731   6.858   0.587
 9564SOL    HW229592   1.668   7.009   0.582
 9565SOL     OW29593   3.453   1.075   4.217
 9565SOL    HW129594   3.424   1.088   4.312
 9565SOL    HW229595   3.372   1.068   4.158
 9566SOL     OW29596   2.511   6.858   0.505
 9566SOL    HW129597   2.439   6.922   0.478
 9566SOL    HW229598   2.592   6.875   0.449
 9567SOL     OW29599   6.390   4.917   0.956
 9567SOL    HW129600   6.372   4.934   1.053
 9567SOL    HW229601   6.392   5.004   0.907
 9568SOL     OW29602   4.117   1.787   6.881
 9568SOL    HW129603   4.187   1.827   6.822
 9568SOL    HW229604   4.146   1.795   6.977
 9569SOL     OW29605   5.349   0.295   1.870
 9569SOL    HW129606   5.325   0.374   1.814
 9569SOL    HW229607   5.297   0.215   1.839
 9570SOL     OW29608   6.835   2.834   0.941
 9570SOL    HW129609   6.789   2.809   1.026
 9570SOL    HW229610   6.767   2.843   0.868
 9571SOL     OW29611   3.259   2.306   0.125
 9571SOL    HW129612   3.167   2.324   0.090
 9571SOL    HW229613   3.256   2.294   0.224
 9572SOL     OW29614   2.183   3.890   3.390
 9572SOL    HW129615   2.214   3.934   3.474
 9572SOL    HW229616   2.122   3.814   3.413
 9573SOL     OW29617   6.778   1.136   4.405
 9573SOL    HW129618   6.766   1.217   4.348
 9573SOL    HW229619   6.697   1.123   4.462
 9574SOL     OW29620   4.051   2.964   1.345
 9574SOL    HW129621   4.121   3.028   1.378
 9574SOL    HW229622   3.978   2.958   1.413
 9575SOL     OW29623   5.782   6.570   1.647
 9575SOL    HW129624   5.796   6.567   1.746
 9575SOL    HW229625   5.818   6.487   1.605
 9576SOL     OW29626   1.054   0.574   0.111
 9576SOL    HW129627   1.109   0.603   0.033
 9576SOL    HW229628   0.993   0.649   0.137
 9577SOL     OW29629   6.629   5.570   1.517
 9577SOL    HW129630   6.590   5.537   1.602
 9577SOL    HW229631   6.622   5.499   1.447
 9578SOL     OW29632   1.412   2.503   3.198
 9578SOL    HW129633   1.365   2.424   3.158
 9578SOL    HW229634   1.346   2.564   3.240
 9579SOL     OW29635   5.605   6.828   2.466
 9579SOL    HW129636   5.610   6.773   2.383
 9579SOL    HW229637   5.529   6.796   2.523
 9580SOL     OW29638   4.777   4.883   1.613
 9580SOL    HW129639   4.776   4.892   1.713
 9580SOL    HW229640   4.684   4.866   1.581
 9581SOL     OW29641   6.135   1.091   7.010
 9581SOL    HW129642   6.098   1.042   0.067
 9581SOL    HW229643   6.227   1.058   6.990
 9582SOL     OW29644   4.453   5.503   3.992
 9582SOL    HW129645   4.404   5.577   3.945
 9582SOL    HW229646   4.419   5.494   4.086
 9583SOL     OW29647   3.420   4.622   1.688
 9583SOL    HW129648   3.502   4.647   1.741
 9583SOL    HW229649   3.431   4.530   1.651
 9584SOL     OW29650   1.876   4.126   4.298
 9584SOL    HW129651   1.789   4.090   4.264
 9584SOL    HW229652   1.948   4.108   4.230
 9585SOL     OW29653   5.115   5.989   1.660
 9585SOL    HW129654   5.100   6.036   1.572
 9585SOL    HW229655   5.026   5.975   1.705
 9586SOL     OW29656   4.424   5.413   1.461
 9586SOL    HW129657   4.429   5.512   1.473
 9586SOL    HW229658   4.505   5.381   1.412
 9587SOL     OW29659   2.486   6.274   1.509
 9587SOL    HW129660   2.549   6.197   1.517
 9587SOL    HW229661   2.529   6.348   1.458
 9588SOL     OW29662   6.422   5.927   0.660
 9588SOL    HW129663   6.357   5.861   0.698
 9588SOL    HW229664   6.512   5.883   0.651
 9589SOL     OW29665   1.417   3.991   6.487
 9589SOL    HW129666   1.367   3.917   6.532
 9589SOL    HW229667   1.421   3.973   6.389
 9590SOL     OW29668   5.391   1.478   2.195
 9590SOL    HW129669   5.388   1.463   2.294
 9590SOL    HW229670   5.376   1.575   2.176
 9591SOL     OW29671   3.194   0.515   6.382
 9591SOL    HW129672   3.114   0.574   6.373
 9591SOL    HW229673   3.183   0.434   6.325
 9592SOL     OW29674   2.743   4.500   6.710
 9592SOL    HW129675   2.660   4.555   6.697
 9592SOL    HW229676   2.720   4.417   6.761
 9593SOL     OW29677   1.748   1.478   5.679
 9593SOL    HW129678   1.833   1.523   5.652
 9593SOL    HW229679   1.722   1.412   5.608
 9594SOL     OW29680   1.216   5.993   3.924
 9594SOL    HW129681   1.314   5.986   3.937
 9594SOL    HW229682   1.189   5.938   3.845
 9595SOL     OW29683   0.253   2.901   3.824
 9595SOL    HW129684   0.274   2.974   3.889
 9595SOL    HW229685   0.286   2.814   3.860
 9596SOL     OW29686   0.100   5.841   1.129
 9596SOL    HW129687   0.158   5.841   1.048
 9596SOL    HW229688   0.149   5.882   1.206
 9597SOL     OW29689   1.149   3.799   2.826
 9597SOL    HW129690   1.124   3.894   2.843
 9597SOL    HW229691   1.207   3.794   2.744
 9598SOL     OW29692   1.836   3.437   2.875
 9598SOL    HW129693   1.821   3.534   2.895
 9598SOL    HW229694   1.934   3.420   2.865
 9599SOL     OW29695   3.068   6.949   3.707
 9599SOL    HW129696   3.071   6.889   3.787
 9599SOL    HW229697   3.044   6.896   3.626
 9600SOL     OW29698   2.985   0.618   1.112
 9600SOL    HW129699   2.899   0.583   1.074
 9600SOL    HW229700   3.020   0.692   1.054
 9601SOL     OW29701   6.390   4.367   1.161
 9601SOL    HW129702   6.291   4.376   1.153
 9601SOL    HW229703   6.419   4.281   1.119
 9602SOL     OW29704   5.018   4.053   5.317
 9602SOL    HW129705   4.941   4.087   5.372
 9602SOL    HW229706   5.019   3.953   5.321
 9603SOL     OW29707   5.571   6.862   5.470
 9603SOL    HW129708   5.616   6.935   5.523
 9603SOL    HW229709   5.640   6.811   5.419
 9604SOL     OW29710   5.373   0.320   0.386
 9604SOL    HW129711   5.277   0.302   0.404
 9604SOL    HW229712   5.430   0.260   0.443
 9605SOL     OW29713   6.609   5.213   3.508
 9605SOL    HW129714   6.630   5.143   3.440
 9605SOL    HW229715   6.515   5.203   3.539
 9606SOL     OW29716   1.039   1.238   6.532
 9606SOL    HW129717   1.086   1.324   6.551
 9606SOL    HW229718   0.973   1.252   6.458
 9607SOL     OW29719   3.194   1.894   6.178
 9607SOL    HW129720   3.236   1.959   6.241
 9607SOL    HW229721   3.099   1.921   6.160
 9608SOL     OW29722   6.687   4.490   3.003
 9608SOL    HW129723   6.685   4.582   3.042
 9608SOL    HW229724   6.690   4.423   3.078
 9609SOL     OW29725   3.755   2.396   6.121
 9609SOL    HW129726   3.785   2.309   6.162
 9609SOL    HW229727   3.836   2.449   6.093
 9610SOL     OW29728   1.871   3.736   2.845
 9610SOL    HW129729   1.856   3.740   2.746
 9610SOL    HW229730   1.969   3.747   2.864
 9611SOL     OW29731   2.016   6.554   1.250
 9611SOL    HW129732   2.042   6.555   1.154
 9611SOL    HW229733   1.987   6.461   1.275
 9612SOL     OW29734   0.563   3.049   2.461
 9612SOL    HW129735   0.517   3.130   2.496
 9612SOL    HW229736   0.660   3.051   2.486
 9613SOL     OW29737   6.021   5.818   3.638
 9613SOL    HW129738   6.054   5.724   3.630
 9613SOL    HW229739   6.091   5.881   3.603
 9614SOL     OW29740   4.140   2.241   3.227
 9614SOL    HW129741   4.133   2.180   3.306
 9614SOL    HW229742   4.055   2.293   3.217
 9615SOL     OW29743   2.338   2.575   0.930
 9615SOL    HW129744   2.404   2.527   0.987
 9615SOL    HW229745   2.250   2.581   0.978
 9616SOL     OW29746   3.842   2.682   0.992
 9616SOL    HW129747   3.785   2.742   1.049
 9616SOL    HW229748   3.828   2.587   1.019
 9617SOL     OW29749   2.193   3.003   3.913
 9617SOL    HW129750   2.171   3.092   3.871
 9617SOL    HW229751   2.232   2.943   3.843
 9618SOL     OW29752   2.749   1.012   0.892
 9618SOL    HW129753   2.669   0.951   0.891
 9618SOL    HW229754   2.777   1.033   0.799
 9619SOL     OW29755   2.097   0.819   5.671
 9619SOL    HW129756   2.101   0.720   5.687
 9619SOL    HW229757   2.006   0.843   5.637
 9620SOL     OW29758   5.100   0.261   5.075
 9620SOL    HW129759   5.000   0.266   5.079
 9620SOL    HW229760   5.134   0.200   5.147
 9621SOL     OW29761   1.889   2.785   2.395
 9621SOL    HW129762   1.829   2.846   2.448
 9621SOL    HW229763   1.872   2.799   2.298
 9622SOL     OW29764   5.572   1.187   1.205
 9622SOL    HW129765   5.618   1.273   1.183
 9622SOL    HW229766   5.532   1.193   1.296
 9623SOL     OW29767   3.343   2.899   6.366
 9623SOL    HW129768   3.281   2.821   6.375
 9623SOL    HW229769   3.298   2.971   6.313
 9624SOL     OW29770   5.601   3.352   3.065
 9624SOL    HW129771   5.669   3.291   3.025
 9624SOL    HW229772   5.645   3.413   3.131
 9625SOL     OW29773   6.008   6.304   0.351
 9625SOL    HW129774   6.043   6.224   0.399
 9625SOL    HW229775   6.034   6.387   0.401
 9626SOL     OW29776   3.965   5.263   0.521
 9626SOL    HW129777   3.936   5.178   0.477
 9626SOL    HW229778   4.044   5.245   0.580
 9627SOL     OW29779   1.286   6.294   6.242
 9627SOL    HW129780   1.283   6.386   6.204
 9627SOL    HW229781   1.201   6.246   6.219
 9628SOL     OW29782   4.449   6.205   1.127
 9628SOL    HW129783   4.514   6.131   1.142
 9628SOL    HW229784   4.377   6.174   1.066
 9629SOL     OW29785   2.778   0.098   1.358
 9629SOL    HW129786   2.848   0.115   1.289
 9629SOL    HW229787   2.689   0.091   1.313
 9630SOL     OW29788   6.830   0.939   5.932
 9630SOL    HW129789   6.734   0.964   5.944
 9630SOL    HW229790   6.857   0.956   5.837
 9631SOL     OW29791   6.451   0.039   6.598
 9631SOL    HW129792   6.448   0.136   6.574
 9631SOL    HW229793   6.546   0.010   6.610
 9632SOL     OW29794   1.698   6.141   1.958
 9632SOL    HW129795   1.732   6.226   1.999
 9632SOL    HW229796   1.772   6.074   1.956
 9633SOL     OW29797   5.972   5.697   6.956
 9633SOL    HW129798   5.962   5.796   6.963
 9633SOL    HW229799   5.886   5.653   6.981
 9634SOL     OW29800   1.810   6.251   4.704
 9634SOL    HW129801   1.728   6.224   4.654
 9634SOL    HW229802   1.891   6.213   4.658
 9635SOL     OW29803   2.799   5.399   4.537
 9635SOL    HW129804   2.853   5.342   4.599
 9635SOL    HW229805   2.711   5.420   4.580
 9636SOL     OW29806   4.206   1.141   5.321
 9636SOL    HW129807   4.167   1.218   5.270
 9636SOL    HW229808   4.139   1.067   5.325
 9637SOL     OW29809   1.447   1.961   6.659
 9637SOL    HW129810   1.547   1.962   6.671
 9637SOL    HW229811   1.418   2.050   6.624
 9638SOL     OW29812   6.771   3.287   5.356
 9638SOL    HW129813   6.828   3.361   5.392
 9638SOL    HW229814   6.811   3.253   5.271
 9639SOL     OW29815   4.880   1.300   2.603
 9639SOL    HW129816   4.859   1.203   2.614
 9639SOL    HW229817   4.948   1.328   2.672
 9640SOL     OW29818   2.187   2.547   3.019
 9640SOL    HW129819   2.156   2.624   3.074
 9640SOL    HW229820   2.108   2.505   2.973
 9641SOL     OW29821   5.806   0.099   0.745
 9641SOL    HW129822   5.786   0.081   0.649
 9641SOL    HW229823   5.826   0.196   0.758
 9642SOL     OW29824   3.130   0.509   4.530
 9642SOL    HW129825   3.089   0.436   4.475
 9642SOL    HW229826   3.202   0.470   4.588
 9643SOL     OW29827   4.949   4.990   3.700
 9643SOL    HW129828   5.040   4.993   3.739
 9643SOL    HW229829   4.884   4.957   3.769
 9644SOL     OW29830   1.564   2.906   6.392
 9644SOL    HW129831   1.478   2.861   6.414
 9644SOL    HW229832   1.620   2.845   6.335
 9645SOL     OW29833   3.080   5.212   5.232
 9645SOL    HW129834   3.159   5.270   5.253
 9645SOL    HW229835   3.081   5.133   5.294
 9646SOL     OW29836   4.080   4.825   2.703
 9646SOL    HW129837   4.020   4.751   2.671
 9646SOL    HW229838   4.027   4.909   2.713
 9647SOL     OW29839   6.624   3.517   1.053
 9647SOL    HW129840   6.695   3.519   0.983
 9647SOL    HW229841   6.572   3.603   1.050
 9648SOL     OW29842   4.688   2.774   1.102
 9648SOL    HW129843   4.630   2.794   1.181
 9648SOL    HW229844   4.776   2.738   1.133
 9649SOL     OW29845   2.137   5.897   0.112
 9649SOL    HW129846   2.083   5.980   0.101
 9649SOL    HW229847   2.169   5.891   0.206
 9650SOL     OW29848   6.570   5.727   1.991
 9650SOL    HW129849   6.613   5.714   1.901
 9650SOL    HW229850   6.593   5.650   2.050
 9651SOL     OW29851   0.851   0.922   6.623
 9651SOL    HW129852   0.857   0.883   6.532
 9651SOL    HW229853   0.903   1.008   6.626
 9652SOL     OW29854   0.178   4.666   3.295
 9652SOL    HW129855   0.094   4.627   3.256
 9652SOL    HW229856   0.253   4.601   3.282
 9653SOL     OW29857   5.647   5.074   4.537
 9653SOL    HW129858   5.582   5.088   4.462
 9653SOL    HW229859   5.698   5.158   4.553
 9654SOL     OW29860   2.388   2.773   2.014
 9654SOL    HW129861   2.453   2.731   2.077
 9654SOL    HW229862   2.420   2.763   1.920
 9655SOL     OW29863   6.800   1.597   6.632
 9655SOL    HW129864   6.827   1.693   6.627
 9655SOL    HW229865   6.735   1.577   6.559
 9656SOL     OW29866   3.193   0.469   2.791
 9656SOL    HW129867   3.174   0.457   2.888
 9656SOL    HW229868   3.107   0.483   2.742
 9657SOL     OW29869   6.572   1.032   4.541
 9657SOL    HW129870   6.586   1.031   4.640
 9657SOL    HW229871   6.482   0.992   4.520
 9658SOL     OW29872   6.367   2.649   1.625
 9658SOL    HW129873   6.343   2.599   1.542
 9658SOL    HW229874   6.292   2.642   1.690
 9659SOL     OW29875   0.369   4.454   0.042
 9659SOL    HW129876   0.271   4.443   0.058
 9659SOL    HW229877   0.397   4.400   6.983
 9660SOL     OW29878   0.692   5.147   0.370
 9660SOL    HW129879   0.709   5.103   0.458
 9660SOL    HW229880   0.599   5.183   0.368
 9661SOL     OW29881   4.220   6.397   0.613
 9661SOL    HW129882   4.287   6.400   0.539
 9661SOL    HW229883   4.224   6.482   0.666
 9662SOL     OW29884   6.052   1.436   4.776
 9662SOL    HW129885   6.023   1.389   4.694
 9662SOL    HW229886   6.062   1.371   4.851
 9663SOL     OW29887   2.305   5.060   3.023
 9663SOL    HW129888   2.396   5.019   3.033
 9663SOL    HW229889   2.307   5.153   3.062
 9664SOL     OW29890   3.814   6.418   2.108
 9664SOL    HW129891   3.811   6.509   2.068
 9664SOL    HW229892   3.745   6.410   2.180
 9665SOL     OW29893   5.328   4.385   4.704
 9665SOL    HW129894   5.353   4.481   4.699
 9665SOL    HW229895   5.229   4.377   4.719
 9666SOL     OW29896   5.536   4.227   3.249
 9666SOL    HW129897   5.445   4.187   3.246
 9666SOL    HW229898   5.539   4.309   3.192
 9667SOL     OW29899   4.089   3.215   4.072
 9667SOL    HW129900   4.040   3.240   3.988
 9667SOL    HW229901   4.177   3.174   4.050
 9668SOL     OW29902   0.494   0.952   5.423
 9668SOL    HW129903   0.402   0.930   5.454
 9668SOL    HW229904   0.560   0.895   5.472
 9669SOL     OW29905   1.224   5.945   0.924
 9669SOL    HW129906   1.256   6.038   0.941
 9669SOL    HW229907   1.229   5.892   1.009
 9670SOL     OW29908   4.829   5.029   6.683
 9670SOL    HW129909   4.824   5.111   6.738
 9670SOL    HW229910   4.924   5.000   6.674
 9671SOL     OW29911   6.885   5.536   5.534
 9671SOL    HW129912   6.822   5.576   5.468
 9671SOL    HW229913   6.895   5.598   5.612
 9672SOL     OW29914   0.659   6.398   4.957
 9672SOL    HW129915   0.640   6.464   4.884
 9672SOL    HW229916   0.572   6.364   4.994
 9673SOL     OW29917   3.430   4.162   6.803
 9673SOL    HW129918   3.446   4.234   6.736
 9673SOL    HW229919   3.512   4.105   6.810
 9674SOL     OW29920   3.355   6.195   2.294
 9674SOL    HW129921   3.331   6.165   2.202
 9674SOL    HW229922   3.451   6.172   2.313
 9675SOL     OW29923   6.297   2.338   1.729
 9675SOL    HW129924   6.367   2.408   1.743
 9675SOL    HW229925   6.318   2.258   1.785
 9676SOL     OW29926   0.587   3.652   4.380
 9676SOL    HW129927   0.664   3.680   4.323
 9676SOL    HW229928   0.590   3.553   4.394
 9677SOL     OW29929   1.966   3.415   5.848
 9677SOL    HW129930   2.060   3.442   5.827
 9677SOL    HW229931   1.939   3.340   5.788
 9678SOL     OW29932   3.622   3.560   3.079
 9678SOL    HW129933   3.602   3.512   2.994
 9678SOL    HW229934   3.720   3.578   3.085
 9679SOL     OW29935   1.326   2.764   1.848
 9679SOL    HW129936   1.355   2.699   1.778
 9679SOL    HW229937   1.397   2.833   1.861
 9680SOL     OW29938   5.931   5.702   3.345
 9680SOL    HW129939   5.930   5.632   3.417
 9680SOL    HW229940   6.002   5.680   3.278
 9681SOL     OW29941   2.098   0.827   2.480
 9681SOL    HW129942   2.164   0.844   2.553
 9681SOL    HW229943   2.012   0.795   2.518
 9682SOL     OW29944   5.551   4.740   3.002
 9682SOL    HW129945   5.501   4.685   2.935
 9682SOL    HW229946   5.485   4.790   3.059
 9683SOL     OW29947   4.566   6.347   6.880
 9683SOL    HW129948   4.470   6.361   6.901
 9683SOL    HW229949   4.620   6.420   6.923
 9684SOL     OW29950   1.077   3.889   4.793
 9684SOL    HW129951   1.125   3.802   4.780
 9684SOL    HW229952   1.122   3.941   4.865
 9685SOL     OW29953   0.803   2.943   0.700
 9685SOL    HW129954   0.855   3.004   0.761
 9685SOL    HW229955   0.753   2.998   0.633
 9686SOL     OW29956   6.391   0.816   1.483
 9686SOL    HW129957   6.298   0.852   1.489
 9686SOL    HW229958   6.390   0.719   1.507
 9687SOL     OW29959   2.794   0.008   3.817
 9687SOL    HW129960   2.841   6.955   3.866
 9687SOL    HW229961   2.861   0.067   3.772
 9688SOL     OW29962   0.089   1.435   2.847
 9688SOL    HW129963   0.050   1.458   2.937
 9688SOL    HW229964   0.152   1.507   2.819
 9689SOL     OW29965   2.676   6.233   6.390
 9689SOL    HW129966   2.582   6.262   6.410
 9689SOL    HW229967   2.680   6.196   6.297
 9690SOL     OW29968   6.552   5.077   1.128
 9690SOL    HW129969   6.553   4.995   1.186
 9690SOL    HW229970   6.620   5.142   1.160
 9691SOL     OW29971   1.795   5.140   2.403
 9691SOL    HW129972   1.776   5.200   2.481
 9691SOL    HW229973   1.747   5.053   2.416
 9692SOL     OW29974   2.709   5.313   1.483
 9692SOL    HW129975   2.694   5.249   1.408
 9692SOL    HW229976   2.629   5.374   1.492
 9693SOL     OW29977   6.029   6.373   1.857
 9693SOL    HW129978   6.033   6.472   1.864
 9693SOL    HW229979   6.121   6.335   1.863
 9694SOL     OW29980   1.238   2.570   6.438
 9694SOL    HW129981   1.243   2.669   6.426
 9694SOL    HW229982   1.326   2.536   6.472
 9695SOL     OW29983   6.768   4.494   1.633
 9695SOL    HW129984   6.721   4.454   1.555
 9695SOL    HW229985   6.723   4.579   1.659
 9696SOL     OW29986   3.809   3.074   1.497
 9696SOL    HW129987   3.735   3.137   1.519
 9696SOL    HW229988   3.860   3.052   1.580
 9697SOL     OW29989   0.425   5.410   6.820
 9697SOL    HW129990   0.363   5.408   6.899
 9697SOL    HW229991   0.374   5.389   6.737
 9698SOL     OW29992   5.848   2.100   5.118
 9698SOL    HW129993   5.867   2.157   5.198
 9698SOL    HW229994   5.924   2.106   5.054
 9699SOL     OW29995   1.753   3.532   6.774
 9699SOL    HW129996   1.840   3.575   6.794
 9699SOL    HW229997   1.731   3.464   6.845
 9700SOL     OW29998   3.929   4.083   5.025
 9700SOL    HW129999   3.871   4.118   4.951
 9700SOL    HW230000   4.025   4.104   5.005
 9701SOL     OW30001   4.506   5.343   4.792
 9701SOL    HW130002   4.441   5.397   4.739
 9701SOL    HW230003   4.485   5.246   4.782
 9702SOL     OW30004   4.660   1.024   0.682
 9702SOL    HW130005   4.646   0.949   0.746
 9702SOL    HW230006   4.748   1.012   0.634
 9703SOL     OW30007   2.915   5.663   4.471
 9703SOL    HW130008   3.007   5.665   4.512
 9703SOL    HW230009   2.872   5.575   4.490
 9704SOL     OW30010   3.653   0.131   3.417
 9704SOL    HW130011   3.611   0.192   3.485
 9704SOL    HW230012   3.679   0.045   3.461
 9705SOL     OW30013   3.280   4.372   0.193
 9705SOL    HW130014   3.274   4.322   0.279
 9705SOL    HW230015   3.197   4.426   0.180
 9706SOL     OW30016   5.677   2.902   2.765
 9706SOL    HW130017   5.596   2.937   2.812
 9706SOL    HW230018   5.659   2.809   2.733
 9707SOL     OW30019   2.476   5.182   2.773
 9707SOL    HW130020   2.463   5.210   2.678
 9707SOL    HW230021   2.497   5.085   2.777
 9708SOL     OW30022   2.152   1.393   3.092
 9708SOL    HW130023   2.213   1.443   3.030
 9708SOL    HW230024   2.164   1.295   3.079
 9709SOL     OW30025   2.051   6.163   2.936
 9709SOL    HW130026   2.144   6.198   2.925
 9709SOL    HW230027   2.021   6.121   2.850
 9710SOL     OW30028   0.321   0.823   3.147
 9710SOL    HW130029   0.353   0.916   3.129
 9710SOL    HW230030   0.221   0.822   3.146
 9711SOL     OW30031   1.362   3.736   5.150
 9711SOL    HW130032   1.303   3.667   5.109
 9711SOL    HW230033   1.385   3.805   5.082
 9712SOL     OW30034   5.071   1.778   4.356
 9712SOL    HW130035   5.153   1.725   4.376
 9712SOL    HW230036   5.095   1.874   4.343
 9713SOL     OW30037   6.756   5.054   2.718
 9713SOL    HW130038   6.843   5.044   2.766
 9713SOL    HW230039   6.763   5.127   2.650
 9714SOL     OW30040   2.071   2.621   1.387
 9714SOL    HW130041   2.152   2.596   1.441
 9714SOL    HW230042   2.033   2.706   1.422
 9715SOL     OW30043   5.047   5.905   4.805
 9715SOL    HW130044   5.012   5.946   4.721
 9715SOL    HW230045   5.144   5.882   4.794
 9716SOL     OW30046   4.244   1.752   6.440
 9716SOL    HW130047   4.244   1.697   6.357
 9716SOL    HW230048   4.162   1.732   6.493
 9717SOL     OW30049   5.877   5.713   3.872
 9717SOL    HW130050   5.946   5.726   3.801
 9717SOL    HW230051   5.792   5.680   3.832
 9718SOL     OW30052   4.283   3.094   1.514
 9718SOL    HW130053   4.304   3.052   1.603
 9718SOL    HW230054   4.295   3.193   1.520
 9719SOL     OW30055   0.524   2.200   0.160
 9719SOL    HW130056   0.450   2.133   0.163
 9719SOL    HW230057   0.609   2.155   0.131
 9720SOL     OW30058   0.065   0.399   2.062
 9720SOL    HW130059   7.020   0.474   2.071
 9720SOL    HW230060   0.016   0.312   2.056
 9721SOL     OW30061   6.732   3.749   2.238
 9721SOL    HW130062   6.709   3.803   2.157
 9721SOL    HW230063   6.721   3.805   2.320
 9722SOL     OW30064   0.852   0.684   3.989
 9722SOL    HW130065   0.829   0.730   4.075
 9722SOL    HW230066   0.815   0.737   3.912
 9723SOL     OW30067   0.362   0.960   3.696
 9723SOL    HW130068   0.333   0.890   3.761
 9723SOL    HW230069   0.412   0.917   3.621
 9724SOL     OW30070   3.772   2.442   1.119
 9724SOL    HW130071   3.721   2.383   1.181
 9724SOL    HW230072   3.845   2.389   1.074
 9725SOL     OW30073   4.743   3.296   5.438
 9725SOL    HW130074   4.644   3.307   5.442
 9725SOL    HW230075   4.770   3.224   5.502
 9726SOL     OW30076   4.673   6.432   4.785
 9726SOL    HW130077   4.710   6.383   4.705
 9726SOL    HW230078   4.592   6.383   4.819
 9727SOL     OW30079   1.494   3.092   5.821
 9727SOL    HW130080   1.451   3.114   5.908
 9727SOL    HW230081   1.535   3.175   5.783
 9728SOL     OW30082   2.776   5.719   6.812
 9728SOL    HW130083   2.705   5.734   6.742
 9728SOL    HW230084   2.848   5.787   6.801
 9729SOL     OW30085   2.452   4.877   2.719
 9729SOL    HW130086   2.441   4.854   2.816
 9729SOL    HW230087   2.402   4.811   2.663
 9730SOL     OW30088   6.401   3.004   2.403
 9730SOL    HW130089   6.305   2.997   2.373
 9730SOL    HW230090   6.461   2.984   2.326
 9731SOL     OW30091   3.569   4.951   0.582
 9731SOL    HW130092   3.488   4.900   0.553
 9731SOL    HW230093   3.572   5.039   0.534
 9732SOL     OW30094   6.499   6.208   2.716
 9732SOL    HW130095   6.536   6.300   2.714
 9732SOL    HW230096   6.449   6.194   2.802
 9733SOL     OW30097   4.973   4.735   5.261
 9733SOL    HW130098   5.018   4.716   5.174
 9733SOL    HW230099   5.003   4.668   5.329
 9734SOL     OW30100   5.430   2.344   4.293
 9734SOL    HW130101   5.456   2.352   4.197
 9734SOL    HW230102   5.369   2.420   4.317
 9735SOL     OW30103   1.902   4.493   1.537
 9735SOL    HW130104   1.975   4.547   1.577
 9735SOL    HW230105   1.875   4.532   1.449
 9736SOL     OW30106   4.180   1.016   6.816
 9736SOL    HW130107   4.099   0.984   6.768
 9736SOL    HW230108   4.184   1.116   6.812
 9737SOL     OW30109   4.012   2.214   5.128
 9737SOL    HW130110   4.066   2.293   5.158
 9737SOL    HW230111   4.047   2.182   5.040
 9738SOL     OW30112   1.606   0.833   3.114
 9738SOL    HW130113   1.620   0.749   3.062
 9738SOL    HW230114   1.695   0.867   3.145
 9739SOL     OW30115   5.731   4.724   1.813
 9739SOL    HW130116   5.736   4.720   1.713
 9739SOL    HW230117   5.694   4.812   1.841
 9740SOL     OW30118   6.374   4.889   2.950
 9740SOL    HW130119   6.421   4.915   2.866
 9740SOL    HW230120   6.383   4.962   3.018
 9741SOL     OW30121   4.599   2.313   2.285
 9741SOL    HW130122   4.508   2.321   2.327
 9741SOL    HW230123   4.636   2.404   2.270
 9742SOL     OW30124   5.578   1.154   3.736
 9742SOL    HW130125   5.570   1.239   3.682
 9742SOL    HW230126   5.492   1.103   3.727
 9743SOL     OW30127   1.799   3.221   5.739
 9743SOL    HW130128   1.832   3.152   5.675
 9743SOL    HW230129   1.715   3.262   5.704
 9744SOL     OW30130   2.092   1.084   2.413
 9744SOL    HW130131   2.016   1.118   2.358
 9744SOL    HW230132   2.090   0.985   2.416
 9745SOL     OW30133   0.125   2.617   5.144
 9745SOL    HW130134   0.179   2.679   5.087
 9745SOL    HW230135   0.035   2.658   5.162
 9746SOL     OW30136   5.993   0.957   5.003
 9746SOL    HW130137   5.900   0.955   4.965
 9746SOL    HW230138   5.989   0.991   5.097
 9747SOL     OW30139   0.638   0.208   6.100
 9747SOL    HW130140   0.593   0.120   6.109
 9747SOL    HW230141   0.570   0.281   6.105
 9748SOL     OW30142   0.878   6.133   3.847
 9748SOL    HW130143   0.912   6.088   3.929
 9748SOL    HW230144   0.868   6.231   3.865
 9749SOL     OW30145   6.992   4.068   4.293
 9749SOL    HW130146   0.040   4.017   4.241
 9749SOL    HW230147   0.008   4.091   4.383
 9750SOL     OW30148   4.507   4.944   3.777
 9750SOL    HW130149   4.572   4.885   3.825
 9750SOL    HW230150   4.549   4.978   3.693
 9751SOL     OW30151   1.538   2.287   0.451
 9751SOL    HW130152   1.533   2.379   0.489
 9751SOL    HW230153   1.488   2.284   0.364
 9752SOL     OW30154   4.264   1.060   5.917
 9752SOL    HW130155   4.275   0.978   5.861
 9752SOL    HW230156   4.354   1.098   5.940
 9753SOL     OW30157   0.264   5.842   5.043
 9753SOL    HW130158   0.255   5.880   5.135
 9753SOL    HW230159   0.194   5.771   5.029
 9754SOL     OW30160   1.174   1.461   6.631
 9754SOL    HW130161   1.267   1.453   6.668
 9754SOL    HW230162   1.159   1.555   6.600
 9755SOL     OW30163   3.579   4.621   5.663
 9755SOL    HW130164   3.564   4.674   5.580
 9755SOL    HW230165   3.508   4.552   5.672
 9756SOL     OW30166   6.141   2.421   6.174
 9756SOL    HW130167   6.202   2.405   6.097
 9756SOL    HW230168   6.196   2.431   6.258
 9757SOL     OW30169   5.993   2.372   3.726
 9757SOL    HW130170   5.975   2.437   3.799
 9757SOL    HW230171   5.979   2.279   3.759
 9758SOL     OW30172   2.694   0.526   0.021
 9758SOL    HW130173   2.662   0.621   0.030
 9758SOL    HW230174   2.770   0.511   0.085
 9759SOL     OW30175   2.991   6.213   1.068
 9759SOL    HW130176   3.068   6.227   1.004
 9759SOL    HW230177   3.027   6.186   1.157
 9760SOL     OW30178   6.011   4.593   5.705
 9760SOL    HW130179   5.928   4.560   5.750
 9760SOL    HW230180   6.033   4.534   5.627
 9761SOL     OW30181   5.611   5.423   1.801
 9761SOL    HW130182   5.537   5.489   1.816
 9761SOL    HW230183   5.691   5.449   1.855
 9762SOL     OW30184   2.314   1.576   4.764
 9762SOL    HW130185   2.363   1.658   4.732
 9762SOL    HW230186   2.366   1.534   4.838
 9763SOL     OW30187   2.463   1.924   0.833
 9763SOL    HW130188   2.436   1.940   0.738
 9763SOL    HW230189   2.440   2.005   0.888
 9764SOL     OW30190   0.933   1.706   2.368
 9764SOL    HW130191   0.907   1.694   2.464
 9764SOL    HW230192   0.991   1.629   2.340
 9765SOL     OW30193   0.985   1.768   5.437
 9765SOL    HW130194   1.055   1.792   5.505
 9765SOL    HW230195   0.922   1.845   5.427
 9766SOL     OW30196   2.980   0.369   2.309
 9766SOL    HW130197   2.932   0.287   2.339
 9766SOL    HW230198   2.990   0.368   2.210
 9767SOL     OW30199   5.192   0.359   4.796
 9767SOL    HW130200   5.183   0.320   4.888
 9767SOL    HW230201   5.110   0.411   4.773
 9768SOL     OW30202   4.334   2.334   2.341
 9768SOL    HW130203   4.284   2.270   2.399
 9768SOL    HW230204   4.270   2.399   2.299
 9769SOL     OW30205   0.917   1.772   1.222
 9769SOL    HW130206   0.845   1.704   1.207
 9769SOL    HW230207   0.881   1.847   1.279
 9770SOL     OW30208   5.885   4.853   5.974
 9770SOL    HW130209   5.915   4.894   5.887
 9770SOL    HW230210   5.953   4.787   6.005
 9771SOL     OW30211   4.057   5.066   6.193
 9771SOL    HW130212   4.087   5.007   6.118
 9771SOL    HW230213   4.065   5.016   6.280
 9772SOL     OW30214   6.726   0.734   1.808
 9772SOL    HW130215   6.789   0.656   1.818
 9772SOL    HW230216   6.721   0.761   1.712
 9773SOL     OW30217   6.346   5.615   3.465
 9773SOL    HW130218   6.338   5.582   3.559
 9773SOL    HW230219   6.314   5.710   3.461
 9774SOL     OW30220   6.416   4.895   3.300
 9774SOL    HW130221   6.441   4.911   3.395
 9774SOL    HW230222   6.495   4.862   3.249
 9775SOL     OW30223   2.158   2.597   4.908
 9775SOL    HW130224   2.131   2.684   4.950
 9775SOL    HW230225   2.076   2.542   4.890
 9776SOL     OW30226   0.468   6.292   5.119
 9776SOL    HW130227   0.396   6.352   5.154
 9776SOL    HW230228   0.466   6.206   5.169
 9777SOL     OW30229   5.698   4.241   5.964
 9777SOL    HW130230   5.789   4.227   5.926
 9777SOL    HW230231   5.701   4.313   6.033
 9778SOL     OW30232   4.616   6.947   2.227
 9778SOL    HW130233   4.589   7.002   2.148
 9778SOL    HW230234   4.602   7.000   2.311
 9779SOL     OW30235   2.649   2.139   5.550
 9779SOL    HW130236   2.643   2.175   5.457
 9779SOL    HW230237   2.734   2.168   5.593
 9780SOL     OW30238   3.308   4.519   6.979
 9780SOL    HW130239   3.314   4.476   0.048
 9780SOL    HW230240   3.400   4.538   6.945
 9781SOL     OW30241   1.415   4.771   4.576
 9781SOL    HW130242   1.406   4.711   4.656
 9781SOL    HW230243   1.343   4.750   4.510
 9782SOL     OW30244   6.534   0.591   1.558
 9782SOL    HW130245   6.595   0.622   1.485
 9782SOL    HW230246   6.580   0.522   1.613
 9783SOL     OW30247   4.956   1.268   1.937
 9783SOL    HW130248   4.918   1.185   1.894
 9783SOL    HW230249   5.027   1.242   2.001
 9784SOL     OW30250   4.901   0.537   3.785
 9784SOL    HW130251   4.964   0.553   3.709
 9784SOL    HW230252   4.830   0.473   3.757
 9785SOL     OW30253   0.802   3.106   1.690
 9785SOL    HW130254   0.813   3.022   1.744
 9785SOL    HW230255   0.892   3.147   1.675
 9786SOL     OW30256   3.093   6.094   4.806
 9786SOL    HW130257   3.041   6.011   4.827
 9786SOL    HW230258   3.054   6.170   4.858
 9787SOL     OW30259   4.868   4.436   2.307
 9787SOL    HW130260   4.804   4.381   2.255
 9787SOL    HW230261   4.952   4.450   2.254
 9788SOL     OW30262   6.647   1.281   5.730
 9788SOL    HW130263   6.612   1.196   5.691
 9788SOL    HW230264   6.628   1.284   5.828
 9789SOL     OW30265   2.456   5.762   4.477
 9789SOL    HW130266   2.369   5.727   4.443
 9789SOL    HW230267   2.531   5.727   4.420
 9790SOL     OW30268   6.137   2.339   4.368
 9790SOL    HW130269   6.121   2.242   4.386
 9790SOL    HW230270   6.231   2.363   4.395
 9791SOL     OW30271   0.477   2.215   1.230
 9791SOL    HW130272   0.420   2.142   1.269
 9791SOL    HW230273   0.497   2.193   1.134
 9792SOL     OW30274   4.275   5.536   1.221
 9792SOL    HW130275   4.279   5.437   1.204
 9792SOL    HW230276   4.325   5.584   1.149
 9793SOL     OW30277   5.127   6.265   1.815
 9793SOL    HW130278   5.220   6.259   1.851
 9793SOL    HW230279   5.083   6.175   1.822
 9794SOL     OW30280   4.203   2.717   6.681
 9794SOL    HW130281   4.186   2.806   6.723
 9794SOL    HW230282   4.295   2.716   6.641
 9795SOL     OW30283   1.690   3.261   3.986
 9795SOL    HW130284   1.775   3.240   4.035
 9795SOL    HW230285   1.708   3.261   3.887
 9796SOL     OW30286   2.926   4.971   6.929
 9796SOL    HW130287   2.837   4.926   6.920
 9796SOL    HW230288   2.997   4.902   6.943
 9797SOL     OW30289   4.406   3.108   5.596
 9797SOL    HW130290   4.398   3.141   5.690
 9797SOL    HW230291   4.444   3.180   5.538
 9798SOL     OW30292   2.182   1.844   1.351
 9798SOL    HW130293   2.212   1.848   1.256
 9798SOL    HW230294   2.246   1.894   1.409
 9799SOL     OW30295   3.017   4.014   2.004
 9799SOL    HW130296   3.002   4.054   1.913
 9799SOL    HW230297   3.013   3.915   1.997
 9800SOL     OW30298   4.360   4.918   6.737
 9800SOL    HW130299   4.298   4.841   6.724
 9800SOL    HW230300   4.454   4.884   6.743
 9801SOL     OW30301   4.007   5.162   0.207
 9801SOL    HW130302   3.980   5.220   0.131
 9801SOL    HW230303   4.085   5.202   0.254
 9802SOL     OW30304   6.831   3.578   0.872
 9802SOL    HW130305   6.848   3.578   0.773
 9802SOL    HW230306   6.797   3.668   0.900
 9803SOL     OW30307   6.049   0.904   6.722
 9803SOL    HW130308   5.972   0.950   6.764
 9803SOL    HW230309   6.071   0.821   6.773
 9804SOL     OW30310   6.118   5.508   4.583
 9804SOL    HW130311   6.124   5.491   4.485
 9804SOL    HW230312   6.024   5.498   4.613
 9805SOL     OW30313   1.716   5.310   6.794
 9805SOL    HW130314   1.781   5.385   6.782
 9805SOL    HW230315   1.712   5.256   6.711
 9806SOL     OW30316   0.239   1.640   2.729
 9806SOL    HW130317   0.243   1.728   2.777
 9806SOL    HW230318   0.320   1.632   2.670
 9807SOL     OW30319   4.139   2.542   0.835
 9807SOL    HW130320   4.171   2.621   0.887
 9807SOL    HW230321   4.074   2.572   0.764
 9808SOL     OW30322   0.884   1.385   4.800
 9808SOL    HW130323   0.936   1.457   4.755
 9808SOL    HW230324   0.944   1.334   4.862
 9809SOL     OW30325   0.756   0.975   4.947
 9809SOL    HW130326   0.703   1.032   4.885
 9809SOL    HW230327   0.721   0.984   5.040
 9810SOL     OW30328   3.940   1.196   3.742
 9810SOL    HW130329   3.884   1.234   3.816
 9810SOL    HW230330   3.892   1.205   3.655
 9811SOL     OW30331   0.720   6.675   2.823
 9811SOL    HW130332   0.630   6.720   2.825
 9811SOL    HW230333   0.787   6.737   2.783
 9812SOL     OW30334   4.806   2.439   5.586
 9812SOL    HW130335   4.761   2.360   5.627
 9812SOL    HW230336   4.884   2.409   5.531
 9813SOL     OW30337   6.591   4.835   0.496
 9813SOL    HW130338   6.522   4.837   0.568
 9813SOL    HW230339   6.573   4.908   0.430
 9814SOL     OW30340   0.311   0.379   5.474
 9814SOL    HW130341   0.281   0.289   5.505
 9814SOL    HW230342   0.393   0.406   5.524
 9815SOL     OW30343   6.080   3.225   2.451
 9815SOL    HW130344   6.050   3.149   2.510
 9815SOL    HW230345   6.012   3.298   2.454
 9816SOL     OW30346   0.142   6.538   6.387
 9816SOL    HW130347   0.105   6.626   6.415
 9816SOL    HW230348   0.068   6.470   6.384
 9817SOL     OW30349   3.255   6.566   0.033
 9817SOL    HW130350   3.158   6.584   0.052
 9817SOL    HW230351   3.276   6.596   6.960
 9818SOL     OW30352   0.574   6.743   3.558
 9818SOL    HW130353   0.560   6.669   3.491
 9818SOL    HW230354   0.526   6.825   3.527
 9819SOL     OW30355   6.998   3.520   4.873
 9819SOL    HW130356   0.029   3.441   4.840
 9819SOL    HW230357   0.014   3.549   4.962
 9820SOL     OW30358   3.930   1.864   5.703
 9820SOL    HW130359   4.008   1.875   5.764
 9820SOL    HW230360   3.921   1.945   5.645
 9821SOL     OW30361   4.105   2.616   1.374
 9821SOL    HW130362   4.059   2.675   1.307
 9821SOL    HW230363   4.114   2.665   1.461
 9822SOL     OW30364   3.417   6.416   5.714
 9822SOL    HW130365   3.376   6.467   5.638
 9822SOL    HW230366   3.440   6.323   5.683
 9823SOL     OW30367   2.183   0.493   2.717
 9823SOL    HW130368   2.108   0.556   2.737
 9823SOL    HW230369   2.151   0.422   2.655
 9824SOL     OW30370   0.938   6.554   5.360
 9824SOL    HW130371   0.840   6.543   5.341
 9824SOL    HW230372   0.992   6.508   5.290
 9825SOL     OW30373   5.420   6.331   5.712
 9825SOL    HW130374   5.420   6.422   5.751
 9825SOL    HW230375   5.343   6.278   5.749
 9826SOL     OW30376   2.029   5.666   4.575
 9826SOL    HW130377   2.058   5.661   4.670
 9826SOL    HW230378   1.930   5.653   4.569
 9827SOL     OW30379   1.519   4.997   1.828
 9827SOL    HW130380   1.467   5.059   1.770
 9827SOL    HW230381   1.549   5.046   1.910
 9828SOL     OW30382   4.182   2.137   4.501
 9828SOL    HW130383   4.175   2.221   4.553
 9828SOL    HW230384   4.161   2.059   4.560
 9829SOL     OW30385   4.574   5.428   5.612
 9829SOL    HW130386   4.513   5.387   5.680
 9829SOL    HW230387   4.537   5.412   5.520
 9830SOL     OW30388   6.136   2.468   3.124
 9830SOL    HW130389   6.181   2.523   3.194
 9830SOL    HW230390   6.048   2.436   3.158
 9831SOL     OW30391   0.406   3.657   3.054
 9831SOL    HW130392   0.381   3.751   3.080
 9831SOL    HW230393   0.476   3.660   2.983
 9832SOL     OW30394   4.577   4.889   4.599
 9832SOL    HW130395   4.634   4.936   4.667
 9832SOL    HW230396   4.520   4.821   4.645
 9833SOL     OW30397   4.013   3.893   3.446
 9833SOL    HW130398   4.061   3.867   3.530
 9833SOL    HW230399   3.938   3.955   3.468
 9834SOL     OW30400   2.962   6.319   6.143
 9834SOL    HW130401   2.881   6.377   6.138
 9834SOL    HW230402   2.934   6.223   6.152
 9835SOL     OW30403   3.968   3.856   3.716
 9835SOL    HW130404   3.885   3.910   3.729
 9835SOL    HW230405   4.003   3.827   3.805
 9836SOL     OW30406   0.381   4.163   6.003
 9836SOL    HW130407   0.410   4.076   6.043
 9836SOL    HW230408   0.460   4.210   5.964
 9837SOL     OW30409   5.300   2.065   3.380
 9837SOL    HW130410   5.214   2.108   3.352
 9837SOL    HW230411   5.345   2.026   3.300
 9838SOL     OW30412   1.845   6.759   1.150
 9838SOL    HW130413   1.892   6.676   1.180
 9838SOL    HW230414   1.912   6.824   1.115
 9839SOL     OW30415   5.207   0.256   3.785
 9839SOL    HW130416   5.172   0.251   3.691
 9839SOL    HW230417   5.292   0.310   3.786
 9840SOL     OW30418   6.027   1.534   6.905
 9840SOL    HW130419   6.011   1.436   6.889
 9840SOL    HW230420   6.115   1.560   6.866
 9841SOL     OW30421   0.406   6.537   2.986
 9841SOL    HW130422   0.308   6.527   3.001
 9841SOL    HW230423   0.439   6.461   2.930
 9842SOL     OW30424   3.406   1.279   6.569
 9842SOL    HW130425   3.392   1.190   6.525
 9842SOL    HW230426   3.331   1.341   6.543
 9843SOL     OW30427   0.568   0.256   1.349
 9843SOL    HW130428   0.493   0.214   1.400
 9843SOL    HW230429   0.534   0.287   1.260
 9844SOL     OW30430   4.543   0.001   3.805
 9844SOL    HW130431   4.625   0.024   3.858
 9844SOL    HW230432   4.571   6.994   3.713
 9845SOL     OW30433   2.084   3.309   2.628
 9845SOL    HW130434   2.137   3.239   2.675
 9845SOL    HW230435   2.091   3.297   2.529
 9846SOL     OW30436   5.887   2.242   1.596
 9846SOL    HW130437   5.817   2.193   1.647
 9846SOL    HW230438   5.883   2.216   1.500
 9847SOL     OW30439   4.349   3.986   6.960
 9847SOL    HW130440   4.254   4.004   6.934
 9847SOL    HW230441   4.386   3.914   6.901
 9848SOL     OW30442   3.276   4.035   5.803
 9848SOL    HW130443   3.177   4.050   5.809
 9848SOL    HW230444   3.293   3.949   5.756
 9849SOL     OW30445   0.415   2.420   4.545
 9849SOL    HW130446   0.374   2.339   4.501
 9849SOL    HW230447   0.499   2.445   4.497
 9850SOL     OW30448   0.957   0.527   4.446
 9850SOL    HW130449   0.952   0.477   4.532
 9850SOL    HW230450   1.052   0.542   4.421
 9851SOL     OW30451   3.800   4.936   4.823
 9851SOL    HW130452   3.873   4.870   4.802
 9851SOL    HW230453   3.840   5.025   4.843
 9852SOL     OW30454   2.335   0.392   6.751
 9852SOL    HW130455   2.253   0.342   6.724
 9852SOL    HW230456   2.328   0.487   6.720
 9853SOL     OW30457   6.580   4.553   3.538
 9853SOL    HW130458   6.533   4.510   3.461
 9853SOL    HW230459   6.613   4.483   3.601
 9854SOL     OW30460   0.768   3.919   5.731
 9854SOL    HW130461   0.748   3.834   5.681
 9854SOL    HW230462   0.705   3.991   5.702
 9855SOL     OW30463   1.052   4.958   1.039
 9855SOL    HW130464   0.985   4.975   1.111
 9855SOL    HW230465   1.086   4.864   1.046
 9856SOL     OW30466   5.774   4.082   3.208
 9856SOL    HW130467   5.698   4.127   3.256
 9856SOL    HW230468   5.742   4.053   3.118
 9857SOL     OW30469   4.241   0.489   5.214
 9857SOL    HW130470   4.223   0.400   5.172
 9857SOL    HW230471   4.335   0.517   5.193
 9858SOL     OW30472   6.094   6.324   2.520
 9858SOL    HW130473   6.116   6.227   2.520
 9858SOL    HW230474   6.038   6.345   2.601
 9859SOL     OW30475   0.079   5.142   3.147
 9859SOL    HW130476   0.122   5.052   3.141
 9859SOL    HW230477   0.147   5.211   3.169
 9860SOL     OW30478   1.010   3.217   4.538
 9860SOL    HW130479   1.036   3.144   4.474
 9860SOL    HW230480   1.092   3.267   4.566
 9861SOL     OW30481   3.011   2.233   3.241
 9861SOL    HW130482   3.021   2.308   3.175
 9861SOL    HW230483   3.028   2.146   3.194
 9862SOL     OW30484   0.965   4.185   0.302
 9862SOL    HW130485   1.009   4.267   0.266
 9862SOL    HW230486   1.010   4.157   0.387
 9863SOL     OW30487   3.787   6.137   0.868
 9863SOL    HW130488   3.828   6.160   0.957
 9863SOL    HW230489   3.793   6.038   0.853
 9864SOL     OW30490   2.437   5.423   5.219
 9864SOL    HW130491   2.450   5.520   5.242
 9864SOL    HW230492   2.415   5.415   5.121
 9865SOL     OW30493   0.690   5.703   5.278
 9865SOL    HW130494   0.678   5.704   5.377
 9865SOL    HW230495   0.719   5.794   5.247
 9866SOL     OW30496   6.426   4.961   5.435
 9866SOL    HW130497   6.410   4.999   5.526
 9866SOL    HW230498   6.340   4.926   5.397
 9867SOL     OW30499   4.114   1.670   2.413
 9867SOL    HW130500   4.201   1.622   2.402
 9867SOL    HW230501   4.127   1.767   2.396
 9868SOL     OW30502   2.176   4.160   3.929
 9868SOL    HW130503   2.212   4.092   3.866
 9868SOL    HW230504   2.193   4.131   4.023
 9869SOL     OW30505   6.300   2.908   0.787
 9869SOL    HW130506   6.202   2.915   0.803
 9869SOL    HW230507   6.325   2.959   0.705
 9870SOL     OW30508   2.704   1.925   2.264
 9870SOL    HW130509   2.621   1.975   2.286
 9870SOL    HW230510   2.688   1.827   2.278
 9871SOL     OW30511   6.057   4.861   3.967
 9871SOL    HW130512   5.992   4.912   3.911
 9871SOL    HW230513   6.145   4.908   3.966
 9872SOL     OW30514   0.587   4.935   6.180
 9872SOL    HW130515   0.508   4.879   6.155
 9872SOL    HW230516   0.668   4.876   6.191
 9873SOL     OW30517   1.474   1.629   5.712
 9873SOL    HW130518   1.573   1.644   5.705
 9873SOL    HW230519   1.440   1.593   5.625
 9874SOL     OW30520   0.218   2.894   4.998
 9874SOL    HW130521   0.185   2.915   5.089
 9874SOL    HW230522   0.142   2.896   4.933
 9875SOL     OW30523   6.508   5.884   1.243
 9875SOL    HW130524   6.535   5.789   1.260
 9875SOL    HW230525   6.578   5.945   1.280
 9876SOL     OW30526   1.009   6.633   3.646
 9876SOL    HW130527   1.089   6.690   3.663
 9876SOL    HW230528   1.000   6.617   3.548
 9877SOL     OW30529   0.655   5.141   5.000
 9877SOL    HW130530   0.595   5.221   5.010
 9877SOL    HW230531   0.674   5.103   5.090
 9878SOL     OW30532   3.091   2.885   6.668
 9878SOL    HW130533   3.150   2.959   6.700
 9878SOL    HW230534   3.062   2.905   6.574
 9879SOL     OW30535   6.648   4.888   6.396
 9879SOL    HW130536   6.685   4.970   6.351
 9879SOL    HW230537   6.568   4.856   6.345
 9880SOL     OW30538   2.566   1.368   0.731
 9880SOL    HW130539   2.544   1.416   0.816
 9880SOL    HW230540   2.519   1.279   0.731
 9881SOL     OW30541   6.407   1.209   3.491
 9881SOL    HW130542   6.356   1.142   3.546
 9881SOL    HW230543   6.415   1.295   3.542
 9882SOL     OW30544   3.412   3.205   5.279
 9882SOL    HW130545   3.487   3.271   5.290
 9882SOL    HW230546   3.331   3.252   5.245
 9883SOL     OW30547   2.571   0.507   1.788
 9883SOL    HW130548   2.571   0.491   1.887
 9883SOL    HW230549   2.542   0.601   1.770
 9884SOL     OW30550   3.269   2.586   5.802
 9884SOL    HW130551   3.216   2.556   5.881
 9884SOL    HW230552   3.208   2.628   5.734
 9885SOL     OW30553   5.447   3.154   5.318
 9885SOL    HW130554   5.357   3.193   5.301
 9885SOL    HW230555   5.505   3.169   5.237
 9886SOL     OW30556   3.789   5.971   1.611
 9886SOL    HW130557   3.841   6.031   1.550
 9886SOL    HW230558   3.721   5.920   1.559
 9887SOL     OW30559   3.269   0.728   6.778
 9887SOL    HW130560   3.187   0.748   6.725
 9887SOL    HW230561   3.289   0.805   6.840
 9888SOL     OW30562   6.518   6.189   3.746
 9888SOL    HW130563   6.613   6.191   3.780
 9888SOL    HW230564   6.517   6.217   3.650
 9889SOL     OW30565   0.226   6.056   3.155
 9889SOL    HW130566   0.306   6.105   3.121
 9889SOL    HW230567   0.254   5.996   3.231
 9890SOL     OW30568   0.923   3.507   1.466
 9890SOL    HW130569   0.929   3.468   1.374
 9890SOL    HW230570   1.011   3.549   1.490
 9891SOL     OW30571   5.876   5.750   1.405
 9891SOL    HW130572   5.823   5.829   1.374
 9891SOL    HW230573   5.929   5.776   1.486
 9892SOL     OW30574   1.586   5.523   4.001
 9892SOL    HW130575   1.520   5.481   4.063
 9892SOL    HW230576   1.633   5.452   3.949
 9893SOL     OW30577   5.113   5.219   4.324
 9893SOL    HW130578   5.081   5.164   4.247
 9893SOL    HW230579   5.179   5.287   4.293
 9894SOL     OW30580   4.391   3.143   5.862
 9894SOL    HW130581   4.348   3.060   5.898
 9894SOL    HW230582   4.487   3.146   5.889
 9895SOL     OW30583   5.558   2.098   6.648
 9895SOL    HW130584   5.506   2.092   6.563
 9895SOL    HW230585   5.652   2.068   6.632
 9896SOL     OW30586   4.394   3.330   0.236
 9896SOL    HW130587   4.353   3.239   0.234
 9896SOL    HW230588   4.494   3.322   0.242
 9897SOL     OW30589   6.785   1.706   4.066
 9897SOL    HW130590   6.791   1.786   4.006
 9897SOL    HW230591   6.852   1.715   4.140
 9898SOL     OW30592   1.066   5.588   5.553
 9898SOL    HW130593   1.098   5.644   5.631
 9898SOL    HW230594   1.051   5.647   5.474
 9899SOL     OW30595   5.088   5.415   2.064
 9899SOL    HW130596   5.120   5.405   2.158
 9899SOL    HW230597   4.989   5.405   2.061
 9900SOL     OW30598   0.978   3.289   3.264
 9900SOL    HW130599   0.939   3.204   3.299
 9900SOL    HW230600   0.966   3.361   3.331
 9901SOL     OW30601   2.916   1.884   5.137
 9901SOL    HW130602   2.919   1.970   5.086
 9901SOL    HW230603   2.880   1.812   5.078
 9902SOL     OW30604   4.837   3.754   6.910
 9902SOL    HW130605   4.859   3.671   6.962
 9902SOL    HW230606   4.738   3.761   6.898
 9903SOL     OW30607   3.571   1.224   1.213
 9903SOL    HW130608   3.670   1.223   1.223
 9903SOL    HW230609   3.536   1.131   1.214
 9904SOL     OW30610   6.922   0.627   2.054
 9904SOL    HW130611   6.945   0.674   2.139
 9904SOL    HW230612   6.854   0.680   2.003
 9905SOL     OW30613   1.494   6.138   5.935
 9905SOL    HW130614   1.571   6.106   5.880
 9905SOL    HW230615   1.516   6.227   5.975
 9906SOL     OW30616   3.320   3.549   5.848
 9906SOL    HW130617   3.250   3.478   5.841
 9906SOL    HW230618   3.406   3.516   5.808
 9907SOL     OW30619   1.736   6.495   2.292
 9907SOL    HW130620   1.707   6.431   2.363
 9907SOL    HW230621   1.829   6.525   2.310
 9908SOL     OW30622   1.270   3.446   4.879
 9908SOL    HW130623   1.203   3.495   4.935
 9908SOL    HW230624   1.321   3.382   4.936
 9909SOL     OW30625   3.550   6.744   2.659
 9909SOL    HW130626   3.481   6.764   2.590
 9909SOL    HW230627   3.639   6.778   2.628
 9910SOL     OW30628   0.403   4.438   1.721
 9910SOL    HW130629   0.320   4.387   1.742
 9910SOL    HW230630   0.483   4.378   1.734
 9911SOL     OW30631   3.191   5.145   3.420
 9911SOL    HW130632   3.250   5.168   3.342
 9911SOL    HW230633   3.180   5.226   3.478
 9912SOL     OW30634   4.373   0.113   1.098
 9912SOL    HW130635   4.446   0.072   1.152
 9912SOL    HW230636   4.401   0.117   1.002
 9913SOL     OW30637   4.606   1.714   2.563
 9913SOL    HW130638   4.576   1.622   2.585
 9913SOL    HW230639   4.618   1.767   2.647
 9914SOL     OW30640   1.860   5.640   5.713
 9914SOL    HW130641   1.811   5.725   5.691
 9914SOL    HW230642   1.795   5.564   5.716
 9915SOL     OW30643   5.363   3.568   4.529
 9915SOL    HW130644   5.309   3.485   4.511
 9915SOL    HW230645   5.380   3.574   4.628
 9916SOL     OW30646   2.432   3.009   1.071
 9916SOL    HW130647   2.404   2.988   1.165
 9916SOL    HW230648   2.512   3.069   1.073
 9917SOL     OW30649   2.475   3.300   5.371
 9917SOL    HW130650   2.488   3.230   5.300
 9917SOL    HW230651   2.445   3.256   5.456
 9918SOL     OW30652   1.799   1.308   4.894
 9918SOL    HW130653   1.785   1.333   4.798
 9918SOL    HW230654   1.883   1.255   4.903
 9919SOL     OW30655   6.980   5.085   2.871
 9919SOL    HW130656   6.992   5.139   2.955
 9919SOL    HW230657   0.008   5.129   2.796
 9920SOL     OW30658   4.045   6.677   1.870
 9920SOL    HW130659   3.962   6.676   1.926
 9920SOL    HW230660   4.115   6.619   1.912
 9921SOL     OW30661   4.758   0.041   3.200
 9921SOL    HW130662   4.676   0.098   3.192
 9921SOL    HW230663   4.832   0.081   3.146
 9922SOL     OW30664   4.661   3.296   1.389
 9922SOL    HW130665   4.634   3.218   1.446
 9922SOL    HW230666   4.654   3.380   1.443
 9923SOL     OW30667   6.455   1.133   6.211
 9923SOL    HW130668   6.384   1.066   6.190
 9923SOL    HW230669   6.417   1.202   6.272
 9924SOL     OW30670   5.367   0.883   3.198
 9924SOL    HW130671   5.346   0.785   3.191
 9924SOL    HW230672   5.456   0.901   3.156
 9925SOL     OW30673   2.596   2.291   4.450
 9925SOL    HW130674   2.587   2.355   4.527
 9925SOL    HW230675   2.541   2.210   4.468
 9926SOL     OW30676   1.436   1.396   0.307
 9926SOL    HW130677   1.487   1.326   0.257
 9926SOL    HW230678   1.496   1.473   0.328
 9927SOL     OW30679   0.738   2.589   2.398
 9927SOL    HW130680   0.713   2.608   2.303
 9927SOL    HW230681   0.672   2.633   2.459
 9928SOL     OW30682   6.744   2.775   2.400
 9928SOL    HW130683   6.661   2.729   2.432
 9928SOL    HW230684   6.752   2.765   2.301
 9929SOL     OW30685   2.130   4.280   5.757
 9929SOL    HW130686   2.110   4.233   5.843
 9929SOL    HW230687   2.229   4.290   5.748
 9930SOL     OW30688   0.431   5.958   0.177
 9930SOL    HW130689   0.352   5.962   0.239
 9930SOL    HW230690   0.433   6.041   0.121
 9931SOL     OW30691   2.747   5.280   6.848
 9931SOL    HW130692   2.747   5.189   6.887
 9931SOL    HW230693   2.654   5.306   6.822
 9932SOL     OW30694   1.725   2.547   0.512
 9932SOL    HW130695   1.742   2.545   0.610
 9932SOL    HW230696   1.812   2.555   0.463
 9933SOL     OW30697   0.990   1.653   3.144
 9933SOL    HW130698   1.041   1.618   3.223
 9933SOL    HW230699   1.054   1.684   3.074
 9934SOL     OW30700   4.640   1.566   6.785
 9934SOL    HW130701   4.622   1.621   6.867
 9934SOL    HW230702   4.701   1.491   6.808
 9935SOL     OW30703   2.724   2.170   0.948
 9935SOL    HW130704   2.672   2.114   1.012
 9935SOL    HW230705   2.754   2.254   0.995
 9936SOL     OW30706   6.287   6.471   6.190
 9936SOL    HW130707   6.201   6.507   6.155
 9936SOL    HW230708   6.293   6.373   6.171
 9937SOL     OW30709   0.856   0.127   3.366
 9937SOL    HW130710   0.824   0.091   3.454
 9937SOL    HW230711   0.956   0.126   3.364
 9938SOL     OW30712   6.859   1.893   3.163
 9938SOL    HW130713   6.914   1.823   3.208
 9938SOL    HW230714   6.762   1.870   3.172
 9939SOL     OW30715   3.437   4.283   1.396
 9939SOL    HW130716   3.368   4.335   1.347
 9939SOL    HW230717   3.437   4.188   1.365
 9940SOL     OW30718   6.940   0.708   3.408
 9940SOL    HW130719   6.856   0.757   3.432
 9940SOL    HW230720   6.954   0.632   3.471
 9941SOL     OW30721   5.267   5.098   0.253
 9941SOL    HW130722   5.329   5.091   0.174
 9941SOL    HW230723   5.179   5.056   0.230
 9942SOL     OW30724   5.098   5.152   2.659
 9942SOL    HW130725   5.016   5.102   2.632
 9942SOL    HW230726   5.179   5.099   2.634
 9943SOL     OW30727   1.701   4.175   5.774
 9943SOL    HW130728   1.771   4.242   5.749
 9943SOL    HW230729   1.735   4.118   5.849
 9944SOL     OW30730   0.722   5.234   5.887
 9944SOL    HW130731   0.629   5.204   5.909
 9944SOL    HW230732   0.764   5.274   5.969
 9945SOL     OW30733   6.714   3.715   6.141
 9945SOL    HW130734   6.615   3.705   6.151
 9945SOL    HW230735   6.759   3.632   6.172
 9946SOL     OW30736   5.248   2.155   1.796
 9946SOL    HW130737   5.196   2.074   1.769
 9946SOL    HW230738   5.337   2.127   1.832
 9947SOL     OW30739   0.755   1.714   3.701
 9947SOL    HW130740   0.831   1.650   3.688
 9947SOL    HW230741   0.704   1.722   3.616
 9948SOL     OW30742   5.632   0.429   4.945
 9948SOL    HW130743   5.549   0.474   4.979
 9948SOL    HW230744   5.610   0.380   4.861
 9949SOL     OW30745   6.420   5.100   3.130
 9949SOL    HW130746   6.483   5.123   3.056
 9949SOL    HW230747   6.470   5.055   3.204
 9950SOL     OW30748   5.095   4.098   5.076
 9950SOL    HW130749   5.160   4.168   5.104
 9950SOL    HW230750   5.065   4.046   5.156
 9951SOL     OW30751   0.294   2.043   3.241
 9951SOL    HW130752   0.261   1.974   3.305
 9951SOL    HW230753   0.310   2.129   3.291
 9952SOL     OW30754   1.232   4.961   1.959
 9952SOL    HW130755   1.176   5.035   1.922
 9952SOL    HW230756   1.215   4.877   1.907
 9953SOL     OW30757   5.945   2.939   3.852
 9953SOL    HW130758   5.928   2.999   3.774
 9953SOL    HW230759   5.902   2.977   3.934
 9954SOL     OW30760   3.852   1.373   6.982
 9954SOL    HW130761   3.849   1.342   6.887
 9954SOL    HW230762   3.883   1.469   6.985
 9955SOL     OW30763   5.456   4.525   0.937
 9955SOL    HW130764   5.476   4.510   1.034
 9955SOL    HW230765   5.470   4.440   0.887
 9956SOL     OW30766   2.184   3.090   3.299
 9956SOL    HW130767   2.099   3.119   3.255
 9956SOL    HW230768   2.224   3.013   3.249
 9957SOL     OW30769   5.577   0.438   0.184
 9957SOL    HW130770   5.583   0.527   0.228
 9957SOL    HW230771   5.520   0.377   0.240
 9958SOL     OW30772   5.599   6.082   0.283
 9958SOL    HW130773   5.499   6.087   0.293
 9958SOL    HW230774   5.641   6.155   0.337
 9959SOL     OW30775   5.181   5.102   0.714
 9959SOL    HW130776   5.242   5.093   0.635
 9959SOL    HW230777   5.150   5.011   0.742
 9960SOL     OW30778   0.209   0.247   0.390
 9960SOL    HW130779   0.134   0.217   0.449
 9960SOL    HW230780   0.187   0.336   0.350
 9961SOL     OW30781   3.176   5.455   1.240
 9961SOL    HW130782   3.244   5.382   1.231
 9961SOL    HW230783   3.191   5.504   1.326
 9962SOL     OW30784   2.841   0.262   1.697
 9962SOL    HW130785   2.823   0.232   1.791
 9962SOL    HW230786   2.754   0.268   1.647
 9963SOL     OW30787   0.992   0.571   5.968
 9963SOL    HW130788   0.892   0.575   5.962
 9963SOL    HW230789   1.030   0.663   5.955
 9964SOL     OW30790   4.583   4.498   6.161
 9964SOL    HW130791   4.604   4.556   6.240
 9964SOL    HW230792   4.543   4.412   6.192
 9965SOL     OW30793   2.687   5.236   3.803
 9965SOL    HW130794   2.712   5.214   3.897
 9965SOL    HW230795   2.591   5.266   3.800
 9966SOL     OW30796   3.659   4.870   2.501
 9966SOL    HW130797   3.617   4.870   2.410
 9966SOL    HW230798   3.587   4.869   2.571
 9967SOL     OW30799   6.645   6.979   3.352
 9967SOL    HW130800   6.620   6.926   3.434
 9967SOL    HW230801   6.563   6.997   3.298
 9968SOL     OW30802   3.779   6.339   0.184
 9968SOL    HW130803   3.865   6.386   0.163
 9968SOL    HW230804   3.799   6.248   0.221
 9969SOL     OW30805   0.934   5.856   3.602
 9969SOL    HW130806   0.993   5.928   3.641
 9969SOL    HW230807   0.864   5.832   3.668
 9970SOL     OW30808   7.018   3.568   1.489
 9970SOL    HW130809   0.053   3.639   1.446
 9970SOL    HW230810   7.000   3.496   1.423
 9971SOL     OW30811   0.913   5.091   3.770
 9971SOL    HW130812   0.832   5.094   3.712
 9971SOL    HW230813   0.909   5.168   3.835
 9972SOL     OW30814   2.905   4.131   6.741
 9972SOL    HW130815   3.000   4.112   6.765
 9972SOL    HW230816   2.874   4.062   6.675
 9973SOL     OW30817   2.274   2.384   3.202
 9973SOL    HW130818   2.259   2.445   3.124
 9973SOL    HW230819   2.362   2.337   3.190
 9974SOL     OW30820   1.102   2.622   2.770
 9974SOL    HW130821   1.086   2.720   2.783
 9974SOL    HW230822   1.067   2.594   2.680
 9975SOL     OW30823   2.468   4.782   0.065
 9975SOL    HW130824   2.444   4.686   0.083
 9975SOL    HW230825   2.568   4.790   0.062
 9976SOL     OW30826   3.800   4.502   6.078
 9976SOL    HW130827   3.793   4.406   6.051
 9976SOL    HW230828   3.847   4.553   6.006
 9977SOL     OW30829   4.733   6.975   5.209
 9977SOL    HW130830   4.708   6.885   5.172
 9977SOL    HW230831   4.783   6.962   5.295
 9978SOL     OW30832   0.970   3.653   6.538
 9978SOL    HW130833   0.998   3.679   6.446
 9978SOL    HW230834   1.003   3.722   6.603
 9979SOL     OW30835   3.266   3.234   4.808
 9979SOL    HW130836   3.175   3.234   4.849
 9979SOL    HW230837   3.289   3.327   4.780
 9980SOL     OW30838   2.273   1.633   0.850
 9980SOL    HW130839   2.372   1.637   0.862
 9980SOL    HW230840   2.243   1.538   0.855
 9981SOL     OW30841   6.214   2.074   0.786
 9981SOL    HW130842   6.281   2.133   0.831
 9981SOL    HW230843   6.190   2.112   0.697
 9982SOL     OW30844   2.061   2.108   4.370
 9982SOL    HW130845   2.038   2.174   4.441
 9982SOL    HW230846   1.984   2.098   4.307
 9983SOL     OW30847   0.864   3.086   2.185
 9983SOL    HW130848   0.890   3.078   2.281
 9983SOL    HW230849   0.943   3.063   2.128
 9984SOL     OW30850   0.086   5.193   1.431
 9984SOL    HW130851   0.109   5.101   1.399
 9984SOL    HW230852   0.159   5.227   1.489
 9985SOL     OW30853   5.166   5.000   6.975
 9985SOL    HW130854   5.135   5.074   6.915
 9985SOL    HW230855   5.114   4.917   6.955
 9986SOL     OW30856   5.477   5.256   6.885
 9986SOL    HW130857   5.572   5.283   6.870
 9986SOL    HW230858   5.418   5.302   6.819
 9987SOL     OW30859   5.331   2.817   1.451
 9987SOL    HW130860   5.289   2.907   1.468
 9987SOL    HW230861   5.324   2.762   1.534
 9988SOL     OW30862   5.836   6.308   4.033
 9988SOL    HW130863   5.779   6.251   3.973
 9988SOL    HW230864   5.778   6.372   4.083
 9989SOL     OW30865   6.977   5.188   2.371
 9989SOL    HW130866   6.986   5.203   2.470
 9989SOL    HW230867   6.881   5.172   2.348
 9990SOL     OW30868   0.265   6.757   4.103
 9990SOL    HW130869   0.241   6.831   4.167
 9990SOL    HW230870   0.235   6.781   4.011
 9991SOL     OW30871   1.655   4.936   3.251
 9991SOL    HW130872   1.696   5.022   3.221
 9991SOL    HW230873   1.718   4.861   3.233
 9992SOL     OW30874   3.056   4.315   0.959
 9992SOL    HW130875   3.093   4.334   0.868
 9992SOL    HW230876   2.987   4.384   0.982
 9993SOL     OW30877   3.431   6.315   4.303
 9993SOL    HW130878   3.445   6.224   4.263
 9993SOL    HW230879   3.472   6.317   4.394
 9994SOL     OW30880   5.722   5.429   4.943
 9994SOL    HW130881   5.715   5.467   5.035
 9994SOL    HW230882   5.631   5.412   4.907
 9995SOL     OW30883   2.919   0.630   5.206
 9995SOL    HW130884   2.885   0.573   5.131
 9995SOL    HW230885   2.923   0.725   5.176
 9996SOL     OW30886   3.282   3.541   0.933
 9996SOL    HW130887   3.240   3.575   1.017
 9996SOL    HW230888   3.304   3.444   0.944
 9997SOL     OW30889   6.176   2.656   3.576
 9997SOL    HW130890   6.151   2.752   3.586
 9997SOL    HW230891   6.096   2.599   3.594
 9998SOL     OW30892   4.668   4.535   2.562
 9998SOL    HW130893   4.753   4.525   2.510
 9998SOL    HW230894   4.600   4.583   2.507
 9999SOL     OW30895   0.707   0.271   3.869
 9999SOL    HW130896   0.660   0.353   3.838
 9999SOL    HW230897   0.648   0.191   3.852
10000SOL     OW30898   4.945   2.160   1.297
10000SOL    HW130899   5.007   2.159   1.375
10000SOL    HW230900   4.985   2.214   1.223
10001SOL     OW30901   4.457   6.229   1.864
10001SOL    HW130902   4.534   6.167   1.876
10001SOL    HW230903   4.398   6.225   1.945
10002SOL     OW30904   3.337   1.032   2.242
10002SOL    HW130905   3.376   1.047   2.152
10002SOL    HW230906   3.387   0.959   2.289
10003SOL     OW30907   1.529   1.058   3.794
10003SOL    HW130908   1.607   1.035   3.852
10003SOL    HW230909   1.447   1.067   3.851
10004SOL     OW30910   6.547   4.209   4.945
10004SOL    HW130911   6.467   4.251   4.903
10004SOL    HW230912   6.582   4.137   4.885
10005SOL     OW30913   2.234   5.250   3.246
10005SOL    HW130914   2.276   5.337   3.224
10005SOL    HW230915   2.303   5.187   3.281
10006SOL     OW30916   5.543   0.047   5.180
10006SOL    HW130917   5.618   0.048   5.246
10006SOL    HW230918   5.498   0.136   5.179
10007SOL     OW30919   1.620   4.916   4.454
10007SOL    HW130920   1.560   4.981   4.407
10007SOL    HW230921   1.566   4.839   4.488
10008SOL     OW30922   4.027   1.200   5.987
10008SOL    HW130923   4.104   1.146   5.954
10008SOL    HW230924   4.016   1.281   5.929
10009SOL     OW30925   1.329   3.153   2.490
10009SOL    HW130926   1.399   3.086   2.514
10009SOL    HW230927   1.300   3.138   2.396
10010SOL     OW30928   2.533   3.712   0.414
10010SOL    HW130929   2.547   3.779   0.342
10010SOL    HW230930   2.621   3.689   0.456
10011SOL     OW30931   1.980   3.620   6.988
10011SOL    HW130932   1.954   3.523   6.982
10011SOL    HW230933   1.962   3.654   0.059
10012SOL     OW30934   5.874   2.368   3.194
10012SOL    HW130935   5.870   2.373   3.294
10012SOL    HW230936   5.836   2.281   3.163
10013SOL     OW30937   0.505   6.044   5.268
10013SOL    HW130938   0.429   5.979   5.274
10013SOL    HW230939   0.591   5.994   5.258
10014SOL     OW30940   1.153   0.222   3.337
10014SOL    HW130941   1.190   0.137   3.376
10014SOL    HW230942   1.188   0.233   3.244
10015SOL     OW30943   4.296   4.565   5.771
10015SOL    HW130944   4.304   4.470   5.740
10015SOL    HW230945   4.379   4.592   5.820
10016SOL     OW30946   2.225   0.173   3.583
10016SOL    HW130947   2.159   0.099   3.586
10016SOL    HW230948   2.309   0.143   3.538
10017SOL     OW30949   2.485   2.047   2.359
10017SOL    HW130950   2.427   2.127   2.379
10017SOL    HW230951   2.462   1.974   2.423
10018SOL     OW30952   0.051   3.486   5.916
10018SOL    HW130953   0.036   3.569   5.969
10018SOL    HW230954   6.994   3.424   5.928
10019SOL     OW30955   0.379   2.130   2.423
10019SOL    HW130956   0.335   2.169   2.342
10019SOL    HW230957   0.331   2.160   2.505
10020SOL     OW30958   6.556   0.619   2.244
10020SOL    HW130959   6.466   0.663   2.239
10020SOL    HW230960   6.554   0.533   2.194
10021SOL     OW30961   0.951   3.630   2.506
10021SOL    HW130962   1.020   3.571   2.549
10021SOL    HW230963   0.995   3.686   2.436
10022SOL     OW30964   2.613   5.548   0.063
10022SOL    HW130965   2.530   5.602   0.053
10022SOL    HW230966   2.689   5.595   0.017
10023SOL     OW30967   1.947   0.136   6.126
10023SOL    HW130968   1.864   0.186   6.102
10023SOL    HW230969   1.949   0.119   6.225
10024SOL     OW30970   1.266   4.736   2.309
10024SOL    HW130971   1.208   4.704   2.233
10024SOL    HW230972   1.335   4.667   2.329
10025SOL     OW30973   0.992   4.726   1.907
10025SOL    HW130974   1.011   4.687   1.997
10025SOL    HW230975   1.055   4.686   1.840
10026SOL     OW30976   5.273   1.585   4.373
10026SOL    HW130977   5.363   1.625   4.357
10026SOL    HW230978   5.249   1.526   4.296
10027SOL     OW30979   2.625   1.871   5.601
10027SOL    HW130980   2.582   1.817   5.528
10027SOL    HW230981   2.620   1.968   5.577
10028SOL     OW30982   4.450   0.520   1.118
10028SOL    HW130983   4.412   0.451   1.180
10028SOL    HW230984   4.379   0.550   1.054
10029SOL     OW30985   0.465   3.502   5.037
10029SOL    HW130986   0.434   3.558   4.960
10029SOL    HW230987   0.502   3.561   5.108
10030SOL     OW30988   2.169   6.945   4.788
10030SOL    HW130989   2.132   0.004   4.834
10030SOL    HW230990   2.269   6.952   4.785
10031SOL     OW30991   2.646   4.688   4.132
10031SOL    HW130992   2.550   4.665   4.145
10031SOL    HW230993   2.671   4.764   4.191
10032SOL     OW30994   3.196   6.131   5.258
10032SOL    HW130995   3.198   6.187   5.175
10032SOL    HW230996   3.259   6.169   5.325
10033SOL     OW30997   3.464   1.033   3.206
10033SOL    HW130998   3.424   0.996   3.290
10033SOL    HW230999   3.409   1.004   3.127
10034SOL     OW31000   2.692   0.987   3.885
10034SOL    HW131001   2.735   1.071   3.852
10034SOL    HW231002   2.740   0.908   3.847
10035SOL     OW31003   5.481   2.742   2.456
10035SOL    HW131004   5.442   2.717   2.367
10035SOL    HW231005   5.429   2.816   2.496
10036SOL     OW31006   0.079   0.896   6.825
10036SOL    HW131007   7.002   0.875   6.831
10036SOL    HW231008   0.105   0.956   6.900
10037SOL     OW31009   6.260   0.256   0.004
10037SOL    HW131010   6.257   0.217   0.096
10037SOL    HW231011   6.168   0.282   6.997
10038SOL     OW31012   4.421   6.832   6.778
10038SOL    HW131013   4.483   6.767   6.734
10038SOL    HW231014   4.399   6.799   6.870
10039SOL     OW31015   6.232   5.283   3.138
10039SOL    HW131016   6.281   5.359   3.181
10039SOL    HW231017   6.286   5.199   3.146
10040SOL     OW31018   3.592   6.777   0.937
10040SOL    HW131019   3.626   6.809   0.849
10040SOL    HW231020   3.623   6.839   1.009
10041SOL     OW31021   6.860   5.027   4.739
10041SOL    HW131022   6.785   4.961   4.740
10041SOL    HW231023   6.897   5.034   4.647
10042SOL     OW31024   0.407   0.839   4.834
10042SOL    HW131025   0.470   0.763   4.818
10042SOL    HW231026   0.334   0.810   4.896
10043SOL     OW31027   0.718   0.861   3.307
10043SOL    HW131028   0.713   0.763   3.327
10043SOL    HW231029   0.773   0.906   3.378
10044SOL     OW31030   2.509   1.680   6.232
10044SOL    HW131031   2.462   1.717   6.152
10044SOL    HW231032   2.608   1.685   6.218
10045SOL     OW31033   4.058   6.566   4.951
10045SOL    HW131034   4.105   6.638   4.900
10045SOL    HW231035   4.088   6.476   4.917
10046SOL     OW31036   0.146   2.643   1.523
10046SOL    HW131037   0.117   2.570   1.461
10046SOL    HW231038   0.227   2.688   1.486
10047SOL     OW31039   6.984   1.788   4.883
10047SOL    HW131040   0.043   1.733   4.857
10047SOL    HW231041   7.007   1.844   4.962
10048SOL     OW31042   3.578   1.639   1.848
10048SOL    HW131043   3.483   1.665   1.831
10048SOL    HW231044   3.632   1.652   1.765
10049SOL     OW31045   1.992   6.975   5.587
10049SOL    HW131046   1.972   6.963   5.684
10049SOL    HW231047   1.908   6.998   5.538
10050SOL     OW31048   4.984   3.058   3.967
10050SOL    HW131049   4.934   3.124   4.023
10050SOL    HW231050   4.931   2.973   3.960
10051SOL     OW31051   5.962   3.127   5.069
10051SOL    HW131052   6.052   3.092   5.044
10051SOL    HW231053   5.903   3.127   4.988
10052SOL     OW31054   1.182   3.598   1.552
10052SOL    HW131055   1.249   3.671   1.562
10052SOL    HW231056   1.221   3.512   1.585
10053SOL     OW31057   3.584   5.736   3.376
10053SOL    HW131058   3.593   5.829   3.413
10053SOL    HW231059   3.667   5.684   3.397
10054SOL     OW31060   3.800   5.456   5.261
10054SOL    HW131061   3.813   5.537   5.204
10054SOL    HW231062   3.703   5.433   5.265
10055SOL     OW31063   6.130   2.649   5.467
10055SOL    HW131064   6.182   2.733   5.453
10055SOL    HW231065   6.073   2.632   5.387
10056SOL     OW31066   6.176   4.551   1.890
10056SOL    HW131067   6.229   4.479   1.935
10056SOL    HW231068   6.226   4.583   1.810
10057SOL     OW31069   3.565   2.165   4.342
10057SOL    HW131070   3.643   2.192   4.400
10057SOL    HW231071   3.491   2.131   4.400
10058SOL     OW31072   0.515   5.549   3.890
10058SOL    HW131073   0.507   5.453   3.915
10058SOL    HW231074   0.611   5.575   3.883
10059SOL     OW31075   5.784   0.922   1.127
10059SOL    HW131076   5.701   0.950   1.080
10059SOL    HW231077   5.785   0.823   1.138
10060SOL     OW31078   2.795   2.626   1.735
10060SOL    HW131079   2.862   2.640   1.662
10060SOL    HW231080   2.836   2.570   1.807
10061SOL     OW31081   6.276   1.478   4.372
10061SOL    HW131082   6.311   1.385   4.361
10061SOL    HW231083   6.351   1.540   4.393
10062SOL     OW31084   6.816   5.904   3.102
10062SOL    HW131085   6.904   5.921   3.058
10062SOL    HW231086   6.831   5.871   3.196
10063SOL     OW31087   0.974   3.228   3.580
10063SOL    HW131088   1.073   3.233   3.595
10063SOL    HW231089   0.940   3.317   3.550
10064SOL     OW31090   5.571   6.450   4.448
10064SOL    HW131091   5.525   6.535   4.473
10064SOL    HW231092   5.541   6.421   4.357
10065SOL     OW31093   1.841   6.350   2.740
10065SOL    HW131094   1.922   6.345   2.682
10065SOL    HW231095   1.764   6.306   2.694
10066SOL     OW31096   0.745   6.826   3.971
10066SOL    HW131097   0.759   6.737   4.014
10066SOL    HW231098   0.759   6.818   3.872
10067SOL     OW31099   4.709   4.726   4.389
10067SOL    HW131100   4.712   4.779   4.473
10067SOL    HW231101   4.623   4.743   4.341
10068SOL     OW31102   5.188   3.833   4.932
10068SOL    HW131103   5.103   3.808   4.885
10068SOL    HW231104   5.166   3.872   5.021
10069SOL     OW31105   3.092   1.612   3.440
10069SOL    HW131106   3.024   1.681   3.466
10069SOL    HW231107   3.092   1.539   3.508
10070SOL     OW31108   0.872   6.939   4.587
10070SOL    HW131109   0.844   6.948   4.491
10070SOL    HW231110   0.837   6.852   4.623
10071SOL     OW31111   4.838   5.824   4.385
10071SOL    HW131112   4.921   5.828   4.329
10071SOL    HW231113   4.832   5.734   4.429
10072SOL     OW31114   0.531   6.580   3.230
10072SOL    HW131115   0.467   6.542   3.162
10072SOL    HW231116   0.523   6.679   3.232
10073SOL     OW31117   0.235   4.434   5.790
10073SOL    HW131118   0.213   4.337   5.804
10073SOL    HW231119   0.327   4.442   5.751
10074SOL     OW31120   2.481   0.151   6.512
10074SOL    HW131121   2.500   0.237   6.464
10074SOL    HW231122   2.431   0.089   6.452
10075SOL     OW31123   0.916   2.456   4.020
10075SOL    HW131124   1.012   2.468   3.995
10075SOL    HW231125   0.882   2.371   3.982
10076SOL     OW31126   4.650   6.946   4.797
10076SOL    HW131127   4.687   6.873   4.740
10076SOL    HW231128   4.586   7.000   4.744
10077SOL     OW31129   4.165   1.872   5.882
10077SOL    HW131130   4.112   1.814   5.944
10077SOL    HW231131   4.192   1.956   5.930
10078SOL     OW31132   5.962   6.988   5.457
10078SOL    HW131133   6.036   0.035   5.468
10078SOL    HW231134   5.965   6.951   5.364
10079SOL     OW31135   1.213   3.321   1.431
10079SOL    HW131136   1.203   3.290   1.526
10079SOL    HW231137   1.188   3.246   1.370
10080SOL     OW31138   1.936   2.826   0.334
10080SOL    HW131139   1.840   2.829   0.305
10080SOL    HW231140   1.969   2.732   0.332
10081SOL     OW31141   0.908   0.447   6.593
10081SOL    HW131142   0.944   0.371   6.648
10081SOL    HW231143   0.868   0.410   6.509
10082SOL     OW31144   6.044   2.436   1.727
10082SOL    HW131145   5.974   2.386   1.674
10082SOL    HW231146   6.134   2.396   1.709
10083SOL     OW31147   4.527   0.468   3.801
10083SOL    HW131148   4.511   0.446   3.897
10083SOL    HW231149   4.605   0.415   3.768
10084SOL     OW31150   2.481   1.186   5.881
10084SOL    HW131151   2.544   1.108   5.887
10084SOL    HW231152   2.480   1.235   5.968
10085SOL     OW31153   0.408   5.836   2.831
10085SOL    HW131154   0.314   5.805   2.847
10085SOL    HW231155   0.469   5.757   2.833
10086SOL     OW31156   5.960   4.136   1.964
10086SOL    HW131157   5.984   4.106   2.056
10086SOL    HW231158   6.039   4.125   1.904
10087SOL     OW31159   1.228   0.222   4.339
10087SOL    HW131160   1.231   0.321   4.357
10087SOL    HW231161   1.191   0.206   4.247
10088SOL     OW31162   1.165   6.828   4.722
10088SOL    HW131163   1.167   6.770   4.641
10088SOL    HW231164   1.251   6.878   4.730
10089SOL     OW31165   1.886   2.033   2.185
10089SOL    HW131166   1.873   2.089   2.103
10089SOL    HW231167   1.856   2.084   2.265
10090SOL     OW31168   1.117   4.099   0.934
10090SOL    HW131169   1.179   4.165   0.891
10090SOL    HW231170   1.105   4.020   0.874
10091SOL     OW31171   0.770   3.167   4.684
10091SOL    HW131172   0.862   3.176   4.645
10091SOL    HW231173   0.759   3.233   4.759
10092SOL     OW31174   1.791   3.790   5.125
10092SOL    HW131175   1.820   3.730   5.050
10092SOL    HW231176   1.821   3.883   5.107
10093SOL     OW31177   6.066   5.498   5.827
10093SOL    HW131178   5.995   5.560   5.794
10093SOL    HW231179   6.041   5.404   5.806
10094SOL     OW31180   2.029   1.571   2.912
10094SOL    HW131181   2.117   1.605   2.881
10094SOL    HW231182   2.043   1.491   2.971
10095SOL     OW31183   0.080   1.131   6.344
10095SOL    HW131184   0.131   1.084   6.416
10095SOL    HW231185   0.031   1.209   6.383
10096SOL     OW31186   0.140   5.421   2.654
10096SOL    HW131187   0.060   5.480   2.662
10096SOL    HW231188   0.212   5.468   2.602
10097SOL     OW31189   1.735   0.873   1.171
10097SOL    HW131190   1.635   0.878   1.165
10097SOL    HW231191   1.774   0.959   1.136
10098SOL     OW31192   2.337   5.392   6.463
10098SOL    HW131193   2.279   5.438   6.396
10098SOL    HW231194   2.428   5.432   6.463
10099SOL     OW31195   6.857   4.404   5.248
10099SOL    HW131196   6.916   4.324   5.237
10099SOL    HW231197   6.761   4.376   5.239
10100SOL     OW31198   5.105   0.739   4.921
10100SOL    HW131199   5.132   0.721   5.015
10100SOL    HW231200   5.063   0.657   4.882
10101SOL     OW31201   6.673   4.601   2.359
10101SOL    HW131202   6.770   4.621   2.344
10101SOL    HW231203   6.647   4.631   2.451
10102SOL     OW31204   3.248   1.620   2.202
10102SOL    HW131205   3.257   1.690   2.272
10102SOL    HW231206   3.248   1.662   2.112
10103SOL     OW31207   2.468   1.505   5.844
10103SOL    HW131208   2.492   1.431   5.782
10103SOL    HW231209   2.454   1.468   5.936
10104SOL     OW31210   0.899   5.485   4.950
10104SOL    HW131211   0.910   5.396   4.906
10104SOL    HW231212   0.831   5.478   5.022
10105SOL     OW31213   1.990   0.711   6.732
10105SOL    HW131214   1.997   0.753   6.642
10105SOL    HW231215   2.065   0.743   6.790
10106SOL     OW31216   5.077   5.943   1.044
10106SOL    HW131217   5.069   6.042   1.053
10106SOL    HW231218   5.105   5.903   1.132
10107SOL     OW31219   5.948   1.304   5.978
10107SOL    HW131220   5.965   1.327   6.074
10107SOL    HW231221   6.032   1.267   5.937
10108SOL     OW31222   6.575   6.957   0.433
10108SOL    HW131223   6.544   6.875   0.385
10108SOL    HW231224   6.558   6.947   0.531
10109SOL     OW31225   4.765   5.478   3.833
10109SOL    HW131226   4.730   5.420   3.759
10109SOL    HW231227   4.793   5.420   3.910
10110SOL     OW31228   4.023   0.283   6.022
10110SOL    HW131229   4.085   0.272   6.100
10110SOL    HW231230   4.038   0.207   5.958
10111SOL     OW31231   6.630   3.276   3.013
10111SOL    HW131232   6.709   3.220   3.037
10111SOL    HW231233   6.658   3.348   2.949
10112SOL     OW31234   5.045   3.867   5.633
10112SOL    HW131235   5.020   3.905   5.722
10112SOL    HW231236   4.965   3.864   5.573
10113SOL     OW31237   3.870   6.975   6.917
10113SOL    HW131238   3.790   0.009   6.941
10113SOL    HW231239   3.854   6.880   6.942
10114SOL     OW31240   5.115   1.244   0.787
10114SOL    HW131241   5.081   1.282   0.700
10114SOL    HW231242   5.214   1.261   0.793
10115SOL     OW31243   1.937   2.258   3.688
10115SOL    HW131244   1.920   2.167   3.726
10115SOL    HW231245   2.023   2.256   3.636
10116SOL     OW31246   0.631   0.807   1.144
10116SOL    HW131247   0.593   0.716   1.128
10116SOL    HW231248   0.614   0.865   1.064
10117SOL     OW31249   5.962   0.405   5.460
10117SOL    HW131250   5.921   0.347   5.390
10117SOL    HW231251   5.910   0.398   5.545
10118SOL     OW31252   6.663   5.244   2.508
10118SOL    HW131253   6.681   5.253   2.410
10118SOL    HW231254   6.566   5.225   2.523
10119SOL     OW31255   2.620   0.793   5.646
10119SOL    HW131256   2.569   0.786   5.731
10119SOL    HW231257   2.718   0.778   5.664
10120SOL     OW31258   0.452   3.232   3.747
10120SOL    HW131259   0.521   3.237   3.674
10120SOL    HW231260   0.408   3.320   3.757
10121SOL     OW31261   5.691   4.482   5.013
10121SOL    HW131262   5.658   4.427   4.937
10121SOL    HW231263   5.691   4.578   4.988
10122SOL     OW31264   5.341   3.253   6.831
10122SOL    HW131265   5.266   3.228   6.771
10122SOL    HW231266   5.346   3.352   6.839
10123SOL     OW31267   6.920   6.479   0.944
10123SOL    HW131268   6.923   6.382   0.921
10123SOL    HW231269   6.834   6.499   0.992
10124SOL     OW31270   3.161   3.666   0.095
10124SOL    HW131271   3.174   3.568   0.114
10124SOL    HW231272   3.250   3.712   0.100
10125SOL     OW31273   1.451   0.491   2.482
10125SOL    HW131274   1.369   0.436   2.463
10125SOL    HW231275   1.438   0.541   2.567
10126SOL     OW31276   6.410   5.257   0.772
10126SOL    HW131277   6.375   5.200   0.697
10126SOL    HW231278   6.334   5.282   0.832
10127SOL     OW31279   3.468   5.577   5.531
10127SOL    HW131280   3.537   5.536   5.590
10127SOL    HW231281   3.383   5.526   5.537
10128SOL     OW31282   6.747   1.867   0.620
10128SOL    HW131283   6.824   1.890   0.560
10128SOL    HW231284   6.722   1.948   0.674
10129SOL     OW31285   5.456   2.328   3.668
10129SOL    HW131286   5.507   2.395   3.722
10129SOL    HW231287   5.479   2.338   3.571
10130SOL     OW31288   6.945   5.627   2.672
10130SOL    HW131289   6.884   5.550   2.691
10130SOL    HW231290   6.943   5.646   2.574
10131SOL     OW31291   0.620   1.769   2.288
10131SOL    HW131292   0.717   1.787   2.276
10131SOL    HW231293   0.606   1.672   2.307
10132SOL     OW31294   2.974   6.453   3.040
10132SOL    HW131295   2.884   6.498   3.049
10132SOL    HW231296   2.991   6.432   2.944
10133SOL     OW31297   4.419   6.232   3.641
10133SOL    HW131298   4.515   6.206   3.631
10133SOL    HW231299   4.407   6.291   3.721
10134SOL     OW31300   0.119   1.156   3.559
10134SOL    HW131301   0.060   1.093   3.609
10134SOL    HW231302   0.214   1.142   3.586
10135SOL     OW31303   4.181   5.149   2.906
10135SOL    HW131304   4.126   5.066   2.915
10135SOL    HW231305   4.204   5.183   2.997
10136SOL     OW31306   6.144   0.179   3.586
10136SOL    HW131307   6.091   0.233   3.652
10136SOL    HW231308   6.143   0.224   3.497
10137SOL     OW31309   6.506   5.578   4.757
10137SOL    HW131310   6.489   5.600   4.661
10137SOL    HW231311   6.518   5.479   4.767
10138SOL     OW31312   5.896   2.300   0.197
10138SOL    HW131313   5.909   2.210   0.240
10138SOL    HW231314   5.842   2.290   0.114
10139SOL     OW31315   3.216   2.992   3.445
10139SOL    HW131316   3.291   2.935   3.411
10139SOL    HW231317   3.244   3.038   3.529
10140SOL     OW31318   6.887   5.312   6.793
10140SOL    HW131319   6.927   5.229   6.754
10140SOL    HW231320   6.878   5.301   6.892
10141SOL     OW31321   2.301   1.213   4.545
10141SOL    HW131322   2.315   1.221   4.644
10141SOL    HW231323   2.284   1.118   4.521
10142SOL     OW31324   4.192   6.100   4.832
10142SOL    HW131325   4.252   6.128   4.907
10142SOL    HW231326   4.170   6.003   4.841
10143SOL     OW31327   4.611   0.098   1.262
10143SOL    HW131328   4.693   0.155   1.256
10143SOL    HW231329   4.596   0.071   1.357
10144SOL     OW31330   3.247   5.522   4.886
10144SOL    HW131331   3.208   5.562   4.968
10144SOL    HW231332   3.344   5.502   4.901
10145SOL     OW31333   3.023   5.632   6.079
10145SOL    HW131334   2.967   5.661   6.156
10145SOL    HW231335   2.972   5.641   5.994
10146SOL     OW31336   4.088   5.367   4.116
10146SOL    HW131337   4.026   5.374   4.195
10146SOL    HW231338   4.093   5.455   4.069
10147SOL     OW31339   4.688   4.196   3.925
10147SOL    HW131340   4.725   4.113   3.968
10147SOL    HW231341   4.642   4.251   3.994
10148SOL     OW31342   6.221   5.666   0.804
10148SOL    HW131343   6.181   5.681   0.713
10148SOL    HW231344   6.160   5.702   0.874
10149SOL     OW31345   4.389   1.824   1.372
10149SOL    HW131346   4.310   1.864   1.418
10149SOL    HW231347   4.371   1.728   1.351
10150SOL     OW31348   4.890   4.613   0.755
10150SOL    HW131349   4.854   4.640   0.665
10150SOL    HW231350   4.972   4.557   0.742
10151SOL     OW31351   1.102   0.177   6.438
10151SOL    HW131352   1.175   0.244   6.426
10151SOL    HW231353   1.031   0.191   6.369
10152SOL     OW31354   1.016   4.766   3.449
10152SOL    HW131355   0.964   4.713   3.516
10152SOL    HW231356   1.068   4.703   3.392
10153SOL     OW31357   4.664   6.145   3.594
10153SOL    HW131358   4.679   6.139   3.496
10153SOL    HW231359   4.742   6.188   3.638
10154SOL     OW31360   6.595   6.021   5.748
10154SOL    HW131361   6.541   6.062   5.675
10154SOL    HW231362   6.607   5.924   5.731
10155SOL     OW31363   4.114   0.614   5.749
10155SOL    HW131364   4.137   0.540   5.812
10155SOL    HW231365   4.015   0.620   5.738
10156SOL     OW31366   5.335   0.235   2.374
10156SOL    HW131367   5.362   0.290   2.294
10156SOL    HW231368   5.339   0.292   2.456
10157SOL     OW31369   6.018   1.263   6.347
10157SOL    HW131370   6.051   1.287   6.439
10157SOL    HW231371   6.011   1.345   6.292
10158SOL     OW31372   4.453   3.643   0.039
10158SOL    HW131373   4.381   3.634   6.990
10158SOL    HW231374   4.441   3.729   0.089
10159SOL     OW31375   2.214   2.787   6.502
10159SOL    HW131376   2.184   2.798   6.407
10159SOL    HW231377   2.255   2.873   6.533
10160SOL     OW31378   0.235   4.777   3.567
10160SOL    HW131379   0.234   4.876   3.583
10160SOL    HW231380   0.222   4.760   3.470
10161SOL     OW31381   3.385   4.912   6.623
10161SOL    HW131382   3.315   4.962   6.572
10161SOL    HW231383   3.343   4.837   6.673
10162SOL     OW31384   2.292   3.339   6.431
10162SOL    HW131385   2.354   3.262   6.417
10162SOL    HW231386   2.277   3.386   6.344
10163SOL     OW31387   6.276   3.965   6.060
10163SOL    HW131388   6.357   4.018   6.082
10163SOL    HW231389   6.277   3.879   6.111
10164SOL     OW31390   6.413   3.218   5.009
10164SOL    HW131391   6.442   3.270   5.089
10164SOL    HW231392   6.436   3.269   4.926
10165SOL     OW31393   0.689   2.371   4.386
10165SOL    HW131394   0.644   2.460   4.384
10165SOL    HW231395   0.765   2.371   4.321
10166SOL     OW31396   2.998   1.660   1.399
10166SOL    HW131397   2.911   1.633   1.359
10166SOL    HW231398   2.981   1.719   1.478
10167SOL     OW31399   5.336   1.295   6.851
10167SOL    HW131400   5.428   1.277   6.885
10167SOL    HW231401   5.334   1.383   6.803
10168SOL     OW31402   6.851   4.657   4.582
10168SOL    HW131403   6.934   4.697   4.621
10168SOL    HW231404   6.846   4.560   4.608
10169SOL     OW31405   6.638   5.048   2.945
10169SOL    HW131406   6.680   5.055   2.854
10169SOL    HW231407   6.660   5.131   2.998
10170SOL     OW31408   1.255   4.125   5.014
10170SOL    HW131409   1.169   4.147   4.968
10170SOL    HW231410   1.268   4.187   5.092
10171SOL     OW31411   6.603   4.241   5.875
10171SOL    HW131412   6.535   4.234   5.802
10171SOL    HW231413   6.625   4.149   5.909
10172SOL     OW31414   5.424   0.623   2.677
10172SOL    HW131415   5.391   0.681   2.602
10172SOL    HW231416   5.447   0.680   2.755
10173SOL     OW31417   1.891   1.740   1.131
10173SOL    HW131418   1.907   1.693   1.218
10173SOL    HW231419   1.978   1.765   1.090
10174SOL     OW31420   5.817   4.812   2.998
10174SOL    HW131421   5.723   4.777   2.988
10174SOL    HW231422   5.863   4.760   3.070
10175SOL     OW31423   6.336   2.303   4.686
10175SOL    HW131424   6.359   2.380   4.746
10175SOL    HW231425   6.344   2.331   4.591
10176SOL     OW31426   1.771   3.328   6.574
10176SOL    HW131427   1.767   3.417   6.621
10176SOL    HW231428   1.785   3.343   6.476
10177SOL     OW31429   3.324   6.987   0.038
10177SOL    HW131430   3.357   6.897   0.067
10177SOL    HW231431   3.313   6.988   6.959
10178SOL     OW31432   6.000   2.923   4.671
10178SOL    HW131433   6.054   2.839   4.670
10178SOL    HW231434   5.907   2.902   4.640
10179SOL     OW31435   0.659   2.033   6.490
10179SOL    HW131436   0.601   2.113   6.474
10179SOL    HW231437   0.632   1.988   6.575
10180SOL     OW31438   2.739   5.704   5.805
10180SOL    HW131439   2.836   5.696   5.779
10180SOL    HW231440   2.685   5.642   5.749
10181SOL     OW31441   5.426   3.669   1.429
10181SOL    HW131442   5.327   3.665   1.413
10181SOL    HW231443   5.470   3.588   1.390
10182SOL     OW31444   5.469   1.197   1.478
10182SOL    HW131445   5.419   1.194   1.565
10182SOL    HW231446   5.549   1.137   1.485
10183SOL     OW31447   0.958   1.904   6.848
10183SOL    HW131448   0.932   1.985   6.796
10183SOL    HW231449   0.913   1.824   6.808
10184SOL     OW31450   4.605   1.756   6.175
10184SOL    HW131451   4.613   1.856   6.176
10184SOL    HW231452   4.551   1.727   6.254
10185SOL     OW31453   4.964   6.823   0.896
10185SOL    HW131454   4.937   6.870   0.980
10185SOL    HW231455   5.004   6.890   0.833
10186SOL     OW31456   5.264   2.607   3.458
10186SOL    HW131457   5.213   2.546   3.397
10186SOL    HW231458   5.208   2.687   3.481
10187SOL     OW31459   0.629   2.304   1.866
10187SOL    HW131460   0.684   2.319   1.948
10187SOL    HW231461   0.675   2.237   1.807
10188SOL     OW31462   3.841   6.573   0.380
10188SOL    HW131463   3.869   6.540   0.470
10188SOL    HW231464   3.903   6.536   0.311
10189SOL     OW31465   2.527   6.326   5.010
10189SOL    HW131466   2.485   6.409   4.975
10189SOL    HW231467   2.486   6.246   4.966
10190SOL     OW31468   4.853   2.273   0.622
10190SOL    HW131469   4.767   2.317   0.648
10190SOL    HW231470   4.895   2.324   0.546
10191SOL     OW31471   5.055   4.664   6.561
10191SOL    HW131472   4.999   4.589   6.597
10191SOL    HW231473   5.106   4.707   6.635
10192SOL     OW31474   3.495   0.325   4.959
10192SOL    HW131475   3.505   0.360   5.052
10192SOL    HW231476   3.566   0.363   4.901
10193SOL     OW31477   4.329   4.200   1.040
10193SOL    HW131478   4.295   4.177   1.131
10193SOL    HW231479   4.251   4.212   0.977
10194SOL     OW31480   5.802   4.195   5.036
10194SOL    HW131481   5.841   4.169   5.125
10194SOL    HW231482   5.768   4.289   5.041
10195SOL     OW31483   6.195   4.608   1.527
10195SOL    HW131484   6.195   4.510   1.549
10195SOL    HW231485   6.157   4.622   1.436
10196SOL     OW31486   6.381   1.252   4.903
10196SOL    HW131487   6.291   1.208   4.905
10196SOL    HW231488   6.406   1.280   4.996
10197SOL     OW31489   6.653   0.653   4.977
10197SOL    HW131490   6.618   0.684   4.889
10197SOL    HW231491   6.579   0.612   5.030
10198SOL     OW31492   3.918   0.436   2.419
10198SOL    HW131493   3.974   0.352   2.417
10198SOL    HW231494   3.934   0.483   2.506
10199SOL     OW31495   1.192   3.018   5.485
10199SOL    HW131496   1.200   3.114   5.510
10199SOL    HW231497   1.103   2.983   5.516
10200SOL     OW31498   5.377   2.709   0.985
10200SOL    HW131499   5.387   2.694   1.084
10200SOL    HW231500   5.409   2.801   0.963
10201SOL     OW31501   1.388   4.378   1.016
10201SOL    HW131502   1.458   4.415   1.076
10201SOL    HW231503   1.304   4.362   1.068
10202SOL     OW31504   4.130   1.547   5.528
10202SOL    HW131505   4.030   1.546   5.535
10202SOL    HW231506   4.170   1.510   5.613
10203SOL     OW31507   5.658   2.556   5.208
10203SOL    HW131508   5.595   2.507   5.148
10203SOL    HW231509   5.726   2.492   5.244
10204SOL     OW31510   5.503   0.111   6.362
10204SOL    HW131511   5.441   0.061   6.301
10204SOL    HW231512   5.596   0.075   6.351
10205SOL     OW31513   1.147   0.817   6.785
10205SOL    HW131514   1.116   0.911   6.801
10205SOL    HW231515   1.203   0.815   6.702
10206SOL     OW31516   1.303   0.684   5.704
10206SOL    HW131517   1.376   0.742   5.739
10206SOL    HW231518   1.341   0.597   5.674
10207SOL     OW31519   1.496   1.925   5.786
10207SOL    HW131520   1.451   1.839   5.761
10207SOL    HW231521   1.475   1.995   5.717
10208SOL     OW31522   5.455   4.966   4.987
10208SOL    HW131523   5.445   4.947   5.085
10208SOL    HW231524   5.416   5.055   4.966
10209SOL     OW31525   6.735   0.358   6.035
10209SOL    HW131526   6.753   0.290   5.963
10209SOL    HW231527   6.642   0.347   6.068
10210SOL     OW31528   4.339   6.070   1.663
10210SOL    HW131529   4.364   6.146   1.724
10210SOL    HW231530   4.239   6.060   1.663
10211SOL     OW31531   3.879   6.616   5.710
10211SOL    HW131532   3.781   6.624   5.694
10211SOL    HW231533   3.899   6.529   5.754
10212SOL     OW31534   0.976   0.275   5.881
10212SOL    HW131535   1.003   0.221   5.962
10212SOL    HW231536   0.984   0.372   5.903
10213SOL     OW31537   5.295   2.154   0.416
10213SOL    HW131538   5.265   2.166   0.511
10213SOL    HW231539   5.249   2.221   0.358
10214SOL     OW31540   1.103   3.083   1.328
10214SOL    HW131541   1.134   3.034   1.410
10214SOL    HW231542   1.153   3.051   1.248
10215SOL     OW31543   3.653   3.563   2.485
10215SOL    HW131544   3.658   3.550   2.386
10215SOL    HW231545   3.699   3.487   2.531
10216SOL     OW31546   6.351   0.317   1.837
10216SOL    HW131547   6.372   0.414   1.827
10216SOL    HW231548   6.403   0.265   1.769
10217SOL     OW31549   2.984   1.012   3.684
10217SOL    HW131550   2.976   0.931   3.742
10217SOL    HW231551   2.899   1.024   3.632
10218SOL     OW31552   1.196   2.655   3.067
10218SOL    HW131553   1.184   2.585   2.996
10218SOL    HW231554   1.108   2.698   3.085
10219SOL     OW31555   0.712   1.279   2.012
10219SOL    HW131556   0.640   1.289   2.081
10219SOL    HW231557   0.695   1.343   1.937
10220SOL     OW31558   3.638   2.594   1.716
10220SOL    HW131559   3.568   2.582   1.645
10220SOL    HW231560   3.643   2.512   1.772
10221SOL     OW31561   1.390   6.309   2.816
10221SOL    HW131562   1.399   6.389   2.874
10221SOL    HW231563   1.402   6.335   2.720
10222SOL     OW31564   3.555   3.848   4.471
10222SOL    HW131565   3.595   3.866   4.381
10222SOL    HW231566   3.620   3.872   4.542
10223SOL     OW31567   0.831   5.279   1.401
10223SOL    HW131568   0.844   5.325   1.489
10223SOL    HW231569   0.734   5.284   1.375
10224SOL     OW31570   6.073   3.997   3.386
10224SOL    HW131571   6.021   4.080   3.404
10224SOL    HW231572   6.163   4.004   3.429
10225SOL     OW31573   2.576   3.708   5.788
10225SOL    HW131574   2.577   3.616   5.749
10225SOL    HW231575   2.651   3.717   5.853
10226SOL     OW31576   4.411   2.391   0.290
10226SOL    HW131577   4.404   2.452   0.369
10226SOL    HW231578   4.346   2.419   0.220
10227SOL     OW31579   6.000   4.146   0.993
10227SOL    HW131580   6.004   4.245   0.990
10227SOL    HW231581   5.959   4.111   0.909
10228SOL     OW31582   5.420   0.727   0.899
10228SOL    HW131583   5.359   0.805   0.883
10228SOL    HW231584   5.474   0.710   0.816
10229SOL     OW31585   0.560   3.396   4.725
10229SOL    HW131586   0.610   3.468   4.774
10229SOL    HW231587   0.542   3.320   4.787
10230SOL     OW31588   6.780   6.253   2.181
10230SOL    HW131589   6.727   6.176   2.216
10230SOL    HW231590   6.718   6.325   2.149
10231SOL     OW31591   1.435   6.035   3.017
10231SOL    HW131592   1.404   6.077   2.932
10231SOL    HW231593   1.405   5.939   3.020
10232SOL     OW31594   5.192   6.747   3.202
10232SOL    HW131595   5.137   6.799   3.138
10232SOL    HW231596   5.283   6.787   3.209
10233SOL     OW31597   4.370   4.079   6.608
10233SOL    HW131598   4.336   4.173   6.612
10233SOL    HW231599   4.467   4.077   6.631
10234SOL     OW31600   0.081   0.906   1.586
10234SOL    HW131601   0.120   0.814   1.579
10234SOL    HW231602   7.006   0.904   1.558
10235SOL     OW31603   1.219   1.150   3.446
10235SOL    HW131604   1.171   1.082   3.392
10235SOL    HW231605   1.293   1.106   3.498
10236SOL     OW31606   2.404   6.823   1.529
10236SOL    HW131607   2.455   6.760   1.588
10236SOL    HW231608   2.330   6.774   1.484
10237SOL     OW31609   0.575   3.616   6.605
10237SOL    HW131610   0.626   3.686   6.655
10237SOL    HW231611   0.580   3.530   6.656
10238SOL     OW31612   3.823   5.850   0.847
10238SOL    HW131613   3.757   5.819   0.916
10238SOL    HW231614   3.915   5.826   0.876
10239SOL     OW31615   1.735   2.386   4.580
10239SOL    HW131616   1.710   2.481   4.562
10239SOL    HW231617   1.657   2.338   4.620
10240SOL     OW31618   2.763   6.395   0.788
10240SOL    HW131619   2.739   6.298   0.783
10240SOL    HW231620   2.853   6.409   0.748
10241SOL     OW31621   3.849   2.533   1.547
10241SOL    HW131622   3.775   2.560   1.608
10241SOL    HW231623   3.935   2.570   1.582
10242SOL     OW31624   0.030   2.534   0.178
10242SOL    HW131625   6.956   2.513   0.158
10242SOL    HW231626   0.089   2.489   0.111
10243SOL     OW31627   2.350   5.273   1.055
10243SOL    HW131628   2.368   5.193   1.111
10243SOL    HW231629   2.354   5.355   1.113
10244SOL     OW31630   2.612   4.073   1.639
10244SOL    HW131631   2.655   4.163   1.641
10244SOL    HW231632   2.678   4.004   1.670
10245SOL     OW31633   3.970   4.480   0.572
10245SOL    HW131634   4.000   4.500   0.478
10245SOL    HW231635   3.870   4.488   0.577
10246SOL     OW31636   3.373   3.224   4.511
10246SOL    HW131637   3.313   3.145   4.502
10246SOL    HW231638   3.318   3.308   4.518
10247SOL     OW31639   0.885   3.504   4.457
10247SOL    HW131640   0.952   3.443   4.498
10247SOL    HW231641   0.801   3.454   4.436
10248SOL     OW31642   1.155   0.511   3.394
10248SOL    HW131643   1.093   0.519   3.472
10248SOL    HW231644   1.147   0.419   3.355
10249SOL     OW31645   2.392   4.868   6.330
10249SOL    HW131646   2.491   4.857   6.325
10249SOL    HW231647   2.365   4.948   6.277
10250SOL     OW31648   5.173   2.808   0.083
10250SOL    HW131649   5.135   2.715   0.091
10250SOL    HW231650   5.201   2.824   7.009
10251SOL     OW31651   2.027   0.248   4.468
10251SOL    HW131652   2.020   0.148   4.478
10251SOL    HW231653   2.123   0.275   4.471
10252SOL     OW31654   5.077   4.072   5.821
10252SOL    HW131655   5.005   4.111   5.879
10252SOL    HW231656   5.136   4.146   5.788
10253SOL     OW31657   4.264   6.549   6.534
10253SOL    HW131658   4.192   6.566   6.602
10253SOL    HW231659   4.303   6.636   6.504
10254SOL     OW31660   5.460   1.670   4.685
10254SOL    HW131661   5.480   1.721   4.602
10254SOL    HW231662   5.449   1.734   4.762
10255SOL     OW31663   3.747   5.307   1.914
10255SOL    HW131664   3.736   5.371   1.838
10255SOL    HW231665   3.668   5.247   1.918
10256SOL     OW31666   4.348   0.336   2.899
10256SOL    HW131667   4.249   0.350   2.899
10256SOL    HW231668   4.387   0.371   2.985
10257SOL     OW31669   3.174   4.939   2.822
10257SOL    HW131670   3.137   5.032   2.824
10257SOL    HW231671   3.104   4.875   2.851
10258SOL     OW31672   1.690   1.636   1.788
10258SOL    HW131673   1.643   1.561   1.743
10258SOL    HW231674   1.640   1.663   1.870
10259SOL     OW31675   0.664   3.582   4.042
10259SOL    HW131676   0.663   3.482   4.048
10259SOL    HW231677   0.587   3.613   3.987
10260SOL     OW31678   1.287   1.425   3.777
10260SOL    HW131679   1.363   1.443   3.840
10260SOL    HW231680   1.315   1.450   3.684
10261SOL     OW31681   6.530   3.778   1.038
10261SOL    HW131682   6.578   3.866   1.030
10261SOL    HW231683   6.510   3.760   1.134
10262SOL     OW31684   3.411   1.288   0.131
10262SOL    HW131685   3.498   1.250   0.163
10262SOL    HW231686   3.429   1.374   0.083
10263SOL     OW31687   5.616   0.711   1.900
10263SOL    HW131688   5.621   0.738   1.996
10263SOL    HW231689   5.537   0.755   1.857
10264SOL     OW31690   6.735   5.428   6.554
10264SOL    HW131691   6.727   5.450   6.651
10264SOL    HW231692   6.809   5.361   6.541
10265SOL     OW31693   1.906   1.891   0.316
10265SOL    HW131694   1.920   1.878   0.218
10265SOL    HW231695   1.859   1.977   0.332
10266SOL     OW31696   2.948   3.686   2.280
10266SOL    HW131697   2.850   3.674   2.263
10266SOL    HW231698   2.968   3.783   2.297
10267SOL     OW31699   5.822   1.006   0.769
10267SOL    HW131700   5.757   1.019   0.844
10267SOL    HW231701   5.773   0.991   0.684
10268SOL     OW31702   4.423   0.102   0.811
10268SOL    HW131703   4.522   0.113   0.804
10268SOL    HW231704   4.378   0.177   0.761
10269SOL     OW31705   2.220   2.349   6.312
10269SOL    HW131706   2.186   2.265   6.355
10269SOL    HW231707   2.143   2.409   6.291
10270SOL     OW31708   3.269   6.051   1.743
10270SOL    HW131709   3.337   5.996   1.790
10270SOL    HW231710   3.315   6.116   1.682
10271SOL     OW31711   1.666   2.514   0.230
10271SOL    HW131712   1.584   2.468   0.195
10271SOL    HW231713   1.686   2.481   0.322
10272SOL     OW31714   6.878   0.612   4.695
10272SOL    HW131715   6.854   0.539   4.632
10272SOL    HW231716   6.798   0.636   4.750
10273SOL     OW31717   2.307   4.871   3.364
10273SOL    HW131718   2.272   4.908   3.450
10273SOL    HW231719   2.369   4.936   3.322
10274SOL     OW31720   0.551   5.244   4.684
10274SOL    HW131721   0.619   5.200   4.743
10274SOL    HW231722   0.460   5.224   4.719
10275SOL     OW31723   0.306   0.423   2.770
10275SOL    HW131724   0.386   0.380   2.811
10275SOL    HW231725   0.255   0.474   2.839
10276SOL     OW31726   4.260   5.639   6.154
10276SOL    HW131727   4.212   5.648   6.067
10276SOL    HW231728   4.358   5.635   6.138
10277SOL     OW31729   1.157   6.527   4.576
10277SOL    HW131730   1.168   6.457   4.647
10277SOL    HW231731   1.246   6.569   4.557
10278SOL     OW31732   0.033   0.487   5.378
10278SOL    HW131733   0.128   0.476   5.407
10278SOL    HW231734   0.008   0.411   5.318
10279SOL     OW31735   1.775   5.725   4.064
10279SOL    HW131736   1.739   5.787   3.994
10279SOL    HW231737   1.728   5.636   4.057
10280SOL     OW31738   5.638   4.316   0.526
10280SOL    HW131739   5.645   4.234   0.583
10280SOL    HW231740   5.682   4.298   0.438
10281SOL     OW31741   6.508   2.058   3.762
10281SOL    HW131742   6.523   2.000   3.682
10281SOL    HW231743   6.597   2.087   3.799
10282SOL     OW31744   4.886   3.903   3.288
10282SOL    HW131745   4.838   3.987   3.313
10282SOL    HW231746   4.984   3.914   3.305
10283SOL     OW31747   0.427   4.123   0.966
10283SOL    HW131748   0.492   4.050   0.985
10283SOL    HW231749   0.345   4.112   1.023
10284SOL     OW31750   0.489   2.963   3.584
10284SOL    HW131751   0.433   3.035   3.544
10284SOL    HW231752   0.430   2.889   3.617
10285SOL     OW31753   4.663   6.035   4.308
10285SOL    HW131754   4.726   5.962   4.333
10285SOL    HW231755   4.709   6.123   4.316
10286SOL     OW31756   2.995   1.533   4.487
10286SOL    HW131757   2.897   1.519   4.472
10286SOL    HW231758   3.029   1.463   4.550
10287SOL     OW31759   2.253   5.512   2.827
10287SOL    HW131760   2.332   5.543   2.774
10287SOL    HW231761   2.257   5.413   2.838
10288SOL     OW31762   3.760   0.179   5.380
10288SOL    HW131763   3.677   0.232   5.362
10288SOL    HW231764   3.838   0.241   5.390
10289SOL     OW31765   2.353   5.904   6.776
10289SOL    HW131766   2.255   5.919   6.761
10289SOL    HW231767   2.385   5.966   6.847
10290SOL     OW31768   3.096   2.989   2.248
10290SOL    HW131769   3.051   3.078   2.245
10290SOL    HW231770   3.033   2.921   2.285
10291SOL     OW31771   3.235   1.241   2.377
10291SOL    HW131772   3.308   1.308   2.394
10291SOL    HW231773   3.274   1.161   2.330
10292SOL     OW31774   6.563   6.582   6.285
10292SOL    HW131775   6.485   6.520   6.282
10292SOL    HW231776   6.594   6.601   6.192
10293SOL     OW31777   0.773   3.890   3.728
10293SOL    HW131778   0.690   3.944   3.711
10293SOL    HW231779   0.790   3.831   3.649
10294SOL     OW31780   3.779   1.724   2.675
10294SOL    HW131781   3.779   1.805   2.616
10294SOL    HW231782   3.869   1.679   2.670
10295SOL     OW31783   1.043   2.409   0.210
10295SOL    HW131784   1.126   2.458   0.239
10295SOL    HW231785   0.966   2.473   0.209
10296SOL     OW31786   5.882   1.008   6.019
10296SOL    HW131787   5.831   0.984   5.936
10296SOL    HW231788   5.882   1.108   6.031
10297SOL     OW31789   2.949   2.021   6.520
10297SOL    HW131790   3.030   1.971   6.550
10297SOL    HW231791   2.883   2.026   6.594
10298SOL     OW31792   0.546   2.770   2.537
10298SOL    HW131793   0.529   2.853   2.485
10298SOL    HW231794   0.534   2.789   2.635
10299SOL     OW31795   4.273   6.435   2.227
10299SOL    HW131796   4.314   6.420   2.317
10299SOL    HW231797   4.290   6.356   2.168
10300SOL     OW31798   0.631   3.462   1.565
10300SOL    HW131799   0.620   3.541   1.625
10300SOL    HW231800   0.726   3.454   1.538
10301SOL     OW31801   4.673   0.885   6.428
10301SOL    HW131802   4.622   0.943   6.492
10301SOL    HW231803   4.672   0.791   6.461
10302SOL     OW31804   2.794   5.867   4.354
10302SOL    HW131805   2.833   5.915   4.276
10302SOL    HW231806   2.858   5.799   4.388
10303SOL     OW31807   1.108   6.465   4.966
10303SOL    HW131808   1.138   6.428   5.053
10303SOL    HW231809   1.019   6.510   4.978
10304SOL     OW31810   6.193   0.009   0.192
10304SOL    HW131811   6.214   6.982   0.107
10304SOL    HW231812   6.097   7.014   0.216
10305SOL     OW31813   2.140   4.147   6.013
10305SOL    HW131814   2.110   4.160   6.107
10305SOL    HW231815   2.173   4.053   6.001
10306SOL     OW31816   5.433   0.079   1.270
10306SOL    HW131817   5.525   0.059   1.303
10306SOL    HW231818   5.437   0.158   1.209
10307SOL     OW31819   2.883   0.511   4.657
10307SOL    HW131820   2.824   0.587   4.632
10307SOL    HW231821   2.971   0.520   4.610
10308SOL     OW31822   2.471   4.591   2.637
10308SOL    HW131823   2.428   4.501   2.627
10308SOL    HW231824   2.455   4.644   2.554
10309SOL     OW31825   6.398   0.988   5.807
10309SOL    HW131826   6.466   0.968   5.737
10309SOL    HW231827   6.358   0.903   5.840
10310SOL     OW31828   2.994   2.971   6.396
10310SOL    HW131829   3.045   2.887   6.380
10310SOL    HW231830   3.048   3.049   6.364
10311SOL     OW31831   5.704   6.469   6.891
10311SOL    HW131832   5.627   6.410   6.914
10311SOL    HW231833   5.762   6.424   6.824
10312SOL     OW31834   4.602   0.224   2.183
10312SOL    HW131835   4.678   0.235   2.248
10312SOL    HW231836   4.518   0.204   2.233
10313SOL     OW31837   4.720   6.517   2.666
10313SOL    HW131838   4.817   6.514   2.689
10313SOL    HW231839   4.672   6.442   2.711
10314SOL     OW31840   0.604   6.825   0.546
10314SOL    HW131841   0.648   6.760   0.607
10314SOL    HW231842   0.669   6.897   0.521
10315SOL     OW31843   5.199   6.307   3.445
10315SOL    HW131844   5.153   6.277   3.528
10315SOL    HW231845   5.223   6.228   3.389
10316SOL     OW31846   0.103   2.794   6.312
10316SOL    HW131847   0.123   2.744   6.396
10316SOL    HW231848   0.108   2.733   6.233
10317SOL     OW31849   3.348   5.940   5.991
10317SOL    HW131850   3.290   5.896   6.059
10317SOL    HW231851   3.336   6.039   5.996
10318SOL     OW31852   6.014   0.211   0.404
10318SOL    HW131853   5.966   0.146   0.345
10318SOL    HW231854   5.953   0.288   0.425
10319SOL     OW31855   0.430   4.750   4.274
10319SOL    HW131856   0.337   4.721   4.294
10319SOL    HW231857   0.432   4.803   4.190
10320SOL     OW31858   0.572   0.526   3.511
10320SOL    HW131859   0.494   0.553   3.455
10320SOL    HW231860   0.623   0.454   3.464
10321SOL     OW31861   5.693   2.131   1.733
10321SOL    HW131862   5.657   2.200   1.796
10321SOL    HW231863   5.626   2.113   1.661
10322SOL     OW31864   4.508   4.481   4.476
10322SOL    HW131865   4.484   4.383   4.471
10322SOL    HW231866   4.571   4.496   4.552
10323SOL     OW31867   0.353   4.339   5.059
10323SOL    HW131868   0.410   4.422   5.059
10323SOL    HW231869   0.330   4.315   5.153
10324SOL     OW31870   3.227   3.332   2.320
10324SOL    HW131871   3.296   3.294   2.259
10324SOL    HW231872   3.271   3.374   2.399
10325SOL     OW31873   0.240   5.641   2.483
10325SOL    HW131874   0.242   5.740   2.502
10325SOL    HW231875   0.166   5.621   2.419
10326SOL     OW31876   5.473   3.888   6.816
10326SOL    HW131877   5.567   3.874   6.848
10326SOL    HW231878   5.445   3.812   6.759
10327SOL     OW31879   3.013   4.040   1.453
10327SOL    HW131880   3.082   4.020   1.384
10327SOL    HW231881   2.969   3.955   1.482
10328SOL     OW31882   6.525   3.112   1.309
10328SOL    HW131883   6.624   3.113   1.299
10328SOL    HW231884   6.500   3.140   1.402
10329SOL     OW31885   3.382   1.653   3.120
10329SOL    HW131886   3.429   1.730   3.077
10329SOL    HW231887   3.289   1.680   3.144
10330SOL     OW31888   4.697   0.107   0.744
10330SOL    HW131889   4.777   0.145   0.790
10330SOL    HW231890   4.722   0.022   0.698
10331SOL     OW31891   6.741   5.639   0.084
10331SOL    HW131892   6.825   5.594   0.113
10331SOL    HW231893   6.689   5.577   0.025
10332SOL     OW31894   1.419   0.986   0.931
10332SOL    HW131895   1.344   0.933   0.892
10332SOL    HW231896   1.485   1.009   0.859
10333SOL     OW31897   1.024   5.902   4.332
10333SOL    HW131898   1.083   5.826   4.360
10333SOL    HW231899   0.940   5.899   4.386
10334SOL     OW31900   2.964   6.814   3.927
10334SOL    HW131901   2.973   6.843   4.022
10334SOL    HW231902   2.950   6.715   3.924
10335SOL     OW31903   0.491   3.938   5.876
10335SOL    HW131904   0.531   4.013   5.823
10335SOL    HW231905   0.436   3.880   5.816
10336SOL     OW31906   5.630   0.111   2.852
10336SOL    HW131907   5.683   0.057   2.917
10336SOL    HW231908   5.546   0.144   2.897
10337SOL     OW31909   6.335   5.508   0.207
10337SOL    HW131910   6.400   5.514   0.283
10337SOL    HW231911   6.289   5.596   0.195
10338SOL     OW31912   1.897   5.976   1.895
10338SOL    HW131913   1.850   5.897   1.934
10338SOL    HW231914   1.996   5.958   1.895
10339SOL     OW31915   6.899   2.816   5.705
10339SOL    HW131916   6.863   2.825   5.798
10339SOL    HW231917   6.996   2.839   5.705
10340SOL     OW31918   1.801   3.607   6.229
10340SOL    HW131919   1.734   3.533   6.240
10340SOL    HW231920   1.778   3.682   6.292
10341SOL     OW31921   2.292   2.681   2.532
10341SOL    HW131922   2.271   2.657   2.437
10341SOL    HW231923   2.231   2.754   2.562
10342SOL     OW31924   1.764   0.717   3.743
10342SOL    HW131925   1.835   0.786   3.728
10342SOL    HW231926   1.759   0.694   3.840
10343SOL     OW31927   1.862   5.740   0.978
10343SOL    HW131928   1.957   5.710   0.974
10343SOL    HW231929   1.804   5.664   1.006
10344SOL     OW31930   3.659   4.007   6.830
10344SOL    HW131931   3.645   3.945   6.907
10344SOL    HW231932   3.748   4.050   6.837
10345SOL     OW31933   1.309   3.032   5.198
10345SOL    HW131934   1.315   2.932   5.191
10345SOL    HW231935   1.264   3.056   5.284
10346SOL     OW31936   0.320   5.916   1.827
10346SOL    HW131937   0.420   5.922   1.819
10346SOL    HW231938   0.297   5.877   1.916
10347SOL     OW31939   4.481   1.383   4.054
10347SOL    HW131940   4.492   1.343   4.145
10347SOL    HW231941   4.536   1.331   3.988
10348SOL     OW31942   5.945   3.817   0.502
10348SOL    HW131943   5.934   3.732   0.451
10348SOL    HW231944   5.876   3.883   0.473
10349SOL     OW31945   0.437   6.864   6.582
10349SOL    HW131946   0.530   6.882   6.614
10349SOL    HW231947   0.414   6.768   6.596
10350SOL     OW31948   3.133   6.628   5.485
10350SOL    HW131949   3.061   6.694   5.464
10350SOL    HW231950   3.096   6.556   5.544
10351SOL     OW31951   4.396   4.964   5.702
10351SOL    HW131952   4.309   4.937   5.745
10351SOL    HW231953   4.400   4.926   5.610
10352SOL     OW31954   3.386   1.869   5.984
10352SOL    HW131955   3.393   1.805   5.907
10352SOL    HW231956   3.345   1.824   6.062
10353SOL     OW31957   6.558   2.873   4.723
10353SOL    HW131958   6.502   2.889   4.805
10353SOL    HW231959   6.626   2.802   4.743
10354SOL     OW31960   5.284   1.267   2.050
10354SOL    HW131961   5.326   1.340   2.104
10354SOL    HW231962   5.339   1.184   2.059
10355SOL     OW31963   2.723   5.861   2.406
10355SOL    HW131964   2.657   5.849   2.480
10355SOL    HW231965   2.688   5.929   2.341
10356SOL     OW31966   0.318   4.278   5.328
10356SOL    HW131967   0.283   4.188   5.356
10356SOL    HW231968   0.305   4.344   5.402
10357SOL     OW31969   2.165   2.134   6.479
10357SOL    HW131970   2.163   2.148   6.579
10357SOL    HW231971   2.104   2.059   6.455
10358SOL     OW31972   0.431   2.582   2.063
10358SOL    HW131973   0.363   2.547   2.127
10358SOL    HW231974   0.401   2.565   1.970
10359SOL     OW31975   0.268   1.250   1.483
10359SOL    HW131976   0.286   1.205   1.571
10359SOL    HW231977   0.205   1.195   1.429
10360SOL     OW31978   5.589   5.796   3.439
10360SOL    HW131979   5.629   5.745   3.362
10360SOL    HW231980   5.646   5.783   3.520
10361SOL     OW31981   2.842   5.474   2.244
10361SOL    HW131982   2.784   5.483   2.163
10361SOL    HW231983   2.879   5.564   2.268
10362SOL     OW31984   1.827   4.483   4.762
10362SOL    HW131985   1.738   4.505   4.721
10362SOL    HW231986   1.815   4.467   4.860
10363SOL     OW31987   4.969   0.677   3.521
10363SOL    HW131988   4.946   0.582   3.500
10363SOL    HW231989   4.970   0.731   3.437
10364SOL     OW31990   2.277   4.346   1.285
10364SOL    HW131991   2.305   4.262   1.333
10364SOL    HW231992   2.348   4.371   1.219
10365SOL     OW31993   5.195   5.559   6.909
10365SOL    HW131994   5.159   5.581   7.000
10365SOL    HW231995   5.161   5.625   6.842
10366SOL     OW31996   2.878   0.033   3.229
10366SOL    HW131997   2.798   0.087   3.257
10366SOL    HW231998   2.937   0.090   3.171
10367SOL     OW31999   5.931   2.415   3.464
10367SOL    HW132000   5.962   2.412   3.559
10367SOL    HW232001   5.889   2.504   3.445
10368SOL     OW32002   1.983   0.997   1.812
10368SOL    HW132003   1.983   1.086   1.766
10368SOL    HW232004   1.961   1.010   1.909
10369SOL     OW32005   3.900   2.393   6.872
10369SOL    HW132006   3.822   2.446   6.840
10369SOL    HW232007   3.900   2.303   6.828
10370SOL     OW32008   3.918   0.673   5.405
10370SOL    HW132009   3.963   0.609   5.342
10370SOL    HW232010   3.936   0.767   5.377
10371SOL     OW32011   4.915   5.697   5.331
10371SOL    HW132012   4.984   5.711   5.261
10371SOL    HW232013   4.841   5.640   5.294
10372SOL     OW32014   2.378   0.978   4.235
10372SOL    HW132015   2.320   1.053   4.203
10372SOL    HW232016   2.329   0.891   4.223
10373SOL     OW32017   1.016   6.416   4.054
10373SOL    HW132018   1.019   6.480   4.132
10373SOL    HW232019   1.107   6.378   4.039
10374SOL     OW32020   2.646   2.402   3.037
10374SOL    HW132021   2.722   2.404   2.973
10374SOL    HW232022   2.608   2.494   3.047
10375SOL     OW32023   5.848   2.134   0.959
10375SOL    HW132024   5.826   2.066   0.889
10375SOL    HW232025   5.928   2.103   1.011
10376SOL     OW32026   0.795   1.223   3.942
10376SOL    HW132027   0.741   1.303   3.967
10376SOL    HW232028   0.867   1.250   3.878
10377SOL     OW32029   0.715   0.455   4.091
10377SOL    HW132030   0.736   0.383   4.025
10377SOL    HW232031   0.772   0.535   4.072
10378SOL     OW32032   6.936   0.178   6.506
10378SOL    HW132033   6.926   0.184   6.407
10378SOL    HW232034   6.851   0.206   6.550
10379SOL     OW32035   5.394   1.260   4.556
10379SOL    HW132036   5.409   1.286   4.651
10379SOL    HW232037   5.304   1.294   4.526
10380SOL     OW32038   5.146   0.609   1.942
10380SOL    HW132039   5.076   0.546   1.975
10380SOL    HW232040   5.200   0.565   1.870
10381SOL     OW32041   4.543   4.581   5.893
10381SOL    HW132042   4.583   4.518   5.826
10381SOL    HW232043   4.578   4.559   5.984
10382SOL     OW32044   2.244   5.194   0.176
10382SOL    HW132045   2.321   5.232   0.125
10382SOL    HW232046   2.240   5.236   0.267
10383SOL     OW32047   0.823   2.684   0.846
10383SOL    HW132048   0.923   2.695   0.851
10383SOL    HW232049   0.785   2.758   0.790
10384SOL     OW32050   6.458   0.406   0.368
10384SOL    HW132051   6.497   0.438   0.281
10384SOL    HW232052   6.466   0.307   0.373
10385SOL     OW32053   6.241   1.574   6.409
10385SOL    HW132054   6.239   1.656   6.466
10385SOL    HW232055   6.176   1.507   6.445
10386SOL     OW32056   6.053   2.789   5.689
10386SOL    HW132057   5.983   2.852   5.656
10386SOL    HW232058   6.088   2.735   5.613
10387SOL     OW32059   1.596   2.439   3.380
10387SOL    HW132060   1.640   2.351   3.360
10387SOL    HW232061   1.518   2.452   3.319
10388SOL     OW32062   1.382   5.139   2.567
10388SOL    HW132063   1.445   5.214   2.544
10388SOL    HW232064   1.394   5.114   2.663
10389SOL     OW32065   1.033   4.980   2.822
10389SOL    HW132066   0.954   5.040   2.832
10389SOL    HW232067   1.033   4.911   2.895
10390SOL     OW32068   1.068   2.797   3.860
10390SOL    HW132069   1.139   2.860   3.830
10390SOL    HW232070   0.981   2.846   3.867
10391SOL     OW32071   2.662   6.142   6.112
10391SOL    HW132072   2.573   6.145   6.067
10391SOL    HW232073   2.733   6.121   6.045
10392SOL     OW32074   6.533   5.387   0.408
10392SOL    HW132075   6.561   5.291   0.405
10392SOL    HW232076   6.568   5.430   0.491
10393SOL     OW32077   1.458   1.095   4.156
10393SOL    HW132078   1.377   1.071   4.103
10393SOL    HW232079   1.430   1.150   4.235
10394SOL     OW32080   2.343   6.654   6.993
10394SOL    HW132081   2.321   6.746   6.962
10394SOL    HW232082   2.285   6.588   6.946
10395SOL     OW32083   0.291   1.204   4.545
10395SOL    HW132084   0.202   1.175   4.510
10395SOL    HW232085   0.364   1.162   4.490
10396SOL     OW32086   0.955   0.233   5.210
10396SOL    HW132087   1.052   0.235   5.236
10396SOL    HW232088   0.938   0.305   5.143
10397SOL     OW32089   4.304   1.325   3.205
10397SOL    HW132090   4.207   1.304   3.197
10397SOL    HW232091   4.352   1.299   3.121
10398SOL     OW32092   6.548   2.392   2.381
10398SOL    HW132093   6.579   2.396   2.476
10398SOL    HW232094   6.626   2.371   2.322
10399SOL     OW32095   5.511   2.209   5.439
10399SOL    HW132096   5.542   2.114   5.447
10399SOL    HW232097   5.572   2.269   5.489
10400SOL     OW32098   2.328   5.230   2.063
10400SOL    HW132099   2.336   5.283   2.147
10400SOL    HW232100   2.367   5.282   1.987
10401SOL     OW32101   0.343   6.489   1.921
10401SOL    HW132102   0.403   6.566   1.902
10401SOL    HW232103   0.296   6.461   1.837
10402SOL     OW32104   0.430   3.007   4.266
10402SOL    HW132105   0.465   3.068   4.195
10402SOL    HW232106   0.395   3.062   4.342
10403SOL     OW32107   5.340   0.890   1.914
10403SOL    HW132108   5.283   0.957   1.961
10403SOL    HW232109   5.425   0.877   1.966
10404SOL     OW32110   0.507   6.398   3.820
10404SOL    HW132111   0.543   6.426   3.908
10404SOL    HW232112   0.581   6.395   3.753
10405SOL     OW32113   1.862   6.305   5.781
10405SOL    HW132114   1.922   6.322   5.859
10405SOL    HW232115   1.902   6.348   5.699
10406SOL     OW32116   2.403   4.826   5.904
10406SOL    HW132117   2.462   4.887   5.850
10406SOL    HW232118   2.312   4.866   5.912
10407SOL     OW32119   0.814   1.607   0.208
10407SOL    HW132120   0.880   1.641   0.141
10407SOL    HW232121   0.766   1.685   0.249
10408SOL     OW32122   4.481   5.721   2.875
10408SOL    HW132123   4.428   5.803   2.895
10408SOL    HW232124   4.419   5.643   2.866
10409SOL     OW32125   6.201   4.787   2.576
10409SOL    HW132126   6.147   4.795   2.493
10409SOL    HW232127   6.142   4.799   2.656
10410SOL     OW32128   5.530   0.115   0.553
10410SOL    HW132129   5.510   0.183   0.623
10410SOL    HW232130   5.504   0.024   0.585
10411SOL     OW32131   2.373   4.661   2.907
10411SOL    HW132132   2.301   4.729   2.888
10411SOL    HW232133   2.422   4.639   2.823
10412SOL     OW32134   0.481   2.296   0.420
10412SOL    HW132135   0.384   2.272   0.424
10412SOL    HW232136   0.516   2.276   0.328
10413SOL     OW32137   0.392   1.754   6.946
10413SOL    HW132138   0.342   1.838   6.928
10413SOL    HW232139   0.327   1.681   6.970
10414SOL     OW32140   5.395   6.620   5.709
10414SOL    HW132141   5.295   6.619   5.709
10414SOL    HW232142   5.429   6.578   5.625
10415SOL     OW32143   0.376   5.743   3.194
10415SOL    HW132144   0.342   5.794   3.272
10415SOL    HW232145   0.474   5.761   3.182
10416SOL     OW32146   5.549   1.219   6.023
10416SOL    HW132147   5.629   1.238   6.079
10416SOL    HW232148   5.487   1.297   6.027
10417SOL     OW32149   3.599   4.985   4.076
10417SOL    HW132150   3.524   4.934   4.034
10417SOL    HW232151   3.574   5.011   4.169
10418SOL     OW32152   6.257   3.759   6.231
10418SOL    HW132153   6.327   3.689   6.220
10418SOL    HW232154   6.181   3.722   6.285
10419SOL     OW32155   2.578   1.044   4.720
10419SOL    HW132156   2.498   1.098   4.748
10419SOL    HW232157   2.582   1.041   4.620
10420SOL     OW32158   5.997   3.365   2.825
10420SOL    HW132159   5.929   3.323   2.885
10420SOL    HW232160   5.963   3.366   2.731
10421SOL     OW32161   0.573   4.546   4.064
10421SOL    HW132162   0.650   4.607   4.045
10421SOL    HW232163   0.549   4.552   4.161
10422SOL     OW32164   6.660   3.842   4.899
10422SOL    HW132165   6.694   3.777   4.967
10422SOL    HW232166   6.738   3.883   4.851
10423SOL     OW32167   3.065   4.849   4.189
10423SOL    HW132168   3.052   4.944   4.216
10423SOL    HW232169   3.032   4.789   4.262
10424SOL     OW32170   3.423   0.977   0.323
10424SOL    HW132171   3.333   0.951   0.288
10424SOL    HW232172   3.413   1.051   0.389
10425SOL     OW32173   1.119   2.287   1.153
10425SOL    HW132174   1.081   2.342   1.078
10425SOL    HW232175   1.202   2.241   1.121
10426SOL     OW32176   6.612   2.254   6.081
10426SOL    HW132177   6.587   2.321   6.010
10426SOL    HW232178   6.597   2.162   6.045
10427SOL     OW32179   5.140   7.015   4.366
10427SOL    HW132180   5.076   6.990   4.439
10427SOL    HW232181   5.103   6.985   4.278
10428SOL     OW32182   2.573   0.366   3.825
10428SOL    HW132183   2.638   0.439   3.803
10428SOL    HW232184   2.491   0.377   3.769
10429SOL     OW32185   1.393   2.958   1.584
10429SOL    HW132186   1.386   2.869   1.540
10429SOL    HW232187   1.301   2.992   1.604
10430SOL     OW32188   3.089   0.179   3.465
10430SOL    HW132189   3.007   0.225   3.429
10430SOL    HW232190   3.062   0.097   3.515
10431SOL     OW32191   3.907   0.181   2.834
10431SOL    HW132192   3.827   0.196   2.776
10431SOL    HW232193   3.880   0.182   2.930
10432SOL     OW32194   0.833   5.302   6.125
10432SOL    HW132195   0.919   5.283   6.077
10432SOL    HW232196   0.835   5.255   6.214
10433SOL     OW32197   2.518   0.174   2.747
10433SOL    HW132198   2.448   0.125   2.799
10433SOL    HW232199   2.502   0.273   2.756
10434SOL     OW32200   5.327   0.093   5.480
10434SOL    HW132201   5.254   0.122   5.419
10434SOL    HW232202   5.323   7.015   5.493
10435SOL     OW32203   1.866   1.886   0.027
10435SOL    HW132204   1.943   1.864   6.988
10435SOL    HW232205   1.783   1.895   6.992
10436SOL     OW32206   6.475   3.665   5.295
10436SOL    HW132207   6.505   3.627   5.383
10436SOL    HW232208   6.376   3.657   5.288
10437SOL     OW32209   5.611   6.625   5.097
10437SOL    HW132210   5.664   6.639   5.014
10437SOL    HW232211   5.671   6.628   5.177
10438SOL     OW32212   6.808   6.073   6.855
10438SOL    HW132213   6.765   6.137   6.919
10438SOL    HW232214   6.851   5.999   6.906
10439SOL     OW32215   6.470   6.071   5.034
10439SOL    HW132216   6.436   5.999   4.973
10439SOL    HW232217   6.476   6.035   5.127
10440SOL     OW32218   6.482   2.480   0.634
10440SOL    HW132219   6.575   2.456   0.662
10440SOL    HW232220   6.475   2.580   0.625
10441SOL     OW32221   4.830   1.959   0.193
10441SOL    HW132222   4.788   1.870   0.177
10441SOL    HW232223   4.785   2.004   0.271
10442SOL     OW32224   1.968   2.007   5.427
10442SOL    HW132225   1.907   2.054   5.364
10442SOL    HW232226   1.958   2.047   5.519
10443SOL     OW32227   0.404   1.786   1.830
10443SOL    HW132228   0.470   1.833   1.771
10443SOL    HW232229   0.419   1.813   1.925
10444SOL     OW32230   3.970   5.141   4.442
10444SOL    HW132231   3.967   5.228   4.394
10444SOL    HW232232   3.915   5.073   4.392
10445SOL     OW32233   0.613   3.288   3.081
10445SOL    HW132234   0.519   3.276   3.049
10445SOL    HW232235   0.620   3.373   3.133
10446SOL     OW32236   2.403   4.463   5.583
10446SOL    HW132237   2.463   4.481   5.505
10446SOL    HW232238   2.448   4.399   5.645
10447SOL     OW32239   0.401   2.315   2.836
10447SOL    HW132240   0.458   2.383   2.881
10447SOL    HW232241   0.306   2.328   2.863
10448SOL     OW32242   2.255   6.480   2.241
10448SOL    HW132243   2.354   6.487   2.225
10448SOL    HW232244   2.209   6.557   2.198
10449SOL     OW32245   3.855   4.907   5.148
10449SOL    HW132246   3.858   4.953   5.060
10449SOL    HW232247   3.801   4.961   5.213
10450SOL     OW32248   6.966   0.471   6.096
10450SOL    HW132249   6.958   0.540   6.168
10450SOL    HW232250   6.875   0.438   6.071
10451SOL     OW32251   3.682   1.251   3.158
10451SOL    HW132252   3.607   1.197   3.196
10451SOL    HW232253   3.700   1.330   3.216
10452SOL     OW32254   6.109   3.698   4.379
10452SOL    HW132255   6.161   3.680   4.462
10452SOL    HW232256   6.158   3.660   4.300
10453SOL     OW32257   3.900   6.379   3.627
10453SOL    HW132258   3.866   6.315   3.557
10453SOL    HW232259   4.000   6.379   3.626
10454SOL     OW32260   6.720   1.546   6.248
10454SOL    HW132261   6.814   1.553   6.215
10454SOL    HW232262   6.657   1.571   6.175
10455SOL     OW32263   6.901   5.566   3.588
10455SOL    HW132264   6.821   5.591   3.534
10455SOL    HW232265   6.914   5.467   3.585
10456SOL     OW32266   1.182   5.175   6.400
10456SOL    HW132267   1.127   5.093   6.418
10456SOL    HW232268   1.216   5.172   6.306
10457SOL     OW32269   4.057   2.261   0.061
10457SOL    HW132270   3.995   2.314   0.003
10457SOL    HW232271   4.074   2.311   0.146
10458SOL     OW32272   0.385   6.142   6.980
10458SOL    HW132273   0.415   6.082   6.906
10458SOL    HW232274   0.302   6.190   6.953
10459SOL     OW32275   6.837   5.179   0.605
10459SOL    HW132276   6.909   5.110   0.611
10459SOL    HW232277   6.842   5.240   0.684
10460SOL     OW32278   0.213   0.831   1.120
10460SOL    HW132279   0.281   0.837   1.047
10460SOL    HW232280   0.125   0.801   1.081
10461SOL     OW32281   6.884   5.056   6.278
10461SOL    HW132282   6.886   5.024   6.183
10461SOL    HW232283   6.919   5.150   6.282
10462SOL     OW32284   4.581   2.177   0.229
10462SOL    HW132285   4.593   2.180   0.129
10462SOL    HW232286   4.506   2.237   0.255
10463SOL     OW32287   5.042   2.314   6.497
10463SOL    HW132288   4.946   2.341   6.499
10463SOL    HW232289   5.095   2.380   6.443
10464SOL     OW32290   6.414   4.861   2.417
10464SOL    HW132291   6.337   4.816   2.462
10464SOL    HW232292   6.383   4.943   2.370
10465SOL     OW32293   5.513   4.562   1.839
10465SOL    HW132294   5.596   4.615   1.824
10465SOL    HW232295   5.496   4.553   1.937
10466SOL     OW32296   6.363   4.490   6.250
10466SOL    HW132297   6.283   4.487   6.190
10466SOL    HW232298   6.385   4.397   6.280
10467SOL     OW32299   0.908   3.700   0.190
10467SOL    HW132300   0.944   3.610   0.165
10467SOL    HW232301   0.967   3.741   0.260
10468SOL     OW32302   1.706   4.571   3.371
10468SOL    HW132303   1.766   4.558   3.450
10468SOL    HW232304   1.753   4.628   3.303
10469SOL     OW32305   0.436   1.693   3.612
10469SOL    HW132306   0.490   1.752   3.553
10469SOL    HW232307   0.392   1.621   3.558
10470SOL     OW32308   2.105   3.079   2.788
10470SOL    HW132309   2.137   2.995   2.743
10470SOL    HW232310   2.037   3.055   2.857
10471SOL     OW32311   3.016   6.459   6.678
10471SOL    HW132312   2.986   6.478   6.771
10471SOL    HW232313   3.068   6.373   6.676
10472SOL     OW32314   3.742   4.928   6.670
10472SOL    HW132315   3.669   4.873   6.629
10472SOL    HW232316   3.704   4.983   6.744
10473SOL     OW32317   5.511   4.777   0.657
10473SOL    HW132318   5.537   4.808   0.749
10473SOL    HW232319   5.507   4.855   0.595
10474SOL     OW32320   5.696   1.189   4.659
10474SOL    HW132321   5.640   1.119   4.704
10474SOL    HW232322   5.651   1.219   4.575
10475SOL     OW32323   1.664   5.560   1.299
10475SOL    HW132324   1.681   5.625   1.225
10475SOL    HW232325   1.746   5.552   1.356
10476SOL     OW32326   4.905   5.927   0.317
10476SOL    HW132327   4.848   5.997   0.273
10476SOL    HW232328   4.884   5.924   0.414
10477SOL     OW32329   6.596   5.390   3.971
10477SOL    HW132330   6.684   5.415   3.931
10477SOL    HW232331   6.608   5.367   4.068
10478SOL     OW32332   6.293   1.543   6.736
10478SOL    HW132333   6.259   1.627   6.695
10478SOL    HW232334   6.393   1.545   6.739
10479SOL     OW32335   0.847   2.619   1.909
10479SOL    HW132336   0.883   2.528   1.886
10479SOL    HW232337   0.794   2.613   1.993
10480SOL     OW32338   2.248   0.229   2.452
10480SOL    HW132339   2.214   0.203   2.362
10480SOL    HW232340   2.348   0.234   2.449
10481SOL     OW32341   6.832   0.927   2.007
10481SOL    HW132342   6.763   0.871   2.053
10481SOL    HW232343   6.862   1.000   2.068
10482SOL     OW32344   4.928   3.423   4.390
10482SOL    HW132345   4.858   3.385   4.451
10482SOL    HW232346   4.935   3.522   4.406
10483SOL     OW32347   5.816   6.617   0.072
10483SOL    HW132348   5.790   6.544   0.008
10483SOL    HW232349   5.912   6.641   0.058
10484SOL     OW32350   6.518   1.193   2.712
10484SOL    HW132351   6.491   1.099   2.734
10484SOL    HW232352   6.618   1.200   2.711
10485SOL     OW32353   5.534   3.984   5.601
10485SOL    HW132354   5.529   4.052   5.674
10485SOL    HW232355   5.462   4.003   5.533
10486SOL     OW32356   5.110   3.083   1.880
10486SOL    HW132357   5.108   3.046   1.973
10486SOL    HW232358   5.203   3.078   1.844
10487SOL     OW32359   5.879   6.338   1.570
10487SOL    HW132360   5.942   6.339   1.492
10487SOL    HW232361   5.928   6.311   1.653
10488SOL     OW32362   2.519   2.347   0.055
10488SOL    HW132363   2.449   2.354   7.005
10488SOL    HW232364   2.475   2.334   0.144
10489SOL     OW32365   0.862   5.841   6.161
10489SOL    HW132366   0.836   5.889   6.245
10489SOL    HW232367   0.834   5.746   6.168
10490SOL     OW32368   6.873   0.712   3.838
10490SOL    HW132369   6.838   0.708   3.931
10490SOL    HW232370   6.969   0.687   3.837
10491SOL     OW32371   1.459   4.203   5.669
10491SOL    HW132372   1.426   4.283   5.719
10491SOL    HW232373   1.554   4.185   5.695
10492SOL     OW32374   4.418   3.401   5.674
10492SOL    HW132375   4.390   3.369   5.583
10492SOL    HW232376   4.492   3.467   5.665
10493SOL     OW32377   2.821   0.667   1.540
10493SOL    HW132378   2.740   0.646   1.485
10493SOL    HW232379   2.842   0.590   1.600
10494SOL     OW32380   5.775   2.223   4.565
10494SOL    HW132381   5.827   2.168   4.630
10494SOL    HW232382   5.678   2.201   4.572
10495SOL     OW32383   1.187   6.698   6.955
10495SOL    HW132384   1.275   6.693   7.002
10495SOL    HW232385   1.158   6.794   6.947
10496SOL     OW32386   0.071   0.209   5.564
10496SOL    HW132387   0.000   0.280   5.567
10496SOL    HW232388   0.042   0.136   5.501
10497SOL     OW32389   1.429   1.081   1.451
10497SOL    HW132390   1.474   1.168   1.433
10497SOL    HW232391   1.498   1.008   1.455
10498SOL     OW32392   2.830   5.422   6.410
10498SOL    HW132393   2.872   5.507   6.377
10498SOL    HW232394   2.854   5.409   6.507
10499SOL     OW32395   3.445   5.412   3.090
10499SOL    HW132396   3.438   5.370   3.000
10499SOL    HW232397   3.542   5.421   3.115
10500SOL     OW32398   1.232   1.979   6.244
10500SOL    HW132399   1.143   1.969   6.289
10500SOL    HW232400   1.290   2.041   6.297
10501SOL     OW32401   1.726   3.302   3.075
10501SOL    HW132402   1.770   3.353   3.001
10501SOL    HW232403   1.764   3.332   3.163
10502SOL     OW32404   3.110   5.875   6.446
10502SOL    HW132405   3.193   5.879   6.501
10502SOL    HW232406   3.096   5.963   6.400
10503SOL     OW32407   2.828   3.378   6.195
10503SOL    HW132408   2.897   3.450   6.208
10503SOL    HW232409   2.787   3.355   6.283
10504SOL     OW32410   3.124   2.903   0.672
10504SOL    HW132411   3.089   2.994   0.695
10504SOL    HW232412   3.162   2.904   0.579
10505SOL     OW32413   6.677   6.264   1.533
10505SOL    HW132414   6.749   6.299   1.474
10505SOL    HW232415   6.694   6.292   1.628
10506SOL     OW32416   0.583   4.239   5.358
10506SOL    HW132417   0.490   4.262   5.330
10506SOL    HW232418   0.647   4.298   5.309
10507SOL     OW32419   1.441   0.441   5.775
10507SOL    HW132420   1.422   0.369   5.843
10507SOL    HW232421   1.536   0.470   5.785
10508SOL     OW32422   5.124   4.308   2.841
10508SOL    HW132423   5.191   4.340   2.907
10508SOL    HW232424   5.032   4.316   2.880
10509SOL     OW32425   1.757   0.333   6.048
10509SOL    HW132426   1.733   0.360   6.142
10509SOL    HW232427   1.794   0.412   5.999
10510SOL     OW32428   6.894   6.105   0.225
10510SOL    HW132429   6.968   6.129   0.287
10510SOL    HW232430   6.859   6.014   0.248
10511SOL     OW32431   4.777   3.134   0.429
10511SOL    HW132432   4.770   3.142   0.528
10511SOL    HW232433   4.841   3.061   0.405
10512SOL     OW32434   3.653   6.535   6.309
10512SOL    HW132435   3.688   6.628   6.297
10512SOL    HW232436   3.554   6.535   6.296
10513SOL     OW32437   0.036   2.208   0.244
10513SOL    HW132438   0.075   2.238   0.331
10513SOL    HW232439   0.061   2.274   0.172
10514SOL     OW32440   0.121   4.915   1.311
10514SOL    HW132441   0.060   4.864   1.250
10514SOL    HW232442   0.195   4.854   1.341
10515SOL     OW32443   6.860   2.225   4.080
10515SOL    HW132444   6.830   2.316   4.109
10515SOL    HW232445   6.798   2.156   4.116
10516SOL     OW32446   4.223   0.741   6.201
10516SOL    HW132447   4.169   0.678   6.146
10516SOL    HW232448   4.320   0.724   6.187
10517SOL     OW32449   6.877   1.950   2.885
10517SOL    HW132450   6.907   1.949   2.980
10517SOL    HW232451   6.891   1.860   2.845
10518SOL     OW32452   0.849   6.617   1.297
10518SOL    HW132453   0.784   6.600   1.371
10518SOL    HW232454   0.819   6.696   1.244
10519SOL     OW32455   2.899   3.758   5.174
10519SOL    HW132456   2.894   3.665   5.139
10519SOL    HW232457   2.811   3.784   5.213
10520SOL     OW32458   4.480   2.445   6.827
10520SOL    HW132459   4.407   2.410   6.886
10520SOL    HW232460   4.446   2.453   6.733
10521SOL     OW32461   6.755   5.815   1.412
10521SOL    HW132462   6.707   5.744   1.464
10521SOL    HW232463   6.763   5.897   1.467
10522SOL     OW32464   6.306   0.741   2.247
10522SOL    HW132465   6.236   0.715   2.313
10522SOL    HW232466   6.338   0.834   2.268
10523SOL     OW32467   0.202   5.784   6.711
10523SOL    HW132468   0.260   5.712   6.674
10523SOL    HW232469   0.257   5.865   6.732
10524SOL     OW32470   3.352   0.808   4.103
10524SOL    HW132471   3.255   0.798   4.124
10524SOL    HW232472   3.401   0.839   4.184
10525SOL     OW32473   2.744   6.096   4.503
10525SOL    HW132474   2.730   6.058   4.595
10525SOL    HW232475   2.763   6.021   4.439
10526SOL     OW32476   6.354   0.046   2.231
10526SOL    HW132477   6.445   0.042   2.271
10526SOL    HW232478   6.315   0.136   2.245
10527SOL     OW32479   1.159   2.391   4.733
10527SOL    HW132480   1.079   2.448   4.715
10527SOL    HW232481   1.164   2.319   4.664
10528SOL     OW32482   0.021   4.973   4.509
10528SOL    HW132483   0.056   4.939   4.597
10528SOL    HW232484   0.096   4.977   4.443
10529SOL     OW32485   0.092   6.863   3.910
10529SOL    HW132486   0.108   6.835   3.816
10529SOL    HW232487   0.134   6.953   3.925
10530SOL     OW32488   2.238   1.492   6.238
10530SOL    HW132489   2.218   1.579   6.283
10530SOL    HW232490   2.207   1.416   6.296
10531SOL     OW32491   1.973   2.728   5.354
10531SOL    HW132492   1.925   2.645   5.325
10531SOL    HW232493   1.908   2.803   5.365
10532SOL     OW32494   3.732   2.382   5.701
10532SOL    HW132495   3.816   2.409   5.748
10532SOL    HW232496   3.654   2.429   5.742
10533SOL     OW32497   2.699   0.987   5.912
10533SOL    HW132498   2.740   0.899   5.937
10533SOL    HW232499   2.771   1.055   5.904
10534SOL     OW32500   6.604   5.421   1.266
10534SOL    HW132501   6.620   5.488   1.194
10534SOL    HW232502   6.668   5.344   1.255
10535SOL     OW32503   0.636   0.939   2.178
10535SOL    HW132504   0.571   1.003   2.217
10535SOL    HW232505   0.720   0.940   2.233
10536SOL     OW32506   4.525   0.197   3.196
10536SOL    HW132507   4.429   0.224   3.208
10536SOL    HW232508   4.582   0.278   3.189
10537SOL     OW32509   0.936   4.616   1.617
10537SOL    HW132510   1.023   4.652   1.652
10537SOL    HW232511   0.861   4.669   1.655
10538SOL     OW32512   4.580   3.914   0.484
10538SOL    HW132513   4.624   3.825   0.477
10538SOL    HW232514   4.483   3.906   0.459
10539SOL     OW32515   0.477   3.477   6.113
10539SOL    HW132516   0.493   3.574   6.094
10539SOL    HW232517   0.400   3.468   6.177
10540SOL     OW32518   2.615   0.439   6.752
10540SOL    HW132519   2.521   0.405   6.755
10540SOL    HW232520   2.637   0.485   6.838
10541SOL     OW32521   3.643   2.740   0.212
10541SOL    HW132522   3.544   2.728   0.212
10541SOL    HW232523   3.672   2.776   0.123
10542SOL     OW32524   0.525   2.804   0.426
10542SOL    HW132525   0.594   2.861   0.381
10542SOL    HW232526   0.471   2.861   0.489
10543SOL     OW32527   1.604   1.052   5.733
10543SOL    HW132528   1.535   1.016   5.796
10543SOL    HW232529   1.675   1.099   5.785
10544SOL     OW32530   1.081   2.404   2.042
10544SOL    HW132531   1.039   2.427   1.954
10544SOL    HW232532   1.054   2.312   2.069
10545SOL     OW32533   6.269   0.290   2.313
10545SOL    HW132534   6.309   0.321   2.399
10545SOL    HW232535   6.273   0.364   2.246
10546SOL     OW32536   3.049   0.551   3.876
10546SOL    HW132537   3.048   0.643   3.838
10546SOL    HW232538   3.141   0.527   3.905
10547SOL     OW32539   4.424   1.530   1.152
10547SOL    HW132540   4.467   1.585   1.081
10547SOL    HW232541   4.348   1.581   1.192
10548SOL     OW32542   5.405   3.942   5.362
10548SOL    HW132543   5.491   3.924   5.314
10548SOL    HW232544   5.336   3.877   5.332
10549SOL     OW32545   1.237   1.009   1.852
10549SOL    HW132546   1.278   0.936   1.797
10549SOL    HW232547   1.267   1.098   1.817
10550SOL     OW32548   4.766   7.020   3.954
10550SOL    HW132549   4.841   0.063   3.936
10550SOL    HW232550   4.759   7.003   4.052
10551SOL     OW32551   1.185   2.545   5.959
10551SOL    HW132552   1.238   2.495   6.027
10551SOL    HW232553   1.246   2.607   5.909
10552SOL     OW32554   3.309   2.568   5.365
10552SOL    HW132555   3.271   2.630   5.434
10552SOL    HW232556   3.269   2.477   5.377
10553SOL     OW32557   1.856   5.187   7.008
10553SOL    HW132558   1.801   5.237   6.942
10553SOL    HW232559   1.931   5.140   6.962
10554SOL     OW32560   6.679   4.723   6.624
10554SOL    HW132561   6.673   4.780   6.542
10554SOL    HW232562   6.591   4.724   6.672
10555SOL     OW32563   3.124   1.873   1.271
10555SOL    HW132564   3.216   1.838   1.253
10555SOL    HW232565   3.074   1.807   1.327
10556SOL     OW32566   2.170   3.148   4.734
10556SOL    HW132567   2.173   3.234   4.786
10556SOL    HW232568   2.201   3.073   4.791
10557SOL     OW32569   6.934   2.519   3.900
10557SOL    HW132570   6.887   2.456   3.839
10557SOL    HW232571   6.873   2.594   3.926
10558SOL     OW32572   5.046   6.142   5.379
10558SOL    HW132573   5.142   6.118   5.394
10558SOL    HW232574   5.033   6.168   5.283
10559SOL     OW32575   4.506   2.005   0.466
10559SOL    HW132576   4.407   1.991   0.465
10559SOL    HW232577   4.536   2.037   0.376
10560SOL     OW32578   1.038   3.004   4.188
10560SOL    HW132579   1.021   2.947   4.108
10560SOL    HW232580   1.124   2.977   4.231
10561SOL     OW32581   2.286   4.196   0.075
10561SOL    HW132582   2.238   4.209   7.009
10561SOL    HW232583   2.223   4.214   0.150
10562SOL     OW32584   3.622   1.105   0.185
10562SOL    HW132585   3.683   1.096   0.263
10562SOL    HW232586   3.565   1.022   0.178
10563SOL     OW32587   1.584   1.692   5.203
10563SOL    HW132588   1.636   1.710   5.120
10563SOL    HW232589   1.618   1.608   5.245
10564SOL     OW32590   5.952   1.975   1.827
10564SOL    HW132591   6.021   2.020   1.884
10564SOL    HW232592   5.882   2.042   1.801
10565SOL     OW32593   5.417   1.861   4.867
10565SOL    HW132594   5.516   1.864   4.886
10565SOL    HW232595   5.367   1.870   4.953
10566SOL     OW32596   3.862   4.140   6.324
10566SOL    HW132597   3.896   4.078   6.253
10566SOL    HW232598   3.763   4.152   6.313
10567SOL     OW32599   1.800   4.120   3.831
10567SOL    HW132600   1.836   4.131   3.738
10567SOL    HW232601   1.772   4.025   3.845
10568SOL     OW32602   4.791   1.207   3.642
10568SOL    HW132603   4.715   1.229   3.581
10568SOL    HW232604   4.830   1.119   3.616
10569SOL     OW32605   5.880   2.900   4.285
10569SOL    HW132606   5.789   2.893   4.325
10569SOL    HW232607   5.939   2.955   4.344
10570SOL     OW32608   1.514   4.999   2.281
10570SOL    HW132609   1.610   4.972   2.278
10570SOL    HW232610   1.499   5.077   2.220
10571SOL     OW32611   6.549   6.832   3.747
10571SOL    HW132612   6.635   6.843   3.797
10571SOL    HW232613   6.507   6.922   3.733
10572SOL     OW32614   6.335   3.761   2.095
10572SOL    HW132615   6.302   3.719   2.179
10572SOL    HW232616   6.330   3.861   2.103
10573SOL     OW32617   5.936   5.489   5.199
10573SOL    HW132618   6.015   5.550   5.201
10573SOL    HW232619   5.965   5.396   5.175
10574SOL     OW32620   0.474   1.740   3.120
10574SOL    HW132621   0.480   1.839   3.107
10574SOL    HW232622   0.561   1.705   3.154
10575SOL     OW32623   1.325   0.021   5.422
10575SOL    HW132624   1.381   7.008   5.498
10575SOL    HW232625   1.234   7.003   5.428
10576SOL     OW32626   1.651   5.288   3.905
10576SOL    HW132627   1.602   5.282   3.818
10576SOL    HW232628   1.648   5.200   3.951
10577SOL     OW32629   1.634   2.567   5.890
10577SOL    HW132630   1.722   2.543   5.849
10577SOL    HW232631   1.611   2.661   5.864
10578SOL     OW32632   6.426   0.686   5.759
10578SOL    HW132633   6.434   0.665   5.662
10578SOL    HW232634   6.516   0.683   5.802
10579SOL     OW32635   4.342   1.613   0.354
10579SOL    HW132636   4.441   1.613   0.366
10579SOL    HW232637   4.311   1.522   0.327
10580SOL     OW32638   6.523   6.082   6.777
10580SOL    HW132639   6.569   6.161   6.818
10580SOL    HW232640   6.589   6.008   6.765
10581SOL     OW32641   5.350   0.987   3.834
10581SOL    HW132642   5.333   0.937   3.749
10581SOL    HW232643   5.272   1.047   3.853
10582SOL     OW32644   3.579   4.760   6.526
10582SOL    HW132645   3.597   4.754   6.428
10582SOL    HW232646   3.497   4.816   6.541
10583SOL     OW32647   4.246   1.352   0.308
10583SOL    HW132648   4.238   1.266   0.259
10583SOL    HW232649   4.166   1.410   0.289
10584SOL     OW32650   5.723   0.268   1.821
10584SOL    HW132651   5.723   0.366   1.800
10584SOL    HW232652   5.814   0.241   1.854
10585SOL     OW32653   1.459   3.275   6.735
10585SOL    HW132654   1.528   3.336   6.695
10585SOL    HW232655   1.475   3.182   6.701
10586SOL     OW32656   3.597   0.372   6.584
10586SOL    HW132657   3.518   0.431   6.601
10586SOL    HW232658   3.580   0.317   6.503
10587SOL     OW32659   5.845   4.286   1.230
10587SOL    HW132660   5.889   4.312   1.144
10587SOL    HW232661   5.803   4.196   1.220
10588SOL     OW32662   6.925   5.394   2.977
10588SOL    HW132663   6.861   5.332   3.023
10588SOL    HW232664   6.948   5.470   3.038
10589SOL     OW32665   6.033   1.961   4.038
10589SOL    HW132666   6.111   1.973   4.099
10589SOL    HW232667   5.949   1.953   4.091
10590SOL     OW32668   1.229   0.697   3.846
10590SOL    HW132669   1.223   0.600   3.871
10590SOL    HW232670   1.321   0.717   3.814
10591SOL     OW32671   1.212   2.890   0.563
10591SOL    HW132672   1.112   2.891   0.567
10591SOL    HW232673   1.241   2.877   0.468
10592SOL     OW32674   6.563   1.531   6.748
10592SOL    HW132675   6.581   1.495   6.839
10592SOL    HW232676   6.647   1.571   6.711
10593SOL     OW32677   1.969   4.630   1.115
10593SOL    HW132678   1.884   4.638   1.166
10593SOL    HW232679   1.966   4.690   1.035
10594SOL     OW32680   0.206   1.911   4.253
10594SOL    HW132681   0.176   2.003   4.225
10594SOL    HW232682   0.206   1.905   4.352
10595SOL     OW32683   3.642   6.125   6.485
10595SOL    HW132684   3.740   6.143   6.496
10595SOL    HW232685   3.627   6.076   6.400
10596SOL     OW32686   4.108   0.712   2.121
10596SOL    HW132687   4.198   0.708   2.077
10596SOL    HW232688   4.109   0.657   2.204
10597SOL     OW32689   1.982   0.357   5.085
10597SOL    HW132690   1.988   0.362   5.185
10597SOL    HW232691   1.914   0.423   5.053
10598SOL     OW32692   1.669   2.466   6.927
10598SOL    HW132693   1.665   2.381   6.874
10598SOL    HW232694   1.719   2.449   7.012
10599SOL     OW32695   5.530   1.383   0.034
10599SOL    HW132696   5.501   1.372   0.129
10599SOL    HW232697   5.630   1.378   0.028
10600SOL     OW32698   2.222   3.123   6.163
10600SOL    HW132699   2.142   3.170   6.200
10600SOL    HW232700   2.273   3.187   6.105
10601SOL     OW32701   3.336   6.251   6.332
10601SOL    HW132702   3.362   6.168   6.382
10601SOL    HW232703   3.357   6.239   6.235
10602SOL     OW32704   4.871   1.077   2.195
10602SOL    HW132705   4.807   1.152   2.178
10602SOL    HW232706   4.833   1.016   2.264
10603SOL     OW32707   1.581   5.483   4.461
10603SOL    HW132708   1.671   5.518   4.487
10603SOL    HW232709   1.556   5.407   4.522
10604SOL     OW32710   6.934   4.524   5.006
10604SOL    HW132711   6.990   4.607   5.001
10604SOL    HW232712   6.933   4.489   5.099
10605SOL     OW32713   1.563   4.841   6.620
10605SOL    HW132714   1.616   4.756   6.620
10605SOL    HW232715   1.612   4.910   6.567
10606SOL     OW32716   0.976   0.284   1.825
10606SOL    HW132717   0.957   0.195   1.784
10606SOL    HW232718   0.903   0.348   1.800
10607SOL     OW32719   5.612   4.895   6.808
10607SOL    HW132720   5.602   4.848   6.721
10607SOL    HW232721   5.528   4.885   6.862
10608SOL     OW32722   6.430   1.439   3.639
10608SOL    HW132723   6.376   1.384   3.701
10608SOL    HW232724   6.423   1.536   3.664
10609SOL     OW32725   3.914   6.472   1.192
10609SOL    HW132726   3.906   6.465   1.093
10609SOL    HW232727   4.010   6.466   1.218
10610SOL     OW32728   1.617   2.851   5.873
10610SOL    HW132729   1.566   2.936   5.859
10610SOL    HW232730   1.703   2.855   5.821
10611SOL     OW32731   5.590   2.790   5.908
10611SOL    HW132732   5.662   2.809   5.974
10611SOL    HW232733   5.528   2.868   5.901
10612SOL     OW32734   1.875   0.170   0.394
10612SOL    HW132735   1.924   0.084   0.381
10612SOL    HW232736   1.838   0.201   0.307
10613SOL     OW32737   0.256   6.274   5.718
10613SOL    HW132738   0.347   6.283   5.678
10613SOL    HW232739   0.238   6.178   5.739
10614SOL     OW32740   6.799   0.984   4.137
10614SOL    HW132741   6.820   0.992   4.234
10614SOL    HW232742   6.861   1.043   4.084
10615SOL     OW32743   5.368   5.499   5.133
10615SOL    HW132744   5.451   5.495   5.189
10615SOL    HW232745   5.321   5.411   5.135
10616SOL     OW32746   2.725   5.457   0.439
10616SOL    HW132747   2.648   5.402   0.406
10616SOL    HW232748   2.777   5.491   0.360
10617SOL     OW32749   1.255   2.273   6.998
10617SOL    HW132750   1.207   2.193   0.011
10617SOL    HW232751   1.191   2.336   6.955
10618SOL     OW32752   5.986   3.530   0.620
10618SOL    HW132753   6.056   3.459   0.635
10618SOL    HW232754   5.997   3.602   0.688
10619SOL     OW32755   1.250   4.104   3.699
10619SOL    HW132756   1.229   4.074   3.793
10619SOL    HW232757   1.243   4.026   3.637
10620SOL     OW32758   1.653   5.886   4.499
10620SOL    HW132759   1.611   5.967   4.540
10620SOL    HW232760   1.691   5.909   4.410
10621SOL     OW32761   2.532   5.792   1.098
10621SOL    HW132762   2.597   5.729   1.142
10621SOL    HW232763   2.551   5.885   1.128
10622SOL     OW32764   3.631   0.771   1.049
10622SOL    HW132765   3.690   0.850   1.029
10622SOL    HW232766   3.555   0.800   1.106
10623SOL     OW32767   6.334   1.715   3.754
10623SOL    HW132768   6.275   1.700   3.833
10623SOL    HW232769   6.282   1.764   3.684
10624SOL     OW32770   2.062   0.528   4.140
10624SOL    HW132771   1.995   0.463   4.175
10624SOL    HW232772   2.047   0.543   4.042
10625SOL     OW32773   0.130   3.449   0.022
10625SOL    HW132774   0.145   3.470   6.946
10625SOL    HW232775   0.158   3.527   0.078
10626SOL     OW32776   0.552   2.445   1.347
10626SOL    HW132777   0.593   2.409   1.431
10626SOL    HW232778   0.533   2.370   1.284
10627SOL     OW32779   6.186   6.197   3.584
10627SOL    HW132780   6.151   6.214   3.675
10627SOL    HW232781   6.286   6.189   3.588
10628SOL     OW32782   5.838   6.152   5.886
10628SOL    HW132783   5.823   6.069   5.832
10628SOL    HW232784   5.818   6.133   5.983
10629SOL     OW32785   2.698   5.498   6.046
10629SOL    HW132786   2.658   5.469   5.959
10629SOL    HW232787   2.658   5.585   6.074
10630SOL     OW32788   6.943   1.494   3.282
10630SOL    HW132789   6.973   1.449   3.367
10630SOL    HW232790   6.988   1.584   3.275
10631SOL     OW32791   0.800   6.612   4.107
10631SOL    HW132792   0.848   6.591   4.022
10631SOL    HW232793   0.733   6.541   4.126
10632SOL     OW32794   0.367   2.361   5.301
10632SOL    HW132795   0.420   2.321   5.375
10632SOL    HW232796   0.317   2.441   5.335
10633SOL     OW32797   1.164   5.069   1.419
10633SOL    HW132798   1.068   5.042   1.429
10633SOL    HW232799   1.169   5.167   1.401
10634SOL     OW32800   2.934   6.488   1.762
10634SOL    HW132801   3.030   6.484   1.733
10634SOL    HW232802   2.877   6.512   1.683
10635SOL     OW32803   2.773   1.516   1.330
10635SOL    HW132804   2.755   1.469   1.416
10635SOL    HW232805   2.783   1.450   1.256
10636SOL     OW32806   0.581   2.670   1.643
10636SOL    HW132807   0.642   2.721   1.703
10636SOL    HW232808   0.555   2.728   1.566
10637SOL     OW32809   3.535   4.304   5.260
10637SOL    HW132810   3.588   4.366   5.317
10637SOL    HW232811   3.449   4.281   5.308
10638SOL     OW32812   0.203   6.999   5.275
10638SOL    HW132813   0.230   6.994   5.371
10638SOL    HW232814   0.111   6.961   5.265
10639SOL     OW32815   2.451   0.537   4.301
10639SOL    HW132816   2.457   0.477   4.221
10639SOL    HW232817   2.539   0.582   4.316
10640SOL     OW32818   3.957   0.218   6.981
10640SOL    HW132819   3.952   0.138   6.921
10640SOL    HW232820   4.016   0.287   6.939
10641SOL     OW32821   5.490   1.591   6.850
10641SOL    HW132822   5.428   1.572   6.773
10641SOL    HW232823   5.501   1.509   6.905
10642SOL     OW32824   6.970   2.849   1.372
10642SOL    HW132825   6.995   2.880   1.463
10642SOL    HW232826   6.955   2.750   1.373
10643SOL     OW32827   3.143   3.046   5.954
10643SOL    HW132828   3.049   3.067   5.981
10643SOL    HW232829   3.145   3.021   5.857
10644SOL     OW32830   4.518   1.410   4.792
10644SOL    HW132831   4.436   1.416   4.849
10644SOL    HW232832   4.514   1.480   4.720
10645SOL     OW32833   2.916   1.207   5.029
10645SOL    HW132834   2.873   1.188   4.941
10645SOL    HW232835   2.873   1.150   5.100
10646SOL     OW32836   0.692   3.821   6.752
10646SOL    HW132837   0.753   3.887   6.709
10646SOL    HW232838   0.730   3.794   6.841
10647SOL     OW32839   0.320   5.123   1.177
10647SOL    HW132840   0.307   5.073   1.091
10647SOL    HW232841   0.265   5.081   1.249
10648SOL     OW32842   4.556   3.221   6.539
10648SOL    HW132843   4.644   3.254   6.574
10648SOL    HW232844   4.482   3.261   6.594
10649SOL     OW32845   0.394   4.882   5.861
10649SOL    HW132846   0.360   4.875   5.955
10649SOL    HW232847   0.485   4.841   5.855
10650SOL     OW32848   3.234   6.626   3.632
10650SOL    HW132849   3.273   6.614   3.723
10650SOL    HW232850   3.268   6.712   3.593
10651SOL     OW32851   4.186   6.583   6.264
10651SOL    HW132852   4.223   6.591   6.357
10651SOL    HW232853   4.173   6.674   6.225
10652SOL     OW32854   3.334   0.997   6.574
10652SOL    HW132855   3.268   0.999   6.499
10652SOL    HW232856   3.415   0.946   6.546
10653SOL     OW32857   5.254   3.542   4.081
10653SOL    HW132858   5.225   3.461   4.030
10653SOL    HW232859   5.317   3.514   4.154
10654SOL     OW32860   3.980   0.405   0.453
10654SOL    HW132861   3.933   0.379   0.538
10654SOL    HW232862   4.026   0.493   0.466
10655SOL     OW32863   3.006   5.848   1.750
10655SOL    HW132864   3.032   5.898   1.832
10655SOL    HW232865   3.042   5.755   1.755
10656SOL     OW32866   6.985   2.936   6.705
10656SOL    HW132867   0.050   2.931   6.655
10656SOL    HW232868   6.978   2.859   6.768
10657SOL     OW32869   6.128   0.851   1.489
10657SOL    HW132870   6.089   0.809   1.407
10657SOL    HW232871   6.128   0.950   1.479
10658SOL     OW32872   0.116   5.524   5.158
10658SOL    HW132873   0.084   5.432   5.179
10658SOL    HW232874   0.204   5.519   5.111
10659SOL     OW32875   5.661   1.020   0.553
10659SOL    HW132876   5.563   1.003   0.564
10659SOL    HW232877   5.695   0.972   0.472
10660SOL     OW32878   4.832   4.954   5.714
10660SOL    HW132879   4.767   4.990   5.781
10660SOL    HW232880   4.920   4.999   5.726
10661SOL     OW32881   0.263   0.106   2.602
10661SOL    HW132882   0.271   0.200   2.634
10661SOL    HW232883   0.346   0.079   2.554
10662SOL     OW32884   5.839   1.471   0.658
10662SOL    HW132885   5.883   1.531   0.591
10662SOL    HW232886   5.881   1.380   0.654
10663SOL     OW32887   6.916   0.531   0.462
10663SOL    HW132888   6.887   0.473   0.539
10663SOL    HW232889   6.894   0.626   0.482
10664SOL     OW32890   2.001   5.049   6.828
10664SOL    HW132891   2.010   4.960   6.783
10664SOL    HW232892   2.011   5.122   6.760
10665SOL     OW32893   6.503   1.110   0.503
10665SOL    HW132894   6.450   1.032   0.536
10665SOL    HW232895   6.440   1.185   0.480
10666SOL     OW32896   1.439   6.739   0.009
10666SOL    HW132897   1.486   6.707   0.092
10666SOL    HW232898   1.443   6.838   0.004
10667SOL     OW32899   3.599   1.714   5.058
10667SOL    HW132900   3.660   1.793   5.052
10667SOL    HW232901   3.586   1.689   5.154
10668SOL     OW32902   2.059   0.918   5.926
10668SOL    HW132903   2.044   1.017   5.920
10668SOL    HW232904   2.083   0.882   5.836
10669SOL     OW32905   0.800   6.664   6.474
10669SOL    HW132906   0.785   6.754   6.433
10669SOL    HW232907   0.762   6.663   6.566
10670SOL     OW32908   6.693   4.649   5.658
10670SOL    HW132909   6.675   4.715   5.585
10670SOL    HW232910   6.713   4.559   5.618
10671SOL     OW32911   1.787   1.584   3.451
10671SOL    HW132912   1.711   1.648   3.466
10671SOL    HW232913   1.772   1.534   3.366
10672SOL     OW32914   6.687   3.271   0.454
10672SOL    HW132915   6.669   3.365   0.482
10672SOL    HW232916   6.615   3.240   0.392
10673SOL     OW32917   2.884   3.491   5.101
10673SOL    HW132918   2.843   3.455   5.185
10673SOL    HW232919   2.891   3.418   5.033
10674SOL     OW32920   3.636   2.091   2.280
10674SOL    HW132921   3.577   2.033   2.223
10674SOL    HW232922   3.639   2.183   2.241
10675SOL     OW32923   0.718   0.542   5.979
10675SOL    HW132924   0.745   0.579   6.067
10675SOL    HW232925   0.630   0.495   5.988
10676SOL     OW32926   6.783   0.588   6.618
10676SOL    HW132927   6.777   0.490   6.640
10676SOL    HW232928   6.691   0.622   6.595
10677SOL     OW32929   0.049   0.764   0.262
10677SOL    HW132930   0.116   0.803   0.325
10677SOL    HW232931   0.058   0.665   0.261
10678SOL     OW32932   2.672   6.488   3.311
10678SOL    HW132933   2.695   6.537   3.226
10678SOL    HW232934   2.682   6.549   3.389
10679SOL     OW32935   5.796   4.905   4.376
10679SOL    HW132936   5.737   4.892   4.296
10679SOL    HW232937   5.752   4.967   4.440
10680SOL     OW32938   1.618   2.077   3.558
10680SOL    HW132939   1.553   2.136   3.605
10680SOL    HW232940   1.648   2.005   3.621
10681SOL     OW32941   0.284   1.013   5.720
10681SOL    HW132942   0.376   0.977   5.737
10681SOL    HW232943   0.284   1.067   5.636
10682SOL     OW32944   6.602   1.787   3.095
10682SOL    HW132945   6.552   1.871   3.073
10682SOL    HW232946   6.578   1.716   3.029
10683SOL     OW32947   1.871   1.657   4.701
10683SOL    HW132948   1.872   1.635   4.603
10683SOL    HW232949   1.964   1.661   4.735
10684SOL     OW32950   5.481   5.918   0.584
10684SOL    HW132951   5.438   5.985   0.644
10684SOL    HW232952   5.540   5.857   0.637
10685SOL     OW32953   0.178   2.589   2.172
10685SOL    HW132954   0.149   2.538   2.253
10685SOL    HW232955   0.162   2.687   2.187
10686SOL     OW32956   3.583   4.691   0.476
10686SOL    HW132957   3.513   4.701   0.406
10686SOL    HW232958   3.603   4.779   0.517
10687SOL     OW32959   0.735   5.289   1.953
10687SOL    HW132960   0.808   5.348   1.990
10687SOL    HW232961   0.741   5.199   1.996
10688SOL     OW32962   6.610   5.512   2.177
10688SOL    HW132963   6.618   5.412   2.173
10688SOL    HW232964   6.675   5.548   2.244
10689SOL     OW32965   0.407   1.052   1.901
10689SOL    HW132966   0.348   1.067   1.822
10689SOL    HW232967   0.368   1.096   1.981
10690SOL     OW32968   4.639   5.612   1.720
10690SOL    HW132969   4.737   5.631   1.727
10690SOL    HW232970   4.615   5.537   1.782
10691SOL     OW32971   6.697   1.294   1.497
10691SOL    HW132972   6.792   1.305   1.527
10691SOL    HW232973   6.646   1.244   1.567
10692SOL     OW32974   4.754   6.138   4.012
10692SOL    HW132975   4.657   6.163   4.011
10692SOL    HW232976   4.790   6.151   4.105
10693SOL     OW32977   6.113   2.113   2.012
10693SOL    HW132978   6.088   2.084   2.104
10693SOL    HW232979   6.211   2.132   2.008
10694SOL     OW32980   3.723   6.250   0.649
10694SOL    HW132981   3.761   6.214   0.734
10694SOL    HW232982   3.638   6.300   0.668
10695SOL     OW32983   6.010   3.279   4.539
10695SOL    HW132984   6.081   3.342   4.507
10695SOL    HW232985   6.046   3.222   4.612
10696SOL     OW32986   6.430   6.713   0.996
10696SOL    HW132987   6.356   6.717   1.063
10696SOL    HW232988   6.402   6.658   0.918
10697SOL     OW32989   2.542   6.119   3.482
10697SOL    HW132990   2.545   6.052   3.408
10697SOL    HW232991   2.599   6.086   3.558
10698SOL     OW32992   2.888   0.638   3.217
10698SOL    HW132993   2.833   0.721   3.222
10698SOL    HW232994   2.985   0.662   3.221
10699SOL     OW32995   1.751   2.181   2.377
10699SOL    HW132996   1.671   2.135   2.414
10699SOL    HW232997   1.726   2.274   2.349
10700SOL     OW32998   6.554   1.010   1.521
10700SOL    HW132999   6.493   1.084   1.548
10700SOL    HW233000   6.502   0.926   1.510
10701SOL     OW33001   3.439   6.362   0.735
10701SOL    HW133002   3.392   6.427   0.674
10701SOL    HW233003   3.470   6.410   0.817
10702SOL     OW33004   6.239   2.964   1.360
10702SOL    HW133005   6.309   2.981   1.290
10702SOL    HW233006   6.222   3.049   1.410
10703SOL     OW33007   4.090   3.253   3.782
10703SOL    HW133008   4.177   3.274   3.737
10703SOL    HW233009   4.029   3.333   3.775
10704SOL     OW33010   5.603   6.486   2.040
10704SOL    HW133011   5.629   6.407   1.984
10704SOL    HW233012   5.637   6.570   1.998
10705SOL     OW33013   0.529   2.264   6.488
10705SOL    HW133014   0.544   2.333   6.559
10705SOL    HW233015   0.446   2.212   6.509
10706SOL     OW33016   3.714   0.935   2.216
10706SOL    HW133017   3.745   0.910   2.308
10706SOL    HW233018   3.677   1.028   2.218
10707SOL     OW33019   6.401   0.075   5.789
10707SOL    HW133020   6.473   0.138   5.819
10707SOL    HW233021   6.427   0.035   5.701
10708SOL     OW33022   3.975   0.991   1.373
10708SOL    HW133023   3.887   0.956   1.407
10708SOL    HW233024   3.960   1.078   1.326
10709SOL     OW33025   0.653   6.509   5.980
10709SOL    HW133026   0.584   6.579   5.961
10709SOL    HW233027   0.730   6.550   6.029
10710SOL     OW33028   6.409   5.961   3.110
10710SOL    HW133029   6.349   5.888   3.142
10710SOL    HW233030   6.494   5.922   3.077
10711SOL     OW33031   1.871   5.818   5.357
10711SOL    HW133032   1.878   5.916   5.375
10711SOL    HW233033   1.959   5.784   5.325
10712SOL     OW33034   4.463   1.085   5.287
10712SOL    HW133035   4.504   1.156   5.344
10712SOL    HW233036   4.363   1.092   5.291
10713SOL     OW33037   1.435   6.156   1.344
10713SOL    HW133038   1.363   6.158   1.274
10713SOL    HW233039   1.523   6.137   1.300
10714SOL     OW33040   7.016   5.291   5.201
10714SOL    HW133041   6.996   5.235   5.120
10714SOL    HW233042   6.931   5.308   5.251
10715SOL     OW33043   6.016   1.767   3.799
10715SOL    HW133044   6.085   1.823   3.753
10715SOL    HW233045   6.002   1.801   3.892
10716SOL     OW33046   6.463   0.552   3.014
10716SOL    HW133047   6.480   0.563   3.111
10716SOL    HW233048   6.526   0.484   2.976
10717SOL     OW33049   6.510   6.494   1.747
10717SOL    HW133050   6.422   6.489   1.794
10717SOL    HW233051   6.565   6.413   1.767
10718SOL     OW33052   0.733   4.180   6.130
10718SOL    HW133053   0.660   4.201   6.196
10718SOL    HW233054   0.773   4.265   6.097
10719SOL     OW33055   4.219   1.109   2.715
10719SOL    HW133056   4.196   1.167   2.637
10719SOL    HW233057   4.166   1.025   2.711
10720SOL     OW33058   0.583   3.314   0.079
10720SOL    HW133059   0.494   3.270   0.066
10720SOL    HW233060   0.591   3.346   0.173
10721SOL     OW33061   4.819   2.823   3.917
10721SOL    HW133062   4.866   2.740   3.887
10721SOL    HW233063   4.724   2.803   3.937
10722SOL     OW33064   0.186   4.263   0.589
10722SOL    HW133065   0.187   4.323   0.670
10722SOL    HW233066   0.234   4.308   0.514
10723SOL     OW33067   6.324   4.501   0.109
10723SOL    HW133068   6.409   4.552   0.110
10723SOL    HW233069   6.249   4.560   0.139
10724SOL     OW33070   4.002   6.940   5.203
10724SOL    HW133071   4.101   6.949   5.199
10724SOL    HW233072   3.977   6.869   5.268
10725SOL     OW33073   6.689   7.010   4.798
10725SOL    HW133074   6.653   6.946   4.730
10725SOL    HW233075   6.612   0.031   4.847
10726SOL     OW33076   5.294   1.074   5.252
10726SOL    HW133077   5.282   1.168   5.282
10726SOL    HW233078   5.382   1.065   5.206
10727SOL     OW33079   1.983   6.106   6.749
10727SOL    HW133080   2.058   6.168   6.768
10727SOL    HW233081   2.019   6.018   6.716
10728SOL     OW33082   5.954   5.964   3.344
10728SOL    HW133083   5.962   5.995   3.438
10728SOL    HW233084   5.914   5.872   3.342
10729SOL     OW33085   5.590   3.372   4.271
10729SOL    HW133086   5.611   3.325   4.356
10729SOL    HW233087   5.527   3.316   4.217
10730SOL     OW33088   1.768   5.426   3.105
10730SOL    HW133089   1.852   5.476   3.124
10730SOL    HW233090   1.776   5.332   3.138
10731SOL     OW33091   4.699   6.540   0.012
10731SOL    HW133092   4.781   6.597   0.005
10731SOL    HW233093   4.643   6.572   0.089
10732SOL     OW33094   6.341   6.182   2.952
10732SOL    HW133095   6.386   6.117   3.014
10732SOL    HW233096   6.248   6.198   2.984
10733SOL     OW33097   0.350   1.182   6.419
10733SOL    HW133098   0.298   1.228   6.490
10733SOL    HW233099   0.319   1.213   6.329
10734SOL     OW33100   1.672   0.217   4.622
10734SOL    HW133101   1.696   0.196   4.527
10734SOL    HW233102   1.717   0.153   4.683
10735SOL     OW33103   6.926   6.645   2.179
10735SOL    HW133104   7.018   6.608   2.189
10735SOL    HW233105   6.867   6.578   2.134
10736SOL     OW33106   5.544   6.439   3.670
10736SOL    HW133107   5.620   6.419   3.609
10736SOL    HW233108   5.539   6.538   3.685
10737SOL     OW33109   6.406   1.026   2.248
10737SOL    HW133110   6.421   1.089   2.325
10737SOL    HW233111   6.329   1.057   2.193
10738SOL     OW33112   3.547   0.390   1.201
10738SOL    HW133113   3.558   0.311   1.262
10738SOL    HW233114   3.522   0.471   1.255
10739SOL     OW33115   5.638   2.778   4.011
10739SOL    HW133116   5.563   2.785   4.077
10739SOL    HW233117   5.694   2.861   4.015
10740SOL     OW33118   2.864   0.321   6.044
10740SOL    HW133119   2.942   0.358   6.093
10740SOL    HW233120   2.805   0.270   6.107
10741SOL     OW33121   1.954   1.931   3.727
10741SOL    HW133122   1.949   1.832   3.736
10741SOL    HW233123   2.008   1.969   3.802
10742SOL     OW33124   6.313   6.584   2.914
10742SOL    HW133125   6.382   6.630   2.858
10742SOL    HW233126   6.356   6.550   2.998
10743SOL     OW33127   2.956   1.975   5.402
10743SOL    HW133128   2.988   2.069   5.391
10743SOL    HW233129   2.939   1.936   5.312
10744SOL     OW33130   1.733   1.355   0.525
10744SOL    HW133131   1.734   1.455   0.528
10744SOL    HW233132   1.796   1.319   0.594
10745SOL     OW33133   1.553   4.335   2.076
10745SOL    HW133134   1.559   4.238   2.098
10745SOL    HW233135   1.644   4.375   2.073
10746SOL     OW33136   1.865   6.377   6.737
10746SOL    HW133137   1.861   6.409   6.831
10746SOL    HW233138   1.862   6.277   6.735
10747SOL     OW33139   6.378   1.369   4.662
10747SOL    HW133140   6.359   1.338   4.755
10747SOL    HW233141   6.391   1.469   4.662
10748SOL     OW33142   3.203   6.342   1.415
10748SOL    HW133143   3.200   6.407   1.339
10748SOL    HW233144   3.153   6.259   1.390
10749SOL     OW33145   5.890   4.430   1.575
10749SOL    HW133146   5.850   4.339   1.564
10749SOL    HW233147   5.984   4.421   1.607
10750SOL     OW33148   4.045   2.146   4.284
10750SOL    HW133149   4.115   2.147   4.355
10750SOL    HW233150   4.086   2.168   4.196
10751SOL     OW33151   0.462   6.129   4.345
10751SOL    HW133152   0.527   6.110   4.418
10751SOL    HW233153   0.395   6.197   4.377
10752SOL     OW33154   6.468   6.513   0.351
10752SOL    HW133155   6.527   6.455   0.407
10752SOL    HW233156   6.392   6.546   0.406
10753SOL     OW33157   5.288   0.245   4.103
10753SOL    HW133158   5.221   0.267   4.173
10753SOL    HW233159   5.303   0.325   4.044
10754SOL     OW33160   0.584   4.128   2.528
10754SOL    HW133161   0.601   4.030   2.531
10754SOL    HW233162   0.661   4.177   2.570
10755SOL     OW33163   0.244   2.584   1.004
10755SOL    HW133164   0.168   2.640   0.971
10755SOL    HW233165   0.278   2.527   0.930
10756SOL     OW33166   1.136   0.703   0.473
10756SOL    HW133167   1.124   0.629   0.406
10756SOL    HW233168   1.055   0.708   0.531
10757SOL     OW33169   0.523   3.669   1.707
10757SOL    HW133170   0.449   3.736   1.716
10757SOL    HW233171   0.581   3.672   1.788
10758SOL     OW33172   0.721   0.367   0.450
10758SOL    HW133173   0.731   0.410   0.361
10758SOL    HW233174   0.641   0.307   0.449
10759SOL     OW33175   2.821   2.645   5.851
10759SOL    HW133176   2.867   2.560   5.877
10759SOL    HW233177   2.888   2.718   5.840
10760SOL     OW33178   1.007   4.757   6.642
10760SOL    HW133179   1.016   4.785   6.738
10760SOL    HW233180   1.023   4.835   6.582
10761SOL     OW33181   1.216   1.617   5.814
10761SOL    HW133182   1.171   1.533   5.786
10761SOL    HW233183   1.314   1.609   5.796
10762SOL     OW33184   2.916   5.697   6.354
10762SOL    HW133185   2.854   5.775   6.347
10762SOL    HW233186   3.006   5.728   6.383
10763SOL     OW33187   5.178   0.652   3.674
10763SOL    HW133188   5.102   0.695   3.625
10763SOL    HW233189   5.212   0.574   3.620
10764SOL     OW33190   4.452   6.656   4.641
10764SOL    HW133191   4.413   6.614   4.559
10764SOL    HW233192   4.552   6.654   4.635
10765SOL     OW33193   0.250   2.318   2.108
10765SOL    HW133194   0.195   2.238   2.084
10765SOL    HW233195   0.201   2.401   2.085
10766SOL     OW33196   2.273   4.911   0.221
10766SOL    HW133197   2.353   4.879   0.169
10766SOL    HW233198   2.260   5.009   0.204
10767SOL     OW33199   1.264   5.063   6.998
10767SOL    HW133200   1.363   5.055   6.993
10767SOL    HW233201   1.228   4.998   0.045
10768SOL     OW33202   5.288   6.362   6.673
10768SOL    HW133203   5.314   6.456   6.695
10768SOL    HW233204   5.308   6.303   6.751
10769SOL     OW33205   3.015   3.235   4.193
10769SOL    HW133206   3.114   3.222   4.187
10769SOL    HW233207   2.985   3.296   4.120
10770SOL     OW33208   5.590   0.093   3.221
10770SOL    HW133209   5.668   0.131   3.271
10770SOL    HW233210   5.604   7.016   3.207
10771SOL     OW33211   4.718   5.959   5.868
10771SOL    HW133212   4.722   5.950   5.769
10771SOL    HW233213   4.631   6.001   5.894
10772SOL     OW33214   6.032   5.350   2.385
10772SOL    HW133215   6.039   5.374   2.288
10772SOL    HW233216   6.059   5.255   2.398
10773SOL     OW33217   6.995   3.363   0.907
10773SOL    HW133218   6.918   3.425   0.897
10773SOL    HW233219   6.961   3.270   0.924
10774SOL     OW33220   0.753   3.928   0.764
10774SOL    HW133221   0.743   3.829   0.768
10774SOL    HW233222   0.667   3.969   0.732
10775SOL     OW33223   1.488   4.112   0.671
10775SOL    HW133224   1.409   4.169   0.694
10775SOL    HW233225   1.572   4.163   0.692
10776SOL     OW33226   0.669   2.557   4.077
10776SOL    HW133227   0.642   2.586   3.985
10776SOL    HW233228   0.768   2.546   4.080
10777SOL     OW33229   2.400   0.828   1.557
10777SOL    HW133230   2.484   0.852   1.606
10777SOL    HW233231   2.350   0.912   1.534
10778SOL     OW33232   5.103   0.585   2.662
10778SOL    HW133233   5.187   0.617   2.617
10778SOL    HW233234   5.070   0.656   2.724
10779SOL     OW33235   5.632   3.617   5.410
10779SOL    HW133236   5.543   3.584   5.442
10779SOL    HW233237   5.663   3.560   5.334
10780SOL     OW33238   1.927   5.332   4.568
10780SOL    HW133239   1.880   5.285   4.643
10780SOL    HW233240   1.927   5.431   4.586
10781SOL     OW33241   5.632   2.139   4.899
10781SOL    HW133242   5.565   2.153   4.825
10781SOL    HW233243   5.666   2.045   4.896
10782SOL     OW33244   1.198   1.398   5.534
10782SOL    HW133245   1.268   1.333   5.505
10782SOL    HW233246   1.113   1.380   5.484
10783SOL     OW33247   0.979   2.453   3.703
10783SOL    HW133248   1.029   2.495   3.778
10783SOL    HW233249   0.893   2.415   3.737
10784SOL     OW33250   3.668   5.750   3.022
10784SOL    HW133251   3.717   5.819   3.076
10784SOL    HW233252   3.581   5.788   2.991
10785SOL     OW33253   1.117   5.134   1.742
10785SOL    HW133254   1.106   5.233   1.731
10785SOL    HW233255   1.054   5.087   1.680
10786SOL     OW33256   4.624   1.528   2.845
10786SOL    HW133257   4.684   1.607   2.836
10786SOL    HW233258   4.566   1.520   2.764
10787SOL     OW33259   4.433   0.825   3.485
10787SOL    HW133260   4.414   0.738   3.530
10787SOL    HW233261   4.346   0.869   3.460
10788SOL     OW33262   1.827   3.904   0.079
10788SOL    HW133263   1.761   3.977   0.061
10788SOL    HW233264   1.883   3.889   7.018
10789SOL     OW33265   6.587   1.509   1.753
10789SOL    HW133266   6.674   1.553   1.776
10789SOL    HW233267   6.590   1.412   1.778
10790SOL     OW33268   0.707   1.643   5.901
10790SOL    HW133269   0.728   1.550   5.930
10790SOL    HW233270   0.672   1.641   5.807
10791SOL     OW33271   1.704   2.195   3.327
10791SOL    HW133272   1.675   2.154   3.413
10791SOL    HW233273   1.803   2.210   3.329
10792SOL     OW33274   4.022   1.533   2.671
10792SOL    HW133275   4.014   1.436   2.697
10792SOL    HW233276   4.022   1.541   2.572
10793SOL     OW33277   4.104   1.923   4.647
10793SOL    HW133278   4.119   1.906   4.745
10793SOL    HW233279   4.054   1.846   4.608
10794SOL     OW33280   5.279   2.202   0.953
10794SOL    HW133281   5.360   2.144   0.944
10794SOL    HW233282   5.273   2.264   0.874
10795SOL     OW33283   6.699   3.272   3.633
10795SOL    HW133284   6.798   3.260   3.637
10795SOL    HW233285   6.661   3.210   3.564
10796SOL     OW33286   0.527   6.979   6.101
10796SOL    HW133287   0.501   6.917   6.028
10796SOL    HW233288   0.469   6.963   6.181
10797SOL     OW33289   4.405   4.689   0.009
10797SOL    HW133290   4.311   4.656   0.011
10797SOL    HW233291   4.456   4.652   0.086
10798SOL     OW33292   1.389   6.562   6.374
10798SOL    HW133293   1.465   6.626   6.362
10798SOL    HW233294   1.334   6.560   6.290
10799SOL     OW33295   2.830   1.178   2.646
10799SOL    HW133296   2.877   1.264   2.631
10799SOL    HW233297   2.887   1.119   2.704
10800SOL     OW33298   2.439   6.861   5.510
10800SOL    HW133299   2.520   6.910   5.542
10800SOL    HW233300   2.367   6.866   5.579
10801SOL     OW33301   2.949   5.996   6.111
10801SOL    HW133302   2.874   5.947   6.156
10801SOL    HW233303   3.036   5.963   6.148
10802SOL     OW33304   0.710   5.319   4.039
10802SOL    HW133305   0.777   5.286   4.106
10802SOL    HW233306   0.660   5.397   4.078
10803SOL     OW33307   0.050   4.104   4.535
10803SOL    HW133308   0.079   4.032   4.598
10803SOL    HW233309   0.021   4.185   4.586
10804SOL     OW33310   4.901   4.475   0.978
10804SOL    HW133311   4.901   4.522   0.890
10804SOL    HW233312   4.971   4.515   1.037
10805SOL     OW33313   3.704   6.052   0.441
10805SOL    HW133314   3.744   5.995   0.513
10805SOL    HW233315   3.650   6.125   0.481
10806SOL     OW33316   6.191   4.097   6.409
10806SOL    HW133317   6.146   4.018   6.450
10806SOL    HW233318   6.183   4.175   6.471
10807SOL     OW33319   4.639   0.706   4.097
10807SOL    HW133320   4.667   0.616   4.064
10807SOL    HW233321   4.684   0.725   4.185
10808SOL     OW33322   0.315   2.037   0.153
10808SOL    HW133323   0.272   2.012   0.239
10808SOL    HW233324   0.270   1.989   0.077
10809SOL     OW33325   3.127   1.179   3.104
10809SOL    HW133326   3.071   1.198   3.185
10809SOL    HW233327   3.221   1.209   3.122
10810SOL     OW33328   0.987   1.401   6.860
10810SOL    HW133329   1.029   1.473   6.915
10810SOL    HW233330   1.044   1.384   6.779
10811SOL     OW33331   4.907   4.241   6.283
10811SOL    HW133332   4.864   4.330   6.263
10811SOL    HW233333   4.836   4.175   6.308
10812SOL     OW33334   6.893   2.638   2.592
10812SOL    HW133335   6.915   2.574   2.518
10812SOL    HW233336   6.847   2.718   2.555
10813SOL     OW33337   3.369   5.719   2.371
10813SOL    HW133338   3.451   5.723   2.313
10813SOL    HW233339   3.334   5.625   2.371
10814SOL     OW33340   2.084   6.146   5.280
10814SOL    HW133341   2.094   6.238   5.243
10814SOL    HW233342   2.004   6.142   5.339
10815SOL     OW33343   4.595   2.650   3.371
10815SOL    HW133344   4.552   2.560   3.366
10815SOL    HW233345   4.578   2.700   3.287
10816SOL     OW33346   2.117   2.487   1.869
10816SOL    HW133347   2.185   2.418   1.891
10816SOL    HW233348   2.026   2.453   1.893
10817SOL     OW33349   4.266   6.996   1.978
10817SOL    HW133350   4.365   6.992   1.966
10817SOL    HW233351   4.222   6.972   1.891
10818SOL     OW33352   4.395   2.942   6.312
10818SOL    HW133353   4.348   2.896   6.236
10818SOL    HW233354   4.395   3.041   6.296
10819SOL     OW33355   0.724   3.988   5.319
10819SOL    HW133356   0.784   3.980   5.398
10819SOL    HW233357   0.663   4.067   5.331
10820SOL     OW33358   0.081   0.682   4.853
10820SOL    HW133359   0.061   0.596   4.902
10820SOL    HW233360   0.004   0.706   4.795
10821SOL     OW33361   6.643   0.190   1.433
10821SOL    HW133362   6.728   0.138   1.441
10821SOL    HW233363   6.579   0.141   1.374
10822SOL     OW33364   0.387   4.514   0.446
10822SOL    HW133365   0.318   4.542   0.380
10822SOL    HW233366   0.439   4.437   0.409
10823SOL     OW33367   1.301   2.009   1.746
10823SOL    HW133368   1.243   1.988   1.825
10823SOL    HW233369   1.352   1.927   1.720
10824SOL     OW33370   5.727   0.557   2.945
10824SOL    HW133371   5.628   0.569   2.950
10824SOL    HW233372   5.755   0.487   3.011
10825SOL     OW33373   3.771   1.566   1.159
10825SOL    HW133374   3.766   1.647   1.101
10825SOL    HW233375   3.863   1.527   1.154
10826SOL     OW33376   6.771   2.623   1.317
10826SOL    HW133377   6.727   2.692   1.259
10826SOL    HW233378   6.805   2.548   1.259
10827SOL     OW33379   1.389   2.553   4.030
10827SOL    HW133380   1.357   2.638   4.072
10827SOL    HW233381   1.443   2.574   3.949
10828SOL     OW33382   1.045   6.041   0.351
10828SOL    HW133383   1.070   5.953   0.312
10828SOL    HW233384   1.054   6.112   0.282
10829SOL     OW33385   2.418   3.719   1.719
10829SOL    HW133386   2.442   3.633   1.763
10829SOL    HW233387   2.345   3.764   1.772
10830SOL     OW33388   5.055   1.767   4.024
10830SOL    HW133389   5.059   1.669   4.006
10830SOL    HW233390   5.111   1.790   4.104
10831SOL     OW33391   4.778   2.840   2.740
10831SOL    HW133392   4.865   2.872   2.779
10831SOL    HW233393   4.737   2.912   2.685
10832SOL     OW33394   6.677   2.324   2.619
10832SOL    HW133395   6.691   2.308   2.716
10832SOL    HW233396   6.742   2.270   2.566
10833SOL     OW33397   2.713   0.281   4.478
10833SOL    HW133398   2.759   0.246   4.559
10833SOL    HW233399   2.723   0.381   4.475
10834SOL     OW33400   6.746   1.236   5.364
10834SOL    HW133401   6.676   1.182   5.318
10834SOL    HW233402   6.758   1.324   5.317
10835SOL     OW33403   6.923   2.465   2.405
10835SOL    HW133404   6.889   2.380   2.364
10835SOL    HW233405   0.001   2.459   2.416
10836SOL     OW33406   1.878   3.128   1.022
10836SOL    HW133407   1.806   3.172   1.075
10836SOL    HW233408   1.906   3.043   1.067
10837SOL     OW33409   1.048   5.579   1.517
10837SOL    HW133410   1.091   5.510   1.458
10837SOL    HW233411   1.082   5.670   1.491
10838SOL     OW33412   6.573   0.234   0.833
10838SOL    HW133413   6.621   0.248   0.920
10838SOL    HW233414   6.565   0.136   0.816
10839SOL     OW33415   1.786   1.526   0.084
10839SOL    HW133416   1.714   1.594   0.102
10839SOL    HW233417   1.767   1.443   0.137
10840SOL     OW33418   3.649   5.175   2.761
10840SOL    HW133419   3.597   5.136   2.837
10840SOL    HW233420   3.588   5.231   2.704
10841SOL     OW33421   4.703   3.123   5.877
10841SOL    HW133422   4.791   3.105   5.921
10841SOL    HW233423   4.719   3.163   5.787
10842SOL     OW33424   6.658   2.820   1.196
10842SOL    HW133425   6.599   2.813   1.116
10842SOL    HW233426   6.664   2.916   1.224
10843SOL     OW33427   0.792   1.221   1.734
10843SOL    HW133428   0.861   1.292   1.727
10843SOL    HW233429   0.785   1.190   1.829
10844SOL     OW33430   3.324   6.876   3.525
10844SOL    HW133431   3.288   6.963   3.559
10844SOL    HW233432   3.418   6.864   3.557
10845SOL     OW33433   1.576   2.931   0.815
10845SOL    HW133434   1.675   2.930   0.823
10845SOL    HW233435   1.536   2.870   0.884
10846SOL     OW33436   3.889   1.811   2.092
10846SOL    HW133437   3.921   1.766   2.009
10846SOL    HW233438   3.864   1.906   2.072
10847SOL     OW33439   3.669   2.608   6.325
10847SOL    HW133440   3.719   2.549   6.262
10847SOL    HW233441   3.615   2.552   6.388
10848SOL     OW33442   0.903   0.717   0.604
10848SOL    HW133443   0.861   0.627   0.593
10848SOL    HW233444   0.836   0.780   0.644
10849SOL     OW33445   2.460   5.067   4.346
10849SOL    HW133446   2.456   5.081   4.247
10849SOL    HW233447   2.388   5.120   4.390
10850SOL     OW33448   6.050   0.486   1.795
10850SOL    HW133449   6.016   0.571   1.757
10850SOL    HW233450   6.003   0.466   1.881
10851SOL     OW33451   4.075   1.742   6.089
10851SOL    HW133452   4.063   1.824   6.145
10851SOL    HW233453   4.164   1.700   6.108
10852SOL     OW33454   0.041   6.857   6.124
10852SOL    HW133455   0.111   6.823   6.188
10852SOL    HW233456   0.016   6.783   6.061
10853SOL     OW33457   2.336   0.755   4.967
10853SOL    HW133458   2.265   0.822   4.990
10853SOL    HW233459   2.310   0.706   4.885
10854SOL     OW33460   0.204   6.354   1.107
10854SOL    HW133461   0.264   6.331   1.184
10854SOL    HW233462   0.222   6.291   1.031
10855SOL     OW33463   1.372   5.430   1.912
10855SOL    HW133464   1.452   5.461   1.859
10855SOL    HW233465   1.327   5.509   1.953
10856SOL     OW33466   6.259   0.535   6.614
10856SOL    HW133467   6.239   0.627   6.580
10856SOL    HW233468   6.317   0.542   6.696
10857SOL     OW33469   6.368   0.444   4.986
10857SOL    HW133470   6.357   0.481   5.078
10857SOL    HW233471   6.297   0.375   4.969
10858SOL     OW33472   1.893   2.233   0.130
10858SOL    HW133473   1.829   2.222   0.054
10858SOL    HW233474   1.848   2.204   0.215
10859SOL     OW33475   1.073   6.185   2.519
10859SOL    HW133476   1.133   6.264   2.504
10859SOL    HW233477   1.038   6.188   2.613
10860SOL     OW33478   5.642   3.447   1.063
10860SOL    HW133479   5.663   3.536   1.022
10860SOL    HW233480   5.727   3.395   1.073
10861SOL     OW33481   2.880   3.201   1.468
10861SOL    HW133482   2.843   3.285   1.429
10861SOL    HW233483   2.808   3.152   1.518
10862SOL     OW33484   3.631   3.370   5.275
10862SOL    HW133485   3.700   3.363   5.204
10862SOL    HW233486   3.662   3.433   5.347
10863SOL     OW33487   2.026   0.700   3.315
10863SOL    HW133488   1.954   0.672   3.378
10863SOL    HW233489   2.031   0.636   3.238
10864SOL     OW33490   3.280   4.164   1.609
10864SOL    HW133491   3.341   4.198   1.538
10864SOL    HW233492   3.207   4.231   1.626
10865SOL     OW33493   4.142   1.649   3.037
10865SOL    HW133494   4.231   1.615   3.067
10865SOL    HW233495   4.149   1.746   3.015
10866SOL     OW33496   0.019   3.482   3.353
10866SOL    HW133497   0.029   3.541   3.432
10866SOL    HW233498   6.944   3.451   3.346
10867SOL     OW33499   4.673   2.626   0.489
10867SOL    HW133500   4.623   2.600   0.571
10867SOL    HW233501   4.615   2.682   0.430
10868SOL     OW33502   1.418   6.929   4.784
10868SOL    HW133503   1.355   6.991   4.830
10868SOL    HW233504   1.469   6.979   4.714
10869NA      NA33505   0.115   1.187   6.114
10870NA      NA33506   4.427   4.615   5.222
10871NA      NA33507   1.326   4.938   2.420
10872NA      NA33508   5.927   3.828   3.319
10873NA      NA33509   3.740   2.323   5.471
10874NA      NA33510   2.110   4.758   0.279
10875NA      NA33511   1.269   5.257   6.621
10876NA      NA33512   3.836   4.527   1.143
10877NA      NA33513   4.817   5.150   0.200
10878NA      NA33514   3.221   1.161   0.098
10879NA      NA33515   5.484   6.894   1.632
10880NA      NA33516   2.583   6.266   5.672
10881NA      NA33517   4.081   5.229   1.675
10882NA      NA33518   3.965   3.332   6.644
   7.02079   7.02079   7.02079
