Generated by trjconv : CNT in water t= 596.00000
33518
    1C        C    1   2.849   2.772   4.749
    1C        C    2   2.902   2.720   4.869
    1C        C    3   2.846   2.774   4.986
    1C        C    4   2.855   2.779   4.261
    1C        C    5   2.905   2.731   4.384
    1C        C    6   2.853   2.781   4.505
    1C        C    7   3.017   2.644   4.628
    1C        C    8   2.902   2.727   4.626
    1C        C    9   3.078   2.606   4.749
    1C        C   10   3.014   2.634   4.871
    1C        C   11   3.184   2.493   4.980
    1C        C   12   3.062   2.563   4.982
    1C        C   13   2.854   2.773   3.774
    1C        C   14   2.904   2.723   3.896
    1C        C   15   2.851   2.776   4.016
    1C        C   16   3.019   2.646   4.141
    1C        C   17   2.905   2.729   4.139
    1C        C   18   3.084   2.615   4.263
    1C        C   19   3.021   2.650   4.384
    1C        C   20   3.211   2.557   4.507
    1C        C   21   3.080   2.610   4.506
    1C        C   22   3.280   2.532   4.628
    1C        C   23   3.207   2.546   4.748
    1C        C   24   3.414   2.488   4.870
    1C        C   25   3.272   2.503   4.868
    1C        C   26   3.493   2.482   4.985
    1C        C   27   2.853   2.772   3.284
    1C        C   28   2.905   2.723   3.406
    1C        C   29   2.857   2.776   3.528
    1C        C   30   3.020   2.644   3.652
    1C        C   31   2.906   2.727   3.651
    1C        C   32   3.078   2.605   3.775
    1C        C   33   3.016   2.637   3.898
    1C        C   34   3.209   2.551   4.021
    1C        C   35   3.077   2.602   4.020
    1C        C   36   3.279   2.532   4.142
    1C        C   37   3.213   2.557   4.265
    1C        C   38   3.418   2.504   4.385
    1C        C   39   3.280   2.534   4.387
    1C        C   40   3.488   2.504   4.508
    1C        C   41   3.419   2.507   4.631
    1C        C   42   3.634   2.490   4.747
    1C        C   43   3.492   2.489   4.751
    1C        C   44   3.709   2.492   4.867
    1C        C   45   3.632   2.486   4.984
    1C        C   46   2.840   2.755   2.797
    1C        C   47   2.897   2.711   2.918
    1C        C   48   2.848   2.763   3.040
    1C        C   49   3.020   2.640   3.164
    1C        C   50   2.903   2.720   3.163
    1C        C   51   3.084   2.610   3.286
    1C        C   52   3.020   2.641   3.408
    1C        C   53   3.210   2.548   3.530
    1C        C   54   3.081   2.605   3.531
    1C        C   55   3.278   2.528   3.653
    1C        C   56   3.209   2.552   3.774
    1C        C   57   3.414   2.506   3.896
    1C        C   58   3.275   2.532   3.897
    1C        C   59   3.485   2.503   4.018
    1C        C   60   3.418   2.506   4.142
    1C        C   61   3.630   2.503   4.263
    1C        C   62   3.489   2.496   4.264
    1C        C   63   3.702   2.509   4.385
    1C        C   64   3.629   2.503   4.506
    1C        C   65   3.839   2.548   4.623
    1C        C   66   3.705   2.503   4.626
    1C        C   67   3.906   2.569   4.745
    1C        C   68   3.845   2.530   4.865
    1C        C   69   4.059   2.590   4.981
    1C        C   70   3.931   2.532   4.976
    1C        C   71   2.827   2.736   2.309
    1C        C   72   2.888   2.697   2.431
    1C        C   73   2.837   2.751   2.551
    1C        C   74   3.011   2.632   2.676
    1C        C   75   2.893   2.709   2.674
    1C        C   76   3.075   2.598   2.797
    1C        C   77   3.015   2.633   2.919
    1C        C   78   3.209   2.548   3.038
    1C        C   79   3.077   2.599   3.042
    1C        C   80   3.277   2.531   3.161
    1C        C   81   3.214   2.555   3.285
    1C        C   82   3.417   2.503   3.405
    1C        C   83   3.278   2.527   3.408
    1C        C   84   3.486   2.499   3.528
    1C        C   85   3.417   2.505   3.652
    1C        C   86   3.627   2.501   3.773
    1C        C   87   3.486   2.497   3.775
    1C        C   88   3.697   2.515   3.895
    1C        C   89   3.626   2.509   4.017
    1C        C   90   3.832   2.556   4.139
    1C        C   91   3.697   2.515   4.139
    1C        C   92   3.905   2.575   4.259
    1C        C   93   3.837   2.548   4.380
    1C        C   94   4.031   2.639   4.498
    1C        C   95   3.906   2.575   4.501
    1C        C   96   4.091   2.677   4.620
    1C        C   97   4.033   2.634   4.741
    1C        C   98   4.197   2.767   4.864
    1C        C   99   4.101   2.660   4.863
    1C        C  100   4.217   2.845   4.978
    1C        C  101   2.829   2.736   2.072
    1C        C  102   2.994   2.593   2.190
    1C        C  103   2.880   2.680   2.190
    1C        C  104   3.061   2.572   2.314
    1C        C  105   3.004   2.617   2.435
    1C        C  106   3.203   2.538   2.553
    1C        C  107   3.071   2.587   2.556
    1C        C  108   3.273   2.519   2.675
    1C        C  109   3.205   2.541   2.796
    1C        C  110   3.416   2.503   2.916
    1C        C  111   3.276   2.524   2.917
    1C        C  112   3.487   2.500   3.038
    1C        C  113   3.416   2.506   3.160
    1C        C  114   3.628   2.499   3.283
    1C        C  115   3.487   2.497   3.282
    1C        C  116   3.699   2.509   3.405
    1C        C  117   3.627   2.504   3.527
    1C        C  118   3.831   2.550   3.648
    1C        C  119   3.696   2.510   3.650
    1C        C  120   3.895   2.579   3.771
    1C        C  121   3.833   2.554   3.895
    1C        C  122   4.024   2.647   4.015
    1C        C  123   3.898   2.584   4.017
    1C        C  124   4.088   2.684   4.136
    1C        C  125   4.030   2.640   4.257
    1C        C  126   4.202   2.768   4.379
    1C        C  127   4.094   2.677   4.378
    1C        C  128   4.249   2.820   4.501
    1C        C  129   4.197   2.770   4.623
    1C        C  130   4.334   2.936   4.742
    1C        C  131   4.250   2.821   4.743
    1C        C  132   4.362   3.003   4.863
    1C        C  133   4.293   2.962   4.978
    1C        C  134   3.177   2.472   2.084
    1C        C  135   3.042   2.510   2.084
    1C        C  136   3.262   2.485   2.195
    1C        C  137   3.195   2.523   2.313
    1C        C  138   3.408   2.486   2.428
    1C        C  139   3.268   2.507   2.432
    1C        C  140   3.480   2.487   2.549
    1C        C  141   3.413   2.499   2.673
    1C        C  142   3.627   2.497   2.792
    1C        C  143   3.486   2.493   2.794
    1C        C  144   3.698   2.503   2.914
    1C        C  145   3.628   2.498   3.036
    1C        C  146   3.833   2.540   3.159
    1C        C  147   3.697   2.504   3.160
    1C        C  148   3.902   2.568   3.279
    1C        C  149   3.837   2.542   3.402
    1C        C  150   4.024   2.636   3.526
    1C        C  151   3.898   2.572   3.526
    1C        C  152   4.083   2.674   3.649
    1C        C  153   4.023   2.640   3.772
    1C        C  154   4.190   2.775   3.888
    1C        C  155   4.083   2.683   3.892
    1C        C  156   4.247   2.818   4.010
    1C        C  157   4.200   2.770   4.134
    1C        C  158   4.341   2.927   4.255
    1C        C  159   4.254   2.816   4.256
    1C        C  160   4.382   2.987   4.377
    1C        C  161   4.340   2.929   4.499
    1C        C  162   4.446   3.115   4.619
    1C        C  163   4.378   2.991   4.620
    1C        C  164   4.472   3.184   4.740
    1C        C  165   4.438   3.122   4.862
    1C        C  166   4.522   3.321   4.977
    1C        C  167   4.479   3.189   4.978
    1C        C  168   3.485   2.450   2.077
    1C        C  169   3.402   2.464   2.189
    1C        C  170   3.622   2.474   2.308
    1C        C  171   3.480   2.474   2.306
    1C        C  172   3.695   2.496   2.427
    1C        C  173   3.621   2.492   2.548
    1C        C  174   3.831   2.541   2.670
    1C        C  175   3.694   2.505   2.668
    1C        C  176   3.898   2.566   2.791
    1C        C  177   3.833   2.545   2.915
    1C        C  178   4.025   2.634   3.034
    1C        C  179   3.900   2.568   3.037
    1C        C  180   4.088   2.668   3.156
    1C        C  181   4.028   2.632   3.278
    1C        C  182   4.195   2.756   3.401
    1C        C  183   4.085   2.667   3.403
    1C        C  184   4.242   2.812   3.522
    1C        C  185   4.191   2.765   3.645
    1C        C  186   4.339   2.923   3.764
    1C        C  187   4.242   2.820   3.764
    1C        C  188   4.378   2.982   3.886
    1C        C  189   4.340   2.924   4.010
    1C        C  190   4.453   3.104   4.129
    1C        C  191   4.383   2.982   4.132
    1C        C  192   4.475   3.173   4.250
    1C        C  193   4.446   3.113   4.375
    1C        C  194   4.511   3.316   4.496
    1C        C  195   4.468   3.181   4.496
    1C        C  196   4.524   3.388   4.616
    1C        C  197   4.509   3.321   4.740
    1C        C  198   4.557   3.536   4.855
    1C        C  199   4.535   3.394   4.859
    1C        C  200   4.582   3.624   4.965
    1C        C  201   3.622   2.420   2.077
    1C        C  202   3.835   2.510   2.186
    1C        C  203   3.699   2.464   2.189
    1C        C  204   3.905   2.538   2.306
    1C        C  205   3.833   2.525   2.427
    1C        C  206   4.026   2.622   2.545
    1C        C  207   3.898   2.561   2.547
    1C        C  208   4.089   2.656   2.666
    1C        C  209   4.027   2.625   2.789
    1C        C  210   4.199   2.751   2.911
    1C        C  211   4.086   2.667   2.911
    1C        C  212   4.252   2.802   3.032
    1C        C  213   4.199   2.756   3.155
    1C        C  214   4.334   2.915   3.275
    1C        C  215   4.247   2.803   3.279
    1C        C  216   4.374   2.975   3.396
    1C        C  217   4.335   2.919   3.520
    1C        C  218   4.448   3.100   3.641
    1C        C  219   4.383   2.975   3.640
    1C        C  220   4.472   3.170   3.762
    1C        C  221   4.442   3.108   3.885
    1C        C  222   4.508   3.309   4.004
    1C        C  223   4.475   3.172   4.007
    1C        C  224   4.520   3.379   4.126
    1C        C  225   4.508   3.311   4.249
    1C        C  226   4.522   3.522   4.370
    1C        C  227   4.517   3.381   4.371
    1C        C  228   4.524   3.597   4.490
    1C        C  229   4.529   3.529   4.614
    1C        C  230   4.504   3.743   4.730
    1C        C  231   4.540   3.606   4.733
    1C        C  232   4.490   3.822   4.846
    1C        C  233   4.539   3.757   4.961
    1C        C  234   4.025   2.613   2.065
    1C        C  235   3.902   2.548   2.069
    1C        C  236   4.086   2.656   2.184
    1C        C  237   4.028   2.611   2.304
    1C        C  238   4.203   2.741   2.425
    1C        C  239   4.089   2.655   2.423
    1C        C  240   4.257   2.787   2.547
    1C        C  241   4.202   2.741   2.668
    1C        C  242   4.340   2.907   2.788
    1C        C  243   4.250   2.798   2.788
    1C        C  244   4.385   2.964   2.909
    1C        C  245   4.345   2.908   3.033
    1C        C  246   4.444   3.097   3.150
    1C        C  247   4.381   2.971   3.154
    1C        C  248   4.464   3.164   3.273
    1C        C  249   4.437   3.101   3.397
    1C        C  250   4.505   3.303   3.516
    1C        C  251   4.470   3.166   3.518
    1C        C  252   4.516   3.375   3.637
    1C        C  253   4.512   3.305   3.760
    1C        C  254   4.528   3.518   3.881
    1C        C  255   4.524   3.377   3.881
    1C        C  256   4.521   3.591   4.002
    1C        C  257   4.521   3.521   4.125
    1C        C  258   4.491   3.731   4.244
    1C        C  259   4.514   3.591   4.247
    1C        C  260   4.476   3.803   4.365
    1C        C  261   4.496   3.735   4.487
    1C        C  262   4.429   3.940   4.605
    1C        C  263   4.478   3.808   4.607
    1C        C  264   4.401   4.013   4.723
    1C        C  265   4.435   3.952   4.846
    1C        C  266   4.316   4.132   4.961
    1C        C  267   4.397   4.019   4.963
    1C        C  268   4.267   2.777   2.065
    1C        C  269   4.204   2.734   2.182
    1C        C  270   4.353   2.890   2.305
    1C        C  271   4.259   2.783   2.302
    1C        C  272   4.390   2.955   2.425
    1C        C  273   4.350   2.894   2.546
    1C        C  274   4.454   3.084   2.664
    1C        C  275   4.385   2.961   2.665
    1C        C  276   4.479   3.153   2.784
    1C        C  277   4.451   3.089   2.907
    1C        C  278   4.511   3.295   3.026
    1C        C  279   4.478   3.158   3.027
    1C        C  280   4.512   3.368   3.147
    1C        C  281   4.495   3.302   3.271
    1C        C  282   4.522   3.512   3.392
    1C        C  283   4.510   3.371   3.393
    1C        C  284   4.521   3.584   3.514
    1C        C  285   4.527   3.516   3.638
    1C        C  286   4.495   3.727   3.757
    1C        C  287   4.525   3.589   3.759
    1C        C  288   4.473   3.796   3.878
    1C        C  289   4.490   3.728   4.001
    1C        C  290   4.425   3.932   4.121
    1C        C  291   4.475   3.799   4.122
    1C        C  292   4.393   3.997   4.242
    1C        C  293   4.429   3.936   4.364
    1C        C  294   4.328   4.128   4.478
    1C        C  295   4.400   4.006   4.484
    1C        C  296   4.287   4.188   4.599
    1C        C  297   4.329   4.135   4.723
    1C        C  298   4.205   4.318   4.841
    1C        C  299   4.284   4.199   4.842
    1C        C  300   4.171   4.406   4.949
    1C        C  301   4.353   2.887   2.064
    1C        C  302   4.478   3.065   2.182
    1C        C  303   4.404   2.942   2.183
    1C        C  304   4.486   3.144   2.300
    1C        C  305   4.453   3.082   2.422
    1C        C  306   4.519   3.286   2.540
    1C        C  307   4.484   3.149   2.542
    1C        C  308   4.524   3.360   2.660
    1C        C  309   4.515   3.290   2.782
    1C        C  310   4.531   3.503   2.902
    1C        C  311   4.530   3.362   2.903
    1C        C  312   4.521   3.575   3.023
    1C        C  313   4.521   3.509   3.147
    1C        C  314   4.486   3.717   3.267
    1C        C  315   4.522   3.581   3.269
    1C        C  316   4.467   3.787   3.389
    1C        C  317   4.491   3.722   3.512
    1C        C  318   4.419   3.923   3.631
    1C        C  319   4.469   3.791   3.634
    1C        C  320   4.392   3.989   3.753
    1C        C  321   4.420   3.927   3.877
    1C        C  322   4.313   4.111   3.995
    1C        C  323   4.392   3.994   3.998
    1C        C  324   4.275   4.173   4.116
    1C        C  325   4.319   4.117   4.238
    1C        C  326   4.188   4.289   4.356
    1C        C  327   4.281   4.183   4.357
    1C        C  328   4.140   4.341   4.478
    1C        C  329   4.195   4.295   4.600
    1C        C  330   4.028   4.436   4.718
    1C        C  331   4.144   4.354   4.717
    1C        C  332   3.973   4.496   4.834
    1C        C  333   4.054   4.483   4.947
    1C        C  334   4.555   3.270   2.065
    1C        C  335   4.536   3.132   2.070
    1C        C  336   4.536   3.352   2.177
    1C        C  337   4.518   3.282   2.298
    1C        C  338   4.532   3.497   2.415
    1C        C  339   4.529   3.356   2.418
    1C        C  340   4.531   3.572   2.535
    1C        C  341   4.533   3.501   2.657
    1C        C  342   4.491   3.709   2.778
    1C        C  343   4.523   3.572   2.779
    1C        C  344   4.470   3.779   2.899
    1C        C  345   4.495   3.714   3.022
    1C        C  346   4.418   3.914   3.142
    1C        C  347   4.467   3.782   3.143
    1C        C  348   4.388   3.980   3.263
    1C        C  349   4.420   3.920   3.386
    1C        C  350   4.321   4.109   3.505
    1C        C  351   4.390   3.986   3.508
    1C        C  352   4.276   4.166   3.626
    1C        C  353   4.315   4.107   3.749
    1C        C  354   4.177   4.269   3.869
    1C        C  355   4.269   4.163   3.871
    1C        C  356   4.123   4.317   3.990
    1C        C  357   4.178   4.275   4.113
    1C        C  358   4.017   4.415   4.236
    1C        C  359   4.130   4.331   4.234
    1C        C  360   3.960   4.459   4.357
    1C        C  361   4.027   4.426   4.477
    1C        C  362   3.834   4.526   4.597
    1C        C  363   3.964   4.470   4.596
    1C        C  364   3.767   4.554   4.718
    1C        C  365   3.841   4.547   4.837
    1C        C  366   3.630   4.598   4.954
    1C        C  367   3.768   4.580   4.952
    1C        C  368   4.513   3.563   2.054
    1C        C  369   4.529   3.493   2.174
    1C        C  370   4.494   3.707   2.292
    1C        C  371   4.525   3.569   2.293
    1C        C  372   4.486   3.780   2.412
    1C        C  373   4.502   3.710   2.534
    1C        C  374   4.422   3.907   2.652
    1C        C  375   4.479   3.778   2.655
    1C        C  376   4.391   3.975   2.773
    1C        C  377   4.422   3.912   2.895
    1C        C  378   4.316   4.096   3.013
    1C        C  379   4.390   3.975   3.018
    1C        C  380   4.271   4.153   3.134
    1C        C  381   4.312   4.099   3.258
    1C        C  382   4.176   4.260   3.379
    1C        C  383   4.275   4.159   3.381
    1C        C  384   4.123   4.312   3.499
    1C        C  385   4.176   4.266   3.622
    1C        C  386   4.011   4.396   3.747
    1C        C  387   4.127   4.316   3.745
    1C        C  388   3.951   4.441   3.867
    1C        C  389   4.010   4.402   3.989
    1C        C  390   3.824   4.498   4.112
    1C        C  391   3.953   4.441   4.112
    1C        C  392   3.756   4.524   4.233
    1C        C  393   3.829   4.511   4.354
    1C        C  394   3.624   4.561   4.479
    1C        C  395   3.763   4.540   4.476
    1C        C  396   3.551   4.562   4.600
    1C        C  397   3.626   4.561   4.720
    1C        C  398   3.413   4.555   4.846
    1C        C  399   3.552   4.578   4.840
    1C        C  400   3.342   4.525   4.963
    1C        C  401   4.506   3.702   2.056
    1C        C  402   4.453   3.916   2.171
    1C        C  403   4.489   3.779   2.171
    1C        C  404   4.413   3.981   2.290
    1C        C  405   4.441   3.915   2.411
    1C        C  406   4.324   4.095   2.528
    1C        C  407   4.403   3.978   2.531
    1C        C  408   4.276   4.154   2.648
    1C        C  409   4.317   4.095   2.770
    1C        C  410   4.176   4.254   2.890
    1C        C  411   4.277   4.155   2.891
    1C        C  412   4.120   4.301   3.011
    1C        C  413   4.173   4.254   3.134
    1C        C  414   4.007   4.386   3.256
    1C        C  415   4.120   4.301   3.256
    1C        C  416   3.948   4.429   3.377
    1C        C  417   4.008   4.394   3.500
    1C        C  418   3.821   4.489   3.623
    1C        C  419   3.947   4.425   3.624
    1C        C  420   3.755   4.517   3.745
    1C        C  421   3.821   4.496   3.868
    1C        C  422   3.617   4.549   3.990
    1C        C  423   3.756   4.520   3.990
    1C        C  424   3.548   4.546   4.113
    1C        C  425   3.617   4.549   4.236
    1C        C  426   3.408   4.553   4.359
    1C        C  427   3.549   4.562   4.359
    1C        C  428   3.337   4.550   4.482
    1C        C  429   3.410   4.559   4.603
    1C        C  430   3.201   4.518   4.727
    1C        C  431   3.340   4.547   4.725
    1C        C  432   3.128   4.497   4.847
    1C        C  433   3.205   4.502   4.964
    1C        C  434   4.387   4.123   2.055
    1C        C  435   4.445   3.995   2.056
    1C        C  436   4.306   4.167   2.165
    1C        C  437   4.336   4.101   2.288
    1C        C  438   4.181   4.252   2.405
    1C        C  439   4.282   4.154   2.407
    1C        C  440   4.127   4.304   2.525
    1C        C  441   4.178   4.255   2.647
    1C        C  442   4.007   4.383   2.767
    1C        C  443   4.120   4.298   2.769
    1C        C  444   3.948   4.422   2.889
    1C        C  445   4.005   4.382   3.012
    1C        C  446   3.817   4.481   3.133
    1C        C  447   3.945   4.422   3.134
    1C        C  448   3.749   4.501   3.256
    1C        C  449   3.816   4.478   3.378
    1C        C  450   3.614   4.534   3.500
    1C        C  451   3.754   4.510   3.501
    1C        C  452   3.546   4.544   3.623
    1C        C  453   3.616   4.546   3.746
    1C        C  454   3.406   4.552   3.867
    1C        C  455   3.547   4.559   3.868
    1C        C  456   3.340   4.533   3.990
    1C        C  457   3.407   4.539   4.115
    1C        C  458   3.202   4.499   4.239
    1C        C  459   3.337   4.539   4.238
    1C        C  460   3.138   4.478   4.364
    1C        C  461   3.202   4.512   4.485
    1C        C  462   3.006   4.429   4.606
    1C        C  463   3.132   4.492   4.607
    1C        C  464   2.939   4.396   4.726
    1C        C  465   2.994   4.447   4.847
    1C        C  466   2.810   4.334   4.963
    1C        C  467   2.906   4.436   4.959
    1C        C  468   4.130   4.297   2.046
    1C        C  469   4.195   4.257   2.163
    1C        C  470   4.012   4.379   2.279
    1C        C  471   4.129   4.298   2.282
    1C        C  472   3.948   4.414   2.399
    1C        C  473   4.007   4.380   2.523
    1C        C  474   3.819   4.479   2.646
    1C        C  475   3.948   4.422   2.644
    1C        C  476   3.751   4.501   2.768
    1C        C  477   3.818   4.479   2.890
    1C        C  478   3.611   4.529   3.013
    1C        C  479   3.749   4.502   3.011
    1C        C  480   3.539   4.538   3.135
    1C        C  481   3.612   4.533   3.256
    1C        C  482   3.401   4.538   3.381
    1C        C  483   3.542   4.540   3.379
    1C        C  484   3.332   4.531   3.504
    1C        C  485   3.405   4.542   3.625
    1C        C  486   3.199   4.494   3.750
    1C        C  487   3.334   4.534   3.747
    1C        C  488   3.137   4.471   3.875
    1C        C  489   3.204   4.497   3.996
    1C        C  490   3.008   4.412   4.118
    1C        C  491   3.133   4.478   4.118
    1C        C  492   2.952   4.374   4.242
    1C        C  493   3.010   4.419   4.363
    1C        C  494   2.837   4.298   4.487
    1C        C  495   2.945   4.390   4.484
    1C        C  496   2.777   4.256   4.607
    1C        C  497   2.823   4.314   4.727
    1C        C  498   2.667   4.168   4.848
    1C        C  499   2.757   4.277   4.847
    1C        C  500   2.609   4.116   4.964
    1C        C  501   4.008   4.364   2.041
    1C        C  502   3.821   4.476   2.159
    1C        C  503   3.946   4.411   2.158
    1C        C  504   3.751   4.490   2.280
    1C        C  505   3.818   4.469   2.402
    1C        C  506   3.610   4.515   2.524
    1C        C  507   3.750   4.497   2.523
    1C        C  508   3.540   4.526   2.646
    1C        C  509   3.611   4.521   2.768
    1C        C  510   3.400   4.535   2.892
    1C        C  511   3.541   4.532   2.890
    1C        C  512   3.327   4.525   3.012
    1C        C  513   3.398   4.535   3.134
    1C        C  514   3.194   4.498   3.259
    1C        C  515   3.331   4.535   3.258
    1C        C  516   3.130   4.471   3.382
    1C        C  517   3.196   4.494   3.505
    1C        C  518   3.003   4.410   3.629
    1C        C  519   3.130   4.471   3.628
    1C        C  520   2.947   4.371   3.753
    1C        C  521   3.010   4.408   3.873
    1C        C  522   2.841   4.283   4.001
    1C        C  523   2.949   4.374   3.996
    1C        C  524   2.787   4.237   4.123
    1C        C  525   2.838   4.291   4.244
    1C        C  526   2.699   4.133   4.368
    1C        C  527   2.786   4.245   4.367
    1C        C  528   2.658   4.077   4.490
    1C        C  529   2.690   4.145   4.610
    1C        C  530   2.586   3.962   4.736
    1C        C  531   2.639   4.094   4.731
    1C        C  532   2.544   3.905   4.859
    1C        C  533   2.532   3.999   4.967
    1C        C  534   3.619   4.564   2.041
    1C        C  535   3.752   4.521   2.045
    1C        C  536   3.542   4.538   2.159
    1C        C  537   3.610   4.511   2.281
    1C        C  538   3.397   4.523   2.404
    1C        C  539   3.538   4.519   2.402
    1C        C  540   3.327   4.517   2.526
    1C        C  541   3.399   4.521   2.648
    1C        C  542   3.192   4.486   2.771
    1C        C  543   3.328   4.523   2.770
    1C        C  544   3.125   4.463   2.893
    1C        C  545   3.190   4.489   3.016
    1C        C  546   3.003   4.399   3.140
    1C        C  547   3.126   4.467   3.140
    1C        C  548   2.950   4.357   3.265
    1C        C  549   3.007   4.403   3.385
    1C        C  550   2.834   4.281   3.511
    1C        C  551   2.943   4.371   3.507
    1C        C  552   2.782   4.236   3.634
    1C        C  553   2.839   4.280   3.755
    1C        C  554   2.698   4.126   3.881
    1C        C  555   2.793   4.231   3.879
    1C        C  556   2.653   4.068   4.002
    1C        C  557   2.700   4.126   4.121
    1C        C  558   2.594   3.948   4.248
    1C        C  559   2.664   4.070   4.246
    1C        C  560   2.568   3.884   4.371
    1C        C  561   2.592   3.952   4.492
    1C        C  562   2.532   3.753   4.619
    1C        C  563   2.564   3.890   4.616
    1C        C  564   2.519   3.686   4.743
    1C        C  565   2.526   3.763   4.863
    1C        C  566   2.536   3.553   4.981
    1C        C  567   2.526   3.691   4.983
    1C        C  568   3.330   4.481   2.047
    1C        C  569   3.401   4.517   2.163
    1C        C  570   3.188   4.476   2.283
    1C        C  571   3.325   4.516   2.283
    1C        C  572   3.122   4.456   2.406
    1C        C  573   3.191   4.482   2.527
    1C        C  574   2.995   4.403   2.652
    1C        C  575   3.122   4.465   2.649
    1C        C  576   2.939   4.361   2.774
    1C        C  577   3.000   4.398   2.896
    1C        C  578   2.832   4.272   3.020
    1C        C  579   2.940   4.363   3.019
    1C        C  580   2.784   4.223   3.143
    1C        C  581   2.836   4.273   3.265
    1C        C  582   2.697   4.118   3.389
    1C        C  583   2.785   4.229   3.389
    1C        C  584   2.661   4.062   3.513
    1C        C  585   2.697   4.123   3.636
    1C        C  586   2.595   3.940   3.758
    1C        C  587   2.656   4.067   3.759
    1C        C  588   2.568   3.875   3.881
    1C        C  589   2.593   3.940   4.004
    1C        C  590   2.531   3.741   4.132
    1C        C  591   2.572   3.876   4.128
    1C        C  592   2.519   3.675   4.257
    1C        C  593   2.535   3.747   4.377
    1C        C  594   2.515   3.537   4.502
    1C        C  595   2.521   3.678   4.500
    1C        C  596   2.520   3.469   4.626
    1C        C  597   2.520   3.544   4.745
    1C        C  598   2.539   3.331   4.868
    1C        C  599   2.533   3.472   4.866
    1C        C  600   2.530   3.249   4.981
    1C        C  601   3.199   4.438   2.049
    1C        C  602   2.984   4.396   2.161
    1C        C  603   3.119   4.446   2.163
    1C        C  604   2.930   4.361   2.288
    1C        C  605   2.993   4.398   2.408
    1C        C  606   2.830   4.266   2.532
    1C        C  607   2.934   4.362   2.531
    1C        C  608   2.778   4.218   2.654
    1C        C  609   2.830   4.270   2.775
    1C        C  610   2.695   4.110   2.900
    1C        C  611   2.780   4.223   2.898
    1C        C  612   2.654   4.055   3.023
    1C        C  613   2.694   4.114   3.145
    1C        C  614   2.590   3.932   3.268
    1C        C  615   2.652   4.059   3.268
    1C        C  616   2.573   3.869   3.393
    1C        C  617   2.597   3.936   3.515
    1C        C  618   2.530   3.735   3.639
    1C        C  619   2.568   3.871   3.637
    1C        C  620   2.519   3.669   3.763
    1C        C  621   2.527   3.740   3.885
    1C        C  622   2.510   3.533   4.012
    1C        C  623   2.514   3.674   4.009
    1C        C  624   2.518   3.463   4.135
    1C        C  625   2.514   3.534   4.257
    1C        C  626   2.546   3.327   4.383
    1C        C  627   2.518   3.465   4.380
    1C        C  628   2.571   3.260   4.505
    1C        C  629   2.544   3.329   4.625
    1C        C  630   2.599   3.125   4.747
    1C        C  631   2.554   3.260   4.747
    1C        C  632   2.622   3.052   4.867
    1C        C  633   2.567   3.114   4.984
    1C        C  634   2.782   4.308   2.058
    1C        C  635   2.890   4.397   2.053
    1C        C  636   2.753   4.231   2.171
    1C        C  637   2.817   4.274   2.290
    1C        C  638   2.680   4.113   2.412
    1C        C  639   2.773   4.219   2.412
    1C        C  640   2.645   4.052   2.534
    1C        C  641   2.691   4.107   2.656
    1C        C  642   2.584   3.926   2.781
    1C        C  643   2.654   4.049   2.779
    1C        C  644   2.560   3.861   2.904
    1C        C  645   2.588   3.930   3.024
    1C        C  646   2.530   3.728   3.151
    1C        C  647   2.564   3.865   3.147
    1C        C  648   2.515   3.661   3.274
    1C        C  649   2.528   3.735   3.394
    1C        C  650   2.517   3.525   3.521
    1C        C  651   2.518   3.666   3.516
    1C        C  652   2.519   3.457   3.645
    1C        C  653   2.512   3.528   3.767
    1C        C  654   2.541   3.322   3.891
    1C        C  655   2.512   3.460   3.891
    1C        C  656   2.566   3.256   4.014
    1C        C  657   2.545   3.324   4.136
    1C        C  658   2.611   3.127   4.260
    1C        C  659   2.559   3.259   4.260
    1C        C  660   2.636   3.061   4.382
    1C        C  661   2.612   3.125   4.506
    1C        C  662   2.714   2.940   4.628
    1C        C  663   2.639   3.059   4.628
    1C        C  664   2.757   2.880   4.749
    1C        C  665   2.704   2.935   4.869
    1C        C  666   2.748   2.873   4.986
    1C        C  667   2.681   4.026   2.056
    1C        C  668   2.690   4.105   2.171
    1C        C  669   2.588   3.917   2.295
    1C        C  670   2.646   4.047   2.292
    1C        C  671   2.563   3.852   2.418
    1C        C  672   2.589   3.922   2.538
    1C        C  673   2.517   3.724   2.661
    1C        C  674   2.553   3.860   2.660
    1C        C  675   2.504   3.654   2.783
    1C        C  676   2.522   3.725   2.904
    1C        C  677   2.511   3.517   3.033
    1C        C  678   2.519   3.658   3.028
    1C        C  679   2.514   3.449   3.156
    1C        C  680   2.510   3.520   3.278
    1C        C  681   2.537   3.311   3.404
    1C        C  682   2.516   3.450   3.401
    1C        C  683   2.556   3.246   3.528
    1C        C  684   2.543   3.318   3.649
    1C        C  685   2.609   3.117   3.772
    1C        C  686   2.561   3.250   3.772
    1C        C  687   2.644   3.058   3.895
    1C        C  688   2.615   3.123   4.017
    1C        C  689   2.721   2.942   4.141
    1C        C  690   2.644   3.060   4.140
    1C        C  691   2.759   2.883   4.264
    1C        C  692   2.711   2.941   4.383
    1C        C  693   2.757   2.885   4.505
    1C        C  694   2.630   3.895   2.060
    1C        C  695   2.528   3.708   2.178
    1C        C  696   2.572   3.843   2.176
    1C        C  697   2.510   3.641   2.301
    1C        C  698   2.521   3.717   2.419
    1C        C  699   2.492   3.508   2.546
    1C        C  700   2.504   3.649   2.542
    1C        C  701   2.503   3.439   2.669
    1C        C  702   2.502   3.513   2.789
    1C        C  703   2.529   3.304   2.913
    1C        C  704   2.507   3.444   2.912
    1C        C  705   2.552   3.238   3.036
    1C        C  706   2.541   3.310   3.156
    1C        C  707   2.601   3.111   3.280
    1C        C  708   2.555   3.244   3.281
    1C        C  709   2.638   3.054   3.403
    1C        C  710   2.616   3.118   3.527
    1C        C  711   2.719   2.934   3.651
    1C        C  712   2.642   3.053   3.650
    1C        C  713   2.762   2.880   3.774
    1C        C  714   2.723   2.941   3.896
    1C        C  715   2.757   2.881   4.019
    1C        C  716   2.458   3.501   2.065
    1C        C  717   2.496   3.635   2.063
    1C        C  718   2.474   3.426   2.186
    1C        C  719   2.489   3.500   2.306
    1C        C  720   2.515   3.291   2.428
    1C        C  721   2.493   3.430   2.428
    1C        C  722   2.541   3.225   2.550
    1C        C  723   2.528   3.300   2.669
    1C        C  724   2.598   3.102   2.793
    1C        C  725   2.546   3.233   2.792
    1C        C  726   2.632   3.040   2.915
    1C        C  727   2.600   3.105   3.037
    1C        C  728   2.713   2.927   3.161
    1C        C  729   2.632   3.042   3.160
    1C        C  730   2.758   2.876   3.285
    1C        C  731   2.719   2.938   3.406
    1C        C  732   2.762   2.881   3.528
    1C        C  733   2.493   3.201   2.073
    1C        C  734   2.488   3.283   2.187
    1C        C  735   2.587   3.090   2.305
    1C        C  736   2.525   3.218   2.307
    1C        C  737   2.616   3.026   2.427
    1C        C  738   2.589   3.093   2.549
    1C        C  739   2.704   2.916   2.672
    1C        C  740   2.627   3.034   2.672
    1C        C  741   2.748   2.862   2.795
    1C        C  742   2.710   2.922   2.916
    1C        C  743   2.757   2.872   3.039
    1C        C  744   2.550   3.074   2.074
    1C        C  745   2.687   2.898   2.188
    1C        C  746   2.613   3.018   2.186
    1C        C  747   2.735   2.844   2.309
    1C        C  748   2.692   2.907   2.428
    1C        C  749   2.741   2.855   2.550
    1C        C  750   2.736   2.839   2.070
    1C        C  751   3.659   2.320   1.975
    1C        O  752   3.679   2.203   2.019
    1C        O  753   3.680   2.355   1.841
    1C        C  754   4.618   3.048   1.979
    1C        O  755   4.594   3.045   1.855
    1C        O  756   4.743   3.014   2.031
    1C        C  757   4.450   4.221   1.965
    1C        O  758   4.518   4.320   2.005
    1C        O  759   4.517   4.177   1.851
    1C        C  760   3.607   4.702   1.988
    1C        O  761   3.675   4.785   2.054
    1C        O  762   3.620   4.714   1.850
    1C        C  763   2.875   4.502   1.950
    1C        O  764   2.920   4.486   1.833
    1C        O  765   2.828   4.631   1.978
    1C        C  766   2.336   3.473   1.985
    1C        O  767   2.343   3.445   1.863
    1C        O  768   2.214   3.531   2.020
    1C        C  769   4.699   3.606   5.054
    1C        O  770   4.701   3.628   5.178
    1C        O  771   4.821   3.617   4.987
    1C        C  772   4.281   4.450   5.038
    1C        O  773   4.279   4.439   5.163
    1C        O  774   4.363   4.558   5.003
    1C        C  775   4.159   2.525   5.068
    1C        O  776   4.217   2.419   5.034
    1C        O  777   4.203   2.553   5.198
    1C        C  778   2.879   4.539   5.063
    1C        O  779   2.790   4.627   5.054
    1C        O  780   2.897   4.499   5.196
    1C        C  781   2.501   3.033   5.090
    1C        O  782   2.407   2.959   5.051
    1C        O  783   2.492   3.076   5.221
    1C        C  784   2.420   3.998   5.064
    1C        O  785   2.301   3.994   5.023
    1C        O  786   2.440   3.991   5.203
    1C        C  787   2.944   2.417   2.023
    1C        O  788   2.951   2.415   1.898
    1C        O  789   2.898   2.297   2.075
    1C        C  790   3.202   2.373   5.065
    1C        O  791   3.188   2.258   5.015
    1C        O  792   3.223   2.380   5.203
    1C        H  793   4.329   2.991   5.075
    1C        H  794   4.176   2.815   5.072
    1C        H  795   4.504   3.132   5.065
    1C        H  796   4.572   3.357   5.065
    1C        H  797   4.515   3.798   5.057
    1C        H  798   4.448   3.998   5.055
    1C        H  799   4.244   4.140   5.039
    1C        H  800   4.015   4.516   5.041
    1C        H  801   3.819   4.623   5.036
    1C        H  802   3.579   4.619   5.046
    1C        H  803   3.392   4.518   5.057
    1C        H  804   3.158   4.505   5.061
    1C        H  805   3.903   2.470   5.058
    1C        H  806   3.679   2.479   5.080
    1C        H  807   2.991   2.524   5.053
    1C        H  808   3.446   2.536   5.065
    1C        H  809   2.908   2.770   5.073
    1C        H  810   2.694   2.890   5.076
    1C        H  811   2.468   3.281   5.062
    1C        H  812   2.552   3.504   5.075
    1C        H  813   2.480   3.736   5.069
    1C        H  814   2.606   4.182   5.049
    1C        H  815   2.824   4.261   5.040
    1C        H  816   2.702   2.871   1.974
    1C        H  817   2.863   2.702   1.976
    1C        H  818   3.202   2.388   2.022
    1C        H  819   3.451   2.496   1.986
    1C        H  820   3.845   2.555   1.979
    1C        H  821   4.095   2.573   1.995
    1C        H  822   4.257   2.721   1.975
    1C        H  823   4.375   2.933   1.971
    1C        H  824   4.596   3.309   1.974
    1C        H  825   4.465   3.512   1.973
    1C        H  826   4.496   3.750   1.961
    1C        H  827   3.802   4.519   1.951
    1C        H  828   3.974   4.391   1.943
    1C        H  829   4.157   4.254   1.952
    1C        H  830   4.520   3.978   1.982
    1C        H  831   2.637   3.838   1.970
    1C        H  832   2.751   4.048   1.978
    1C        H  833   2.744   4.288   1.960
    1C        H  834   3.369   4.498   1.949
    1C        H  835   3.148   4.429   1.955
    1C        H  836   2.519   3.010   1.995
    1C        H  837   2.426   3.227   1.994
    1C        H  838   2.481   3.688   1.971
    2V3OU   H29  839   2.818   3.554   6.426
    2V3OU   C27  840   2.786   3.506   6.522
    2V3OU   H27  841   2.730   3.571   6.594
    2V3OU   H28  842   2.734   3.409   6.502
    2V3OU   O11  843   2.912   3.479   6.586
    2V3OU   C15  844   2.920   3.396   6.696
    2V3OU   C13  845   3.051   3.372   6.742
    2V3OU   C14  846   3.078   3.268   6.831
    2V3OU   C16  847   2.972   3.191   6.877
    2V3OU    H6  848   2.992   3.112   6.951
    2V3OU   C12  849   3.217   3.234   6.869
    2V3OU    O2  850   3.246   3.132   6.936
    2V3OU   C10  851   3.329   3.317   6.822
    2V3OU    C8  852   3.462   3.280   6.841
    2V3OU   O10  853   3.493   3.157   6.890
    2V3OU   H26  854   3.407   3.115   6.900
    2V3OU    C6  855   3.572   3.355   6.789
    2V3OU    C5  856   3.543   3.473   6.721
    2V3OU    C4  857   3.708   3.294   6.780
    2V3OU    H4  858   3.728   3.230   6.871
    2V3OU    H5  859   3.714   3.226   6.691
    2V3OU    C2  860   3.820   3.399   6.774
    2V3OU    O6  861   3.813   3.480   6.892
    2V3OU   H21  862   3.765   3.555   6.854
    2V3OU    C3  863   3.789   3.501   6.665
    2V3OU    H2  864   3.867   3.582   6.656
    2V3OU    H3  865   3.784   3.447   6.567
    2V3OU   C25  866   3.954   3.326   6.765
    2V3OU    O7  867   4.003   3.302   6.655
    2V3OU   C26  868   4.031   3.295   6.893
    2V3OU   H22  869   4.064   3.389   6.945
    2V3OU   H23  870   4.122   3.235   6.868
    2V3OU    O8  871   3.969   3.211   6.987
    2V3OU   H24  872   3.926   3.268   0.023
    2V3OU    C1  873   3.654   3.568   6.688
    2V3OU    H1  874   3.626   3.621   6.592
    2V3OU    O3  875   3.667   3.657   6.799
    2V3OU   C19  876   3.620   3.791   6.786
    2V3OU    H9  877   3.523   3.806   6.729
    2V3OU    O4  878   3.719   3.850   6.705
    2V3OU   C20  879   3.850   3.876   6.756
    2V3OU   H10  880   3.900   3.775   6.771
    2V3OU   C24  881   3.616   3.862   6.921
    2V3OU   H16  882   3.549   3.803   6.989
    2V3OU   H17  883   3.571   3.964   6.907
    2V3OU   C23  884   3.754   3.876   6.986
    2V3OU   H15  885   3.795   3.772   7.006
    2V3OU    N1  886   3.740   3.959   0.074
    2V3OU   H19  887   3.806   3.923   0.140
    2V3OU   H20  888   3.649   3.939   0.109
    2V3OU   C21  889   3.851   3.951   6.890
    2V3OU   H11  890   3.958   3.932   6.923
    2V3OU    O5  891   3.831   4.091   6.886
    2V3OU   H18  892   3.782   4.109   6.968
    2V3OU   C22  893   3.921   3.950   6.644
    2V3OU   H12  894   3.868   4.045   6.619
    2V3OU   H13  895   3.913   3.894   6.548
    2V3OU   H14  896   4.030   3.961   6.666
    2V3OU   C11  897   3.160   3.467   6.713
    2V3OU    O1  898   3.136   3.585   6.680
    2V3OU    C9  899   3.301   3.430   6.740
    2V3OU    C7  900   3.407   3.506   6.693
    2V3OU    O9  901   3.388   3.619   6.616
    2V3OU   H25  902   3.292   3.632   6.627
    2V3OU   C17  903   2.817   3.311   6.740
    2V3OU    H7  904   2.712   3.340   6.730
    2V3OU   C18  905   2.842   3.211   6.833
    2V3OU    H8  906   2.763   3.142   6.868
    3SOL     OW  907   2.512   3.396   5.317
    3SOL    HW1  908   2.442   3.325   5.313
    3SOL    HW2  909   2.468   3.485   5.325
    4SOL     OW  910   1.290   0.365   0.638
    4SOL    HW1  911   1.382   0.336   0.663
    4SOL    HW2  912   1.223   0.312   0.690
    5SOL     OW  913   3.627   1.619   0.181
    5SOL    HW1  914   3.610   1.664   0.269
    5SOL    HW2  915   3.597   1.679   0.107
    6SOL     OW  916   3.009   2.122   1.900
    6SOL    HW1  917   2.967   2.186   1.964
    6SOL    HW2  918   3.106   2.144   1.890
    7SOL     OW  919   1.955   2.860   4.638
    7SOL    HW1  920   1.947   2.862   4.738
    7SOL    HW2  921   1.916   2.944   4.600
    8SOL     OW  922   1.328   1.647   5.935
    8SOL    HW1  923   1.365   1.584   6.003
    8SOL    HW2  924   1.341   1.741   5.966
    9SOL     OW  925   1.718   2.454   5.499
    9SOL    HW1  926   1.803   2.508   5.505
    9SOL    HW2  927   1.641   2.515   5.482
   10SOL     OW  928   6.035   4.955   0.783
   10SOL    HW1  929   6.082   4.897   0.717
   10SOL    HW2  930   6.101   4.996   0.845
   11SOL     OW  931   3.070   1.155   0.771
   11SOL    HW1  932   3.155   1.132   0.724
   11SOL    HW2  933   3.002   1.083   0.755
   12SOL     OW  934   5.899   4.777   0.983
   12SOL    HW1  935   5.945   4.841   0.921
   12SOL    HW2  936   5.883   4.691   0.937
   13SOL     OW  937   4.528   6.066   1.786
   13SOL    HW1  938   4.473   6.149   1.792
   13SOL    HW2  939   4.625   6.089   1.781
   14SOL     OW  940   4.746   5.689   1.381
   14SOL    HW1  941   4.838   5.653   1.390
   14SOL    HW2  942   4.738   5.774   1.433
   15SOL     OW  943   0.558   0.016   0.054
   15SOL    HW1  944   0.472   0.065   0.073
   15SOL    HW2  945   0.610   0.067   7.015
   16SOL     OW  946   2.061   4.823   5.362
   16SOL    HW1  947   2.121   4.771   5.422
   16SOL    HW2  948   2.068   4.789   5.269
   17SOL     OW  949   0.192   2.162   4.293
   17SOL    HW1  950   0.105   2.211   4.279
   17SOL    HW2  951   0.245   2.210   4.363
   18SOL     OW  952   2.517   6.858   4.917
   18SOL    HW1  953   2.458   6.908   4.854
   18SOL    HW2  954   2.465   6.786   4.962
   19SOL     OW  955   4.163   5.989   3.428
   19SOL    HW1  956   4.123   6.074   3.395
   19SOL    HW2  957   4.106   5.912   3.398
   20SOL     OW  958   0.124   1.748   4.674
   20SOL    HW1  959   0.190   1.714   4.741
   20SOL    HW2  960   0.129   1.848   4.671
   21SOL     OW  961   2.060   3.186   2.031
   21SOL    HW1  962   2.083   3.113   1.966
   21SOL    HW2  963   2.046   3.147   2.121
   22SOL     OW  964   0.240   0.126   0.500
   22SOL    HW1  965   0.229   0.189   0.577
   22SOL    HW2  966   0.178   0.152   0.426
   23SOL     OW  967   0.682   5.340   0.566
   23SOL    HW1  968   0.590   5.340   0.527
   23SOL    HW2  969   0.691   5.264   0.630
   24SOL     OW  970   4.524   0.999   5.690
   24SOL    HW1  971   4.499   0.903   5.704
   24SOL    HW2  972   4.455   1.058   5.733
   25SOL     OW  973   2.312   0.348   5.603
   25SOL    HW1  974   2.361   0.432   5.629
   25SOL    HW2  975   2.261   0.364   5.519
   26SOL     OW  976   2.669   6.668   5.417
   26SOL    HW1  977   2.632   6.695   5.506
   26SOL    HW2  978   2.688   6.570   5.417
   27SOL     OW  979   0.344   0.239   1.838
   27SOL    HW1  980   0.378   0.147   1.818
   27SOL    HW2  981   0.422   0.302   1.843
   28SOL     OW  982   2.260   0.422   5.079
   28SOL    HW1  983   2.360   0.428   5.071
   28SOL    HW2  984   2.218   0.499   5.032
   29SOL     OW  985   5.303   0.660   2.201
   29SOL    HW1  986   5.336   0.572   2.233
   29SOL    HW2  987   5.229   0.647   2.135
   30SOL     OW  988   4.451   6.488   4.916
   30SOL    HW1  989   4.398   6.506   4.833
   30SOL    HW2  990   4.396   6.433   4.979
   31SOL     OW  991   5.943   4.192   4.069
   31SOL    HW1  992   5.849   4.168   4.044
   31SOL    HW2  993   5.943   4.245   4.154
   32SOL     OW  994   3.895   1.374   1.471
   32SOL    HW1  995   3.884   1.433   1.390
   32SOL    HW2  996   3.875   1.279   1.446
   33SOL     OW  997   1.764   4.829   5.379
   33SOL    HW1  998   1.702   4.876   5.316
   33SOL    HW2  999   1.859   4.845   5.351
   34SOL     OW 1000   2.552   6.972   5.445
   34SOL    HW1 1001   2.618   0.009   5.478
   34SOL    HW2 1002   2.545   6.897   5.511
   35SOL     OW 1003   0.888   3.229   4.893
   35SOL    HW1 1004   0.896   3.158   4.823
   35SOL    HW2 1005   0.970   3.287   4.891
   36SOL     OW 1006   5.814   1.054   4.718
   36SOL    HW1 1007   5.819   0.963   4.677
   36SOL    HW2 1008   5.889   1.110   4.683
   37SOL     OW 1009   1.270   6.011   3.641
   37SOL    HW1 1010   1.189   5.952   3.636
   37SOL    HW2 1011   1.284   6.041   3.735
   38SOL     OW 1012   0.781   3.561   1.956
   38SOL    HW1 1013   0.783   3.660   1.966
   38SOL    HW2 1014   0.810   3.536   1.863
   39SOL     OW 1015   6.324   5.477   1.570
   39SOL    HW1 1016   6.272   5.401   1.608
   39SOL    HW2 1017   6.262   5.547   1.537
   40SOL     OW 1018   4.414   0.297   5.362
   40SOL    HW1 1019   4.415   0.373   5.427
   40SOL    HW2 1020   4.420   0.211   5.412
   41SOL     OW 1021   0.588   3.469   0.883
   41SOL    HW1 1022   0.523   3.404   0.921
   41SOL    HW2 1023   0.613   3.537   0.952
   42SOL     OW 1024   2.696   3.590   1.103
   42SOL    HW1 1025   2.748   3.646   1.168
   42SOL    HW2 1026   2.656   3.649   1.033
   43SOL     OW 1027   5.124   0.656   3.111
   43SOL    HW1 1028   5.161   0.603   3.188
   43SOL    HW2 1029   5.191   0.724   3.082
   44SOL     OW 1030   6.927   0.883   6.756
   44SOL    HW1 1031   6.943   0.887   6.854
   44SOL    HW2 1032   6.939   0.974   6.716
   45SOL     OW 1033   2.168   3.747   4.688
   45SOL    HW1 1034   2.201   3.746   4.593
   45SOL    HW2 1035   2.214   3.675   4.740
   46SOL     OW 1036   0.888   6.061   4.646
   46SOL    HW1 1037   0.909   5.964   4.655
   46SOL    HW2 1038   0.857   6.097   4.734
   47SOL     OW 1039   0.768   4.180   6.035
   47SOL    HW1 1040   0.833   4.120   6.081
   47SOL    HW2 1041   0.807   4.271   6.026
   48SOL     OW 1042   0.940   4.008   0.360
   48SOL    HW1 1043   0.988   4.066   0.294
   48SOL    HW2 1044   0.865   3.961   0.314
   49SOL     OW 1045   3.823   0.081   6.971
   49SOL    HW1 1046   3.824   0.180   6.982
   49SOL    HW2 1047   3.916   0.048   6.957
   50SOL     OW 1048   4.976   1.890   5.757
   50SOL    HW1 1049   4.878   1.893   5.773
   50SOL    HW2 1050   5.014   1.806   5.798
   51SOL     OW 1051   1.156   6.709   1.536
   51SOL    HW1 1052   1.076   6.734   1.592
   51SOL    HW2 1053   1.207   6.792   1.513
   52SOL     OW 1054   4.988   3.265   2.613
   52SOL    HW1 1055   4.968   3.189   2.551
   52SOL    HW2 1056   5.023   3.343   2.561
   53SOL     OW 1057   4.332   6.346   1.105
   53SOL    HW1 1058   4.358   6.435   1.142
   53SOL    HW2 1059   4.257   6.357   1.040
   54SOL     OW 1060   0.719   1.060   6.369
   54SOL    HW1 1061   0.656   1.039   6.294
   54SOL    HW2 1062   0.786   0.986   6.379
   55SOL     OW 1063   2.822   3.559   6.171
   55SOL    HW1 1064   2.736   3.554   6.224
   55SOL    HW2 1065   2.825   3.482   6.107
   56SOL     OW 1066   1.852   2.421   0.141
   56SOL    HW1 1067   1.825   2.328   0.113
   56SOL    HW2 1068   1.853   2.481   0.061
   57SOL     OW 1069   3.989   6.258   1.780
   57SOL    HW1 1070   3.930   6.191   1.734
   57SOL    HW2 1071   3.959   6.269   1.875
   58SOL     OW 1072   0.898   0.321   0.606
   58SOL    HW1 1073   0.851   0.233   0.605
   58SOL    HW2 1074   0.985   0.313   0.557
   59SOL     OW 1075   4.605   4.014   6.756
   59SOL    HW1 1076   4.533   3.951   6.785
   59SOL    HW2 1077   4.569   4.108   6.756
   60SOL     OW 1078   6.472   2.596   2.077
   60SOL    HW1 1079   6.447   2.609   2.173
   60SOL    HW2 1080   6.493   2.500   2.061
   61SOL     OW 1081   0.916   4.744   2.679
   61SOL    HW1 1082   0.856   4.817   2.712
   61SOL    HW2 1083   0.860   4.670   2.641
   62SOL     OW 1084   5.133   4.000   2.902
   62SOL    HW1 1085   5.043   4.002   2.859
   62SOL    HW2 1086   5.160   3.905   2.918
   63SOL     OW 1087   4.635   0.077   5.892
   63SOL    HW1 1088   4.667   0.104   5.801
   63SOL    HW2 1089   4.615   0.159   5.946
   64SOL     OW 1090   2.164   1.574   6.662
   64SOL    HW1 1091   2.228   1.498   6.647
   64SOL    HW2 1092   2.162   1.597   6.759
   65SOL     OW 1093   0.569   5.450   5.165
   65SOL    HW1 1094   0.550   5.519   5.235
   65SOL    HW2 1095   0.483   5.404   5.139
   66SOL     OW 1096   4.588   1.469   1.418
   66SOL    HW1 1097   4.633   1.482   1.330
   66SOL    HW2 1098   4.618   1.540   1.482
   67SOL     OW 1099   0.189   2.796   2.922
   67SOL    HW1 1100   0.209   2.729   2.850
   67SOL    HW2 1101   0.242   2.879   2.906
   68SOL     OW 1102   6.941   1.320   5.768
   68SOL    HW1 1103   6.879   1.391   5.801
   68SOL    HW2 1104   6.904   1.279   5.685
   69SOL     OW 1105   1.661   0.986   5.996
   69SOL    HW1 1106   1.681   1.024   5.905
   69SOL    HW2 1107   1.718   0.906   6.012
   70SOL     OW 1108   5.025   5.084   2.866
   70SOL    HW1 1109   5.075   5.012   2.913
   70SOL    HW2 1110   5.080   5.119   2.790
   71SOL     OW 1111   5.558   1.439   5.567
   71SOL    HW1 1112   5.461   1.422   5.550
   71SOL    HW2 1113   5.568   1.492   5.651
   72SOL     OW 1114   6.688   2.054   2.326
   72SOL    HW1 1115   6.742   2.028   2.245
   72SOL    HW2 1116   6.591   2.052   2.303
   73SOL     OW 1117   2.381   1.197   0.551
   73SOL    HW1 1118   2.335   1.124   0.601
   73SOL    HW2 1119   2.480   1.182   0.553
   74SOL     OW 1120   2.798   0.639   0.326
   74SOL    HW1 1121   2.854   0.715   0.292
   74SOL    HW2 1122   2.704   0.671   0.341
   75SOL     OW 1123   3.228   3.203   1.251
   75SOL    HW1 1124   3.153   3.208   1.317
   75SOL    HW2 1125   3.273   3.293   1.245
   76SOL     OW 1126   3.145   4.878   6.158
   76SOL    HW1 1127   3.137   4.923   6.247
   76SOL    HW2 1128   3.104   4.936   6.087
   77SOL     OW 1129   0.444   4.415   5.626
   77SOL    HW1 1130   0.391   4.334   5.599
   77SOL    HW2 1131   0.480   4.401   5.718
   78SOL     OW 1132   4.602   1.598   0.556
   78SOL    HW1 1133   4.520   1.606   0.613
   78SOL    HW2 1134   4.681   1.628   0.608
   79SOL     OW 1135   2.051   4.940   4.342
   79SOL    HW1 1136   2.131   4.942   4.401
   79SOL    HW2 1137   1.969   4.958   4.396
   80SOL     OW 1138   4.675   1.935   5.053
   80SOL    HW1 1139   4.619   1.869   5.003
   80SOL    HW2 1140   4.765   1.895   5.071
   81SOL     OW 1141   2.107   5.223   2.896
   81SOL    HW1 1142   2.115   5.315   2.933
   81SOL    HW2 1143   2.133   5.156   2.966
   82SOL     OW 1144   2.773   0.253   1.132
   82SOL    HW1 1145   2.755   0.284   1.039
   82SOL    HW2 1146   2.806   0.159   1.131
   83SOL     OW 1147   6.253   2.343   3.994
   83SOL    HW1 1148   6.175   2.388   4.038
   83SOL    HW2 1149   6.234   2.331   3.897
   84SOL     OW 1150   5.359   2.146   3.151
   84SOL    HW1 1151   5.293   2.112   3.084
   84SOL    HW2 1152   5.310   2.193   3.225
   85SOL     OW 1153   2.432   5.161   2.943
   85SOL    HW1 1154   2.373   5.218   2.999
   85SOL    HW2 1155   2.506   5.123   2.999
   86SOL     OW 1156   5.051   1.286   5.161
   86SOL    HW1 1157   4.963   1.332   5.147
   86SOL    HW2 1158   5.037   1.187   5.158
   87SOL     OW 1159   3.007   2.069   6.448
   87SOL    HW1 1160   2.937   2.105   6.387
   87SOL    HW2 1161   2.963   2.032   6.530
   88SOL     OW 1162   0.984   1.848   0.142
   88SOL    HW1 1163   0.972   1.939   0.180
   88SOL    HW2 1164   0.967   1.779   0.214
   89SOL     OW 1165   3.992   4.338   5.992
   89SOL    HW1 1166   3.893   4.333   6.002
   89SOL    HW2 1167   4.024   4.429   6.017
   90SOL     OW 1168   0.124   3.670   2.026
   90SOL    HW1 1169   0.048   3.608   2.005
   90SOL    HW2 1170   0.147   3.724   1.945
   91SOL     OW 1171   5.406   4.726   0.942
   91SOL    HW1 1172   5.398   4.823   0.965
   91SOL    HW2 1173   5.501   4.703   0.923
   92SOL     OW 1174   6.745   6.204   6.923
   92SOL    HW1 1175   6.845   6.200   6.933
   92SOL    HW2 1176   6.720   6.173   6.831
   93SOL     OW 1177   2.958   3.261   2.455
   93SOL    HW1 1178   2.931   3.164   2.463
   93SOL    HW2 1179   2.957   3.302   2.546
   94SOL     OW 1180   3.767   1.164   4.284
   94SOL    HW1 1181   3.760   1.067   4.308
   94SOL    HW2 1182   3.798   1.215   4.364
   95SOL     OW 1183   0.466   6.739   3.727
   95SOL    HW1 1184   0.495   6.718   3.634
   95SOL    HW2 1185   0.541   6.783   3.776
   96SOL     OW 1186   0.925   6.816   0.703
   96SOL    HW1 1187   0.958   6.770   0.786
   96SOL    HW2 1188   1.003   6.856   0.654
   97SOL     OW 1189   3.760   5.083   5.240
   97SOL    HW1 1190   3.747   5.169   5.190
   97SOL    HW2 1191   3.673   5.033   5.242
   98SOL     OW 1192   6.840   1.790   5.220
   98SOL    HW1 1193   6.776   1.714   5.221
   98SOL    HW2 1194   6.908   1.779   5.293
   99SOL     OW 1195   5.464   4.841   5.100
   99SOL    HW1 1196   5.442   4.891   5.016
   99SOL    HW2 1197   5.556   4.865   5.130
  100SOL     OW 1198   1.826   1.906   5.650
  100SOL    HW1 1199   1.917   1.918   5.691
  100SOL    HW2 1200   1.760   1.883   5.721
  101SOL     OW 1201   5.232   2.413   2.271
  101SOL    HW1 1202   5.190   2.504   2.269
  101SOL    HW2 1203   5.305   2.409   2.203
  102SOL     OW 1204   5.062   6.629   0.797
  102SOL    HW1 1205   5.105   6.652   0.709
  102SOL    HW2 1206   4.998   6.700   0.823
  103SOL     OW 1207   2.239   2.414   1.266
  103SOL    HW1 1208   2.258   2.482   1.196
  103SOL    HW2 1209   2.212   2.460   1.351
  104SOL     OW 1210   1.053   3.801   1.892
  104SOL    HW1 1211   1.032   3.774   1.798
  104SOL    HW2 1212   1.036   3.724   1.953
  105SOL     OW 1213   0.447   1.845   4.658
  105SOL    HW1 1214   0.484   1.755   4.636
  105SOL    HW2 1215   0.373   1.867   4.595
  106SOL     OW 1216   5.477   2.701   1.201
  106SOL    HW1 1217   5.485   2.607   1.235
  106SOL    HW2 1218   5.422   2.754   1.265
  107SOL     OW 1219   4.848   0.443   2.262
  107SOL    HW1 1220   4.769   0.503   2.279
  107SOL    HW2 1221   4.838   0.358   2.313
  108SOL     OW 1222   4.306   1.104   4.714
  108SOL    HW1 1223   4.379   1.071   4.774
  108SOL    HW2 1224   4.246   1.166   4.765
  109SOL     OW 1225   2.328   1.581   4.076
  109SOL    HW1 1226   2.345   1.605   3.980
  109SOL    HW2 1227   2.415   1.569   4.123
  110SOL     OW 1228   4.531   4.763   5.551
  110SOL    HW1 1229   4.526   4.741   5.648
  110SOL    HW2 1230   4.626   4.763   5.521
  111SOL     OW 1231   6.837   3.531   0.246
  111SOL    HW1 1232   6.834   3.540   0.146
  111SOL    HW2 1233   6.803   3.441   0.272
  112SOL     OW 1234   3.764   6.317   5.186
  112SOL    HW1 1235   3.668   6.340   5.200
  112SOL    HW2 1236   3.819   6.400   5.193
  113SOL     OW 1237   1.314   4.638   2.344
  113SOL    HW1 1238   1.293   4.718   2.401
  113SOL    HW2 1239   1.317   4.557   2.402
  114SOL     OW 1240   6.544   1.829   1.639
  114SOL    HW1 1241   6.635   1.805   1.674
  114SOL    HW2 1242   6.477   1.825   1.713
  115SOL     OW 1243   4.583   0.146   3.334
  115SOL    HW1 1244   4.520   0.224   3.337
  115SOL    HW2 1245   4.566   0.087   3.412
  116SOL     OW 1246   6.153   5.530   6.484
  116SOL    HW1 1247   6.193   5.619   6.506
  116SOL    HW2 1248   6.090   5.503   6.556
  117SOL     OW 1249   1.758   1.806   0.385
  117SOL    HW1 1250   1.805   1.718   0.383
  117SOL    HW2 1251   1.808   1.872   0.328
  118SOL     OW 1252   1.170   2.696   1.663
  118SOL    HW1 1253   1.185   2.633   1.739
  118SOL    HW2 1254   1.072   2.705   1.646
  119SOL     OW 1255   4.983   5.042   4.168
  119SOL    HW1 1256   4.932   5.070   4.249
  119SOL    HW2 1257   5.042   4.965   4.191
  120SOL     OW 1258   5.067   1.007   4.156
  120SOL    HW1 1259   5.141   1.051   4.106
  120SOL    HW2 1260   4.979   1.041   4.123
  121SOL     OW 1261   6.533   5.157   6.082
  121SOL    HW1 1262   6.556   5.083   6.144
  121SOL    HW2 1263   6.613   5.181   6.027
  122SOL     OW 1264   0.365   5.775   5.732
  122SOL    HW1 1265   0.442   5.802   5.675
  122SOL    HW2 1266   0.289   5.745   5.674
  123SOL     OW 1267   0.854   1.831   1.068
  123SOL    HW1 1268   0.921   1.835   0.994
  123SOL    HW2 1269   0.769   1.873   1.038
  124SOL     OW 1270   1.677   3.631   6.872
  124SOL    HW1 1271   1.640   3.588   6.954
  124SOL    HW2 1272   1.606   3.634   6.802
  125SOL     OW 1273   4.136   3.344   1.939
  125SOL    HW1 1274   4.220   3.374   1.894
  125SOL    HW2 1275   4.070   3.419   1.940
  126SOL     OW 1276   3.642   3.405   5.315
  126SOL    HW1 1277   3.571   3.378   5.380
  126SOL    HW2 1278   3.631   3.502   5.292
  127SOL     OW 1279   0.155   4.600   6.197
  127SOL    HW1 1280   0.170   4.605   6.099
  127SOL    HW2 1281   0.243   4.587   6.244
  128SOL     OW 1282   4.660   4.347   6.526
  128SOL    HW1 1283   4.701   4.304   6.445
  128SOL    HW2 1284   4.596   4.284   6.568
  129SOL     OW 1285   1.060   5.055   2.765
  129SOL    HW1 1286   0.984   5.110   2.731
  129SOL    HW2 1287   1.052   4.962   2.730
  130SOL     OW 1288   6.355   4.359   4.986
  130SOL    HW1 1289   6.389   4.282   5.041
  130SOL    HW2 1290   6.379   4.345   4.890
  131SOL     OW 1291   0.426   2.782   1.591
  131SOL    HW1 1292   0.495   2.834   1.540
  131SOL    HW2 1293   0.432   2.804   1.688
  132SOL     OW 1294   3.483   3.894   2.022
  132SOL    HW1 1295   3.497   3.891   2.121
  132SOL    HW2 1296   3.490   3.801   1.985
  133SOL     OW 1297   4.722   4.544   6.095
  133SOL    HW1 1298   4.660   4.491   6.037
  133SOL    HW2 1299   4.672   4.582   6.172
  134SOL     OW 1300   0.571   2.035   6.815
  134SOL    HW1 1301   0.500   1.966   6.797
  134SOL    HW2 1302   0.657   2.005   6.776
  135SOL     OW 1303   4.282   4.815   4.335
  135SOL    HW1 1304   4.363   4.811   4.393
  135SOL    HW2 1305   4.200   4.823   4.392
  136SOL     OW 1306   3.420   6.333   6.636
  136SOL    HW1 1307   3.372   6.259   6.588
  136SOL    HW2 1308   3.390   6.336   6.731
  137SOL     OW 1309   1.929   4.203   0.377
  137SOL    HW1 1310   1.852   4.221   0.316
  137SOL    HW2 1311   2.006   4.168   0.324
  138SOL     OW 1312   0.260   6.747   2.035
  138SOL    HW1 1313   0.257   6.715   2.129
  138SOL    HW2 1314   0.180   6.712   1.985
  139SOL     OW 1315   1.363   0.009   1.089
  139SOL    HW1 1316   1.375   0.008   0.990
  139SOL    HW2 1317   1.275   6.999   1.113
  140SOL     OW 1318   2.650   0.489   3.290
  140SOL    HW1 1319   2.575   0.427   3.269
  140SOL    HW2 1320   2.706   0.503   3.208
  141SOL     OW 1321   2.316   2.714   0.876
  141SOL    HW1 1322   2.333   2.804   0.835
  141SOL    HW2 1323   2.338   2.643   0.810
  142SOL     OW 1324   1.516   4.389   6.356
  142SOL    HW1 1325   1.440   4.324   6.362
  142SOL    HW2 1326   1.518   4.444   6.439
  143SOL     OW 1327   4.147   6.057   2.239
  143SOL    HW1 1328   4.228   6.113   2.221
  143SOL    HW2 1329   4.166   5.962   2.214
  144SOL     OW 1330   2.695   4.816   3.066
  144SOL    HW1 1331   2.603   4.793   3.097
  144SOL    HW2 1332   2.711   4.914   3.081
  145SOL     OW 1333   6.006   6.521   2.381
  145SOL    HW1 1334   6.064   6.579   2.324
  145SOL    HW2 1335   6.017   6.548   2.477
  146SOL     OW 1336   6.220   1.383   4.489
  146SOL    HW1 1337   6.241   1.383   4.392
  146SOL    HW2 1338   6.133   1.334   4.505
  147SOL     OW 1339   6.025   6.532   5.656
  147SOL    HW1 1340   6.078   6.581   5.726
  147SOL    HW2 1341   5.946   6.586   5.630
  148SOL     OW 1342   2.222   0.458   3.645
  148SOL    HW1 1343   2.209   0.557   3.634
  148SOL    HW2 1344   2.220   0.414   3.556
  149SOL     OW 1345   2.093   1.828   5.356
  149SOL    HW1 1346   2.091   1.848   5.454
  149SOL    HW2 1347   2.014   1.872   5.312
  150SOL     OW 1348   5.358   3.367   4.197
  150SOL    HW1 1349   5.268   3.409   4.205
  150SOL    HW2 1350   5.362   3.286   4.256
  151SOL     OW 1351   6.375   2.648   1.609
  151SOL    HW1 1352   6.466   2.613   1.587
  151SOL    HW2 1353   6.379   2.746   1.625
  152SOL     OW 1354   6.007   1.375   0.033
  152SOL    HW1 1355   6.059   1.442   7.011
  152SOL    HW2 1356   6.003   1.402   0.129
  153SOL     OW 1357   1.454   1.710   3.779
  153SOL    HW1 1358   1.384   1.699   3.849
  153SOL    HW2 1359   1.410   1.718   3.689
  154SOL     OW 1360   0.103   1.963   3.348
  154SOL    HW1 1361   0.121   1.934   3.442
  154SOL    HW2 1362   0.183   2.012   3.313
  155SOL     OW 1363   6.245   5.219   3.295
  155SOL    HW1 1364   6.344   5.229   3.284
  155SOL    HW2 1365   6.224   5.125   3.322
  156SOL     OW 1366   4.279   6.863   0.712
  156SOL    HW1 1367   4.196   6.807   0.710
  156SOL    HW2 1368   4.357   6.805   0.737
  157SOL     OW 1369   5.680   1.575   0.717
  157SOL    HW1 1370   5.734   1.523   0.651
  157SOL    HW2 1371   5.622   1.641   0.669
  158SOL     OW 1372   0.910   2.698   5.678
  158SOL    HW1 1373   0.982   2.633   5.704
  158SOL    HW2 1374   0.908   2.773   5.743
  159SOL     OW 1375   0.214   5.046   6.836
  159SOL    HW1 1376   0.276   5.100   6.780
  159SOL    HW2 1377   0.262   4.967   6.873
  160SOL     OW 1378   4.414   0.103   1.776
  160SOL    HW1 1379   4.359   0.130   1.855
  160SOL    HW2 1380   4.416   0.003   1.770
  161SOL     OW 1381   5.237   6.532   1.387
  161SOL    HW1 1382   5.196   6.623   1.398
  161SOL    HW2 1383   5.224   6.500   1.294
  162SOL     OW 1384   4.215   0.194   5.185
  162SOL    HW1 1385   4.279   0.237   5.249
  162SOL    HW2 1386   4.178   0.264   5.124
  163SOL     OW 1387   1.522   4.449   3.238
  163SOL    HW1 1388   1.507   4.503   3.321
  163SOL    HW2 1389   1.620   4.432   3.226
  164SOL     OW 1390   1.758   3.076   2.411
  164SOL    HW1 1391   1.711   3.036   2.489
  164SOL    HW2 1392   1.824   3.144   2.442
  165SOL     OW 1393   0.116   6.162   5.239
  165SOL    HW1 1394   0.158   6.078   5.204
  165SOL    HW2 1395   0.151   6.241   5.189
  166SOL     OW 1396   0.509   5.552   4.333
  166SOL    HW1 1397   0.568   5.472   4.322
  166SOL    HW2 1398   0.458   5.545   4.419
  167SOL     OW 1399   0.047   1.450   3.223
  167SOL    HW1 1400   0.042   1.495   3.313
  167SOL    HW2 1401   0.142   1.431   3.201
  168SOL     OW 1402   3.463   4.154   4.653
  168SOL    HW1 1403   3.384   4.150   4.714
  168SOL    HW2 1404   3.442   4.108   4.567
  169SOL     OW 1405   4.662   3.019   5.755
  169SOL    HW1 1406   4.617   2.962   5.824
  169SOL    HW2 1407   4.761   3.011   5.763
  170SOL     OW 1408   6.124   5.254   3.020
  170SOL    HW1 1409   6.091   5.273   3.112
  170SOL    HW2 1410   6.076   5.175   2.982
  171SOL     OW 1411   3.641   2.949   0.985
  171SOL    HW1 1412   3.718   2.885   0.976
  171SOL    HW2 1413   3.574   2.930   0.914
  172SOL     OW 1414   1.727   0.531   0.349
  172SOL    HW1 1415   1.723   0.500   0.254
  172SOL    HW2 1416   1.634   0.537   0.386
  173SOL     OW 1417   5.825   0.955   4.990
  173SOL    HW1 1418   5.799   0.983   4.898
  173SOL    HW2 1419   5.747   0.910   5.034
  174SOL     OW 1420   6.381   5.422   3.817
  174SOL    HW1 1421   6.298   5.477   3.826
  174SOL    HW2 1422   6.459   5.475   3.850
  175SOL     OW 1423   0.303   5.331   1.937
  175SOL    HW1 1424   0.213   5.356   1.900
  175SOL    HW2 1425   0.373   5.390   1.897
  176SOL     OW 1426   5.898   3.629   1.077
  176SOL    HW1 1427   5.954   3.612   1.158
  176SOL    HW2 1428   5.890   3.545   1.024
  177SOL     OW 1429   5.610   2.346   3.754
  177SOL    HW1 1430   5.707   2.361   3.733
  177SOL    HW2 1431   5.554   2.398   3.690
  178SOL     OW 1432   1.137   5.076   4.783
  178SOL    HW1 1433   1.110   5.157   4.835
  178SOL    HW2 1434   1.110   5.088   4.687
  179SOL     OW 1435   3.121   4.054   1.855
  179SOL    HW1 1436   3.220   4.040   1.846
  179SOL    HW2 1437   3.097   4.143   1.816
  180SOL     OW 1438   5.541   0.378   5.465
  180SOL    HW1 1439   5.490   0.455   5.428
  180SOL    HW2 1440   5.500   0.350   5.553
  181SOL     OW 1441   2.970   5.710   5.730
  181SOL    HW1 1442   2.994   5.620   5.695
  181SOL    HW2 1443   2.888   5.743   5.683
  182SOL     OW 1444   3.133   2.603   5.345
  182SOL    HW1 1445   3.041   2.573   5.321
  182SOL    HW2 1446   3.199   2.537   5.309
  183SOL     OW 1447   2.088   0.607   2.814
  183SOL    HW1 1448   1.992   0.634   2.806
  183SOL    HW2 1449   2.147   0.686   2.799
  184SOL     OW 1450   5.611   6.585   4.002
  184SOL    HW1 1451   5.688   6.637   4.039
  184SOL    HW2 1452   5.623   6.488   4.024
  185SOL     OW 1453   0.492   6.128   5.150
  185SOL    HW1 1454   0.455   6.212   5.191
  185SOL    HW2 1455   0.473   6.127   5.052
  186SOL     OW 1456   3.281   4.672   0.296
  186SOL    HW1 1457   3.373   4.632   0.302
  186SOL    HW2 1458   3.288   4.770   0.281
  187SOL     OW 1459   3.891   5.662   0.401
  187SOL    HW1 1460   3.962   5.592   0.408
  187SOL    HW2 1461   3.864   5.674   0.306
  188SOL     OW 1462   1.322   4.138   3.617
  188SOL    HW1 1463   1.260   4.061   3.633
  188SOL    HW2 1464   1.361   4.130   3.525
  189SOL     OW 1465   6.738   3.606   5.893
  189SOL    HW1 1466   6.670   3.602   5.820
  189SOL    HW2 1467   6.820   3.653   5.861
  190SOL     OW 1468   6.220   6.001   0.089
  190SOL    HW1 1469   6.316   5.983   0.108
  190SOL    HW2 1470   6.212   6.082   0.031
  191SOL     OW 1471   1.845   3.773   6.550
  191SOL    HW1 1472   1.945   3.772   6.544
  191SOL    HW2 1473   1.816   3.830   6.627
  192SOL     OW 1474   0.970   6.472   0.163
  192SOL    HW1 1475   1.017   6.490   0.249
  192SOL    HW2 1476   0.894   6.535   0.151
  193SOL     OW 1477   3.040   0.119   1.823
  193SOL    HW1 1478   3.069   0.060   1.748
  193SOL    HW2 1479   2.940   0.116   1.831
  194SOL     OW 1480   4.408   6.766   3.279
  194SOL    HW1 1481   4.353   6.848   3.266
  194SOL    HW2 1482   4.419   6.748   3.376
  195SOL     OW 1483   3.411   0.588   1.089
  195SOL    HW1 1484   3.483   0.610   1.024
  195SOL    HW2 1485   3.394   0.666   1.149
  196SOL     OW 1486   3.658   3.062   1.298
  196SOL    HW1 1487   3.627   2.970   1.323
  196SOL    HW2 1488   3.665   3.119   1.380
  197SOL     OW 1489   0.677   6.307   1.218
  197SOL    HW1 1490   0.660   6.399   1.253
  197SOL    HW2 1491   0.659   6.304   1.120
  198SOL     OW 1492   6.361   0.830   5.198
  198SOL    HW1 1493   6.407   0.748   5.164
  198SOL    HW2 1494   6.397   0.910   5.150
  199SOL     OW 1495   1.227   0.325   2.986
  199SOL    HW1 1496   1.317   0.318   2.944
  199SOL    HW2 1497   1.224   0.404   3.047
  200SOL     OW 1498   1.698   3.325   3.358
  200SOL    HW1 1499   1.695   3.253   3.288
  200SOL    HW2 1500   1.794   3.348   3.378
  201SOL     OW 1501   5.446   1.126   6.778
  201SOL    HW1 1502   5.524   1.140   6.838
  201SOL    HW2 1503   5.444   1.198   6.709
  202SOL     OW 1504   3.677   0.580   2.508
  202SOL    HW1 1505   3.626   0.665   2.524
  202SOL    HW2 1506   3.658   0.515   2.581
  203SOL     OW 1507   5.719   2.614   1.629
  203SOL    HW1 1508   5.800   2.662   1.661
  203SOL    HW2 1509   5.639   2.674   1.636
  204SOL     OW 1510   2.332   5.859   0.754
  204SOL    HW1 1511   2.353   5.953   0.727
  204SOL    HW2 1512   2.323   5.802   0.673
  205SOL     OW 1513   5.125   0.937   0.305
  205SOL    HW1 1514   5.075   0.973   0.226
  205SOL    HW2 1515   5.214   0.904   0.275
  206SOL     OW 1516   0.173   5.508   2.190
  206SOL    HW1 1517   0.093   5.542   2.141
  206SOL    HW2 1518   0.155   5.416   2.223
  207SOL     OW 1519   6.714   2.602   6.035
  207SOL    HW1 1520   6.808   2.637   6.044
  207SOL    HW2 1521   6.650   2.673   6.066
  208SOL     OW 1522   5.104   3.490   1.297
  208SOL    HW1 1523   5.043   3.463   1.222
  208SOL    HW2 1524   5.054   3.548   1.361
  209SOL     OW 1525   6.068   0.926   3.989
  209SOL    HW1 1526   6.114   1.005   3.948
  209SOL    HW2 1527   6.024   0.953   4.074
  210SOL     OW 1528   5.238   3.068   6.900
  210SOL    HW1 1529   5.242   2.970   6.880
  210SOL    HW2 1530   5.327   3.110   6.879
  211SOL     OW 1531   6.972   4.925   2.294
  211SOL    HW1 1532   6.944   4.941   2.389
  211SOL    HW2 1533   0.039   4.948   2.284
  212SOL     OW 1534   0.751   5.173   5.534
  212SOL    HW1 1535   0.764   5.147   5.438
  212SOL    HW2 1536   0.700   5.259   5.538
  213SOL     OW 1537   4.773   2.392   1.684
  213SOL    HW1 1538   4.822   2.400   1.597
  213SOL    HW2 1539   4.829   2.434   1.756
  214SOL     OW 1540   6.907   5.820   3.761
  214SOL    HW1 1541   6.822   5.842   3.714
  214SOL    HW2 1542   6.922   5.721   3.759
  215SOL     OW 1543   3.630   3.001   3.377
  215SOL    HW1 1544   3.597   3.094   3.389
  215SOL    HW2 1545   3.604   2.967   3.287
  216SOL     OW 1546   4.181   6.726   4.844
  216SOL    HW1 1547   4.103   6.788   4.852
  216SOL    HW2 1548   4.249   6.749   4.913
  217SOL     OW 1549   6.303   2.089   4.791
  217SOL    HW1 1550   6.232   2.109   4.858
  217SOL    HW2 1551   6.321   1.990   4.789
  218SOL     OW 1552   2.350   5.014   5.395
  218SOL    HW1 1553   2.386   4.937   5.342
  218SOL    HW2 1554   2.253   5.025   5.377
  219SOL     OW 1555   3.204   6.676   6.906
  219SOL    HW1 1556   3.136   6.604   6.915
  219SOL    HW2 1557   3.275   6.664   6.976
  220SOL     OW 1558   1.567   4.613   0.378
  220SOL    HW1 1559   1.659   4.639   0.408
  220SOL    HW2 1560   1.508   4.606   0.458
  221SOL     OW 1561   6.077   4.301   4.642
  221SOL    HW1 1562   6.106   4.300   4.546
  221SOL    HW2 1563   6.084   4.394   4.678
  222SOL     OW 1564   0.869   0.371   4.960
  222SOL    HW1 1565   0.846   0.339   5.052
  222SOL    HW2 1566   0.918   0.298   4.912
  223SOL     OW 1567   5.723   6.039   1.739
  223SOL    HW1 1568   5.644   5.979   1.726
  223SOL    HW2 1569   5.709   6.125   1.689
  224SOL     OW 1570   5.530   4.263   2.328
  224SOL    HW1 1571   5.461   4.195   2.306
  224SOL    HW2 1572   5.487   4.353   2.333
  225SOL     OW 1573   4.567   5.831   1.097
  225SOL    HW1 1574   4.532   5.793   1.183
  225SOL    HW2 1575   4.533   5.925   1.086
  226SOL     OW 1576   1.226   5.501   3.377
  226SOL    HW1 1577   1.286   5.577   3.403
  226SOL    HW2 1578   1.282   5.426   3.341
  227SOL     OW 1579   1.210   3.629   3.292
  227SOL    HW1 1580   1.247   3.678   3.213
  227SOL    HW2 1581   1.247   3.536   3.294
  228SOL     OW 1582   3.564   5.666   3.609
  228SOL    HW1 1583   3.491   5.729   3.634
  228SOL    HW2 1584   3.525   5.580   3.578
  229SOL     OW 1585   5.821   6.988   2.047
  229SOL    HW1 1586   5.811   6.973   2.146
  229SOL    HW2 1587   5.731   7.003   2.007
  230SOL     OW 1588   1.291   4.692   4.729
  230SOL    HW1 1589   1.354   4.615   4.716
  230SOL    HW2 1590   1.317   4.768   4.670
  231SOL     OW 1591   0.001   2.397   6.876
  231SOL    HW1 1592   7.016   2.298   6.877
  231SOL    HW2 1593   7.015   2.432   6.784
  232SOL     OW 1594   2.220   3.066   0.270
  232SOL    HW1 1595   2.245   3.022   0.356
  232SOL    HW2 1596   2.121   3.083   0.270
  233SOL     OW 1597   3.545   0.302   0.454
  233SOL    HW1 1598   3.471   0.343   0.402
  233SOL    HW2 1599   3.633   0.322   0.409
  234SOL     OW 1600   1.949   5.345   0.686
  234SOL    HW1 1601   1.882   5.329   0.613
  234SOL    HW2 1602   1.907   5.399   0.758
  235SOL     OW 1603   4.294   2.979   5.349
  235SOL    HW1 1604   4.369   3.042   5.370
  235SOL    HW2 1605   4.332   2.893   5.312
  236SOL     OW 1606   6.909   6.922   6.781
  236SOL    HW1 1607   6.923   6.834   6.736
  236SOL    HW2 1608   6.832   6.917   6.844
  237SOL     OW 1609   5.986   0.507   2.690
  237SOL    HW1 1610   6.048   0.569   2.642
  237SOL    HW2 1611   6.005   0.510   2.788
  238SOL     OW 1612   0.280   1.669   3.396
  238SOL    HW1 1613   0.337   1.742   3.360
  238SOL    HW2 1614   0.305   1.582   3.352
  239SOL     OW 1615   6.133   4.849   6.347
  239SOL    HW1 1616   6.070   4.922   6.374
  239SOL    HW2 1617   6.087   4.760   6.358
  240SOL     OW 1618   0.018   3.100   4.233
  240SOL    HW1 1619   0.052   3.116   4.141
  240SOL    HW2 1620   0.070   3.026   4.276
  241SOL     OW 1621   6.027   2.746   4.231
  241SOL    HW1 1622   6.105   2.684   4.228
  241SOL    HW2 1623   5.963   2.717   4.302
  242SOL     OW 1624   1.861   2.340   2.746
  242SOL    HW1 1625   1.954   2.329   2.782
  242SOL    HW2 1626   1.841   2.437   2.735
  243SOL     OW 1627   5.460   1.303   6.568
  243SOL    HW1 1628   5.455   1.396   6.605
  243SOL    HW2 1629   5.531   1.300   6.497
  244SOL     OW 1630   1.558   0.802   5.696
  244SOL    HW1 1631   1.463   0.828   5.679
  244SOL    HW2 1632   1.565   0.756   5.784
  245SOL     OW 1633   5.015   1.984   4.764
  245SOL    HW1 1634   5.031   1.998   4.667
  245SOL    HW2 1635   5.085   1.923   4.801
  246SOL     OW 1636   5.067   4.065   4.457
  246SOL    HW1 1637   5.053   3.991   4.523
  246SOL    HW2 1638   5.161   4.099   4.464
  247SOL     OW 1639   1.362   0.522   2.663
  247SOL    HW1 1640   1.420   0.590   2.618
  247SOL    HW2 1641   1.357   0.542   2.761
  248SOL     OW 1642   6.703   3.026   3.381
  248SOL    HW1 1643   6.750   3.011   3.294
  248SOL    HW2 1644   6.757   2.987   3.455
  249SOL     OW 1645   1.878   6.524   4.638
  249SOL    HW1 1646   1.904   6.610   4.682
  249SOL    HW2 1647   1.804   6.542   4.573
  250SOL     OW 1648   5.797   2.258   0.577
  250SOL    HW1 1649   5.730   2.184   0.579
  250SOL    HW2 1650   5.870   2.237   0.512
  251SOL     OW 1651   2.223   0.057   2.697
  251SOL    HW1 1652   2.226   0.147   2.741
  251SOL    HW2 1653   2.166   7.025   2.750
  252SOL     OW 1654   6.685   3.342   6.820
  252SOL    HW1 1655   6.621   3.407   6.779
  252SOL    HW2 1656   6.706   3.270   6.754
  253SOL     OW 1657   2.080   4.784   5.681
  253SOL    HW1 1658   1.994   4.756   5.638
  253SOL    HW2 1659   2.115   4.709   5.737
  254SOL     OW 1660   5.219   3.369   6.968
  254SOL    HW1 1661   5.135   3.386   7.020
  254SOL    HW2 1662   5.269   3.292   7.008
  255SOL     OW 1663   4.231   2.118   2.101
  255SOL    HW1 1664   4.234   2.087   2.196
  255SOL    HW2 1665   4.136   2.134   2.074
  256SOL     OW 1666   0.173   6.241   0.821
  256SOL    HW1 1667   0.244   6.231   0.891
  256SOL    HW2 1668   0.083   6.246   0.865
  257SOL     OW 1669   2.713   6.378   6.590
  257SOL    HW1 1670   2.625   6.381   6.637
  257SOL    HW2 1671   2.785   6.353   6.656
  258SOL     OW 1672   4.981   4.735   3.825
  258SOL    HW1 1673   4.970   4.744   3.726
  258SOL    HW2 1674   4.912   4.790   3.871
  259SOL     OW 1675   6.291   1.621   2.054
  259SOL    HW1 1676   6.287   1.552   2.127
  259SOL    HW2 1677   6.266   1.578   1.967
  260SOL     OW 1678   6.310   6.779   6.143
  260SOL    HW1 1679   6.258   6.776   6.228
  260SOL    HW2 1680   6.340   6.873   6.125
  261SOL     OW 1681   6.575   1.183   3.062
  261SOL    HW1 1682   6.498   1.183   3.126
  261SOL    HW2 1683   6.643   1.250   3.091
  262SOL     OW 1684   1.454   5.590   0.724
  262SOL    HW1 1685   1.458   5.536   0.640
  262SOL    HW2 1686   1.444   5.528   0.803
  263SOL     OW 1687   0.859   4.679   5.219
  263SOL    HW1 1688   0.880   4.742   5.294
  263SOL    HW2 1689   0.770   4.701   5.180
  264SOL     OW 1690   4.248   4.560   0.569
  264SOL    HW1 1691   4.275   4.473   0.612
  264SOL    HW2 1692   4.157   4.550   0.529
  265SOL     OW 1693   3.803   5.578   4.667
  265SOL    HW1 1694   3.873   5.641   4.633
  265SOL    HW2 1695   3.714   5.623   4.666
  266SOL     OW 1696   4.787   3.397   6.695
  266SOL    HW1 1697   4.757   3.403   6.599
  266SOL    HW2 1698   4.736   3.463   6.750
  267SOL     OW 1699   3.236   1.846   6.475
  267SOL    HW1 1700   3.182   1.922   6.439
  267SOL    HW2 1701   3.175   1.771   6.500
  268SOL     OW 1702   1.519   4.487   2.948
  268SOL    HW1 1703   1.595   4.541   2.913
  268SOL    HW2 1704   1.515   4.494   3.047
  269SOL     OW 1705   2.946   1.214   5.244
  269SOL    HW1 1706   2.954   1.301   5.195
  269SOL    HW2 1707   3.036   1.186   5.278
  270SOL     OW 1708   5.441   5.771   4.815
  270SOL    HW1 1709   5.345   5.747   4.826
  270SOL    HW2 1710   5.458   5.795   4.719
  271SOL     OW 1711   2.555   0.760   6.963
  271SOL    HW1 1712   2.650   0.746   6.934
  271SOL    HW2 1713   2.540   0.857   6.980
  272SOL     OW 1714   5.951   3.838   6.864
  272SOL    HW1 1715   5.899   3.817   6.781
  272SOL    HW2 1716   5.926   3.929   6.898
  273SOL     OW 1717   0.421   5.762   4.192
  273SOL    HW1 1718   0.500   5.798   4.143
  273SOL    HW2 1719   0.449   5.681   4.245
  274SOL     OW 1720   5.272   2.989   2.579
  274SOL    HW1 1721   5.249   3.015   2.673
  274SOL    HW2 1722   5.347   2.924   2.579
  275SOL     OW 1723   5.662   5.240   5.719
  275SOL    HW1 1724   5.746   5.239   5.774
  275SOL    HW2 1725   5.683   5.280   5.629
  276SOL     OW 1726   0.327   0.250   4.627
  276SOL    HW1 1727   0.287   0.160   4.646
  276SOL    HW2 1728   0.405   0.266   4.688
  277SOL     OW 1729   3.906   3.701   5.913
  277SOL    HW1 1730   3.855   3.770   5.862
  277SOL    HW2 1731   4.003   3.727   5.915
  278SOL     OW 1732   6.139   5.157   2.176
  278SOL    HW1 1733   6.166   5.185   2.268
  278SOL    HW2 1734   6.074   5.223   2.139
  279SOL     OW 1735   6.548   3.285   3.953
  279SOL    HW1 1736   6.640   3.325   3.951
  279SOL    HW2 1737   6.505   3.306   4.041
  280SOL     OW 1738   4.257   0.992   2.447
  280SOL    HW1 1739   4.217   0.951   2.365
  280SOL    HW2 1740   4.222   0.945   2.528
  281SOL     OW 1741   5.176   5.155   6.146
  281SOL    HW1 1742   5.225   5.067   6.146
  281SOL    HW2 1743   5.078   5.138   6.150
  282SOL     OW 1744   0.694   1.575   0.077
  282SOL    HW1 1745   0.735   1.664   0.097
  282SOL    HW2 1746   0.638   1.546   0.155
  283SOL     OW 1747   6.339   3.832   2.910
  283SOL    HW1 1748   6.368   3.737   2.925
  283SOL    HW2 1749   6.319   3.846   2.813
  284SOL     OW 1750   5.709   0.062   2.535
  284SOL    HW1 1751   5.763   0.080   2.618
  284SOL    HW2 1752   5.696   0.148   2.485
  285SOL     OW 1753   5.357   6.006   6.381
  285SOL    HW1 1754   5.366   6.041   6.474
  285SOL    HW2 1755   5.447   6.000   6.339
  286SOL     OW 1756   3.267   5.846   5.597
  286SOL    HW1 1757   3.279   5.922   5.661
  286SOL    HW2 1758   3.346   5.840   5.535
  287SOL     OW 1759   4.777   6.712   0.591
  287SOL    HW1 1760   4.789   6.767   0.509
  287SOL    HW2 1761   4.846   6.639   0.593
  288SOL     OW 1762   3.613   0.740   0.020
  288SOL    HW1 1763   3.708   0.750   7.019
  288SOL    HW2 1764   3.609   0.746   0.119
  289SOL     OW 1765   5.980   5.252   4.840
  289SOL    HW1 1766   5.954   5.346   4.863
  289SOL    HW2 1767   6.071   5.233   4.877
  290SOL     OW 1768   2.756   1.220   4.715
  290SOL    HW1 1769   2.679   1.243   4.775
  290SOL    HW2 1770   2.722   1.191   4.626
  291SOL     OW 1771   6.059   1.190   4.980
  291SOL    HW1 1772   5.991   1.121   4.953
  291SOL    HW2 1773   6.117   1.212   4.902
  292SOL     OW 1774   2.701   0.889   4.545
  292SOL    HW1 1775   2.800   0.896   4.559
  292SOL    HW2 1776   2.662   0.830   4.615
  293SOL     OW 1777   5.602   0.773   2.975
  293SOL    HW1 1778   5.517   0.818   3.002
  293SOL    HW2 1779   5.675   0.797   3.039
  294SOL     OW 1780   6.718   0.982   6.174
  294SOL    HW1 1781   6.710   1.075   6.210
  294SOL    HW2 1782   6.814   0.958   6.163
  295SOL     OW 1783   0.541   0.678   5.229
  295SOL    HW1 1784   0.541   0.624   5.314
  295SOL    HW2 1785   0.591   0.763   5.244
  296SOL     OW 1786   6.927   1.453   6.627
  296SOL    HW1 1787   6.968   1.526   6.572
  296SOL    HW2 1788   6.925   1.368   6.574
  297SOL     OW 1789   5.099   4.439   3.066
  297SOL    HW1 1790   5.143   4.489   3.140
  297SOL    HW2 1791   5.017   4.393   3.100
  298SOL     OW 1792   4.268   5.921   5.335
  298SOL    HW1 1793   4.183   5.927   5.283
  298SOL    HW2 1794   4.340   5.971   5.286
  299SOL     OW 1795   6.762   1.646   6.329
  299SOL    HW1 1796   6.793   1.704   6.405
  299SOL    HW2 1797   6.840   1.598   6.289
  300SOL     OW 1798   4.438   6.726   4.477
  300SOL    HW1 1799   4.491   6.649   4.511
  300SOL    HW2 1800   4.427   6.794   4.549
  301SOL     OW 1801   6.874   6.287   5.676
  301SOL    HW1 1802   6.894   6.380   5.708
  301SOL    HW2 1803   6.956   6.248   5.633
  302SOL     OW 1804   0.964   6.039   2.493
  302SOL    HW1 1805   0.977   6.138   2.501
  302SOL    HW2 1806   0.928   6.003   2.579
  303SOL     OW 1807   4.378   5.345   2.222
  303SOL    HW1 1808   4.419   5.412   2.284
  303SOL    HW2 1809   4.422   5.257   2.234
  304SOL     OW 1810   1.521   1.367   5.263
  304SOL    HW1 1811   1.465   1.303   5.316
  304SOL    HW2 1812   1.461   1.425   5.207
  305SOL     OW 1813   3.365   1.226   0.992
  305SOL    HW1 1814   3.368   1.185   0.901
  305SOL    HW2 1815   3.367   1.326   0.983
  306SOL     OW 1816   0.452   6.512   2.222
  306SOL    HW1 1817   0.401   6.518   2.136
  306SOL    HW2 1818   0.501   6.598   2.237
  307SOL     OW 1819   3.566   3.137   4.514
  307SOL    HW1 1820   3.593   3.232   4.498
  307SOL    HW2 1821   3.537   3.126   4.609
  308SOL     OW 1822   6.613   2.998   0.262
  308SOL    HW1 1823   6.625   2.972   0.166
  308SOL    HW2 1824   6.700   2.984   0.311
  309SOL     OW 1825   1.706   5.286   0.192
  309SOL    HW1 1826   1.802   5.271   0.166
  309SOL    HW2 1827   1.669   5.363   0.142
  310SOL     OW 1828   4.304   5.886   5.586
  310SOL    HW1 1829   4.325   5.979   5.615
  310SOL    HW2 1830   4.288   5.885   5.487
  311SOL     OW 1831   1.995   5.832   2.047
  311SOL    HW1 1832   1.998   5.930   2.063
  311SOL    HW2 1833   1.908   5.795   2.080
  312SOL     OW 1834   3.486   0.305   4.596
  312SOL    HW1 1835   3.522   0.249   4.521
  312SOL    HW2 1836   3.396   0.340   4.570
  313SOL     OW 1837   3.161   3.968   3.423
  313SOL    HW1 1838   3.101   3.914   3.482
  313SOL    HW2 1839   3.250   3.981   3.468
  314SOL     OW 1840   1.934   4.576   6.341
  314SOL    HW1 1841   1.883   4.497   6.307
  314SOL    HW2 1842   2.031   4.562   6.325
  315SOL     OW 1843   6.204   0.412   3.810
  315SOL    HW1 1844   6.192   0.511   3.808
  315SOL    HW2 1845   6.115   0.367   3.800
  316SOL     OW 1846   3.873   0.950   4.639
  316SOL    HW1 1847   3.900   0.928   4.733
  316SOL    HW2 1848   3.948   0.928   4.577
  317SOL     OW 1849   0.411   1.311   1.923
  317SOL    HW1 1850   0.332   1.254   1.946
  317SOL    HW2 1851   0.380   1.392   1.873
  318SOL     OW 1852   0.867   1.615   4.080
  318SOL    HW1 1853   0.816   1.694   4.113
  318SOL    HW2 1854   0.836   1.533   4.129
  319SOL     OW 1855   0.084   1.516   1.602
  319SOL    HW1 1856   0.019   1.591   1.613
  319SOL    HW2 1857   0.035   1.429   1.605
  320SOL     OW 1858   4.773   0.708   6.464
  320SOL    HW1 1859   4.827   0.767   6.525
  320SOL    HW2 1860   4.685   0.752   6.445
  321SOL     OW 1861   4.257   3.405   0.771
  321SOL    HW1 1862   4.162   3.374   0.766
  321SOL    HW2 1863   4.318   3.328   0.755
  322SOL     OW 1864   3.132   1.365   0.500
  322SOL    HW1 1865   3.105   1.449   0.453
  322SOL    HW2 1866   3.135   1.381   0.598
  323SOL     OW 1867   0.370   4.033   1.800
  323SOL    HW1 1868   0.428   4.025   1.719
  323SOL    HW2 1869   0.428   4.042   1.881
  324SOL     OW 1870   6.879   0.899   3.670
  324SOL    HW1 1871   6.863   0.958   3.750
  324SOL    HW2 1872   6.803   0.909   3.606
  325SOL     OW 1873   6.962   2.669   0.265
  325SOL    HW1 1874   0.022   2.655   0.222
  325SOL    HW2 1875   6.969   2.646   0.362
  326SOL     OW 1876   6.079   5.954   5.926
  326SOL    HW1 1877   6.061   5.856   5.918
  326SOL    HW2 1878   6.040   6.002   5.848
  327SOL     OW 1879   4.120   6.087   6.523
  327SOL    HW1 1880   4.155   6.120   6.611
  327SOL    HW2 1881   4.043   6.025   6.538
  328SOL     OW 1882   2.563   5.051   3.695
  328SOL    HW1 1883   2.651   5.004   3.681
  328SOL    HW2 1884   2.496   4.986   3.730
  329SOL     OW 1885   3.037   3.905   2.943
  329SOL    HW1 1886   2.989   3.822   2.916
  329SOL    HW2 1887   3.056   3.961   2.862
  330SOL     OW 1888   2.214   3.591   6.655
  330SOL    HW1 1889   2.146   3.553   6.717
  330SOL    HW2 1890   2.221   3.533   6.574
  331SOL     OW 1891   4.795   5.755   4.548
  331SOL    HW1 1892   4.801   5.746   4.448
  331SOL    HW2 1893   4.764   5.847   4.571
  332SOL     OW 1894   6.095   2.186   2.896
  332SOL    HW1 1895   6.139   2.125   2.961
  332SOL    HW2 1896   6.016   2.139   2.855
  333SOL     OW 1897   2.827   6.145   4.089
  333SOL    HW1 1898   2.917   6.151   4.132
  333SOL    HW2 1899   2.787   6.056   4.109
  334SOL     OW 1900   3.554   3.471   3.940
  334SOL    HW1 1901   3.622   3.536   3.907
  334SOL    HW2 1902   3.599   3.400   3.995
  335SOL     OW 1903   4.545   1.226   6.604
  335SOL    HW1 1904   4.506   1.317   6.617
  335SOL    HW2 1905   4.487   1.174   6.541
  336SOL     OW 1906   3.540   1.726   4.315
  336SOL    HW1 1907   3.489   1.688   4.238
  336SOL    HW2 1908   3.633   1.688   4.314
  337SOL     OW 1909   1.204   1.750   5.474
  337SOL    HW1 1910   1.295   1.766   5.437
  337SOL    HW2 1911   1.165   1.837   5.506
  338SOL     OW 1912   4.727   1.773   1.599
  338SOL    HW1 1913   4.638   1.802   1.634
  338SOL    HW2 1914   4.793   1.772   1.673
  339SOL     OW 1915   3.507   4.760   5.951
  339SOL    HW1 1916   3.580   4.692   5.956
  339SOL    HW2 1917   3.422   4.714   5.923
  340SOL     OW 1918   5.725   4.709   4.759
  340SOL    HW1 1919   5.761   4.619   4.781
  340SOL    HW2 1920   5.800   4.774   4.748
  341SOL     OW 1921   5.711   0.498   1.231
  341SOL    HW1 1922   5.720   0.418   1.291
  341SOL    HW2 1923   5.665   0.572   1.280
  342SOL     OW 1924   4.690   0.299   1.100
  342SOL    HW1 1925   4.693   0.399   1.091
  342SOL    HW2 1926   4.766   0.260   1.049
  343SOL     OW 1927   6.109   0.430   1.687
  343SOL    HW1 1928   6.088   0.463   1.595
  343SOL    HW2 1929   6.037   0.459   1.750
  344SOL     OW 1930   6.430   3.104   1.397
  344SOL    HW1 1931   6.525   3.081   1.417
  344SOL    HW2 1932   6.389   3.030   1.343
  345SOL     OW 1933   0.212   3.413   3.029
  345SOL    HW1 1934   0.119   3.387   3.054
  345SOL    HW2 1935   0.236   3.369   2.942
  346SOL     OW 1936   0.562   0.487   3.343
  346SOL    HW1 1937   0.557   0.583   3.368
  346SOL    HW2 1938   0.620   0.476   3.262
  347SOL     OW 1939   1.983   4.116   1.542
  347SOL    HW1 1940   1.977   4.022   1.577
  347SOL    HW2 1941   1.892   4.146   1.514
  348SOL     OW 1942   6.336   4.740   0.972
  348SOL    HW1 1943   6.269   4.687   1.024
  348SOL    HW2 1944   6.410   4.769   1.033
  349SOL     OW 1945   5.895   5.342   6.812
  349SOL    HW1 1946   5.974   5.297   6.770
  349SOL    HW2 1947   5.925   5.425   6.860
  350SOL     OW 1948   2.486   0.606   0.654
  350SOL    HW1 1949   2.464   0.699   0.625
  350SOL    HW2 1950   2.402   0.559   0.681
  351SOL     OW 1951   4.229   4.116   0.651
  351SOL    HW1 1952   4.312   4.085   0.604
  351SOL    HW2 1953   4.246   4.204   0.694
  352SOL     OW 1954   3.820   0.936   2.854
  352SOL    HW1 1955   3.723   0.922   2.833
  352SOL    HW2 1956   3.830   0.972   2.947
  353SOL     OW 1957   2.344   6.330   0.869
  353SOL    HW1 1958   2.300   6.314   0.957
  353SOL    HW2 1959   2.443   6.313   0.878
  354SOL     OW 1960   3.024   2.408   0.830
  354SOL    HW1 1961   3.097   2.476   0.819
  354SOL    HW2 1962   3.002   2.399   0.927
  355SOL     OW 1963   6.938   2.219   2.481
  355SOL    HW1 1964   6.948   2.196   2.578
  355SOL    HW2 1965   6.869   2.291   2.471
  356SOL     OW 1966   2.872   6.810   5.532
  356SOL    HW1 1967   2.812   6.762   5.468
  356SOL    HW2 1968   2.825   6.821   5.620
  357SOL     OW 1969   6.426   5.924   4.386
  357SOL    HW1 1970   6.360   5.883   4.449
  357SOL    HW2 1971   6.380   5.993   4.331
  358SOL     OW 1972   3.290   6.239   6.866
  358SOL    HW1 1973   3.377   6.228   6.914
  358SOL    HW2 1974   3.217   6.198   6.921
  359SOL     OW 1975   2.114   2.320   0.997
  359SOL    HW1 1976   2.129   2.229   0.960
  359SOL    HW2 1977   2.164   2.330   1.083
  360SOL     OW 1978   1.823   5.148   2.518
  360SOL    HW1 1979   1.835   5.228   2.577
  360SOL    HW2 1980   1.864   5.167   2.428
  361SOL     OW 1981   6.165   2.694   2.710
  361SOL    HW1 1982   6.092   2.759   2.730
  361SOL    HW2 1983   6.233   2.696   2.783
  362SOL     OW 1984   3.995   3.054   3.128
  362SOL    HW1 1985   4.081   3.005   3.117
  362SOL    HW2 1986   3.927   3.018   3.064
  363SOL     OW 1987   4.656   5.796   2.027
  363SOL    HW1 1988   4.659   5.779   1.929
  363SOL    HW2 1989   4.632   5.891   2.044
  364SOL     OW 1990   1.093   1.092   0.083
  364SOL    HW1 1991   0.999   1.067   0.106
  364SOL    HW2 1992   1.092   1.173   0.023
  365SOL     OW 1993   4.799   0.238   3.653
  365SOL    HW1 1994   4.790   0.139   3.663
  365SOL    HW2 1995   4.817   0.260   3.557
  366SOL     OW 1996   5.677   0.796   0.130
  366SOL    HW1 1997   5.636   0.706   0.120
  366SOL    HW2 1998   5.771   0.787   0.164
  367SOL     OW 1999   6.582   6.446   6.817
  367SOL    HW1 2000   6.638   6.377   6.864
  367SOL    HW2 2001   6.494   6.407   6.792
  368SOL     OW 2002   2.485   1.128   5.260
  368SOL    HW1 2003   2.467   1.226   5.259
  368SOL    HW2 2004   2.573   1.109   5.218
  369SOL     OW 2005   5.024   3.879   6.518
  369SOL    HW1 2006   5.091   3.805   6.518
  369SOL    HW2 2007   4.968   3.873   6.435
  370SOL     OW 2008   1.314   1.629   4.221
  370SOL    HW1 2009   1.288   1.650   4.127
  370SOL    HW2 2010   1.412   1.606   4.224
  371SOL     OW 2011   3.123   4.932   1.030
  371SOL    HW1 2012   3.222   4.931   1.044
  371SOL    HW2 2013   3.103   4.945   0.933
  372SOL     OW 2014   2.457   5.920   6.072
  372SOL    HW1 2015   2.366   5.952   6.098
  372SOL    HW2 2016   2.480   5.837   6.124
  373SOL     OW 2017   5.540   4.833   2.268
  373SOL    HW1 2018   5.619   4.861   2.213
  373SOL    HW2 2019   5.571   4.784   2.349
  374SOL     OW 2020   2.218   2.783   2.121
  374SOL    HW1 2021   2.214   2.683   2.123
  374SOL    HW2 2022   2.180   2.817   2.035
  375SOL     OW 2023   0.289   5.237   4.279
  375SOL    HW1 2024   0.206   5.263   4.228
  375SOL    HW2 2025   0.300   5.298   4.357
  376SOL     OW 2026   5.242   6.944   3.753
  376SOL    HW1 2027   5.223   0.005   3.718
  376SOL    HW2 2028   5.181   6.878   3.709
  377SOL     OW 2029   2.622   3.330   6.214
  377SOL    HW1 2030   2.584   3.312   6.124
  377SOL    HW2 2031   2.601   3.424   6.241
  378SOL     OW 2032   4.331   0.870   1.188
  378SOL    HW1 2033   4.317   0.966   1.166
  378SOL    HW2 2034   4.313   0.815   1.106
  379SOL     OW 2035   3.112   3.723   0.960
  379SOL    HW1 2036   3.085   3.680   1.046
  379SOL    HW2 2037   3.167   3.659   0.907
  380SOL     OW 2038   5.248   1.745   6.780
  380SOL    HW1 2039   5.188   1.814   6.818
  380SOL    HW2 2040   5.200   1.697   6.706
  381SOL     OW 2041   0.211   3.459   2.179
  381SOL    HW1 2042   0.149   3.443   2.255
  381SOL    HW2 2043   0.184   3.542   2.130
  382SOL     OW 2044   5.878   0.141   0.660
  382SOL    HW1 2045   5.787   0.146   0.618
  382SOL    HW2 2046   5.869   0.139   0.759
  383SOL     OW 2047   5.332   2.864   1.354
  383SOL    HW1 2048   5.382   2.940   1.396
  383SOL    HW2 2049   5.238   2.864   1.389
  384SOL     OW 2050   1.583   2.862   4.443
  384SOL    HW1 2051   1.656   2.805   4.405
  384SOL    HW2 2052   1.522   2.892   4.370
  385SOL     OW 2053   4.580   3.012   6.941
  385SOL    HW1 2054   4.639   3.060   6.877
  385SOL    HW2 2055   4.619   3.017   0.003
  386SOL     OW 2056   2.964   6.260   5.758
  386SOL    HW1 2057   2.988   6.230   5.666
  386SOL    HW2 2058   2.982   6.186   5.823
  387SOL     OW 2059   1.663   6.685   3.546
  387SOL    HW1 2060   1.756   6.707   3.517
  387SOL    HW2 2061   1.611   6.650   3.469
  388SOL     OW 2062   1.918   5.725   5.752
  388SOL    HW1 2063   1.868   5.640   5.772
  388SOL    HW2 2064   2.015   5.712   5.770
  389SOL     OW 2065   3.968   1.855   6.955
  389SOL    HW1 2066   4.018   1.869   6.870
  389SOL    HW2 2067   4.032   1.852   0.002
  390SOL     OW 2068   3.556   1.284   3.873
  390SOL    HW1 2069   3.576   1.284   3.971
  390SOL    HW2 2070   3.619   1.346   3.827
  391SOL     OW 2071   0.609   1.213   0.276
  391SOL    HW1 2072   0.659   1.173   0.353
  391SOL    HW2 2073   0.525   1.255   0.310
  392SOL     OW 2074   4.541   5.441   4.181
  392SOL    HW1 2075   4.461   5.501   4.182
  392SOL    HW2 2076   4.529   5.371   4.111
  393SOL     OW 2077   5.732   2.626   5.637
  393SOL    HW1 2078   5.707   2.548   5.579
  393SOL    HW2 2079   5.696   2.613   5.729
  394SOL     OW 2080   2.451   1.331   6.900
  394SOL    HW1 2081   2.518   1.404   6.890
  394SOL    HW2 2082   2.412   1.310   6.810
  395SOL     OW 2083   0.342   2.808   1.049
  395SOL    HW1 2084   0.407   2.744   1.089
  395SOL    HW2 2085   0.249   2.770   1.055
  396SOL     OW 2086   4.095   2.640   5.637
  396SOL    HW1 2087   4.066   2.698   5.713
  396SOL    HW2 2088   4.184   2.600   5.659
  397SOL     OW 2089   4.793   0.001   6.790
  397SOL    HW1 2090   4.716   0.042   6.840
  397SOL    HW2 2091   4.846   6.973   6.852
  398SOL     OW 2092   5.687   4.125   2.506
  398SOL    HW1 2093   5.637   4.158   2.426
  398SOL    HW2 2094   5.725   4.204   2.555
  399SOL     OW 2095   2.005   5.689   1.335
  399SOL    HW1 2096   2.101   5.665   1.346
  399SOL    HW2 2097   1.955   5.668   1.419
  400SOL     OW 2098   2.303   4.761   6.036
  400SOL    HW1 2099   2.240   4.796   6.106
  400SOL    HW2 2100   2.389   4.735   6.079
  401SOL     OW 2101   6.704   1.450   0.950
  401SOL    HW1 2102   6.629   1.493   0.901
  401SOL    HW2 2103   6.692   1.462   1.048
  402SOL     OW 2104   0.335   5.574   0.646
  402SOL    HW1 2105   0.354   5.626   0.563
  402SOL    HW2 2106   0.409   5.588   0.712
  403SOL     OW 2107   5.462   4.460   0.484
  403SOL    HW1 2108   5.480   4.362   0.479
  403SOL    HW2 2109   5.379   4.476   0.537
  404SOL     OW 2110   6.620   5.861   4.602
  404SOL    HW1 2111   6.565   5.865   4.519
  404SOL    HW2 2112   6.702   5.806   4.585
  405SOL     OW 2113   1.618   1.705   1.351
  405SOL    HW1 2114   1.675   1.782   1.324
  405SOL    HW2 2115   1.521   1.730   1.339
  406SOL     OW 2116   0.901   2.896   3.825
  406SOL    HW1 2117   0.961   2.848   3.761
  406SOL    HW2 2118   0.956   2.940   3.896
  407SOL     OW 2119   2.949   2.272   3.837
  407SOL    HW1 2120   3.006   2.254   3.917
  407SOL    HW2 2121   2.993   2.233   3.756
  408SOL     OW 2122   2.526   0.228   3.903
  408SOL    HW1 2123   2.490   0.306   3.954
  408SOL    HW2 2124   2.572   0.165   3.965
  409SOL     OW 2125   0.533   5.258   4.811
  409SOL    HW1 2126   0.456   5.315   4.840
  409SOL    HW2 2127   0.616   5.315   4.804
  410SOL     OW 2128   2.540   6.666   6.422
  410SOL    HW1 2129   2.607   6.710   6.363
  410SOL    HW2 2130   2.582   6.587   6.467
  411SOL     OW 2131   0.446   4.285   6.106
  411SOL    HW1 2132   0.417   4.376   6.135
  411SOL    HW2 2133   0.493   4.239   6.182
  412SOL     OW 2134   3.706   6.033   3.296
  412SOL    HW1 2135   3.668   6.125   3.309
  412SOL    HW2 2136   3.632   5.966   3.296
  413SOL     OW 2137   2.289   0.721   1.646
  413SOL    HW1 2138   2.370   0.734   1.704
  413SOL    HW2 2139   2.313   0.743   1.551
  414SOL     OW 2140   4.545   4.781   0.765
  414SOL    HW1 2141   4.491   4.864   0.779
  414SOL    HW2 2142   4.597   4.760   0.848
  415SOL     OW 2143   3.620   6.347   2.851
  415SOL    HW1 2144   3.551   6.368   2.782
  415SOL    HW2 2145   3.678   6.427   2.867
  416SOL     OW 2146   3.714   5.825   0.107
  416SOL    HW1 2147   3.686   5.757   0.039
  416SOL    HW2 2148   3.803   5.863   0.081
  417SOL     OW 2149   5.982   5.006   1.657
  417SOL    HW1 2150   5.940   4.917   1.677
  417SOL    HW2 2151   5.930   5.078   1.702
  418SOL     OW 2152   0.092   5.209   6.274
  418SOL    HW1 2153   0.155   5.132   6.261
  418SOL    HW2 2154   0.078   5.223   6.372
  419SOL     OW 2155   5.143   5.168   6.587
  419SOL    HW1 2156   5.243   5.174   6.595
  419SOL    HW2 2157   5.120   5.116   6.504
  420SOL     OW 2158   5.818   3.534   6.971
  420SOL    HW1 2159   5.740   3.593   6.954
  420SOL    HW2 2160   5.876   3.574   0.011
  421SOL     OW 2161   1.588   6.360   5.893
  421SOL    HW1 2162   1.547   6.419   5.823
  421SOL    HW2 2163   1.664   6.309   5.854
  422SOL     OW 2164   6.254   3.644   0.443
  422SOL    HW1 2165   6.236   3.731   0.398
  422SOL    HW2 2166   6.172   3.586   0.438
  423SOL     OW 2167   1.361   3.205   5.966
  423SOL    HW1 2168   1.274   3.159   5.979
  423SOL    HW2 2169   1.377   3.221   5.869
  424SOL     OW 2170   2.207   4.279   5.899
  424SOL    HW1 2171   2.264   4.197   5.896
  424SOL    HW2 2172   2.122   4.259   5.948
  425SOL     OW 2173   2.408   0.863   0.585
  425SOL    HW1 2174   2.372   0.882   0.676
  425SOL    HW2 2175   2.339   0.884   0.516
  426SOL     OW 2176   1.174   3.295   6.698
  426SOL    HW1 2177   1.080   3.304   6.729
  426SOL    HW2 2178   1.189   3.203   6.662
  427SOL     OW 2179   4.002   3.043   0.309
  427SOL    HW1 2180   3.918   3.084   0.275
  427SOL    HW2 2181   4.060   3.115   0.349
  428SOL     OW 2182   3.455   1.109   4.675
  428SOL    HW1 2183   3.475   1.168   4.753
  428SOL    HW2 2184   3.471   1.160   4.590
  429SOL     OW 2185   3.917   5.973   6.741
  429SOL    HW1 2186   3.991   5.908   6.762
  429SOL    HW2 2187   3.933   6.058   6.792
  430SOL     OW 2188   2.902   1.032   4.407
  430SOL    HW1 2189   2.806   1.012   4.429
  430SOL    HW2 2190   2.906   1.111   4.346
  431SOL     OW 2191   3.462   0.728   6.079
  431SOL    HW1 2192   3.442   0.646   6.133
  431SOL    HW2 2193   3.507   0.796   6.137
  432SOL     OW 2194   6.741   1.048   1.183
  432SOL    HW1 2195   6.756   1.119   1.115
  432SOL    HW2 2196   6.702   0.967   1.139
  433SOL     OW 2197   4.110   6.475   4.781
  433SOL    HW1 2198   4.138   6.567   4.809
  433SOL    HW2 2199   4.059   6.481   4.695
  434SOL     OW 2200   6.955   3.724   0.747
  434SOL    HW1 2201   7.026   3.770   0.800
  434SOL    HW2 2202   6.997   3.668   0.676
  435SOL     OW 2203   3.775   3.476   0.615
  435SOL    HW1 2204   3.681   3.452   0.593
  435SOL    HW2 2205   3.779   3.572   0.643
  436SOL     OW 2206   2.683   1.397   0.908
  436SOL    HW1 2207   2.699   1.451   0.991
  436SOL    HW2 2208   2.704   1.301   0.927
  437SOL     OW 2209   6.203   6.505   6.357
  437SOL    HW1 2210   6.289   6.515   6.308
  437SOL    HW2 2211   6.156   6.422   6.325
  438SOL     OW 2212   1.158   3.664   1.183
  438SOL    HW1 2213   1.242   3.644   1.133
  438SOL    HW2 2214   1.140   3.591   1.250
  439SOL     OW 2215   6.197   4.925   2.039
  439SOL    HW1 2216   6.165   4.858   2.105
  439SOL    HW2 2217   6.185   5.017   2.075
  440SOL     OW 2218   1.029   3.160   2.479
  440SOL    HW1 2219   1.085   3.233   2.440
  440SOL    HW2 2220   0.970   3.198   2.550
  441SOL     OW 2221   6.834   1.774   3.015
  441SOL    HW1 2222   6.877   1.721   2.942
  441SOL    HW2 2223   6.785   1.851   2.975
  442SOL     OW 2224   1.469   4.839   6.823
  442SOL    HW1 2225   1.419   4.920   6.792
  442SOL    HW2 2226   1.543   4.819   6.760
  443SOL     OW 2227   0.076   5.837   5.901
  443SOL    HW1 2228   0.099   5.927   5.936
  443SOL    HW2 2229   0.150   5.773   5.921
  444SOL     OW 2230   5.509   3.002   6.681
  444SOL    HW1 2231   5.478   3.095   6.700
  444SOL    HW2 2232   5.576   3.004   6.606
  445SOL     OW 2233   1.717   4.109   2.915
  445SOL    HW1 2234   1.710   4.060   3.001
  445SOL    HW2 2235   1.629   4.150   2.891
  446SOL     OW 2236   1.626   5.371   4.712
  446SOL    HW1 2237   1.680   5.296   4.673
  446SOL    HW2 2238   1.658   5.389   4.806
  447SOL     OW 2239   0.977   5.952   0.575
  447SOL    HW1 2240   1.000   5.935   0.671
  447SOL    HW2 2241   0.913   5.883   0.543
  448SOL     OW 2242   4.811   0.877   5.300
  448SOL    HW1 2243   4.809   0.893   5.399
  448SOL    HW2 2244   4.791   0.780   5.281
  449SOL     OW 2245   6.350   0.643   4.403
  449SOL    HW1 2246   6.389   0.575   4.465
  449SOL    HW2 2247   6.292   0.706   4.453
  450SOL     OW 2248   0.268   5.820   2.822
  450SOL    HW1 2249   0.284   5.759   2.744
  450SOL    HW2 2250   0.264   5.915   2.790
  451SOL     OW 2251   5.880   3.803   3.972
  451SOL    HW1 2252   5.902   3.712   3.936
  451SOL    HW2 2253   5.934   3.820   4.055
  452SOL     OW 2254   6.241   4.802   6.088
  452SOL    HW1 2255   6.194   4.814   6.000
  452SOL    HW2 2256   6.179   4.828   6.162
  453SOL     OW 2257   4.036   1.657   5.981
  453SOL    HW1 2258   4.135   1.645   5.978
  453SOL    HW2 2259   3.996   1.587   6.041
  454SOL     OW 2260   0.491   5.889   6.992
  454SOL    HW1 2261   0.416   5.831   7.023
  454SOL    HW2 2262   0.456   5.980   6.972
  455SOL     OW 2263   5.511   2.172   4.998
  455SOL    HW1 2264   5.571   2.251   4.981
  455SOL    HW2 2265   5.440   2.169   4.928
  456SOL     OW 2266   4.218   5.740   1.108
  456SOL    HW1 2267   4.256   5.650   1.129
  456SOL    HW2 2268   4.273   5.811   1.150
  457SOL     OW 2269   0.719   4.410   1.774
  457SOL    HW1 2270   0.781   4.335   1.750
  457SOL    HW2 2271   0.637   4.372   1.818
  458SOL     OW 2272   1.283   0.222   5.511
  458SOL    HW1 2273   1.366   0.258   5.552
  458SOL    HW2 2274   1.307   0.159   5.436
  459SOL     OW 2275   1.799   0.991   3.343
  459SOL    HW1 2276   1.761   0.914   3.291
  459SOL    HW2 2277   1.730   1.025   3.407
  460SOL     OW 2278   6.574   2.412   3.031
  460SOL    HW1 2279   6.554   2.467   2.950
  460SOL    HW2 2280   6.596   2.472   3.107
  461SOL     OW 2281   5.276   4.689   5.905
  461SOL    HW1 2282   5.255   4.618   5.837
  461SOL    HW2 2283   5.372   4.681   5.933
  462SOL     OW 2284   3.626   2.410   0.182
  462SOL    HW1 2285   3.682   2.373   0.256
  462SOL    HW2 2286   3.686   2.448   0.111
  463SOL     OW 2287   6.229   6.336   1.213
  463SOL    HW1 2288   6.159   6.273   1.180
  463SOL    HW2 2289   6.317   6.288   1.222
  464SOL     OW 2290   1.705   1.646   5.996
  464SOL    HW1 2291   1.720   1.560   6.044
  464SOL    HW2 2292   1.792   1.696   5.989
  465SOL     OW 2293   0.661   3.567   5.890
  465SOL    HW1 2294   0.648   3.507   5.811
  465SOL    HW2 2295   0.659   3.513   5.974
  466SOL     OW 2296   1.752   0.458   3.278
  466SOL    HW1 2297   1.704   0.419   3.356
  466SOL    HW2 2298   1.841   0.413   3.267
  467SOL     OW 2299   1.736   1.390   4.887
  467SOL    HW1 2300   1.812   1.329   4.908
  467SOL    HW2 2301   1.723   1.395   4.788
  468SOL     OW 2302   3.889   3.858   3.394
  468SOL    HW1 2303   3.861   3.891   3.484
  468SOL    HW2 2304   3.857   3.922   3.324
  469SOL     OW 2305   3.216   6.843   6.535
  469SOL    HW1 2306   3.117   6.830   6.531
  469SOL    HW2 2307   3.261   6.767   6.487
  470SOL     OW 2308   4.111   6.896   2.791
  470SOL    HW1 2309   4.201   6.863   2.822
  470SOL    HW2 2310   4.086   6.978   2.843
  471SOL     OW 2311   2.342   2.432   3.825
  471SOL    HW1 2312   2.271   2.426   3.896
  471SOL    HW2 2313   2.363   2.528   3.808
  472SOL     OW 2314   3.486   4.269   5.200
  472SOL    HW1 2315   3.487   4.363   5.235
  472SOL    HW2 2316   3.551   4.261   5.124
  473SOL     OW 2317   0.444   4.978   4.241
  473SOL    HW1 2318   0.430   4.884   4.209
  473SOL    HW2 2319   0.359   5.029   4.234
  474SOL     OW 2320   5.307   5.265   5.087
  474SOL    HW1 2321   5.211   5.239   5.100
  474SOL    HW2 2322   5.312   5.343   5.025
  475SOL     OW 2323   2.834   6.696   0.118
  475SOL    HW1 2324   2.768   6.741   0.058
  475SOL    HW2 2325   2.899   6.764   0.152
  476SOL     OW 2326   6.667   5.819   2.867
  476SOL    HW1 2327   6.688   5.734   2.915
  476SOL    HW2 2328   6.615   5.799   2.784
  477SOL     OW 2329   1.430   4.588   3.463
  477SOL    HW1 2330   1.374   4.662   3.425
  477SOL    HW2 2331   1.378   4.539   3.533
  478SOL     OW 2332   1.631   4.468   3.734
  478SOL    HW1 2333   1.678   4.551   3.763
  478SOL    HW2 2334   1.532   4.481   3.740
  479SOL     OW 2335   4.331   1.707   2.225
  479SOL    HW1 2336   4.317   1.763   2.307
  479SOL    HW2 2337   4.243   1.670   2.196
  480SOL     OW 2338   1.764   6.656   4.025
  480SOL    HW1 2339   1.719   6.645   3.937
  480SOL    HW2 2340   1.825   6.578   4.041
  481SOL     OW 2341   1.985   0.352   0.595
  481SOL    HW1 2342   1.991   0.401   0.508
  481SOL    HW2 2343   1.911   0.392   0.649
  482SOL     OW 2344   5.810   5.753   1.162
  482SOL    HW1 2345   5.879   5.760   1.089
  482SOL    HW2 2346   5.719   5.756   1.122
  483SOL     OW 2347   4.949   1.688   3.354
  483SOL    HW1 2348   4.929   1.757   3.285
  483SOL    HW2 2349   4.875   1.620   3.356
  484SOL     OW 2350   6.114   1.954   3.499
  484SOL    HW1 2351   6.173   1.997   3.568
  484SOL    HW2 2352   6.088   2.022   3.431
  485SOL     OW 2353   2.796   6.037   0.410
  485SOL    HW1 2354   2.773   6.026   0.507
  485SOL    HW2 2355   2.874   5.978   0.387
  486SOL     OW 2356   6.080   0.589   5.700
  486SOL    HW1 2357   6.176   0.567   5.687
  486SOL    HW2 2358   6.026   0.505   5.702
  487SOL     OW 2359   6.499   2.065   6.838
  487SOL    HW1 2360   6.501   1.997   6.911
  487SOL    HW2 2361   6.419   2.124   6.849
  488SOL     OW 2362   1.069   4.644   3.510
  488SOL    HW1 2363   1.056   4.553   3.469
  488SOL    HW2 2364   1.061   4.713   3.439
  489SOL     OW 2365   3.527   5.144   6.135
  489SOL    HW1 2366   3.511   5.075   6.205
  489SOL    HW2 2367   3.583   5.218   6.172
  490SOL     OW 2368   4.958   1.169   4.360
  490SOL    HW1 2369   4.961   1.079   4.315
  490SOL    HW2 2370   4.967   1.241   4.291
  491SOL     OW 2371   0.496   3.139   3.739
  491SOL    HW1 2372   0.478   3.042   3.751
  491SOL    HW2 2373   0.516   3.181   3.827
  492SOL     OW 2374   1.541   1.688   4.663
  492SOL    HW1 2375   1.525   1.787   4.670
  492SOL    HW2 2376   1.633   1.667   4.693
  493SOL     OW 2377   5.668   3.774   4.698
  493SOL    HW1 2378   5.647   3.699   4.762
  493SOL    HW2 2379   5.591   3.837   4.694
  494SOL     OW 2380   5.658   0.803   6.193
  494SOL    HW1 2381   5.597   0.882   6.201
  494SOL    HW2 2382   5.752   0.834   6.178
  495SOL     OW 2383   5.910   4.611   0.057
  495SOL    HW1 2384   5.938   4.544   0.126
  495SOL    HW2 2385   5.852   4.680   0.099
  496SOL     OW 2386   6.039   3.543   3.025
  496SOL    HW1 2387   6.027   3.494   3.112
  496SOL    HW2 2388   5.970   3.513   2.960
  497SOL     OW 2389   4.248   0.021   4.392
  497SOL    HW1 2390   4.323   0.064   4.341
  497SOL    HW2 2391   4.199   6.987   4.333
  498SOL     OW 2392   1.936   3.494   1.253
  498SOL    HW1 2393   1.962   3.590   1.252
  498SOL    HW2 2394   1.838   3.486   1.271
  499SOL     OW 2395   3.812   1.877   5.539
  499SOL    HW1 2396   3.873   1.907   5.466
  499SOL    HW2 2397   3.860   1.809   5.595
  500SOL     OW 2398   1.149   4.765   2.844
  500SOL    HW1 2399   1.076   4.764   2.776
  500SOL    HW2 2400   1.151   4.677   2.892
  501SOL     OW 2401   0.921   4.814   6.092
  501SOL    HW1 2402   0.859   4.848   6.020
  501SOL    HW2 2403   1.015   4.824   6.062
  502SOL     OW 2404   2.309   5.070   5.966
  502SOL    HW1 2405   2.356   4.994   5.921
  502SOL    HW2 2406   2.277   5.041   6.056
  503SOL     OW 2407   6.859   5.246   4.315
  503SOL    HW1 2408   6.930   5.195   4.364
  503SOL    HW2 2409   6.845   5.334   4.359
  504SOL     OW 2410   1.366   5.155   4.151
  504SOL    HW1 2411   1.360   5.112   4.061
  504SOL    HW2 2412   1.456   5.136   4.191
  505SOL     OW 2413   3.526   6.422   4.453
  505SOL    HW1 2414   3.485   6.439   4.364
  505SOL    HW2 2415   3.455   6.414   4.522
  506SOL     OW 2416   2.199   3.290   0.680
  506SOL    HW1 2417   2.171   3.386   0.686
  506SOL    HW2 2418   2.183   3.257   0.587
  507SOL     OW 2419   3.832   1.915   4.107
  507SOL    HW1 2420   3.777   1.855   4.049
  507SOL    HW2 2421   3.863   1.994   4.055
  508SOL     OW 2422   5.628   5.195   4.572
  508SOL    HW1 2423   5.721   5.158   4.569
  508SOL    HW2 2424   5.630   5.290   4.541
  509SOL     OW 2425   4.572   3.257   1.708
  509SOL    HW1 2426   4.584   3.160   1.729
  509SOL    HW2 2427   4.660   3.304   1.715
  510SOL     OW 2428   1.164   3.719   4.107
  510SOL    HW1 2429   1.233   3.671   4.161
  510SOL    HW2 2430   1.201   3.743   4.017
  511SOL     OW 2431   0.284   6.161   1.771
  511SOL    HW1 2432   0.227   6.079   1.777
  511SOL    HW2 2433   0.354   6.148   1.701
  512SOL     OW 2434   2.013   4.192   6.033
  512SOL    HW1 2435   2.039   4.187   6.129
  512SOL    HW2 2436   1.924   4.148   6.021
  513SOL     OW 2437   0.628   5.673   4.588
  513SOL    HW1 2438   0.549   5.615   4.570
  513SOL    HW2 2439   0.709   5.634   4.544
  514SOL     OW 2440   5.194   1.936   3.625
  514SOL    HW1 2441   5.287   1.969   3.644
  514SOL    HW2 2442   5.172   1.952   3.528
  515SOL     OW 2443   3.016   5.900   0.068
  515SOL    HW1 2444   3.069   5.868   7.019
  515SOL    HW2 2445   2.921   5.872   0.059
  516SOL     OW 2446   2.096   4.833   3.485
  516SOL    HW1 2447   2.136   4.923   3.503
  516SOL    HW2 2448   2.142   4.764   3.542
  517SOL     OW 2449   4.927   0.012   5.791
  517SOL    HW1 2450   4.874   0.096   5.785
  517SOL    HW2 2451   4.991   0.007   5.714
  518SOL     OW 2452   2.127   1.648   6.909
  518SOL    HW1 2453   2.089   1.740   6.916
  518SOL    HW2 2454   2.059   1.582   6.941
  519SOL     OW 2455   0.836   6.792   0.401
  519SOL    HW1 2456   0.756   6.752   0.446
  519SOL    HW2 2457   0.835   6.768   0.304
  520SOL     OW 2458   6.244   4.425   5.265
  520SOL    HW1 2459   6.305   4.492   5.224
  520SOL    HW2 2460   6.250   4.339   5.214
  521SOL     OW 2461   6.645   0.825   0.596
  521SOL    HW1 2462   6.559   0.840   0.546
  521SOL    HW2 2463   6.713   0.892   0.565
  522SOL     OW 2464   3.111   4.188   5.572
  522SOL    HW1 2465   3.061   4.234   5.499
  522SOL    HW2 2466   3.149   4.102   5.538
  523SOL     OW 2467   6.699   7.000   3.445
  523SOL    HW1 2468   6.736   0.044   3.501
  523SOL    HW2 2469   6.616   6.964   3.489
  524SOL     OW 2470   4.045   0.308   4.348
  524SOL    HW1 2471   3.952   0.331   4.377
  524SOL    HW2 2472   4.048   0.214   4.315
  525SOL     OW 2473   3.395   3.131   6.548
  525SOL    HW1 2474   3.400   3.207   6.484
  525SOL    HW2 2475   3.299   3.115   6.574
  526SOL     OW 2476   4.983   0.373   4.363
  526SOL    HW1 2477   4.896   0.406   4.402
  526SOL    HW2 2478   5.057   0.435   4.389
  527SOL     OW 2479   0.838   1.397   6.924
  527SOL    HW1 2480   0.802   1.308   6.952
  527SOL    HW2 2481   0.786   1.470   6.967
  528SOL     OW 2482   1.545   2.150   6.464
  528SOL    HW1 2483   1.498   2.189   6.543
  528SOL    HW2 2484   1.539   2.214   6.387
  529SOL     OW 2485   0.147   5.211   5.018
  529SOL    HW1 2486   0.199   5.126   5.021
  529SOL    HW2 2487   0.197   5.282   5.069
  530SOL     OW 2488   6.771   3.198   5.462
  530SOL    HW1 2489   6.728   3.240   5.382
  530SOL    HW2 2490   6.769   3.099   5.453
  531SOL     OW 2491   0.161   6.747   0.325
  531SOL    HW1 2492   0.073   6.756   0.278
  531SOL    HW2 2493   0.227   6.811   0.286
  532SOL     OW 2494   1.919   1.368   5.715
  532SOL    HW1 2495   1.989   1.318   5.766
  532SOL    HW2 2496   1.959   1.452   5.679
  533SOL     OW 2497   4.678   0.615   5.344
  533SOL    HW1 2498   4.592   0.655   5.374
  533SOL    HW2 2499   4.663   0.521   5.314
  534SOL     OW 2500   2.427   5.476   3.542
  534SOL    HW1 2501   2.486   5.455   3.620
  534SOL    HW2 2502   2.412   5.393   3.488
  535SOL     OW 2503   7.012   3.787   2.277
  535SOL    HW1 2504   0.011   3.797   2.373
  535SOL    HW2 2505   0.060   3.757   2.222
  536SOL     OW 2506   1.774   6.024   1.433
  536SOL    HW1 2507   1.768   6.056   1.527
  536SOL    HW2 2508   1.870   6.010   1.408
  537SOL     OW 2509   2.463   0.320   3.176
  537SOL    HW1 2510   2.493   0.251   3.241
  537SOL    HW2 2511   2.512   0.309   3.089
  538SOL     OW 2512   1.656   5.482   3.847
  538SOL    HW1 2513   1.586   5.414   3.826
  538SOL    HW2 2514   1.612   5.562   3.888
  539SOL     OW 2515   1.559   5.338   1.048
  539SOL    HW1 2516   1.626   5.369   0.981
  539SOL    HW2 2517   1.589   5.363   1.140
  540SOL     OW 2518   2.811   2.495   0.679
  540SOL    HW1 2519   2.741   2.511   0.749
  540SOL    HW2 2520   2.892   2.455   0.723
  541SOL     OW 2521   5.524   5.959   5.204
  541SOL    HW1 2522   5.430   5.990   5.194
  541SOL    HW2 2523   5.571   6.016   5.271
  542SOL     OW 2524   6.045   0.116   6.158
  542SOL    HW1 2525   6.021   0.119   6.061
  542SOL    HW2 2526   6.048   0.021   6.189
  543SOL     OW 2527   6.616   0.326   2.566
  543SOL    HW1 2528   6.522   0.343   2.594
  543SOL    HW2 2529   6.642   0.232   2.590
  544SOL     OW 2530   0.665   5.208   0.887
  544SOL    HW1 2531   0.697   5.137   0.825
  544SOL    HW2 2532   0.632   5.166   0.972
  545SOL     OW 2533   2.613   1.851   3.769
  545SOL    HW1 2534   2.559   1.866   3.852
  545SOL    HW2 2535   2.697   1.904   3.774
  546SOL     OW 2536   1.129   2.487   0.002
  546SOL    HW1 2537   1.131   2.577   6.987
  546SOL    HW2 2538   1.057   2.431   6.992
  547SOL     OW 2539   3.281   1.947   0.249
  547SOL    HW1 2540   3.215   1.976   0.319
  547SOL    HW2 2541   3.363   2.004   0.256
  548SOL     OW 2542   2.991   3.415   5.754
  548SOL    HW1 2543   3.080   3.368   5.752
  548SOL    HW2 2544   2.961   3.434   5.660
  549SOL     OW 2545   6.800   4.746   1.504
  549SOL    HW1 2546   6.781   4.747   1.602
  549SOL    HW2 2547   6.714   4.740   1.454
  550SOL     OW 2548   6.679   4.176   1.122
  550SOL    HW1 2549   6.644   4.220   1.040
  550SOL    HW2 2550   6.684   4.077   1.107
  551SOL     OW 2551   0.695   0.060   0.281
  551SOL    HW1 2552   0.639   0.072   0.199
  551SOL    HW2 2553   0.636   0.036   0.359
  552SOL     OW 2554   4.185   5.261   0.534
  552SOL    HW1 2555   4.224   5.178   0.492
  552SOL    HW2 2556   4.164   5.243   0.630
  553SOL     OW 2557   0.889   2.536   1.417
  553SOL    HW1 2558   0.949   2.458   1.429
  553SOL    HW2 2559   0.909   2.605   1.487
  554SOL     OW 2560   4.744   5.074   5.066
  554SOL    HW1 2561   4.827   5.081   5.120
  554SOL    HW2 2562   4.701   5.164   5.059
  555SOL     OW 2563   1.861   4.011   5.636
  555SOL    HW1 2564   1.794   4.071   5.593
  555SOL    HW2 2565   1.949   4.058   5.640
  556SOL     OW 2566   6.158   3.869   3.365
  556SOL    HW1 2567   6.149   3.824   3.276
  556SOL    HW2 2568   6.091   3.942   3.372
  557SOL     OW 2569   6.318   5.320   5.466
  557SOL    HW1 2570   6.347   5.239   5.415
  557SOL    HW2 2571   6.395   5.356   5.518
  558SOL     OW 2572   3.496   3.900   5.973
  558SOL    HW1 2573   3.412   3.870   6.019
  558SOL    HW2 2574   3.515   3.839   5.896
  559SOL     OW 2575   4.966   4.725   6.354
  559SOL    HW1 2576   5.013   4.675   6.426
  559SOL    HW2 2577   4.867   4.718   6.368
  560SOL     OW 2578   4.968   6.547   0.477
  560SOL    HW1 2579   4.902   6.485   0.520
  560SOL    HW2 2580   5.053   6.497   0.459
  561SOL     OW 2581   4.434   6.853   2.541
  561SOL    HW1 2582   4.423   6.835   2.638
  561SOL    HW2 2583   4.454   6.950   2.526
  562SOL     OW 2584   5.297   0.399   1.273
  562SOL    HW1 2585   5.307   0.481   1.329
  562SOL    HW2 2586   5.348   0.411   1.188
  563SOL     OW 2587   2.856   0.476   5.217
  563SOL    HW1 2588   2.913   0.552   5.249
  563SOL    HW2 2589   2.840   0.485   5.119
  564SOL     OW 2590   0.666   1.475   5.481
  564SOL    HW1 2591   0.682   1.482   5.382
  564SOL    HW2 2592   0.712   1.550   5.527
  565SOL     OW 2593   4.270   3.400   5.662
  565SOL    HW1 2594   4.246   3.334   5.733
  565SOL    HW2 2595   4.266   3.355   5.572
  566SOL     OW 2596   6.773   4.207   2.217
  566SOL    HW1 2597   6.723   4.146   2.156
  566SOL    HW2 2598   6.769   4.300   2.182
  567SOL     OW 2599   3.658   3.745   6.263
  567SOL    HW1 2600   3.616   3.671   6.210
  567SOL    HW2 2601   3.587   3.798   6.308
  568SOL     OW 2602   2.983   1.447   6.182
  568SOL    HW1 2603   3.001   1.374   6.248
  568SOL    HW2 2604   2.910   1.505   6.217
  569SOL     OW 2605   2.186   4.217   6.835
  569SOL    HW1 2606   2.151   4.279   6.764
  569SOL    HW2 2607   2.114   4.152   6.859
  570SOL     OW 2608   0.557   5.032   6.633
  570SOL    HW1 2609   0.461   5.034   6.604
  570SOL    HW2 2610   0.579   5.119   6.678
  571SOL     OW 2611   4.710   6.059   2.661
  571SOL    HW1 2612   4.737   5.965   2.638
  571SOL    HW2 2613   4.737   6.120   2.587
  572SOL     OW 2614   1.795   4.188   3.880
  572SOL    HW1 2615   1.704   4.191   3.839
  572SOL    HW2 2616   1.818   4.280   3.914
  573SOL     OW 2617   4.432   2.433   6.826
  573SOL    HW1 2618   4.507   2.491   6.858
  573SOL    HW2 2619   4.355   2.490   6.797
  574SOL     OW 2620   2.573   2.082   3.369
  574SOL    HW1 2621   2.628   2.027   3.307
  574SOL    HW2 2622   2.478   2.049   3.368
  575SOL     OW 2623   4.358   2.565   5.771
  575SOL    HW1 2624   4.292   2.620   5.822
  575SOL    HW2 2625   4.426   2.528   5.834
  576SOL     OW 2626   0.270   3.649   3.551
  576SOL    HW1 2627   0.172   3.641   3.537
  576SOL    HW2 2628   0.295   3.608   3.639
  577SOL     OW 2629   3.828   1.760   3.325
  577SOL    HW1 2630   3.760   1.761   3.251
  577SOL    HW2 2631   3.781   1.759   3.413
  578SOL     OW 2632   0.114   3.537   4.732
  578SOL    HW1 2633   0.073   3.620   4.770
  578SOL    HW2 2634   0.204   3.522   4.774
  579SOL     OW 2635   4.122   3.742   1.322
  579SOL    HW1 2636   4.055   3.672   1.298
  579SOL    HW2 2637   4.144   3.795   1.240
  580SOL     OW 2638   0.094   0.146   0.021
  580SOL    HW1 2639   0.117   0.240   0.046
  580SOL    HW2 2640   7.025   0.131   0.029
  581SOL     OW 2641   3.692   3.044   3.933
  581SOL    HW1 2642   3.601   3.052   3.893
  581SOL    HW2 2643   3.761   3.048   3.861
  582SOL     OW 2644   0.186   3.638   0.404
  582SOL    HW1 2645   0.137   3.558   0.437
  582SOL    HW2 2646   0.250   3.671   0.474
  583SOL     OW 2647   2.815   0.022   6.951
  583SOL    HW1 2648   2.861   0.079   6.882
  583SOL    HW2 2649   2.876   0.008   7.029
  584SOL     OW 2650   1.945   5.303   4.595
  584SOL    HW1 2651   1.957   5.401   4.613
  584SOL    HW2 2652   2.029   5.254   4.621
  585SOL     OW 2653   5.616   1.823   5.366
  585SOL    HW1 2654   5.526   1.796   5.401
  585SOL    HW2 2655   5.615   1.920   5.341
  586SOL     OW 2656   3.458   4.733   1.237
  586SOL    HW1 2657   3.495   4.807   1.182
  586SOL    HW2 2658   3.483   4.645   1.196
  587SOL     OW 2659   2.591   2.917   6.352
  587SOL    HW1 2660   2.494   2.921   6.327
  587SOL    HW2 2661   2.615   3.000   6.403
  588SOL     OW 2662   2.190   0.378   1.929
  588SOL    HW1 2663   2.261   0.448   1.934
  588SOL    HW2 2664   2.216   0.299   1.984
  589SOL     OW 2665   4.874   5.414   1.963
  589SOL    HW1 2666   4.854   5.384   2.056
  589SOL    HW2 2667   4.824   5.356   1.898
  590SOL     OW 2668   0.455   4.675   1.991
  590SOL    HW1 2669   0.500   4.649   1.906
  590SOL    HW2 2670   0.522   4.676   2.065
  591SOL     OW 2671   2.725   0.629   3.015
  591SOL    HW1 2672   2.729   0.718   3.059
  591SOL    HW2 2673   2.801   0.619   2.951
  592SOL     OW 2674   5.330   0.254   6.421
  592SOL    HW1 2675   5.292   0.227   6.509
  592SOL    HW2 2676   5.261   0.302   6.367
  593SOL     OW 2677   0.227   0.827   4.559
  593SOL    HW1 2678   0.145   0.877   4.588
  593SOL    HW2 2679   0.308   0.882   4.579
  594SOL     OW 2680   4.921   2.427   1.391
  594SOL    HW1 2681   4.971   2.505   1.430
  594SOL    HW2 2682   4.850   2.461   1.328
  595SOL     OW 2683   2.704   6.749   3.770
  595SOL    HW1 2684   2.623   6.698   3.800
  595SOL    HW2 2685   2.780   6.686   3.757
  596SOL     OW 2686   0.758   4.954   2.793
  596SOL    HW1 2687   0.665   4.982   2.819
  596SOL    HW2 2688   0.816   4.951   2.875
  597SOL     OW 2689   4.715   2.030   5.482
  597SOL    HW1 2690   4.656   2.077   5.548
  597SOL    HW2 2691   4.754   1.949   5.525
  598SOL     OW 2692   3.557   3.632   1.986
  598SOL    HW1 2693   3.574   3.568   1.911
  598SOL    HW2 2694   3.481   3.598   2.042
  599SOL     OW 2695   6.208   5.560   3.388
  599SOL    HW1 2696   6.290   5.518   3.426
  599SOL    HW2 2697   6.193   5.526   3.295
  600SOL     OW 2698   3.118   1.714   0.207
  600SOL    HW1 2699   3.191   1.782   0.212
  600SOL    HW2 2700   3.037   1.748   0.255
  601SOL     OW 2701   1.148   5.033   1.618
  601SOL    HW1 2702   1.104   4.979   1.690
  601SOL    HW2 2703   1.086   5.039   1.540
  602SOL     OW 2704   7.020   1.176   2.857
  602SOL    HW1 2705   6.995   1.095   2.804
  602SOL    HW2 2706   0.043   1.148   2.938
  603SOL     OW 2707   4.197   1.699   2.800
  603SOL    HW1 2708   4.157   1.630   2.861
  603SOL    HW2 2709   4.266   1.752   2.850
  604SOL     OW 2710   2.199   2.895   5.675
  604SOL    HW1 2711   2.231   2.811   5.718
  604SOL    HW2 2712   2.100   2.903   5.690
  605SOL     OW 2713   5.218   0.169   4.524
  605SOL    HW1 2714   5.248   0.079   4.490
  605SOL    HW2 2715   5.123   0.184   4.497
  606SOL     OW 2716   2.376   6.920   2.337
  606SOL    HW1 2717   2.431   6.886   2.413
  606SOL    HW2 2718   2.311   6.988   2.370
  607SOL     OW 2719   3.674   6.771   4.443
  607SOL    HW1 2720   3.634   6.858   4.471
  607SOL    HW2 2721   3.672   6.707   4.520
  608SOL     OW 2722   6.449   2.889   0.652
  608SOL    HW1 2723   6.548   2.872   0.659
  608SOL    HW2 2724   6.400   2.816   0.699
  609SOL     OW 2725   3.584   4.193   4.900
  609SOL    HW1 2726   3.549   4.190   4.806
  609SOL    HW2 2727   3.684   4.191   4.898
  610SOL     OW 2728   6.803   2.089   5.313
  610SOL    HW1 2729   6.825   2.093   5.410
  610SOL    HW2 2730   6.864   2.025   5.267
  611SOL     OW 2731   6.828   0.134   0.606
  611SOL    HW1 2732   6.878   0.212   0.567
  611SOL    HW2 2733   6.845   0.053   0.551
  612SOL     OW 2734   1.678   4.228   6.545
  612SOL    HW1 2735   1.751   4.187   6.490
  612SOL    HW2 2736   1.634   4.301   6.493
  613SOL     OW 2737   3.733   1.132   6.606
  613SOL    HW1 2738   3.776   1.044   6.627
  613SOL    HW2 2739   3.638   1.117   6.581
  614SOL     OW 2740   5.134   3.101   0.615
  614SOL    HW1 2741   5.051   3.114   0.562
  614SOL    HW2 2742   5.190   3.184   0.609
  615SOL     OW 2743   6.004   5.214   1.133
  615SOL    HW1 2744   6.015   5.183   1.228
  615SOL    HW2 2745   6.070   5.286   1.113
  616SOL     OW 2746   5.507   1.103   4.818
  616SOL    HW1 2747   5.433   1.168   4.835
  616SOL    HW2 2748   5.592   1.152   4.801
  617SOL     OW 2749   6.253   0.241   4.992
  617SOL    HW1 2750   6.290   0.150   5.010
  617SOL    HW2 2751   6.161   0.248   5.033
  618SOL     OW 2752   5.261   4.360   1.147
  618SOL    HW1 2753   5.220   4.317   1.066
  618SOL    HW2 2754   5.223   4.318   1.230
  619SOL     OW 2755   1.119   0.134   0.212
  619SOL    HW1 2756   1.120   0.040   0.247
  619SOL    HW2 2757   1.106   0.132   0.113
  620SOL     OW 2758   4.577   1.926   1.221
  620SOL    HW1 2759   4.640   1.896   1.149
  620SOL    HW2 2760   4.617   1.908   1.310
  621SOL     OW 2761   1.822   6.691   6.241
  621SOL    HW1 2762   1.759   6.626   6.201
  621SOL    HW2 2763   1.786   6.784   6.232
  622SOL     OW 2764   0.542   2.637   5.770
  622SOL    HW1 2765   0.553   2.675   5.678
  622SOL    HW2 2766   0.543   2.711   5.837
  623SOL     OW 2767   6.056   1.011   2.586
  623SOL    HW1 2768   5.993   1.073   2.633
  623SOL    HW2 2769   6.052   0.921   2.629
  624SOL     OW 2770   6.200   0.490   6.036
  624SOL    HW1 2771   6.173   0.563   6.099
  624SOL    HW2 2772   6.263   0.526   5.968
  625SOL     OW 2773   3.368   0.775   1.281
  625SOL    HW1 2774   3.311   0.855   1.263
  625SOL    HW2 2775   3.447   0.802   1.337
  626SOL     OW 2776   0.008   0.084   4.023
  626SOL    HW1 2777   6.969   0.022   3.984
  626SOL    HW2 2778   0.054   0.132   3.949
  627SOL     OW 2779   6.361   4.157   5.936
  627SOL    HW1 2780   6.298   4.153   6.013
  627SOL    HW2 2781   6.424   4.233   5.948
  628SOL     OW 2782   3.721   4.802   6.983
  628SOL    HW1 2783   3.636   4.828   6.938
  628SOL    HW2 2784   3.789   4.778   6.914
  629SOL     OW 2785   2.182   6.803   0.168
  629SOL    HW1 2786   2.234   6.780   0.086
  629SOL    HW2 2787   2.232   6.870   0.221
  630SOL     OW 2788   6.531   1.983   0.134
  630SOL    HW1 2789   6.535   1.944   0.226
  630SOL    HW2 2790   6.622   1.980   0.093
  631SOL     OW 2791   1.836   3.889   2.077
  631SOL    HW1 2792   1.853   3.944   2.159
  631SOL    HW2 2793   1.884   3.929   1.999
  632SOL     OW 2794   3.893   5.009   1.155
  632SOL    HW1 2795   3.974   4.972   1.110
  632SOL    HW2 2796   3.909   5.015   1.253
  633SOL     OW 2797   1.438   5.791   6.452
  633SOL    HW1 2798   1.406   5.748   6.536
  633SOL    HW2 2799   1.370   5.858   6.421
  634SOL     OW 2800   1.892   3.482   5.564
  634SOL    HW1 2801   1.908   3.577   5.588
  634SOL    HW2 2802   1.968   3.448   5.509
  635SOL     OW 2803   0.319   5.944   6.559
  635SOL    HW1 2804   0.252   5.960   6.487
  635SOL    HW2 2805   0.379   6.023   6.567
  636SOL     OW 2806   1.111   2.272   4.858
  636SOL    HW1 2807   1.083   2.362   4.890
  636SOL    HW2 2808   1.208   2.258   4.878
  637SOL     OW 2809   6.252   1.204   1.190
  637SOL    HW1 2810   6.255   1.122   1.133
  637SOL    HW2 2811   6.283   1.181   1.282
  638SOL     OW 2812   0.053   3.813   5.272
  638SOL    HW1 2813   0.061   3.754   5.192
  638SOL    HW2 2814   0.076   3.762   5.354
  639SOL     OW 2815   6.277   3.129   1.034
  639SOL    HW1 2816   6.316   3.183   1.108
  639SOL    HW2 2817   6.234   3.047   1.072
  640SOL     OW 2818   6.180   4.044   2.735
  640SOL    HW1 2819   6.131   3.957   2.743
  640SOL    HW2 2820   6.122   4.118   2.770
  641SOL     OW 2821   2.646   5.936   4.142
  641SOL    HW1 2822   2.592   5.988   4.207
  641SOL    HW2 2823   2.640   5.838   4.163
  642SOL     OW 2824   0.995   5.362   4.192
  642SOL    HW1 2825   1.029   5.306   4.267
  642SOL    HW2 2826   0.915   5.413   4.223
  643SOL     OW 2827   3.904   4.934   0.084
  643SOL    HW1 2828   3.826   4.879   0.053
  643SOL    HW2 2829   3.905   4.938   0.183
  644SOL     OW 2830   5.700   0.664   4.448
  644SOL    HW1 2831   5.625   0.621   4.499
  644SOL    HW2 2832   5.771   0.596   4.432
  645SOL     OW 2833   3.538   5.636   2.762
  645SOL    HW1 2834   3.527   5.542   2.794
  645SOL    HW2 2835   3.489   5.698   2.823
  646SOL     OW 2836   3.457   0.856   5.436
  646SOL    HW1 2837   3.458   0.956   5.437
  646SOL    HW2 2838   3.532   0.821   5.492
  647SOL     OW 2839   1.487   2.302   6.682
  647SOL    HW1 2840   1.471   2.335   6.775
  647SOL    HW2 2841   1.446   2.366   6.616
  648SOL     OW 2842   5.105   2.566   3.906
  648SOL    HW1 2843   5.196   2.573   3.947
  648SOL    HW2 2844   5.039   2.539   3.976
  649SOL     OW 2845   4.062   6.219   1.498
  649SOL    HW1 2846   4.118   6.252   1.574
  649SOL    HW2 2847   3.993   6.156   1.534
  650SOL     OW 2848   2.378   3.658   1.692
  650SOL    HW1 2849   2.404   3.581   1.751
  650SOL    HW2 2850   2.298   3.704   1.732
  651SOL     OW 2851   0.086   1.735   3.084
  651SOL    HW1 2852   0.116   1.751   3.178
  651SOL    HW2 2853   7.016   1.743   3.079
  652SOL     OW 2854   3.730   6.057   0.688
  652SOL    HW1 2855   3.748   5.984   0.623
  652SOL    HW2 2856   3.637   6.090   0.676
  653SOL     OW 2857   1.514   0.359   2.991
  653SOL    HW1 2858   1.485   0.455   2.990
  653SOL    HW2 2859   1.609   0.353   2.960
  654SOL     OW 2860   1.661   0.233   6.451
  654SOL    HW1 2861   1.570   0.219   6.491
  654SOL    HW2 2862   1.705   0.144   6.438
  655SOL     OW 2863   1.576   4.008   1.705
  655SOL    HW1 2864   1.494   3.991   1.649
  655SOL    HW2 2865   1.574   4.103   1.738
  656SOL     OW 2866   2.243   0.826   0.335
  656SOL    HW1 2867   2.211   0.754   0.273
  656SOL    HW2 2868   2.165   0.884   0.361
  657SOL     OW 2869   3.425   3.118   4.160
  657SOL    HW1 2870   3.400   3.198   4.106
  657SOL    HW2 2871   3.345   3.086   4.211
  658SOL     OW 2872   2.699   0.166   5.131
  658SOL    HW1 2873   2.781   0.159   5.188
  658SOL    HW2 2874   2.628   0.217   5.180
  659SOL     OW 2875   1.847   4.666   6.925
  659SOL    HW1 2876   1.863   4.573   6.894
  659SOL    HW2 2877   1.776   4.667   6.995
  660SOL     OW 2878   5.680   3.303   2.453
  660SOL    HW1 2879   5.618   3.353   2.513
  660SOL    HW2 2880   5.680   3.206   2.479
  661SOL     OW 2881   4.708   5.722   4.059
  661SOL    HW1 2882   4.656   5.758   4.136
  661SOL    HW2 2883   4.694   5.623   4.052
  662SOL     OW 2884   6.881   3.098   0.134
  662SOL    HW1 2885   6.807   3.162   0.113
  662SOL    HW2 2886   6.859   3.008   0.098
  663SOL     OW 2887   1.780   4.354   6.265
  663SOL    HW1 2888   1.681   4.369   6.261
  663SOL    HW2 2889   1.798   4.274   6.321
  664SOL     OW 2890   2.444   0.121   5.924
  664SOL    HW1 2891   2.409   0.112   5.830
  664SOL    HW2 2892   2.367   0.117   5.988
  665SOL     OW 2893   2.543   4.495   3.418
  665SOL    HW1 2894   2.623   4.524   3.470
  665SOL    HW2 2895   2.476   4.569   3.416
  666SOL     OW 2896   3.083   0.403   6.985
  666SOL    HW1 2897   3.036   0.487   6.959
  666SOL    HW2 2898   3.017   0.328   6.992
  667SOL     OW 2899   2.037   3.184   2.442
  667SOL    HW1 2900   2.094   3.148   2.515
  667SOL    HW2 2901   2.040   3.121   2.364
  668SOL     OW 2902   5.284   6.863   0.440
  668SOL    HW1 2903   5.378   6.892   0.422
  668SOL    HW2 2904   5.222   6.915   0.381
  669SOL     OW 2905   6.206   5.936   1.944
  669SOL    HW1 2906   6.153   6.017   1.918
  669SOL    HW2 2907   6.240   5.948   2.037
  670SOL     OW 2908   3.690   3.998   3.225
  670SOL    HW1 2909   3.705   4.011   3.127
  670SOL    HW2 2910   3.598   3.960   3.240
  671SOL     OW 2911   1.218   0.335   6.950
  671SOL    HW1 2912   1.202   0.390   0.003
  671SOL    HW2 2913   1.304   0.363   6.908
  672SOL     OW 2914   0.228   2.594   2.732
  672SOL    HW1 2915   0.142   2.551   2.702
  672SOL    HW2 2916   0.274   2.635   2.653
  673SOL     OW 2917   4.783   0.610   6.179
  673SOL    HW1 2918   4.786   0.627   6.277
  673SOL    HW2 2919   4.743   0.689   6.132
  674SOL     OW 2920   6.909   2.919   4.062
  674SOL    HW1 2921   6.837   2.951   4.000
  674SOL    HW2 2922   6.943   2.996   4.116
  675SOL     OW 2923   6.122   7.006   3.678
  675SOL    HW1 2924   6.163   6.921   3.714
  675SOL    HW2 2925   6.098   6.994   3.582
  676SOL     OW 2926   3.270   4.661   5.807
  676SOL    HW1 2927   3.214   4.731   5.764
  676SOL    HW2 2928   3.211   4.596   5.856
  677SOL     OW 2929   5.213   6.430   0.492
  677SOL    HW1 2930   5.285   6.394   0.432
  677SOL    HW2 2931   5.254   6.488   0.562
  678SOL     OW 2932   1.928   0.294   6.385
  678SOL    HW1 2933   1.909   0.329   6.293
  678SOL    HW2 2934   1.863   0.336   6.449
  679SOL     OW 2935   0.501   0.143   2.684
  679SOL    HW1 2936   0.475   0.070   2.748
  679SOL    HW2 2937   0.428   0.155   2.616
  680SOL     OW 2938   6.178   3.405   3.774
  680SOL    HW1 2939   6.247   3.339   3.804
  680SOL    HW2 2940   6.199   3.435   3.681
  681SOL     OW 2941   0.673   5.344   3.388
  681SOL    HW1 2942   0.723   5.333   3.474
  681SOL    HW2 2943   0.677   5.439   3.358
  682SOL     OW 2944   0.616   6.942   5.303
  682SOL    HW1 2945   0.601   6.958   5.205
  682SOL    HW2 2946   0.712   6.958   5.325
  683SOL     OW 2947   5.117   1.660   1.975
  683SOL    HW1 2948   5.056   1.664   2.054
  683SOL    HW2 2949   5.195   1.600   1.995
  684SOL     OW 2950   6.712   5.337   6.790
  684SOL    HW1 2951   6.753   5.246   6.788
  684SOL    HW2 2952   6.743   5.385   6.872
  685SOL     OW 2953   6.208   0.846   4.749
  685SOL    HW1 2954   6.170   0.797   4.827
  685SOL    HW2 2955   6.160   0.818   4.665
  686SOL     OW 2956   5.643   4.305   0.715
  686SOL    HW1 2957   5.614   4.223   0.667
  686SOL    HW2 2958   5.598   4.385   0.675
  687SOL     OW 2959   4.970   3.115   6.955
  687SOL    HW1 2960   5.055   3.127   6.903
  687SOL    HW2 2961   4.986   3.140   0.021
  688SOL     OW 2962   0.348   2.596   4.847
  688SOL    HW1 2963   0.327   2.623   4.941
  688SOL    HW2 2964   0.423   2.530   4.847
  689SOL     OW 2965   5.437   4.841   4.383
  689SOL    HW1 2966   5.360   4.777   4.382
  689SOL    HW2 2967   5.404   4.934   4.399
  690SOL     OW 2968   0.006   2.480   4.561
  690SOL    HW1 2969   0.027   2.504   4.466
  690SOL    HW2 2970   6.986   2.393   4.563
  691SOL     OW 2971   1.409   2.826   6.478
  691SOL    HW1 2972   1.387   2.775   6.561
  691SOL    HW2 2973   1.493   2.789   6.437
  692SOL     OW 2974   2.515   0.446   4.064
  692SOL    HW1 2975   2.458   0.504   4.006
  692SOL    HW2 2976   2.511   0.479   4.158
  693SOL     OW 2977   5.812   1.535   3.085
  693SOL    HW1 2978   5.790   1.443   3.118
  693SOL    HW2 2979   5.852   1.589   3.159
  694SOL     OW 2980   1.282   0.389   2.324
  694SOL    HW1 2981   1.199   0.428   2.361
  694SOL    HW2 2982   1.356   0.456   2.328
  695SOL     OW 2983   4.510   6.002   6.548
  695SOL    HW1 2984   4.455   5.921   6.527
  695SOL    HW2 2985   4.481   6.040   6.636
  696SOL     OW 2986   5.625   5.935   2.557
  696SOL    HW1 2987   5.563   5.933   2.479
  696SOL    HW2 2988   5.574   5.954   2.641
  697SOL     OW 2989   1.229   4.299   3.108
  697SOL    HW1 2990   1.312   4.243   3.101
  697SOL    HW2 2991   1.149   4.242   3.089
  698SOL     OW 2992   4.650   6.921   3.974
  698SOL    HW1 2993   4.585   6.924   4.050
  698SOL    HW2 2994   4.727   6.982   3.994
  699SOL     OW 2995   2.241   5.799   6.402
  699SOL    HW1 2996   2.198   5.878   6.359
  699SOL    HW2 2997   2.282   5.740   6.332
  700SOL     OW 2998   1.463   2.562   4.804
  700SOL    HW1 2999   1.506   2.652   4.802
  700SOL    HW2 3000   1.524   2.495   4.762
  701SOL     OW 3001   0.707   4.961   6.232
  701SOL    HW1 3002   0.786   4.901   6.245
  701SOL    HW2 3003   0.690   4.974   6.135
  702SOL     OW 3004   5.823   6.201   5.833
  702SOL    HW1 3005   5.915   6.237   5.822
  702SOL    HW2 3006   5.799   6.145   5.753
  703SOL     OW 3007   6.157   3.695   6.200
  703SOL    HW1 3008   6.116   3.630   6.135
  703SOL    HW2 3009   6.102   3.698   6.283
  704SOL     OW 3010   2.294   0.118   1.994
  704SOL    HW1 3011   2.231   0.047   2.026
  704SOL    HW2 3012   2.364   0.135   2.063
  705SOL     OW 3013   1.384   1.940   4.595
  705SOL    HW1 3014   1.395   1.899   4.505
  705SOL    HW2 3015   1.303   1.999   4.595
  706SOL     OW 3016   5.909   3.454   3.263
  706SOL    HW1 3017   5.825   3.442   3.209
  706SOL    HW2 3018   5.909   3.388   3.338
  707SOL     OW 3019   4.913   3.159   2.866
  707SOL    HW1 3020   4.930   3.206   2.779
  707SOL    HW2 3021   4.936   3.219   2.942
  708SOL     OW 3022   5.424   0.980   1.875
  708SOL    HW1 3023   5.347   1.039   1.897
  708SOL    HW2 3024   5.487   0.976   1.953
  709SOL     OW 3025   1.530   3.414   6.374
  709SOL    HW1 3026   1.570   3.500   6.343
  709SOL    HW2 3027   1.433   3.428   6.393
  710SOL     OW 3028   3.273   3.722   3.934
  710SOL    HW1 3029   3.356   3.746   3.984
  710SOL    HW2 3030   3.194   3.728   3.996
  711SOL     OW 3031   1.698   1.283   3.933
  711SOL    HW1 3032   1.701   1.340   3.851
  711SOL    HW2 3033   1.619   1.222   3.929
  712SOL     OW 3034   0.221   4.812   4.013
  712SOL    HW1 3035   0.281   4.831   3.935
  712SOL    HW2 3036   0.203   4.897   4.062
  713SOL     OW 3037   2.047   3.874   5.882
  713SOL    HW1 3038   1.949   3.894   5.883
  713SOL    HW2 3039   2.098   3.960   5.876
  714SOL     OW 3040   5.046   4.872   4.508
  714SOL    HW1 3041   5.082   4.902   4.420
  714SOL    HW2 3042   4.952   4.905   4.519
  715SOL     OW 3043   6.651   0.459   5.685
  715SOL    HW1 3044   6.662   0.559   5.688
  715SOL    HW2 3045   6.685   0.425   5.598
  716SOL     OW 3046   6.251   5.750   0.258
  716SOL    HW1 3047   6.236   5.842   0.221
  716SOL    HW2 3048   6.196   5.685   0.205
  717SOL     OW 3049   5.878   2.941   5.363
  717SOL    HW1 3050   5.885   3.009   5.436
  717SOL    HW2 3051   5.883   2.849   5.403
  718SOL     OW 3052   3.565   3.510   1.074
  718SOL    HW1 3053   3.539   3.508   0.978
  718SOL    HW2 3054   3.590   3.418   1.104
  719SOL     OW 3055   0.091   4.287   0.345
  719SOL    HW1 3056   0.029   4.327   0.413
  719SOL    HW2 3057   0.136   4.361   0.294
  720SOL     OW 3058   4.127   0.805   5.783
  720SOL    HW1 3059   4.097   0.716   5.817
  720SOL    HW2 3060   4.219   0.796   5.744
  721SOL     OW 3061   2.108   0.682   5.085
  721SOL    HW1 3062   2.123   0.719   4.994
  721SOL    HW2 3063   2.012   0.655   5.095
  722SOL     OW 3064   4.659   1.689   5.185
  722SOL    HW1 3065   4.700   1.661   5.272
  722SOL    HW2 3066   4.656   1.789   5.181
  723SOL     OW 3067   0.277   3.713   1.713
  723SOL    HW1 3068   0.365   3.703   1.761
  723SOL    HW2 3069   0.228   3.792   1.750
  724SOL     OW 3070   0.552   2.817   4.400
  724SOL    HW1 3071   0.503   2.903   4.415
  724SOL    HW2 3072   0.486   2.742   4.395
  725SOL     OW 3073   2.591   5.270   2.261
  725SOL    HW1 3074   2.661   5.239   2.197
  725SOL    HW2 3075   2.608   5.365   2.286
  726SOL     OW 3076   5.555   5.706   0.176
  726SOL    HW1 3077   5.569   5.800   0.207
  726SOL    HW2 3078   5.457   5.688   0.168
  727SOL     OW 3079   1.366   4.914   4.387
  727SOL    HW1 3080   1.405   4.988   4.442
  727SOL    HW2 3081   1.410   4.913   4.297
  728SOL     OW 3082   6.312   2.147   6.206
  728SOL    HW1 3083   6.347   2.055   6.222
  728SOL    HW2 3084   6.332   2.205   6.285
  729SOL     OW 3085   4.239   1.083   0.543
  729SOL    HW1 3086   4.276   1.161   0.593
  729SOL    HW2 3087   4.174   1.116   0.475
  730SOL     OW 3088   6.010   1.108   3.557
  730SOL    HW1 3089   6.036   1.147   3.469
  730SOL    HW2 3090   6.025   1.009   3.555
  731SOL     OW 3091   0.283   2.010   3.611
  731SOL    HW1 3092   0.284   1.982   3.706
  731SOL    HW2 3093   0.344   2.089   3.599
  732SOL     OW 3094   0.151   4.397   3.937
  732SOL    HW1 3095   0.124   4.331   3.867
  732SOL    HW2 3096   0.176   4.483   3.894
  733SOL     OW 3097   5.436   4.412   4.624
  733SOL    HW1 3098   5.478   4.322   4.630
  733SOL    HW2 3099   5.442   4.458   4.713
  734SOL     OW 3100   0.847   0.242   0.115
  734SOL    HW1 3101   0.834   0.199   0.205
  734SOL    HW2 3102   0.943   0.233   0.087
  735SOL     OW 3103   3.106   4.629   0.082
  735SOL    HW1 3104   3.065   4.539   0.090
  735SOL    HW2 3105   3.167   4.646   0.159
  736SOL     OW 3106   5.363   1.404   1.948
  736SOL    HW1 3107   5.439   1.381   2.008
  736SOL    HW2 3108   5.378   1.494   1.908
  737SOL     OW 3109   5.225   3.909   0.196
  737SOL    HW1 3110   5.177   3.992   0.169
  737SOL    HW2 3111   5.185   3.874   0.281
  738SOL     OW 3112   6.957   3.521   4.131
  738SOL    HW1 3113   0.014   3.504   4.178
  738SOL    HW2 3114   6.946   3.619   4.115
  739SOL     OW 3115   4.814   5.863   6.194
  739SOL    HW1 3116   4.723   5.823   6.199
  739SOL    HW2 3117   4.882   5.791   6.207
  740SOL     OW 3118   5.774   6.945   0.516
  740SOL    HW1 3119   5.730   6.856   0.505
  740SOL    HW2 3120   5.768   6.973   0.612
  741SOL     OW 3121   1.341   0.577   3.851
  741SOL    HW1 3122   1.285   0.513   3.903
  741SOL    HW2 3123   1.396   0.632   3.914
  742SOL     OW 3124   1.287   6.224   2.241
  742SOL    HW1 3125   1.197   6.267   2.234
  742SOL    HW2 3126   1.315   6.219   2.336
  743SOL     OW 3127   1.454   3.193   2.256
  743SOL    HW1 3128   1.528   3.178   2.189
  743SOL    HW2 3129   1.374   3.140   2.229
  744SOL     OW 3130   6.617   4.840   1.079
  744SOL    HW1 3131   6.646   4.747   1.057
  744SOL    HW2 3132   6.654   4.904   1.011
  745SOL     OW 3133   1.170   6.453   1.503
  745SOL    HW1 3134   1.224   6.427   1.423
  745SOL    HW2 3135   1.169   6.553   1.511
  746SOL     OW 3136   2.997   0.050   3.321
  746SOL    HW1 3137   3.068   7.010   3.329
  746SOL    HW2 3138   2.907   0.006   3.325
  747SOL     OW 3139   0.377   3.911   0.543
  747SOL    HW1 3140   0.383   4.007   0.515
  747SOL    HW2 3141   0.369   3.906   0.642
  748SOL     OW 3142   3.974   3.916   3.807
  748SOL    HW1 3143   3.906   3.938   3.738
  748SOL    HW2 3144   3.949   3.958   3.894
  749SOL     OW 3145   4.532   3.219   5.465
  749SOL    HW1 3146   4.433   3.237   5.466
  749SOL    HW2 3147   4.579   3.288   5.521
  750SOL     OW 3148   3.109   3.174   1.888
  750SOL    HW1 3149   3.034   3.240   1.898
  750SOL    HW2 3150   3.107   3.109   1.964
  751SOL     OW 3151   5.478   1.162   0.615
  751SOL    HW1 3152   5.567   1.131   0.649
  751SOL    HW2 3153   5.409   1.093   0.636
  752SOL     OW 3154   4.371   0.459   2.428
  752SOL    HW1 3155   4.330   0.373   2.396
  752SOL    HW2 3156   4.299   0.523   2.454
  753SOL     OW 3157   3.264   1.701   1.756
  753SOL    HW1 3158   3.254   1.602   1.770
  753SOL    HW2 3159   3.190   1.749   1.803
  754SOL     OW 3160   5.196   4.959   6.884
  754SOL    HW1 3161   5.187   5.058   6.879
  754SOL    HW2 3162   5.291   4.933   6.865
  755SOL     OW 3163   5.660   5.121   2.548
  755SOL    HW1 3164   5.570   5.156   2.521
  755SOL    HW2 3165   5.720   5.117   2.468
  756SOL     OW 3166   2.669   6.473   4.680
  756SOL    HW1 3167   2.599   6.488   4.610
  756SOL    HW2 3168   2.670   6.376   4.705
  757SOL     OW 3169   0.113   1.072   4.294
  757SOL    HW1 3170   0.121   1.103   4.200
  757SOL    HW2 3171   0.145   0.977   4.301
  758SOL     OW 3172   4.056   1.755   0.357
  758SOL    HW1 3173   4.117   1.720   0.429
  758SOL    HW2 3174   3.984   1.688   0.339
  759SOL     OW 3175   2.311   0.508   1.236
  759SOL    HW1 3176   2.238   0.444   1.214
  759SOL    HW2 3177   2.359   0.477   1.318
  760SOL     OW 3178   5.042   1.292   5.461
  760SOL    HW1 3179   4.944   1.285   5.444
  760SOL    HW2 3180   5.090   1.312   5.375
  761SOL     OW 3181   5.016   0.827   6.634
  761SOL    HW1 3182   5.035   0.758   6.704
  761SOL    HW2 3183   5.097   0.885   6.623
  762SOL     OW 3184   2.418   4.554   4.835
  762SOL    HW1 3185   2.408   4.460   4.801
  762SOL    HW2 3186   2.363   4.567   4.917
  763SOL     OW 3187   0.840   4.484   1.252
  763SOL    HW1 3188   0.851   4.558   1.318
  763SOL    HW2 3189   0.746   4.483   1.217
  764SOL     OW 3190   5.921   1.337   2.324
  764SOL    HW1 3191   6.018   1.325   2.346
  764SOL    HW2 3192   5.913   1.386   2.237
  765SOL     OW 3193   0.934   6.288   2.747
  765SOL    HW1 3194   1.015   6.301   2.803
  765SOL    HW2 3195   0.925   6.365   2.684
  766SOL     OW 3196   0.527   6.074   0.204
  766SOL    HW1 3197   0.530   5.978   0.177
  766SOL    HW2 3198   0.463   6.085   0.280
  767SOL     OW 3199   5.662   6.416   1.721
  767SOL    HW1 3200   5.721   6.427   1.801
  767SOL    HW2 3201   5.581   6.473   1.732
  768SOL     OW 3202   2.728   6.240   4.831
  768SOL    HW1 3203   2.818   6.209   4.800
  768SOL    HW2 3204   2.738   6.299   4.911
  769SOL     OW 3205   3.407   0.642   0.555
  769SOL    HW1 3206   3.377   0.567   0.497
  769SOL    HW2 3207   3.342   0.718   0.549
  770SOL     OW 3208   4.122   4.853   5.411
  770SOL    HW1 3209   4.061   4.932   5.415
  770SOL    HW2 3210   4.145   4.824   5.504
  771SOL     OW 3211   0.291   7.017   4.631
  771SOL    HW1 3212   0.208   7.018   4.575
  771SOL    HW2 3213   0.316   6.922   4.652
  772SOL     OW 3214   0.878   3.102   6.549
  772SOL    HW1 3215   0.829   3.125   6.633
  772SOL    HW2 3216   0.905   3.186   6.501
  773SOL     OW 3217   0.021   3.211   1.932
  773SOL    HW1 3218   0.102   3.156   1.950
  773SOL    HW2 3219   6.994   3.214   2.014
  774SOL     OW 3220   1.247   1.414   1.902
  774SOL    HW1 3221   1.241   1.508   1.935
  774SOL    HW2 3222   1.290   1.413   1.811
  775SOL     OW 3223   1.791   2.652   4.336
  775SOL    HW1 3224   1.873   2.615   4.380
  775SOL    HW2 3225   1.710   2.606   4.372
  776SOL     OW 3226   2.435   1.397   5.283
  776SOL    HW1 3227   2.376   1.466   5.324
  776SOL    HW2 3228   2.526   1.436   5.269
  777SOL     OW 3229   4.591   0.637   6.755
  777SOL    HW1 3230   4.685   0.610   6.777
  777SOL    HW2 3231   4.592   0.724   6.706
  778SOL     OW 3232   5.164   5.814   5.172
  778SOL    HW1 3233   5.078   5.769   5.196
  778SOL    HW2 3234   5.188   5.880   5.243
  779SOL     OW 3235   0.872   6.967   2.411
  779SOL    HW1 3236   0.890   0.018   2.467
  779SOL    HW2 3237   0.781   6.974   2.371
  780SOL     OW 3238   5.931   2.496   5.338
  780SOL    HW1 3239   5.864   2.443   5.389
  780SOL    HW2 3240   5.962   2.574   5.393
  781SOL     OW 3241   1.240   3.870   0.384
  781SOL    HW1 3242   1.181   3.811   0.439
  781SOL    HW2 3243   1.335   3.841   0.396
  782SOL     OW 3244   0.152   5.087   0.473
  782SOL    HW1 3245   0.234   5.031   0.460
  782SOL    HW2 3246   0.098   5.050   0.549
  783SOL     OW 3247   1.218   5.525   0.518
  783SOL    HW1 3248   1.238   5.461   0.592
  783SOL    HW2 3249   1.208   5.617   0.556
  784SOL     OW 3250   5.045   5.699   3.175
  784SOL    HW1 3251   5.024   5.774   3.237
  784SOL    HW2 3252   5.141   5.703   3.148
  785SOL     OW 3253   6.626   2.749   3.099
  785SOL    HW1 3254   6.671   2.787   3.018
  785SOL    HW2 3255   6.540   2.706   3.071
  786SOL     OW 3256   5.992   6.957   1.305
  786SOL    HW1 3257   5.991   6.984   1.402
  786SOL    HW2 3258   6.068   6.894   1.289
  787SOL     OW 3259   4.781   1.188   5.296
  787SOL    HW1 3260   4.685   1.214   5.293
  787SOL    HW2 3261   4.792   1.108   5.355
  788SOL     OW 3262   6.659   4.912   3.085
  788SOL    HW1 3263   6.571   4.916   3.132
  788SOL    HW2 3264   6.681   4.817   3.065
  789SOL     OW 3265   5.961   2.794   0.214
  789SOL    HW1 3266   6.014   2.863   0.263
  789SOL    HW2 3267   5.991   2.703   0.242
  790SOL     OW 3268   2.719   0.727   4.273
  790SOL    HW1 3269   2.630   0.683   4.267
  790SOL    HW2 3270   2.777   0.677   4.337
  791SOL     OW 3271   3.377   1.238   3.659
  791SOL    HW1 3272   3.451   1.293   3.698
  791SOL    HW2 3273   3.403   1.142   3.662
  792SOL     OW 3274   4.960   0.637   3.910
  792SOL    HW1 3275   5.053   0.670   3.931
  792SOL    HW2 3276   4.964   0.570   3.836
  793SOL     OW 3277   0.719   6.583   6.616
  793SOL    HW1 3278   0.716   6.485   6.638
  793SOL    HW2 3279   0.629   6.613   6.585
  794SOL     OW 3280   3.480   5.155   5.032
  794SOL    HW1 3281   3.479   5.239   5.086
  794SOL    HW2 3282   3.485   5.076   5.093
  795SOL     OW 3283   5.147   5.397   0.118
  795SOL    HW1 3284   5.175   5.377   0.212
  795SOL    HW2 3285   5.133   5.496   0.108
  796SOL     OW 3286   1.428   1.928   6.299
  796SOL    HW1 3287   1.463   2.011   6.342
  796SOL    HW2 3288   1.471   1.848   6.342
  797SOL     OW 3289   6.049   3.104   5.677
  797SOL    HW1 3290   6.149   3.107   5.670
  797SOL    HW2 3291   6.022   3.025   5.732
  798SOL     OW 3292   6.080   0.334   4.216
  798SOL    HW1 3293   6.097   0.418   4.165
  798SOL    HW2 3294   6.060   0.259   4.153
  799SOL     OW 3295   6.810   4.277   4.014
  799SOL    HW1 3296   6.748   4.334   3.960
  799SOL    HW2 3297   6.756   4.214   4.071
  800SOL     OW 3298   0.353   2.443   2.199
  800SOL    HW1 3299   0.257   2.417   2.213
  800SOL    HW2 3300   0.400   2.446   2.288
  801SOL     OW 3301   0.015   3.614   3.464
  801SOL    HW1 3302   0.054   3.615   3.372
  801SOL    HW2 3303   6.977   3.687   3.472
  802SOL     OW 3304   6.862   0.523   0.733
  802SOL    HW1 3305   6.827   0.558   0.646
  802SOL    HW2 3306   6.903   0.598   0.786
  803SOL     OW 3307   2.304   6.258   4.454
  803SOL    HW1 3308   2.362   6.235   4.532
  803SOL    HW2 3309   2.228   6.315   4.485
  804SOL     OW 3310   5.653   5.738   0.761
  804SOL    HW1 3311   5.731   5.706   0.706
  804SOL    HW2 3312   5.585   5.665   0.766
  805SOL     OW 3313   2.407   2.432   6.364
  805SOL    HW1 3314   2.481   2.366   6.376
  805SOL    HW2 3315   2.321   2.392   6.395
  806SOL     OW 3316   4.113   6.531   0.055
  806SOL    HW1 3317   4.027   6.509   0.100
  806SOL    HW2 3318   4.138   6.626   0.075
  807SOL     OW 3319   6.674   0.934   2.971
  807SOL    HW1 3320   6.650   1.029   2.990
  807SOL    HW2 3321   6.606   0.874   3.013
  808SOL     OW 3322   5.884   3.849   5.324
  808SOL    HW1 3323   5.792   3.867   5.361
  808SOL    HW2 3324   5.948   3.837   5.400
  809SOL     OW 3325   0.001   5.952   5.663
  809SOL    HW1 3326   6.959   5.895   5.623
  809SOL    HW2 3327   0.027   5.915   5.752
  810SOL     OW 3328   5.493   5.100   5.883
  810SOL    HW1 3329   5.457   5.037   5.814
  810SOL    HW2 3330   5.556   5.165   5.840
  811SOL     OW 3331   2.859   4.763   2.512
  811SOL    HW1 3332   2.867   4.743   2.414
  811SOL    HW2 3333   2.902   4.851   2.532
  812SOL     OW 3334   7.008   0.301   3.017
  812SOL    HW1 3335   6.931   0.338   2.965
  812SOL    HW2 3336   0.044   0.260   2.954
  813SOL     OW 3337   4.937   4.605   1.978
  813SOL    HW1 3338   4.849   4.559   1.967
  813SOL    HW2 3339   4.930   4.699   1.945
  814SOL     OW 3340   5.166   5.108   1.565
  814SOL    HW1 3341   5.183   5.069   1.474
  814SOL    HW2 3342   5.107   5.045   1.617
  815SOL     OW 3343   0.872   1.187   1.157
  815SOL    HW1 3344   0.818   1.250   1.213
  815SOL    HW2 3345   0.895   1.106   1.211
  816SOL     OW 3346   6.424   0.699   0.890
  816SOL    HW1 3347   6.428   0.633   0.816
  816SOL    HW2 3348   6.338   0.751   0.885
  817SOL     OW 3349   0.157   1.996   2.521
  817SOL    HW1 3350   0.164   2.090   2.554
  817SOL    HW2 3351   0.169   1.995   2.421
  818SOL     OW 3352   5.550   1.967   3.238
  818SOL    HW1 3353   5.546   1.874   3.202
  818SOL    HW2 3354   5.488   2.026   3.185
  819SOL     OW 3355   0.488   5.033   2.844
  819SOL    HW1 3356   0.447   5.029   2.935
  819SOL    HW2 3357   0.430   5.087   2.783
  820SOL     OW 3358   2.461   3.187   5.865
  820SOL    HW1 3359   2.425   3.257   5.803
  820SOL    HW2 3360   2.456   3.098   5.821
  821SOL     OW 3361   1.485   4.107   0.524
  821SOL    HW1 3362   1.456   4.179   0.461
  821SOL    HW2 3363   1.584   4.114   0.539
  822SOL     OW 3364   0.602   3.198   5.596
  822SOL    HW1 3365   0.634   3.291   5.577
  822SOL    HW2 3366   0.677   3.133   5.581
  823SOL     OW 3367   4.958   4.162   1.548
  823SOL    HW1 3368   4.886   4.095   1.565
  823SOL    HW2 3369   4.923   4.254   1.565
  824SOL     OW 3370   6.292   3.869   6.583
  824SOL    HW1 3371   6.385   3.895   6.610
  824SOL    HW2 3372   6.258   3.935   6.515
  825SOL     OW 3373   2.357   2.990   1.691
  825SOL    HW1 3374   2.455   3.009   1.701
  825SOL    HW2 3375   2.318   3.049   1.621
  826SOL     OW 3376   1.221   1.505   6.685
  826SOL    HW1 3377   1.202   1.591   6.733
  826SOL    HW2 3378   1.234   1.523   6.588
  827SOL     OW 3379   4.253   4.289   1.094
  827SOL    HW1 3380   4.243   4.388   1.103
  827SOL    HW2 3381   4.315   4.268   1.018
  828SOL     OW 3382   5.892   1.716   5.570
  828SOL    HW1 3383   5.834   1.779   5.517
  828SOL    HW2 3384   5.881   1.623   5.534
  829SOL     OW 3385   4.520   4.432   5.932
  829SOL    HW1 3386   4.504   4.356   5.995
  829SOL    HW2 3387   4.480   4.410   5.843
  830SOL     OW 3388   4.109   3.641   6.525
  830SOL    HW1 3389   4.205   3.633   6.499
  830SOL    HW2 3390   4.068   3.719   6.477
  831SOL     OW 3391   5.350   2.011   5.657
  831SOL    HW1 3392   5.396   2.070   5.590
  831SOL    HW2 3393   5.289   2.067   5.714
  832SOL     OW 3394   3.297   1.363   5.504
  832SOL    HW1 3395   3.257   1.368   5.595
  832SOL    HW2 3396   3.284   1.450   5.457
  833SOL     OW 3397   1.087   0.731   5.120
  833SOL    HW1 3398   0.995   0.716   5.085
  833SOL    HW2 3399   1.138   0.645   5.122
  834SOL     OW 3400   2.826   4.533   5.868
  834SOL    HW1 3401   2.760   4.597   5.908
  834SOL    HW2 3402   2.796   4.508   5.776
  835SOL     OW 3403   3.859   1.650   2.867
  835SOL    HW1 3404   3.863   1.550   2.865
  835SOL    HW2 3405   3.919   1.687   2.796
  836SOL     OW 3406   1.937   1.123   5.548
  836SOL    HW1 3407   2.035   1.135   5.560
  836SOL    HW2 3408   1.889   1.202   5.585
  837SOL     OW 3409   3.938   1.535   4.106
  837SOL    HW1 3410   4.002   1.524   4.182
  837SOL    HW2 3411   3.968   1.477   4.029
  838SOL     OW 3412   0.649   6.325   2.260
  838SOL    HW1 3413   0.634   6.277   2.346
  838SOL    HW2 3414   0.580   6.397   2.249
  839SOL     OW 3415   2.132   1.878   1.975
  839SOL    HW1 3416   2.190   1.908   2.051
  839SOL    HW2 3417   2.188   1.827   1.909
  840SOL     OW 3418   2.144   0.729   4.813
  840SOL    HW1 3419   2.191   0.670   4.747
  840SOL    HW2 3420   2.105   0.808   4.765
  841SOL     OW 3421   6.866   2.978   0.384
  841SOL    HW1 3422   6.951   2.982   0.438
  841SOL    HW2 3423   6.883   3.014   0.292
  842SOL     OW 3424   3.950   5.144   4.254
  842SOL    HW1 3425   3.950   5.077   4.179
  842SOL    HW2 3426   3.919   5.099   4.338
  843SOL     OW 3427   0.047   2.806   1.023
  843SOL    HW1 3428   7.008   2.874   1.050
  843SOL    HW2 3429   0.004   2.737   0.965
  844SOL     OW 3430   5.680   4.403   6.127
  844SOL    HW1 3431   5.711   4.336   6.195
  844SOL    HW2 3432   5.590   4.436   6.152
  845SOL     OW 3433   2.110   5.042   5.756
  845SOL    HW1 3434   2.172   5.043   5.835
  845SOL    HW2 3435   2.091   4.947   5.730
  846SOL     OW 3436   5.085   1.894   6.900
  846SOL    HW1 3437   5.051   1.959   6.832
  846SOL    HW2 3438   5.042   1.913   6.989
  847SOL     OW 3439   4.918   3.700   1.733
  847SOL    HW1 3440   4.987   3.766   1.764
  847SOL    HW2 3441   4.947   3.608   1.758
  848SOL     OW 3442   5.880   6.754   5.529
  848SOL    HW1 3443   5.947   6.826   5.511
  848SOL    HW2 3444   5.884   6.685   5.456
  849SOL     OW 3445   0.936   0.216   3.605
  849SOL    HW1 3446   0.930   0.286   3.534
  849SOL    HW2 3447   1.022   0.166   3.594
  850SOL     OW 3448   3.072   0.990   3.075
  850SOL    HW1 3449   2.996   1.017   3.017
  850SOL    HW2 3450   3.054   1.018   3.169
  851SOL     OW 3451   6.576   1.727   6.152
  851SOL    HW1 3452   6.524   1.646   6.123
  851SOL    HW2 3453   6.654   1.698   6.208
  852SOL     OW 3454   3.681   5.095   4.513
  852SOL    HW1 3455   3.661   5.044   4.597
  852SOL    HW2 3456   3.713   5.187   4.538
  853SOL     OW 3457   1.324   3.981   1.017
  853SOL    HW1 3458   1.296   4.059   0.962
  853SOL    HW2 3459   1.325   3.898   0.961
  854SOL     OW 3460   6.741   4.442   1.219
  854SOL    HW1 3461   6.810   4.454   1.290
  854SOL    HW2 3462   6.710   4.346   1.219
  855SOL     OW 3463   4.811   0.306   0.577
  855SOL    HW1 3464   4.802   0.281   0.481
  855SOL    HW2 3465   4.730   0.275   0.627
  856SOL     OW 3466   1.846   1.081   5.277
  856SOL    HW1 3467   1.811   1.167   5.239
  856SOL    HW2 3468   1.847   1.087   5.376
  857SOL     OW 3469   6.672   4.761   2.473
  857SOL    HW1 3470   6.744   4.817   2.515
  857SOL    HW2 3471   6.690   4.664   2.493
  858SOL     OW 3472   3.881   3.486   1.962
  858SOL    HW1 3473   3.849   3.511   2.054
  858SOL    HW2 3474   3.853   3.393   1.942
  859SOL     OW 3475   6.370   3.813   1.331
  859SOL    HW1 3476   6.379   3.912   1.330
  859SOL    HW2 3477   6.433   3.774   1.399
  860SOL     OW 3478   1.795   3.994   6.173
  860SOL    HW1 3479   1.782   3.987   6.074
  860SOL    HW2 3480   1.774   3.906   6.215
  861SOL     OW 3481   4.394   4.788   6.654
  861SOL    HW1 3482   4.463   4.724   6.622
  861SOL    HW2 3483   4.303   4.755   6.627
  862SOL     OW 3484   4.105   4.738   3.637
  862SOL    HW1 3485   4.129   4.643   3.655
  862SOL    HW2 3486   4.102   4.754   3.539
  863SOL     OW 3487   6.896   2.994   1.074
  863SOL    HW1 3488   6.836   3.073   1.088
  863SOL    HW2 3489   6.840   2.913   1.055
  864SOL     OW 3490   1.428   6.636   1.593
  864SOL    HW1 3491   1.336   6.648   1.556
  864SOL    HW2 3492   1.425   6.641   1.693
  865SOL     OW 3493   0.870   1.280   3.704
  865SOL    HW1 3494   0.793   1.216   3.713
  865SOL    HW2 3495   0.899   1.309   3.796
  866SOL     OW 3496   3.918   0.951   1.864
  866SOL    HW1 3497   4.009   0.921   1.890
  866SOL    HW2 3498   3.917   1.050   1.851
  867SOL     OW 3499   3.436   1.480   6.386
  867SOL    HW1 3500   3.372   1.493   6.310
  867SOL    HW2 3501   3.399   1.522   6.469
  868SOL     OW 3502   4.808   2.052   3.507
  868SOL    HW1 3503   4.849   2.108   3.435
  868SOL    HW2 3504   4.723   2.012   3.474
  869SOL     OW 3505   6.341   3.398   0.798
  869SOL    HW1 3506   6.414   3.336   0.828
  869SOL    HW2 3507   6.301   3.443   0.877
  870SOL     OW 3508   6.053   1.724   0.853
  870SOL    HW1 3509   6.139   1.736   0.903
  870SOL    HW2 3510   6.071   1.729   0.755
  871SOL     OW 3511   0.379   4.356   0.958
  871SOL    HW1 3512   0.362   4.399   0.869
  871SOL    HW2 3513   0.312   4.390   1.024
  872SOL     OW 3514   6.306   1.755   1.765
  872SOL    HW1 3515   6.209   1.778   1.779
  872SOL    HW2 3516   6.323   1.662   1.798
  873SOL     OW 3517   4.197   0.126   3.990
  873SOL    HW1 3518   4.224   0.041   3.944
  873SOL    HW2 3519   4.137   0.104   4.067
  874SOL     OW 3520   1.238   3.449   6.040
  874SOL    HW1 3521   1.138   3.458   6.043
  874SOL    HW2 3522   1.264   3.362   6.083
  875SOL     OW 3523   6.355   5.926   6.882
  875SOL    HW1 3524   6.424   5.899   6.814
  875SOL    HW2 3525   6.376   6.018   6.916
  876SOL     OW 3526   2.649   2.323   1.976
  876SOL    HW1 3527   2.737   2.307   2.021
  876SOL    HW2 3528   2.625   2.420   1.981
  877SOL     OW 3529   6.064   5.680   5.940
  877SOL    HW1 3530   6.119   5.598   5.927
  877SOL    HW2 3531   6.026   5.681   6.033
  878SOL     OW 3532   4.352   3.000   1.392
  878SOL    HW1 3533   4.263   3.044   1.405
  878SOL    HW2 3534   4.422   3.070   1.374
  879SOL     OW 3535   5.219   3.201   3.160
  879SOL    HW1 3536   5.137   3.225   3.108
  879SOL    HW2 3537   5.283   3.152   3.100
  880SOL     OW 3538   4.072   0.035   1.059
  880SOL    HW1 3539   4.030   6.981   1.093
  880SOL    HW2 3540   4.124   0.079   1.132
  881SOL     OW 3541   4.670   5.735   3.507
  881SOL    HW1 3542   4.628   5.823   3.525
  881SOL    HW2 3543   4.664   5.714   3.409
  882SOL     OW 3544   1.043   2.180   5.267
  882SOL    HW1 3545   1.024   2.267   5.220
  882SOL    HW2 3546   0.979   2.168   5.343
  883SOL     OW 3547   2.869   5.242   0.046
  883SOL    HW1 3548   2.820   5.158   0.066
  883SOL    HW2 3549   2.949   5.249   0.105
  884SOL     OW 3550   4.486   4.252   1.478
  884SOL    HW1 3551   4.422   4.189   1.521
  884SOL    HW2 3552   4.530   4.208   1.400
  885SOL     OW 3553   3.945   5.675   6.609
  885SOL    HW1 3554   3.995   5.613   6.548
  885SOL    HW2 3555   3.913   5.755   6.559
  886SOL     OW 3556   3.840   2.764   6.496
  886SOL    HW1 3557   3.784   2.682   6.503
  886SOL    HW2 3558   3.788   2.843   6.529
  887SOL     OW 3559   6.378   6.330   4.870
  887SOL    HW1 3560   6.404   6.308   4.964
  887SOL    HW2 3561   6.278   6.340   4.865
  888SOL     OW 3562   6.321   1.354   3.787
  888SOL    HW1 3563   6.312   1.371   3.688
  888SOL    HW2 3564   6.336   1.441   3.834
  889SOL     OW 3565   0.517   0.355   4.796
  889SOL    HW1 3566   0.589   0.323   4.858
  889SOL    HW2 3567   0.542   0.445   4.759
  890SOL     OW 3568   2.725   3.203   0.705
  890SOL    HW1 3569   2.628   3.204   0.728
  890SOL    HW2 3570   2.779   3.197   0.789
  891SOL     OW 3571   6.562   3.201   5.677
  891SOL    HW1 3572   6.601   3.180   5.587
  891SOL    HW2 3573   6.636   3.208   5.744
  892SOL     OW 3574   2.386   4.419   2.041
  892SOL    HW1 3575   2.297   4.457   2.063
  892SOL    HW2 3576   2.456   4.490   2.050
  893SOL     OW 3577   2.052   0.725   1.772
  893SOL    HW1 3578   2.051   0.823   1.793
  893SOL    HW2 3579   2.128   0.704   1.710
  894SOL     OW 3580   1.387   5.308   3.895
  894SOL    HW1 3581   1.322   5.333   3.823
  894SOL    HW2 3582   1.372   5.212   3.920
  895SOL     OW 3583   2.592   1.201   4.491
  895SOL    HW1 3584   2.597   1.215   4.392
  895SOL    HW2 3585   2.501   1.226   4.524
  896SOL     OW 3586   4.702   6.975   2.861
  896SOL    HW1 3587   4.647   6.975   2.944
  896SOL    HW2 3588   4.670   0.017   2.799
  897SOL     OW 3589   6.286   0.933   6.887
  897SOL    HW1 3590   6.373   0.885   6.890
  897SOL    HW2 3591   6.249   0.942   6.979
  898SOL     OW 3592   5.571   5.830   3.364
  898SOL    HW1 3593   5.662   5.795   3.384
  898SOL    HW2 3594   5.503   5.782   3.421
  899SOL     OW 3595   1.848   4.718   0.252
  899SOL    HW1 3596   1.944   4.689   0.243
  899SOL    HW2 3597   1.790   4.657   0.200
  900SOL     OW 3598   0.106   5.523   3.591
  900SOL    HW1 3599   0.180   5.456   3.594
  900SOL    HW2 3600   0.123   5.589   3.517
  901SOL     OW 3601   6.399   2.274   3.394
  901SOL    HW1 3602   6.384   2.199   3.458
  901SOL    HW2 3603   6.429   2.236   3.306
  902SOL     OW 3604   1.548   5.817   6.912
  902SOL    HW1 3605   1.563   5.743   6.846
  902SOL    HW2 3606   1.635   5.846   6.950
  903SOL     OW 3607   1.393   4.668   7.015
  903SOL    HW1 3608   1.424   4.741   6.955
  903SOL    HW2 3609   1.354   4.594   6.961
  904SOL     OW 3610   1.261   2.285   3.961
  904SOL    HW1 3611   1.247   2.226   4.040
  904SOL    HW2 3612   1.243   2.234   3.877
  905SOL     OW 3613   6.409   4.012   3.460
  905SOL    HW1 3614   6.432   3.961   3.543
  905SOL    HW2 3615   6.312   4.002   3.440
  906SOL     OW 3616   0.040   3.450   5.488
  906SOL    HW1 3617   7.026   3.389   5.554
  906SOL    HW2 3618   0.134   3.420   5.472
  907SOL     OW 3619   6.777   4.496   2.777
  907SOL    HW1 3620   6.755   4.510   2.681
  907SOL    HW2 3621   6.800   4.400   2.792
  908SOL     OW 3622   2.439   1.214   3.038
  908SOL    HW1 3623   2.394   1.234   3.125
  908SOL    HW2 3624   2.470   1.299   2.996
  909SOL     OW 3625   3.069   6.929   2.428
  909SOL    HW1 3626   3.132   6.922   2.351
  909SOL    HW2 3627   2.995   6.993   2.406
  910SOL     OW 3628   1.499   0.687   2.020
  910SOL    HW1 3629   1.477   0.671   2.116
  910SOL    HW2 3630   1.441   0.628   1.963
  911SOL     OW 3631   1.107   2.469   1.148
  911SOL    HW1 3632   1.101   2.398   1.219
  911SOL    HW2 3633   1.198   2.510   1.151
  912SOL     OW 3634   2.661   0.780   1.217
  912SOL    HW1 3635   2.625   0.772   1.124
  912SOL    HW2 3636   2.696   0.692   1.247
  913SOL     OW 3637   2.231   1.137   1.717
  913SOL    HW1 3638   2.232   1.221   1.771
  913SOL    HW2 3639   2.143   1.091   1.728
  914SOL     OW 3640   3.374   4.967   2.438
  914SOL    HW1 3641   3.453   4.956   2.498
  914SOL    HW2 3642   3.294   4.993   2.492
  915SOL     OW 3643   3.383   2.074   1.581
  915SOL    HW1 3644   3.428   1.985   1.578
  915SOL    HW2 3645   3.443   2.142   1.622
  916SOL     OW 3646   0.062   3.967   2.615
  916SOL    HW1 3647   0.111   4.055   2.615
  916SOL    HW2 3648   0.081   3.919   2.530
  917SOL     OW 3649   4.403   0.458   5.005
  917SOL    HW1 3650   4.422   0.547   5.045
  917SOL    HW2 3651   4.317   0.423   5.042
  918SOL     OW 3652   0.264   2.685   5.091
  918SOL    HW1 3653   0.209   2.764   5.116
  918SOL    HW2 3654   0.302   2.643   5.173
  919SOL     OW 3655   0.946   0.428   1.099
  919SOL    HW1 3656   0.852   0.421   1.068
  919SOL    HW2 3657   0.953   0.394   1.193
  920SOL     OW 3658   1.203   1.771   2.811
  920SOL    HW1 3659   1.123   1.785   2.753
  920SOL    HW2 3660   1.279   1.827   2.777
  921SOL     OW 3661   4.185   4.427   0.084
  921SOL    HW1 3662   4.196   4.431   0.183
  921SOL    HW2 3663   4.090   4.447   0.061
  922SOL     OW 3664   2.576   5.583   6.548
  922SOL    HW1 3665   2.570   5.683   6.539
  922SOL    HW2 3666   2.511   5.553   6.618
  923SOL     OW 3667   3.714   1.285   0.232
  923SOL    HW1 3668   3.800   1.262   0.187
  923SOL    HW2 3669   3.731   1.309   0.328
  924SOL     OW 3670   5.027   5.240   1.197
  924SOL    HW1 3671   5.093   5.257   1.271
  924SOL    HW2 3672   5.057   5.162   1.142
  925SOL     OW 3673   5.821   1.878   1.708
  925SOL    HW1 3674   5.830   1.978   1.714
  925SOL    HW2 3675   5.777   1.853   1.622
  926SOL     OW 3676   4.402   5.822   1.693
  926SOL    HW1 3677   4.483   5.763   1.697
  926SOL    HW2 3678   4.429   5.916   1.711
  927SOL     OW 3679   5.202   5.460   5.738
  927SOL    HW1 3680   5.126   5.521   5.716
  927SOL    HW2 3681   5.167   5.371   5.766
  928SOL     OW 3682   6.165   0.970   1.856
  928SOL    HW1 3683   6.243   1.032   1.847
  928SOL    HW2 3684   6.103   0.983   1.779
  929SOL     OW 3685   6.716   1.970   2.850
  929SOL    HW1 3686   6.744   1.957   2.755
  929SOL    HW2 3687   6.712   2.068   2.870
  930SOL     OW 3688   6.058   3.868   2.234
  930SOL    HW1 3689   6.009   3.922   2.165
  930SOL    HW2 3690   6.119   3.928   2.286
  931SOL     OW 3691   0.346   2.874   0.324
  931SOL    HW1 3692   0.303   2.788   0.350
  931SOL    HW2 3693   0.407   2.859   0.246
  932SOL     OW 3694   4.351   6.597   0.418
  932SOL    HW1 3695   4.379   6.676   0.364
  932SOL    HW2 3696   4.291   6.626   0.492
  933SOL     OW 3697   0.732   6.771   3.092
  933SOL    HW1 3698   0.775   6.849   3.137
  933SOL    HW2 3699   0.733   6.692   3.153
  934SOL     OW 3700   4.400   1.707   4.703
  934SOL    HW1 3701   4.431   1.637   4.767
  934SOL    HW2 3702   4.382   1.792   4.753
  935SOL     OW 3703   1.061   3.995   4.206
  935SOL    HW1 3704   1.033   4.035   4.293
  935SOL    HW2 3705   1.097   3.902   4.222
  936SOL     OW 3706   1.127   1.165   0.959
  936SOL    HW1 3707   1.077   1.225   0.898
  936SOL    HW2 3708   1.100   1.070   0.943
  937SOL     OW 3709   4.901   1.833   3.126
  937SOL    HW1 3710   4.878   1.922   3.087
  937SOL    HW2 3711   4.949   1.778   3.058
  938SOL     OW 3712   0.514   0.914   6.190
  938SOL    HW1 3713   0.458   0.905   6.272
  938SOL    HW2 3714   0.511   0.829   6.138
  939SOL     OW 3715   0.411   1.008   4.692
  939SOL    HW1 3716   0.346   1.038   4.762
  939SOL    HW2 3717   0.504   1.037   4.718
  940SOL     OW 3718   6.294   0.168   3.575
  940SOL    HW1 3719   6.256   0.260   3.568
  940SOL    HW2 3720   6.222   0.104   3.602
  941SOL     OW 3721   5.920   2.522   4.848
  941SOL    HW1 3722   5.893   2.573   4.767
  941SOL    HW2 3723   5.939   2.585   4.923
  942SOL     OW 3724   4.257   6.601   6.201
  942SOL    HW1 3725   4.218   6.522   6.153
  942SOL    HW2 3726   4.183   6.659   6.234
  943SOL     OW 3727   5.202   2.311   6.364
  943SOL    HW1 3728   5.264   2.241   6.399
  943SOL    HW2 3729   5.211   2.318   6.265
  944SOL     OW 3730   5.314   4.601   3.922
  944SOL    HW1 3731   5.237   4.556   3.968
  944SOL    HW2 3732   5.319   4.696   3.952
  945SOL     OW 3733   6.729   3.183   6.579
  945SOL    HW1 3734   6.633   3.161   6.565
  945SOL    HW2 3735   6.767   3.222   6.495
  946SOL     OW 3736   5.993   2.991   6.291
  946SOL    HW1 3737   6.001   3.064   6.222
  946SOL    HW2 3738   5.908   2.941   6.275
  947SOL     OW 3739   1.811   2.009   6.489
  947SOL    HW1 3740   1.721   2.048   6.468
  947SOL    HW2 3741   1.853   1.976   6.405
  948SOL     OW 3742   3.528   1.516   1.220
  948SOL    HW1 3743   3.555   1.496   1.314
  948SOL    HW2 3744   3.589   1.468   1.157
  949SOL     OW 3745   5.149   4.913   5.835
  949SOL    HW1 3746   5.166   4.834   5.894
  949SOL    HW2 3747   5.056   4.908   5.799
  950SOL     OW 3748   3.694   5.171   0.410
  950SOL    HW1 3749   3.716   5.243   0.476
  950SOL    HW2 3750   3.644   5.210   0.333
  951SOL     OW 3751   0.491   3.587   2.972
  951SOL    HW1 3752   0.510   3.492   2.948
  951SOL    HW2 3753   0.394   3.607   2.956
  952SOL     OW 3754   4.096   1.106   0.890
  952SOL    HW1 3755   4.113   1.081   0.985
  952SOL    HW2 3756   4.172   1.163   0.856
  953SOL     OW 3757   4.564   6.377   6.124
  953SOL    HW1 3758   4.494   6.314   6.093
  953SOL    HW2 3759   4.537   6.471   6.102
  954SOL     OW 3760   0.152   6.369   1.672
  954SOL    HW1 3761   0.210   6.301   1.716
  954SOL    HW2 3762   0.064   6.375   1.720
  955SOL     OW 3763   1.437   6.871   3.673
  955SOL    HW1 3764   1.461   6.785   3.628
  955SOL    HW2 3765   1.361   6.856   3.736
  956SOL     OW 3766   1.740   2.831   1.386
  956SOL    HW1 3767   1.643   2.806   1.389
  956SOL    HW2 3768   1.788   2.767   1.326
  957SOL     OW 3769   2.780   6.426   4.060
  957SOL    HW1 3770   2.797   6.328   4.073
  957SOL    HW2 3771   2.728   6.440   3.976
  958SOL     OW 3772   4.362   2.158   6.809
  958SOL    HW1 3773   4.431   2.094   6.843
  958SOL    HW2 3774   4.390   2.252   6.830
  959SOL     OW 3775   1.812   3.933   0.708
  959SOL    HW1 3776   1.758   3.883   0.775
  959SOL    HW2 3777   1.783   4.029   0.707
  960SOL     OW 3778   1.676   3.539   5.408
  960SOL    HW1 3779   1.747   3.538   5.479
  960SOL    HW2 3780   1.719   3.522   5.319
  961SOL     OW 3781   3.851   6.557   6.508
  961SOL    HW1 3782   3.861   6.648   6.467
  961SOL    HW2 3783   3.937   6.507   6.500
  962SOL     OW 3784   0.170   0.523   4.200
  962SOL    HW1 3785   0.192   0.447   4.261
  962SOL    HW2 3786   0.128   0.488   4.117
  963SOL     OW 3787   5.791   0.029   3.514
  963SOL    HW1 3788   5.698   0.063   3.501
  963SOL    HW2 3789   5.788   6.960   3.531
  964SOL     OW 3790   5.747   4.455   1.829
  964SOL    HW1 3791   5.676   4.388   1.852
  964SOL    HW2 3792   5.796   4.426   1.747
  965SOL     OW 3793   1.533   2.462   0.202
  965SOL    HW1 3794   1.528   2.364   0.223
  965SOL    HW2 3795   1.592   2.508   0.268
  966SOL     OW 3796   5.035   2.434   1.878
  966SOL    HW1 3797   5.032   2.339   1.844
  966SOL    HW2 3798   4.994   2.437   1.969
  967SOL     OW 3799   0.526   5.643   3.033
  967SOL    HW1 3800   0.435   5.603   3.019
  967SOL    HW2 3801   0.525   5.740   3.008
  968SOL     OW 3802   0.550   4.180   1.057
  968SOL    HW1 3803   0.507   4.102   1.102
  968SOL    HW2 3804   0.479   4.246   1.031
  969SOL     OW 3805   3.422   6.766   6.345
  969SOL    HW1 3806   3.427   6.799   6.251
  969SOL    HW2 3807   3.422   6.666   6.346
  970SOL     OW 3808   5.414   3.929   6.103
  970SOL    HW1 3809   5.346   3.903   6.034
  970SOL    HW2 3810   5.432   3.850   6.162
  971SOL     OW 3811   0.658   1.691   6.849
  971SOL    HW1 3812   0.755   1.711   6.862
  971SOL    HW2 3813   0.606   1.732   6.924
  972SOL     OW 3814   3.596   6.832   6.560
  972SOL    HW1 3815   3.535   6.788   6.494
  972SOL    HW2 3816   3.609   6.928   6.534
  973SOL     OW 3817   6.435   3.393   6.090
  973SOL    HW1 3818   6.464   3.472   6.035
  973SOL    HW2 3819   6.437   3.418   6.186
  974SOL     OW 3820   2.360   0.844   4.102
  974SOL    HW1 3821   2.392   0.884   4.188
  974SOL    HW2 3822   2.317   0.756   4.120
  975SOL     OW 3823   2.986   6.727   4.147
  975SOL    HW1 3824   2.924   6.703   4.072
  975SOL    HW2 3825   3.072   6.762   4.109
  976SOL     OW 3826   0.356   5.463   4.918
  976SOL    HW1 3827   0.274   5.455   4.974
  976SOL    HW2 3828   0.391   5.556   4.923
  977SOL     OW 3829   0.463   1.744   1.979
  977SOL    HW1 3830   0.453   1.734   1.880
  977SOL    HW2 3831   0.415   1.669   2.025
  978SOL     OW 3832   6.539   2.643   4.029
  978SOL    HW1 3833   6.454   2.633   4.081
  978SOL    HW2 3834   6.521   2.695   3.946
  979SOL     OW 3835   5.743   1.491   2.477
  979SOL    HW1 3836   5.810   1.446   2.417
  979SOL    HW2 3837   5.651   1.472   2.444
  980SOL     OW 3838   6.298   5.822   5.448
  980SOL    HW1 3839   6.353   5.903   5.426
  980SOL    HW2 3840   6.241   5.797   5.370
  981SOL     OW 3841   6.275   3.221   6.839
  981SOL    HW1 3842   6.311   3.305   6.799
  981SOL    HW2 3843   6.339   3.146   6.822
  982SOL     OW 3844   1.655   4.603   0.070
  982SOL    HW1 3845   1.625   4.510   0.094
  982SOL    HW2 3846   1.578   4.653   0.031
  983SOL     OW 3847   5.642   1.791   3.731
  983SOL    HW1 3848   5.728   1.751   3.761
  983SOL    HW2 3849   5.632   1.778   3.632
  984SOL     OW 3850   4.922   3.231   5.026
  984SOL    HW1 3851   4.895   3.195   5.115
  984SOL    HW2 3852   4.912   3.159   4.957
  985SOL     OW 3853   2.229   4.020   0.705
  985SOL    HW1 3854   2.165   3.952   0.670
  985SOL    HW2 3855   2.322   3.983   0.703
  986SOL     OW 3856   5.806   4.357   4.696
  986SOL    HW1 3857   5.890   4.305   4.683
  986SOL    HW2 3858   5.789   4.370   4.794
  987SOL     OW 3859   2.380   1.050   2.820
  987SOL    HW1 3860   2.383   1.096   2.731
  987SOL    HW2 3861   2.392   1.117   2.893
  988SOL     OW 3862   3.615   3.660   1.444
  988SOL    HW1 3863   3.668   3.643   1.526
  988SOL    HW2 3864   3.530   3.708   1.468
  989SOL     OW 3865   0.995   1.007   5.505
  989SOL    HW1 3866   1.043   0.985   5.420
  989SOL    HW2 3867   1.040   1.084   5.549
  990SOL     OW 3868   3.749   6.048   1.962
  990SOL    HW1 3869   3.696   6.128   1.936
  990SOL    HW2 3870   3.712   6.008   2.045
  991SOL     OW 3871   6.026   1.631   6.177
  991SOL    HW1 3872   6.069   1.679   6.101
  991SOL    HW2 3873   6.008   1.696   6.251
  992SOL     OW 3874   0.180   2.600   0.190
  992SOL    HW1 3875   0.258   2.613   0.130
  992SOL    HW2 3876   0.176   2.504   0.218
  993SOL     OW 3877   3.923   6.858   4.307
  993SOL    HW1 3878   3.994   6.817   4.364
  993SOL    HW2 3879   3.840   6.802   4.311
  994SOL     OW 3880   3.308   4.090   3.901
  994SOL    HW1 3881   3.230   4.047   3.854
  994SOL    HW2 3882   3.382   4.106   3.836
  995SOL     OW 3883   1.605   1.729   5.136
  995SOL    HW1 3884   1.696   1.708   5.171
  995SOL    HW2 3885   1.567   1.648   5.091
  996SOL     OW 3886   2.633   2.897   0.852
  996SOL    HW1 3887   2.551   2.895   0.909
  996SOL    HW2 3888   2.696   2.967   0.885
  997SOL     OW 3889   6.619   1.464   0.541
  997SOL    HW1 3890   6.621   1.395   0.613
  997SOL    HW2 3891   6.624   1.419   0.452
  998SOL     OW 3892   4.495   6.322   3.919
  998SOL    HW1 3893   4.415   6.366   3.959
  998SOL    HW2 3894   4.552   6.390   3.874
  999SOL     OW 3895   0.038   4.587   6.587
  999SOL    HW1 3896   0.056   4.662   6.523
  999SOL    HW2 3897   6.978   4.548   6.568
 1000SOL     OW 3898   3.870   1.682   5.723
 1000SOL    HW1 3899   3.808   1.605   5.739
 1000SOL    HW2 3900   3.934   1.689   5.800
 1001SOL     OW 3901   5.334   0.434   4.772
 1001SOL    HW1 3902   5.348   0.380   4.689
 1001SOL    HW2 3903   5.408   0.501   4.782
 1002SOL     OW 3904   0.338   1.306   0.290
 1002SOL    HW1 3905   0.304   1.264   0.206
 1002SOL    HW2 3906   0.261   1.323   0.352
 1003SOL     OW 3907   4.788   5.258   2.226
 1003SOL    HW1 3908   4.742   5.304   2.302
 1003SOL    HW2 3909   4.818   5.167   2.255
 1004SOL     OW 3910   6.091   5.848   6.861
 1004SOL    HW1 3911   6.180   5.880   6.894
 1004SOL    HW2 3912   6.018   5.895   6.911
 1005SOL     OW 3913   5.064   6.606   2.710
 1005SOL    HW1 3914   5.001   6.611   2.632
 1005SOL    HW2 3915   5.155   6.581   2.676
 1006SOL     OW 3916   1.799   5.846   7.011
 1006SOL    HW1 3917   1.844   5.814   0.064
 1006SOL    HW2 3918   1.868   5.877   6.945
 1007SOL     OW 3919   5.948   2.395   2.624
 1007SOL    HW1 3920   5.930   2.308   2.669
 1007SOL    HW2 3921   5.991   2.378   2.535
 1008SOL     OW 3922   3.622   1.120   5.247
 1008SOL    HW1 3923   3.556   1.118   5.323
 1008SOL    HW2 3924   3.652   1.214   5.232
 1009SOL     OW 3925   3.503   6.269   5.733
 1009SOL    HW1 3926   3.443   6.331   5.783
 1009SOL    HW2 3927   3.581   6.320   5.697
 1010SOL     OW 3928   5.159   6.361   6.118
 1010SOL    HW1 3929   5.245   6.375   6.068
 1010SOL    HW2 3930   5.083   6.359   6.053
 1011SOL     OW 3931   2.554   5.020   4.841
 1011SOL    HW1 3932   2.540   5.062   4.931
 1011SOL    HW2 3933   2.562   4.921   4.852
 1012SOL     OW 3934   2.676   6.043   0.652
 1012SOL    HW1 3935   2.584   6.057   0.614
 1012SOL    HW2 3936   2.676   5.960   0.708
 1013SOL     OW 3937   1.045   0.126   0.843
 1013SOL    HW1 3938   1.036   0.113   0.744
 1013SOL    HW2 3939   1.032   0.039   0.890
 1014SOL     OW 3940   5.902   6.192   6.534
 1014SOL    HW1 3941   5.855   6.140   6.605
 1014SOL    HW2 3942   5.977   6.244   6.574
 1015SOL     OW 3943   2.702   0.093   4.598
 1015SOL    HW1 3944   2.719   0.161   4.669
 1015SOL    HW2 3945   2.709   0.136   4.508
 1016SOL     OW 3946   4.351   3.396   1.734
 1016SOL    HW1 3947   4.282   3.350   1.679
 1016SOL    HW2 3948   4.429   3.336   1.747
 1017SOL     OW 3949   4.828   6.697   6.115
 1017SOL    HW1 3950   4.774   6.781   6.121
 1017SOL    HW2 3951   4.800   6.645   6.035
 1018SOL     OW 3952   1.075   1.845   1.516
 1018SOL    HW1 3953   1.058   1.788   1.597
 1018SOL    HW2 3954   1.040   1.798   1.435
 1019SOL     OW 3955   5.973   0.351   6.942
 1019SOL    HW1 3956   5.915   0.403   6.879
 1019SOL    HW2 3957   6.018   0.278   6.891
 1020SOL     OW 3958   3.811   1.708   1.323
 1020SOL    HW1 3959   3.820   1.807   1.327
 1020SOL    HW2 3960   3.861   1.666   1.399
 1021SOL     OW 3961   5.063   1.599   1.503
 1021SOL    HW1 3962   5.008   1.536   1.558
 1021SOL    HW2 3963   5.118   1.656   1.564
 1022SOL     OW 3964   2.751   3.763   7.019
 1022SOL    HW1 3965   2.698   3.716   0.060
 1022SOL    HW2 3966   2.767   3.858   0.016
 1023SOL     OW 3967   6.894   1.226   4.354
 1023SOL    HW1 3968   6.989   1.193   4.350
 1023SOL    HW2 3969   6.852   1.216   4.264
 1024SOL     OW 3970   6.572   2.636   4.418
 1024SOL    HW1 3971   6.638   2.684   4.360
 1024SOL    HW2 3972   6.606   2.544   4.437
 1025SOL     OW 3973   2.498   4.264   1.479
 1025SOL    HW1 3974   2.593   4.256   1.451
 1025SOL    HW2 3975   2.487   4.229   1.572
 1026SOL     OW 3976   0.629   3.345   6.923
 1026SOL    HW1 3977   0.612   3.275   6.993
 1026SOL    HW2 3978   0.632   3.435   6.967
 1027SOL     OW 3979   2.022   4.545   1.394
 1027SOL    HW1 3980   2.115   4.515   1.415
 1027SOL    HW2 3981   2.015   4.644   1.406
 1028SOL     OW 3982   0.824   4.938   0.279
 1028SOL    HW1 3983   0.833   4.903   0.186
 1028SOL    HW2 3984   0.799   5.035   0.276
 1029SOL     OW 3985   3.819   0.479   4.642
 1029SOL    HW1 3986   3.879   0.550   4.604
 1029SOL    HW2 3987   3.745   0.523   4.693
 1030SOL     OW 3988   4.279   4.798   4.965
 1030SOL    HW1 3989   4.181   4.802   4.985
 1030SOL    HW2 3990   4.312   4.704   4.976
 1031SOL     OW 3991   2.438   5.727   0.954
 1031SOL    HW1 3992   2.420   5.765   0.863
 1031SOL    HW2 3993   2.393   5.785   1.023
 1032SOL     OW 3994   1.057   2.685   4.716
 1032SOL    HW1 3995   1.148   2.722   4.695
 1032SOL    HW2 3996   1.031   2.618   4.646
 1033SOL     OW 3997   3.105   6.982   2.136
 1033SOL    HW1 3998   3.136   7.008   2.044
 1033SOL    HW2 3999   3.017   6.935   2.129
 1034SOL     OW 4000   0.203   5.083   2.988
 1034SOL    HW1 4001   0.236   4.994   3.019
 1034SOL    HW2 4002   0.176   5.138   3.067
 1035SOL     OW 4003   3.047   2.251   3.381
 1035SOL    HW1 4004   3.142   2.234   3.408
 1035SOL    HW2 4005   2.996   2.281   3.461
 1036SOL     OW 4006   4.679   6.638   6.831
 1036SOL    HW1 4007   4.727   6.616   6.916
 1036SOL    HW2 4008   4.651   6.553   6.786
 1037SOL     OW 4009   3.981   1.083   5.592
 1037SOL    HW1 4010   4.016   0.991   5.606
 1037SOL    HW2 4011   3.901   1.098   5.650
 1038SOL     OW 4012   3.237   1.842   4.904
 1038SOL    HW1 4013   3.301   1.770   4.932
 1038SOL    HW2 4014   3.286   1.928   4.895
 1039SOL     OW 4015   5.505   1.923   1.896
 1039SOL    HW1 4016   5.572   1.855   1.925
 1039SOL    HW2 4017   5.467   1.969   1.976
 1040SOL     OW 4018   6.205   4.892   4.726
 1040SOL    HW1 4019   6.286   4.932   4.768
 1040SOL    HW2 4020   6.218   4.886   4.627
 1041SOL     OW 4021   1.643   6.984   4.518
 1041SOL    HW1 4022   1.581   6.918   4.476
 1041SOL    HW2 4023   1.737   6.950   4.514
 1042SOL     OW 4024   4.323   4.846   0.128
 1042SOL    HW1 4025   4.359   4.860   0.036
 1042SOL    HW2 4026   4.399   4.847   0.194
 1043SOL     OW 4027   4.568   0.283   6.048
 1043SOL    HW1 4028   4.493   0.341   6.017
 1043SOL    HW2 4029   4.553   0.257   6.144
 1044SOL     OW 4030   4.078   3.211   4.169
 1044SOL    HW1 4031   4.160   3.160   4.142
 1044SOL    HW2 4032   4.004   3.147   4.188
 1045SOL     OW 4033   2.030   1.253   2.789
 1045SOL    HW1 4034   2.029   1.171   2.732
 1045SOL    HW2 4035   1.943   1.261   2.837
 1046SOL     OW 4036   2.778   0.883   2.010
 1046SOL    HW1 4037   2.701   0.942   2.034
 1046SOL    HW2 4038   2.785   0.876   1.910
 1047SOL     OW 4039   0.340   6.380   2.429
 1047SOL    HW1 4040   0.411   6.339   2.486
 1047SOL    HW2 4041   0.383   6.426   2.351
 1048SOL     OW 4042   6.973   3.941   4.954
 1048SOL    HW1 4043   6.923   4.010   5.006
 1048SOL    HW2 4044   0.017   3.985   4.902
 1049SOL     OW 4045   0.864   3.822   5.312
 1049SOL    HW1 4046   0.817   3.735   5.300
 1049SOL    HW2 4047   0.963   3.807   5.317
 1050SOL     OW 4048   3.068   0.820   1.404
 1050SOL    HW1 4049   2.986   0.868   1.437
 1050SOL    HW2 4050   3.128   0.800   1.482
 1051SOL     OW 4051   5.190   3.058   1.718
 1051SOL    HW1 4052   5.107   3.087   1.764
 1051SOL    HW2 4053   5.268   3.111   1.753
 1052SOL     OW 4054   2.329   6.338   3.606
 1052SOL    HW1 4055   2.332   6.384   3.695
 1052SOL    HW2 4056   2.288   6.400   3.539
 1053SOL     OW 4057   3.587   5.728   3.147
 1053SOL    HW1 4058   3.630   5.795   3.086
 1053SOL    HW2 4059   3.555   5.774   3.230
 1054SOL     OW 4060   3.316   5.919   5.281
 1054SOL    HW1 4061   3.218   5.929   5.265
 1054SOL    HW2 4062   3.345   5.980   5.354
 1055SOL     OW 4063   3.256   4.929   4.852
 1055SOL    HW1 4064   3.225   4.910   4.945
 1055SOL    HW2 4065   3.353   4.907   4.844
 1056SOL     OW 4066   3.313   6.088   0.336
 1056SOL    HW1 4067   3.333   6.034   0.418
 1056SOL    HW2 4068   3.228   6.055   0.294
 1057SOL     OW 4069   3.738   3.941   1.273
 1057SOL    HW1 4070   3.668   3.876   1.243
 1057SOL    HW2 4071   3.817   3.936   1.213
 1058SOL     OW 4072   2.384   0.553   1.987
 1058SOL    HW1 4073   2.436   0.620   1.933
 1058SOL    HW2 4074   2.444   0.478   2.014
 1059SOL     OW 4075   3.678   0.656   0.657
 1059SOL    HW1 4076   3.748   0.620   0.595
 1059SOL    HW2 4077   3.590   0.657   0.610
 1060SOL     OW 4078   3.701   1.562   4.016
 1060SOL    HW1 4079   3.794   1.564   4.051
 1060SOL    HW2 4080   3.668   1.468   4.011
 1061SOL     OW 4081   2.599   5.702   1.383
 1061SOL    HW1 4082   2.630   5.610   1.360
 1061SOL    HW2 4083   2.501   5.699   1.406
 1062SOL     OW 4084   5.876   4.256   5.350
 1062SOL    HW1 4085   5.940   4.196   5.302
 1062SOL    HW2 4086   5.922   4.343   5.372
 1063SOL     OW 4087   4.345   2.240   5.894
 1063SOL    HW1 4088   4.376   2.323   5.940
 1063SOL    HW2 4089   4.248   2.225   5.913
 1064SOL     OW 4090   0.406   2.846   2.266
 1064SOL    HW1 4091   0.332   2.887   2.212
 1064SOL    HW2 4092   0.483   2.824   2.206
 1065SOL     OW 4093   3.979   5.851   0.153
 1065SOL    HW1 4094   4.050   5.921   0.145
 1065SOL    HW2 4095   3.971   5.821   0.248
 1066SOL     OW 4096   5.724   6.471   3.604
 1066SOL    HW1 4097   5.639   6.511   3.639
 1066SOL    HW2 4098   5.778   6.436   3.681
 1067SOL     OW 4099   3.658   4.596   1.016
 1067SOL    HW1 4100   3.659   4.685   0.971
 1067SOL    HW2 4101   3.573   4.548   0.992
 1068SOL     OW 4102   1.398   5.097   2.335
 1068SOL    HW1 4103   1.478   5.093   2.274
 1068SOL    HW2 4104   1.324   5.043   2.295
 1069SOL     OW 4105   3.824   3.598   2.978
 1069SOL    HW1 4106   3.875   3.684   2.976
 1069SOL    HW2 4107   3.795   3.574   2.886
 1070SOL     OW 4108   1.230   6.167   0.132
 1070SOL    HW1 4109   1.223   6.135   0.037
 1070SOL    HW2 4110   1.253   6.090   0.192
 1071SOL     OW 4111   4.437   5.018   3.850
 1071SOL    HW1 4112   4.444   4.922   3.824
 1071SOL    HW2 4113   4.443   5.076   3.768
 1072SOL     OW 4114   4.200   5.161   3.247
 1072SOL    HW1 4115   4.124   5.184   3.307
 1072SOL    HW2 4116   4.286   5.183   3.293
 1073SOL     OW 4117   2.800   5.402   4.055
 1073SOL    HW1 4118   2.817   5.307   4.083
 1073SOL    HW2 4119   2.886   5.452   4.053
 1074SOL     OW 4120   2.648   4.946   4.038
 1074SOL    HW1 4121   2.673   4.990   3.951
 1074SOL    HW2 4122   2.648   5.015   4.110
 1075SOL     OW 4123   1.233   4.529   2.956
 1075SOL    HW1 4124   1.226   4.455   3.023
 1075SOL    HW2 4125   1.328   4.561   2.952
 1076SOL     OW 4126   4.869   3.928   3.725
 1076SOL    HW1 4127   4.919   4.006   3.687
 1076SOL    HW2 4128   4.792   3.905   3.666
 1077SOL     OW 4129   4.112   0.374   1.992
 1077SOL    HW1 4130   4.061   0.400   2.074
 1077SOL    HW2 4131   4.117   0.452   1.930
 1078SOL     OW 4132   6.176   2.577   1.823
 1078SOL    HW1 4133   6.249   2.598   1.757
 1078SOL    HW2 4134   6.181   2.480   1.847
 1079SOL     OW 4135   1.751   5.054   3.418
 1079SOL    HW1 4136   1.764   5.133   3.477
 1079SOL    HW2 4137   1.662   5.012   3.438
 1080SOL     OW 4138   2.304   5.265   4.492
 1080SOL    HW1 4139   2.278   5.327   4.418
 1080SOL    HW2 4140   2.396   5.288   4.525
 1081SOL     OW 4141   1.154   0.619   0.686
 1081SOL    HW1 4142   1.076   0.630   0.747
 1081SOL    HW2 4143   1.195   0.528   0.700
 1082SOL     OW 4144   2.200   0.985   1.276
 1082SOL    HW1 4145   2.244   0.895   1.279
 1082SOL    HW2 4146   2.230   1.039   1.354
 1083SOL     OW 4147   3.555   4.134   2.209
 1083SOL    HW1 4148   3.591   4.138   2.115
 1083SOL    HW2 4149   3.455   4.124   2.205
 1084SOL     OW 4150   5.862   4.042   1.394
 1084SOL    HW1 4151   5.784   4.009   1.340
 1084SOL    HW2 4152   5.869   3.990   1.478
 1085SOL     OW 4153   1.323   6.449   3.635
 1085SOL    HW1 4154   1.346   6.525   3.574
 1085SOL    HW2 4155   1.405   6.398   3.657
 1086SOL     OW 4156   2.678   6.587   2.813
 1086SOL    HW1 4157   2.671   6.487   2.818
 1086SOL    HW2 4158   2.637   6.627   2.896
 1087SOL     OW 4159   3.653   3.011   5.410
 1087SOL    HW1 4160   3.634   3.023   5.313
 1087SOL    HW2 4161   3.567   3.005   5.461
 1088SOL     OW 4162   6.749   5.432   2.336
 1088SOL    HW1 4163   6.796   5.347   2.310
 1088SOL    HW2 4164   6.693   5.464   2.259
 1089SOL     OW 4165   6.871   0.780   3.320
 1089SOL    HW1 4166   6.907   0.738   3.236
 1089SOL    HW2 4167   6.856   0.709   3.389
 1090SOL     OW 4168   3.061   1.952   6.739
 1090SOL    HW1 4169   3.048   1.867   6.689
 1090SOL    HW2 4170   3.152   1.952   6.783
 1091SOL     OW 4171   1.679   1.962   5.993
 1091SOL    HW1 4172   1.682   1.900   5.915
 1091SOL    HW2 4173   1.749   2.033   5.983
 1092SOL     OW 4174   2.756   4.979   1.127
 1092SOL    HW1 4175   2.775   5.001   1.032
 1092SOL    HW2 4176   2.772   5.059   1.184
 1093SOL     OW 4177   6.615   1.538   1.511
 1093SOL    HW1 4178   6.688   1.564   1.447
 1093SOL    HW2 4179   6.530   1.583   1.483
 1094SOL     OW 4180   0.485   5.950   2.998
 1094SOL    HW1 4181   0.401   5.915   2.956
 1094SOL    HW2 4182   0.463   5.995   3.085
 1095SOL     OW 4183   1.864   2.939   5.078
 1095SOL    HW1 4184   1.929   2.863   5.079
 1095SOL    HW2 4185   1.907   3.020   5.120
 1096SOL     OW 4186   3.719   2.931   2.114
 1096SOL    HW1 4187   3.743   2.872   2.191
 1096SOL    HW2 4188   3.801   2.973   2.076
 1097SOL     OW 4189   3.103   5.053   5.948
 1097SOL    HW1 4190   3.007   5.067   5.923
 1097SOL    HW2 4191   3.154   5.138   5.934
 1098SOL     OW 4192   2.963   0.404   2.426
 1098SOL    HW1 4193   3.020   0.456   2.363
 1098SOL    HW2 4194   3.001   0.408   2.518
 1099SOL     OW 4195   3.332   0.477   1.841
 1099SOL    HW1 4196   3.265   0.534   1.794
 1099SOL    HW2 4197   3.400   0.535   1.886
 1100SOL     OW 4198   0.128   0.638   0.196
 1100SOL    HW1 4199   0.071   0.582   0.136
 1100SOL    HW2 4200   0.199   0.683   0.141
 1101SOL     OW 4201   5.868   4.544   0.855
 1101SOL    HW1 4202   5.817   4.467   0.892
 1101SOL    HW2 4203   5.894   4.524   0.760
 1102SOL     OW 4204   6.992   4.709   4.350
 1102SOL    HW1 4205   6.954   4.626   4.392
 1102SOL    HW2 4206   6.925   4.783   4.358
 1103SOL     OW 4207   0.614   2.818   6.412
 1103SOL    HW1 4208   0.625   2.830   6.511
 1103SOL    HW2 4209   0.544   2.749   6.394
 1104SOL     OW 4210   2.899   5.108   5.609
 1104SOL    HW1 4211   2.904   5.111   5.708
 1104SOL    HW2 4212   2.980   5.152   5.570
 1105SOL     OW 4213   3.855   5.479   0.876
 1105SOL    HW1 4214   3.880   5.397   0.928
 1105SOL    HW2 4215   3.786   5.531   0.927
 1106SOL     OW 4216   1.144   2.633   6.404
 1106SOL    HW1 4217   1.080   2.575   6.355
 1106SOL    HW2 4218   1.097   2.716   6.435
 1107SOL     OW 4219   6.870   6.632   1.815
 1107SOL    HW1 4220   6.868   6.731   1.829
 1107SOL    HW2 4221   6.949   6.593   1.863
 1108SOL     OW 4222   1.433   0.703   6.604
 1108SOL    HW1 4223   1.364   0.760   6.649
 1108SOL    HW2 4224   1.522   0.749   6.608
 1109SOL     OW 4225   4.057   1.373   3.239
 1109SOL    HW1 4226   4.113   1.319   3.177
 1109SOL    HW2 4227   4.019   1.314   3.310
 1110SOL     OW 4228   3.775   3.592   3.329
 1110SOL    HW1 4229   3.677   3.603   3.311
 1110SOL    HW2 4230   3.808   3.669   3.383
 1111SOL     OW 4231   4.102   0.274   6.667
 1111SOL    HW1 4232   4.010   0.314   6.657
 1111SOL    HW2 4233   4.097   0.176   6.647
 1112SOL     OW 4234   0.418   1.443   2.799
 1112SOL    HW1 4235   0.329   1.487   2.791
 1112SOL    HW2 4236   0.475   1.468   2.720
 1113SOL     OW 4237   0.749   5.519   1.747
 1113SOL    HW1 4238   0.800   5.603   1.732
 1113SOL    HW2 4239   0.811   5.448   1.783
 1114SOL     OW 4240   5.760   0.714   5.438
 1114SOL    HW1 4241   5.836   0.717   5.503
 1114SOL    HW2 4242   5.674   0.722   5.487
 1115SOL     OW 4243   1.812   4.888   0.447
 1115SOL    HW1 4244   1.799   4.828   0.369
 1115SOL    HW2 4245   1.787   4.840   0.531
 1116SOL     OW 4246   3.010   6.759   6.167
 1116SOL    HW1 4247   3.071   6.775   6.090
 1116SOL    HW2 4248   2.961   6.844   6.189
 1117SOL     OW 4249   3.167   2.507   0.382
 1117SOL    HW1 4250   3.242   2.549   0.331
 1117SOL    HW2 4251   3.142   2.420   0.340
 1118SOL     OW 4252   2.069   1.946   1.312
 1118SOL    HW1 4253   2.010   1.978   1.385
 1118SOL    HW2 4254   2.072   1.846   1.312
 1119SOL     OW 4255   3.763   3.978   3.636
 1119SOL    HW1 4256   3.695   4.026   3.581
 1119SOL    HW2 4257   3.743   3.880   3.636
 1120SOL     OW 4258   3.315   1.308   3.079
 1120SOL    HW1 4259   3.355   1.228   3.123
 1120SOL    HW2 4260   3.251   1.352   3.141
 1121SOL     OW 4261   5.096   3.724   2.621
 1121SOL    HW1 4262   5.020   3.734   2.556
 1121SOL    HW2 4263   5.155   3.805   2.615
 1122SOL     OW 4264   4.852   4.949   0.249
 1122SOL    HW1 4265   4.924   4.915   0.190
 1122SOL    HW2 4266   4.877   4.932   0.345
 1123SOL     OW 4267   4.325   0.316   2.156
 1123SOL    HW1 4268   4.250   0.335   2.092
 1123SOL    HW2 4269   4.288   0.307   2.249
 1124SOL     OW 4270   2.598   5.029   3.406
 1124SOL    HW1 4271   2.558   5.035   3.497
 1124SOL    HW2 4272   2.697   5.047   3.412
 1125SOL     OW 4273   3.462   4.550   5.637
 1125SOL    HW1 4274   3.378   4.575   5.685
 1125SOL    HW2 4275   3.526   4.510   5.702
 1126SOL     OW 4276   6.238   0.559   2.289
 1126SOL    HW1 4277   6.328   0.550   2.246
 1126SOL    HW2 4278   6.172   0.591   2.222
 1127SOL     OW 4279   2.777   5.610   6.139
 1127SOL    HW1 4280   2.738   5.539   6.196
 1127SOL    HW2 4281   2.814   5.683   6.196
 1128SOL     OW 4282   2.785   1.297   5.463
 1128SOL    HW1 4283   2.755   1.216   5.514
 1128SOL    HW2 4284   2.857   1.271   5.399
 1129SOL     OW 4285   4.383   5.985   6.869
 1129SOL    HW1 4286   4.318   5.914   6.840
 1129SOL    HW2 4287   4.357   6.073   6.829
 1130SOL     OW 4288   1.180   4.765   5.639
 1130SOL    HW1 4289   1.082   4.763   5.655
 1130SOL    HW2 4290   1.221   4.840   5.692
 1131SOL     OW 4291   1.302   4.320   5.850
 1131SOL    HW1 4292   1.340   4.287   5.763
 1131SOL    HW2 4293   1.223   4.378   5.832
 1132SOL     OW 4294   5.146   6.843   4.458
 1132SOL    HW1 4295   5.064   6.787   4.455
 1132SOL    HW2 4296   5.226   6.787   4.434
 1133SOL     OW 4297   0.100   1.853   0.002
 1133SOL    HW1 4298   0.070   1.945   0.028
 1133SOL    HW2 4299   0.074   1.835   6.937
 1134SOL     OW 4300   0.189   3.945   6.271
 1134SOL    HW1 4301   0.217   3.869   6.330
 1134SOL    HW2 4302   0.264   3.967   6.208
 1135SOL     OW 4303   6.749   2.040   4.520
 1135SOL    HW1 4304   6.709   1.955   4.555
 1135SOL    HW2 4305   6.696   2.072   4.442
 1136SOL     OW 4306   4.317   5.785   3.891
 1136SOL    HW1 4307   4.402   5.746   3.857
 1136SOL    HW2 4308   4.324   5.885   3.894
 1137SOL     OW 4309   0.533   0.781   6.522
 1137SOL    HW1 4310   0.594   0.800   6.599
 1137SOL    HW2 4311   0.465   0.853   6.514
 1138SOL     OW 4312   0.822   2.257   5.778
 1138SOL    HW1 4313   0.822   2.351   5.813
 1138SOL    HW2 4314   0.910   2.214   5.800
 1139SOL     OW 4315   0.389   0.377   2.818
 1139SOL    HW1 4316   0.408   0.280   2.802
 1139SOL    HW2 4317   0.393   0.396   2.917
 1140SOL     OW 4318   4.254   1.745   3.307
 1140SOL    HW1 4319   4.255   1.841   3.282
 1140SOL    HW2 4320   4.190   1.695   3.249
 1141SOL     OW 4321   0.380   0.164   5.777
 1141SOL    HW1 4322   0.391   0.075   5.733
 1141SOL    HW2 4323   0.464   0.189   5.824
 1142SOL     OW 4324   5.699   6.618   5.691
 1142SOL    HW1 4325   5.599   6.616   5.689
 1142SOL    HW2 4326   5.731   6.694   5.635
 1143SOL     OW 4327   5.126   2.428   1.237
 1143SOL    HW1 4328   5.101   2.456   1.144
 1143SOL    HW2 4329   5.044   2.426   1.294
 1144SOL     OW 4330   1.077   6.644   4.859
 1144SOL    HW1 4331   1.160   6.626   4.806
 1144SOL    HW2 4332   0.998   6.603   4.813
 1145SOL     OW 4333   3.187   4.958   5.125
 1145SOL    HW1 4334   3.173   5.038   5.184
 1145SOL    HW2 4335   3.216   4.880   5.180
 1146SOL     OW 4336   5.978   2.293   2.015
 1146SOL    HW1 4337   5.936   2.358   1.952
 1146SOL    HW2 4338   6.077   2.307   2.017
 1147SOL     OW 4339   6.638   3.976   2.831
 1147SOL    HW1 4340   6.696   4.041   2.879
 1147SOL    HW2 4341   6.687   3.940   2.751
 1148SOL     OW 4342   6.201   6.330   5.912
 1148SOL    HW1 4343   6.180   6.232   5.905
 1148SOL    HW2 4344   6.255   6.347   5.994
 1149SOL     OW 4345   5.087   3.470   2.457
 1149SOL    HW1 4346   5.081   3.564   2.492
 1149SOL    HW2 4347   5.106   3.473   2.359
 1150SOL     OW 4348   3.089   5.551   5.176
 1150SOL    HW1 4349   3.031   5.524   5.099
 1150SOL    HW2 4350   3.034   5.557   5.259
 1151SOL     OW 4351   1.724   5.760   0.539
 1151SOL    HW1 4352   1.796   5.827   0.553
 1151SOL    HW2 4353   1.687   5.731   0.627
 1152SOL     OW 4354   6.659   0.896   3.539
 1152SOL    HW1 4355   6.699   0.902   3.448
 1152SOL    HW2 4356   6.586   0.828   3.540
 1153SOL     OW 4357   0.785   4.607   1.947
 1153SOL    HW1 4358   0.883   4.589   1.944
 1153SOL    HW2 4359   0.737   4.539   1.891
 1154SOL     OW 4360   1.437   3.622   1.923
 1154SOL    HW1 4361   1.465   3.538   1.875
 1154SOL    HW2 4362   1.512   3.651   1.983
 1155SOL     OW 4363   5.151   1.126   2.196
 1155SOL    HW1 4364   5.213   1.054   2.228
 1155SOL    HW2 4365   5.059   1.107   2.229
 1156SOL     OW 4366   2.884   1.479   4.045
 1156SOL    HW1 4367   2.837   1.543   3.985
 1156SOL    HW2 4368   2.972   1.454   4.005
 1157SOL     OW 4369   1.956   3.464   3.368
 1157SOL    HW1 4370   1.929   3.546   3.419
 1157SOL    HW2 4371   2.000   3.490   3.282
 1158SOL     OW 4372   4.851   5.442   5.057
 1158SOL    HW1 4373   4.760   5.410   5.030
 1158SOL    HW2 4374   4.906   5.364   5.086
 1159SOL     OW 4375   6.509   4.285   3.171
 1159SOL    HW1 4376   6.461   4.226   3.106
 1159SOL    HW2 4377   6.606   4.260   3.174
 1160SOL     OW 4378   3.148   2.048   1.433
 1160SOL    HW1 4379   3.073   2.112   1.418
 1160SOL    HW2 4380   3.213   2.088   1.498
 1161SOL     OW 4381   4.291   1.452   2.544
 1161SOL    HW1 4382   4.330   1.410   2.462
 1161SOL    HW2 4383   4.272   1.381   2.612
 1162SOL     OW 4384   3.693   4.605   1.415
 1162SOL    HW1 4385   3.760   4.628   1.344
 1162SOL    HW2 4386   3.623   4.676   1.420
 1163SOL     OW 4387   4.438   6.782   3.558
 1163SOL    HW1 4388   4.498   6.749   3.632
 1163SOL    HW2 4389   4.344   6.757   3.578
 1164SOL     OW 4390   6.891   4.175   4.576
 1164SOL    HW1 4391   6.810   4.212   4.531
 1164SOL    HW2 4392   6.964   4.164   4.509
 1165SOL     OW 4393   0.156   5.006   2.647
 1165SOL    HW1 4394   0.098   5.028   2.725
 1165SOL    HW2 4395   0.244   5.054   2.656
 1166SOL     OW 4396   3.456   1.125   5.492
 1166SOL    HW1 4397   3.379   1.190   5.497
 1166SOL    HW2 4398   3.508   1.128   5.577
 1167SOL     OW 4399   4.803   1.621   5.460
 1167SOL    HW1 4400   4.883   1.663   5.417
 1167SOL    HW2 4401   4.732   1.690   5.471
 1168SOL     OW 4402   5.715   1.575   4.199
 1168SOL    HW1 4403   5.633   1.605   4.247
 1168SOL    HW2 4404   5.731   1.635   4.120
 1169SOL     OW 4405   2.026   2.589   0.988
 1169SOL    HW1 4406   2.075   2.504   1.005
 1169SOL    HW2 4407   2.089   2.667   0.999
 1170SOL     OW 4408   2.605   1.484   1.608
 1170SOL    HW1 4409   2.625   1.545   1.684
 1170SOL    HW2 4410   2.685   1.476   1.549
 1171SOL     OW 4411   5.070   0.636   0.611
 1171SOL    HW1 4412   4.993   0.600   0.664
 1171SOL    HW2 4413   5.039   0.659   0.519
 1172SOL     OW 4414   3.469   3.421   5.766
 1172SOL    HW1 4415   3.389   3.404   5.825
 1172SOL    HW2 4416   3.532   3.344   5.773
 1173SOL     OW 4417   5.257   5.697   0.269
 1173SOL    HW1 4418   5.302   5.610   0.292
 1173SOL    HW2 4419   5.257   5.757   0.349
 1174SOL     OW 4420   4.145   6.376   6.067
 1174SOL    HW1 4421   4.077   6.340   6.003
 1174SOL    HW2 4422   4.132   6.333   6.157
 1175SOL     OW 4423   6.787   5.604   5.222
 1175SOL    HW1 4424   6.701   5.588   5.271
 1175SOL    HW2 4425   6.819   5.519   5.182
 1176SOL     OW 4426   6.213   2.827   1.247
 1176SOL    HW1 4427   6.118   2.855   1.234
 1176SOL    HW2 4428   6.216   2.734   1.285
 1177SOL     OW 4429   7.008   3.160   5.063
 1177SOL    HW1 4430   6.921   3.158   5.013
 1177SOL    HW2 4431   7.019   3.250   5.106
 1178SOL     OW 4432   4.927   4.303   2.238
 1178SOL    HW1 4433   4.834   4.272   2.223
 1178SOL    HW2 4434   4.978   4.302   2.152
 1179SOL     OW 4435   1.584   5.566   6.185
 1179SOL    HW1 4436   1.545   5.476   6.163
 1179SOL    HW2 4437   1.636   5.559   6.271
 1180SOL     OW 4438   2.064   1.467   4.207
 1180SOL    HW1 4439   2.099   1.380   4.173
 1180SOL    HW2 4440   2.078   1.538   4.138
 1181SOL     OW 4441   0.955   4.232   2.189
 1181SOL    HW1 4442   1.011   4.313   2.199
 1181SOL    HW2 4443   0.976   4.186   2.103
 1182SOL     OW 4444   6.902   4.126   3.777
 1182SOL    HW1 4445   6.906   4.170   3.867
 1182SOL    HW2 4446   6.989   4.079   3.760
 1183SOL     OW 4447   4.154   6.151   0.600
 1183SOL    HW1 4448   4.224   6.167   0.530
 1183SOL    HW2 4449   4.064   6.156   0.557
 1184SOL     OW 4450   4.068   3.229   6.412
 1184SOL    HW1 4451   4.057   3.132   6.389
 1184SOL    HW2 4452   4.037   3.245   6.505
 1185SOL     OW 4453   3.462   1.091   6.553
 1185SOL    HW1 4454   3.408   1.024   6.502
 1185SOL    HW2 4455   3.402   1.143   6.614
 1186SOL     OW 4456   4.238   6.314   4.997
 1186SOL    HW1 4457   4.196   6.224   5.009
 1186SOL    HW2 4458   4.190   6.362   4.923
 1187SOL     OW 4459   0.752   2.716   4.565
 1187SOL    HW1 4460   0.688   2.763   4.504
 1187SOL    HW2 4461   0.728   2.737   4.660
 1188SOL     OW 4462   2.173   1.175   5.221
 1188SOL    HW1 4463   2.270   1.151   5.221
 1188SOL    HW2 4464   2.118   1.091   5.217
 1189SOL     OW 4465   1.439   0.929   1.352
 1189SOL    HW1 4466   1.476   1.007   1.301
 1189SOL    HW2 4467   1.388   0.870   1.290
 1190SOL     OW 4468   2.785   6.474   1.248
 1190SOL    HW1 4469   2.823   6.542   1.185
 1190SOL    HW2 4470   2.852   6.453   1.319
 1191SOL     OW 4471   1.815   3.895   1.636
 1191SOL    HW1 4472   1.721   3.928   1.649
 1191SOL    HW2 4473   1.871   3.920   1.715
 1192SOL     OW 4474   3.665   5.773   2.540
 1192SOL    HW1 4475   3.732   5.699   2.542
 1192SOL    HW2 4476   3.606   5.768   2.621
 1193SOL     OW 4477   3.741   2.101   3.636
 1193SOL    HW1 4478   3.816   2.162   3.612
 1193SOL    HW2 4479   3.688   2.079   3.554
 1194SOL     OW 4480   6.631   2.778   2.007
 1194SOL    HW1 4481   6.641   2.858   2.067
 1194SOL    HW2 4482   6.562   2.716   2.045
 1195SOL     OW 4483   4.704   0.458   6.509
 1195SOL    HW1 4484   4.725   0.551   6.480
 1195SOL    HW2 4485   4.760   0.433   6.588
 1196SOL     OW 4486   1.445   5.790   3.701
 1196SOL    HW1 4487   1.506   5.840   3.762
 1196SOL    HW2 4488   1.378   5.854   3.662
 1197SOL     OW 4489   3.841   5.202   0.045
 1197SOL    HW1 4490   3.888   5.115   0.056
 1197SOL    HW2 4491   3.875   5.249   6.993
 1198SOL     OW 4492   3.189   1.784   3.372
 1198SOL    HW1 4493   3.268   1.815   3.426
 1198SOL    HW2 4494   3.106   1.790   3.428
 1199SOL     OW 4495   3.555   4.152   3.736
 1199SOL    HW1 4496   3.607   4.148   3.821
 1199SOL    HW2 4497   3.615   4.182   3.662
 1200SOL     OW 4498   4.627   4.044   1.010
 1200SOL    HW1 4499   4.673   3.955   1.015
 1200SOL    HW2 4500   4.692   4.116   1.032
 1201SOL     OW 4501   1.990   1.377   5.279
 1201SOL    HW1 4502   1.919   1.413   5.218
 1201SOL    HW2 4503   2.047   1.313   5.229
 1202SOL     OW 4504   5.459   6.106   4.216
 1202SOL    HW1 4505   5.407   6.124   4.132
 1202SOL    HW2 4506   5.516   6.025   4.203
 1203SOL     OW 4507   4.842   0.499   1.706
 1203SOL    HW1 4508   4.782   0.463   1.634
 1203SOL    HW2 4509   4.928   0.446   1.706
 1204SOL     OW 4510   2.903   0.419   0.221
 1204SOL    HW1 4511   2.834   0.351   0.247
 1204SOL    HW2 4512   2.872   0.510   0.247
 1205SOL     OW 4513   1.068   2.920   6.463
 1205SOL    HW1 4514   1.125   2.952   6.539
 1205SOL    HW2 4515   0.973   2.948   6.478
 1206SOL     OW 4516   6.538   1.952   5.283
 1206SOL    HW1 4517   6.605   1.986   5.349
 1206SOL    HW2 4518   6.584   1.924   5.199
 1207SOL     OW 4519   5.740   6.026   5.627
 1207SOL    HW1 4520   5.788   6.047   5.542
 1207SOL    HW2 4521   5.685   5.943   5.614
 1208SOL     OW 4522   4.124   3.692   3.743
 1208SOL    HW1 4523   4.078   3.769   3.787
 1208SOL    HW2 4524   4.173   3.638   3.813
 1209SOL     OW 4525   0.524   3.668   4.556
 1209SOL    HW1 4526   0.538   3.749   4.499
 1209SOL    HW2 4527   0.600   3.660   4.621
 1210SOL     OW 4528   2.656   0.223   4.354
 1210SOL    HW1 4529   2.634   0.298   4.416
 1210SOL    HW2 4530   2.725   0.254   4.287
 1211SOL     OW 4531   6.939   3.875   3.506
 1211SOL    HW1 4532   7.008   3.928   3.457
 1211SOL    HW2 4533   6.848   3.907   3.481
 1212SOL     OW 4534   1.099   3.426   2.471
 1212SOL    HW1 4535   1.184   3.400   2.518
 1212SOL    HW2 4536   1.114   3.423   2.372
 1213SOL     OW 4537   6.633   3.744   5.069
 1213SOL    HW1 4538   6.684   3.762   5.154
 1213SOL    HW2 4539   6.622   3.830   5.018
 1214SOL     OW 4540   0.505   2.137   0.755
 1214SOL    HW1 4541   0.571   2.145   0.681
 1214SOL    HW2 4542   0.466   2.045   0.756
 1215SOL     OW 4543   1.302   0.209   1.826
 1215SOL    HW1 4544   1.214   0.232   1.784
 1215SOL    HW2 4545   1.319   0.111   1.819
 1216SOL     OW 4546   1.787   7.002   0.818
 1216SOL    HW1 4547   1.724   0.043   0.850
 1216SOL    HW2 4548   1.859   0.015   0.763
 1217SOL     OW 4549   1.185   2.710   3.503
 1217SOL    HW1 4550   1.144   2.619   3.505
 1217SOL    HW2 4551   1.191   2.746   3.596
 1218SOL     OW 4552   6.918   4.551   3.876
 1218SOL    HW1 4553   6.985   4.596   3.934
 1218SOL    HW2 4554   6.826   4.569   3.910
 1219SOL     OW 4555   1.549   5.499   2.937
 1219SOL    HW1 4556   1.479   5.430   2.917
 1219SOL    HW2 4557   1.504   5.586   2.961
 1220SOL     OW 4558   6.063   4.645   3.133
 1220SOL    HW1 4559   6.052   4.648   3.233
 1220SOL    HW2 4560   6.148   4.692   3.108
 1221SOL     OW 4561   4.536   5.252   0.626
 1221SOL    HW1 4562   4.566   5.234   0.533
 1221SOL    HW2 4563   4.501   5.168   0.667
 1222SOL     OW 4564   7.024   4.657   1.074
 1222SOL    HW1 4565   6.997   4.699   1.160
 1222SOL    HW2 4566   6.942   4.635   1.020
 1223SOL     OW 4567   1.165   3.975   5.226
 1223SOL    HW1 4568   1.204   4.019   5.146
 1223SOL    HW2 4569   1.131   4.044   5.290
 1224SOL     OW 4570   4.190   5.337   1.826
 1224SOL    HW1 4571   4.177   5.311   1.730
 1224SOL    HW2 4572   4.103   5.368   1.864
 1225SOL     OW 4573   5.244   1.815   6.190
 1225SOL    HW1 4574   5.240   1.760   6.106
 1225SOL    HW2 4575   5.280   1.760   6.265
 1226SOL     OW 4576   6.025   5.166   1.420
 1226SOL    HW1 4577   5.961   5.243   1.423
 1226SOL    HW2 4578   6.012   5.108   1.501
 1227SOL     OW 4579   6.349   4.555   0.495
 1227SOL    HW1 4580   6.265   4.506   0.520
 1227SOL    HW2 4581   6.376   4.615   0.570
 1228SOL     OW 4582   3.992   3.800   5.310
 1228SOL    HW1 4583   4.011   3.727   5.244
 1228SOL    HW2 4584   3.999   3.763   5.403
 1229SOL     OW 4585   1.580   5.283   1.905
 1229SOL    HW1 4586   1.570   5.293   1.806
 1229SOL    HW2 4587   1.673   5.308   1.932
 1230SOL     OW 4588   5.697   4.564   0.384
 1230SOL    HW1 4589   5.698   4.581   0.285
 1230SOL    HW2 4590   5.602   4.561   0.415
 1231SOL     OW 4591   2.163   0.797   0.875
 1231SOL    HW1 4592   2.242   0.744   0.906
 1231SOL    HW2 4593   2.166   0.888   0.914
 1232SOL     OW 4594   2.135   2.124   5.945
 1232SOL    HW1 4595   2.114   2.197   5.879
 1232SOL    HW2 4596   2.217   2.075   5.915
 1233SOL     OW 4597   6.864   5.376   5.077
 1233SOL    HW1 4598   6.928   5.303   5.053
 1233SOL    HW2 4599   6.781   5.367   5.021
 1234SOL     OW 4600   7.022   4.647   4.975
 1234SOL    HW1 4601   7.004   4.612   5.067
 1234SOL    HW2 4602   0.017   4.572   4.914
 1235SOL     OW 4603   6.588   4.970   0.359
 1235SOL    HW1 4604   6.570   4.939   0.265
 1235SOL    HW2 4605   6.506   5.015   0.395
 1236SOL     OW 4606   0.115   1.149   3.118
 1236SOL    HW1 4607   0.049   1.222   3.135
 1236SOL    HW2 4608   0.081   1.064   3.160
 1237SOL     OW 4609   0.718   0.615   5.707
 1237SOL    HW1 4610   0.719   0.712   5.729
 1237SOL    HW2 4611   0.641   0.571   5.753
 1238SOL     OW 4612   0.172   0.556   4.582
 1238SOL    HW1 4613   0.266   0.524   4.568
 1238SOL    HW2 4614   0.165   0.652   4.554
 1239SOL     OW 4615   4.382   5.291   3.398
 1239SOL    HW1 4616   4.398   5.378   3.445
 1239SOL    HW2 4617   4.442   5.285   3.318
 1240SOL     OW 4618   0.915   3.789   2.201
 1240SOL    HW1 4619   0.970   3.860   2.245
 1240SOL    HW2 4620   0.972   3.738   2.136
 1241SOL     OW 4621   3.008   5.461   6.127
 1241SOL    HW1 4622   2.965   5.552   6.124
 1241SOL    HW2 4623   3.030   5.432   6.034
 1242SOL     OW 4624   2.178   5.823   0.469
 1242SOL    HW1 4625   2.106   5.800   0.533
 1242SOL    HW2 4626   2.162   5.776   0.382
 1243SOL     OW 4627   0.856   4.526   4.268
 1243SOL    HW1 4628   0.838   4.611   4.318
 1243SOL    HW2 4629   0.772   4.471   4.266
 1244SOL     OW 4630   5.957   6.462   4.931
 1244SOL    HW1 4631   6.019   6.405   4.877
 1244SOL    HW2 4632   5.905   6.522   4.869
 1245SOL     OW 4633   3.796   6.516   1.490
 1245SOL    HW1 4634   3.812   6.486   1.396
 1245SOL    HW2 4635   3.883   6.527   1.537
 1246SOL     OW 4636   4.961   2.142   3.072
 1246SOL    HW1 4637   4.961   2.242   3.081
 1246SOL    HW2 4638   5.048   2.112   3.033
 1247SOL     OW 4639   4.557   6.394   2.901
 1247SOL    HW1 4640   4.532   6.301   2.872
 1247SOL    HW2 4641   4.605   6.440   2.827
 1248SOL     OW 4642   0.265   0.705   5.214
 1248SOL    HW1 4643   0.243   0.726   5.119
 1248SOL    HW2 4644   0.363   0.686   5.222
 1249SOL     OW 4645   6.643   6.724   0.264
 1249SOL    HW1 4646   6.633   6.739   0.166
 1249SOL    HW2 4647   6.561   6.754   0.311
 1250SOL     OW 4648   0.598   4.366   4.846
 1250SOL    HW1 4649   0.511   4.320   4.831
 1250SOL    HW2 4650   0.631   4.346   4.938
 1251SOL     OW 4651   1.679   0.274   3.475
 1251SOL    HW1 4652   1.684   0.184   3.432
 1251SOL    HW2 4653   1.584   0.295   3.498
 1252SOL     OW 4654   3.113   4.908   6.612
 1252SOL    HW1 4655   3.179   4.972   6.574
 1252SOL    HW2 4656   3.093   4.931   6.707
 1253SOL     OW 4657   2.899   5.363   0.518
 1253SOL    HW1 4658   2.904   5.341   0.616
 1253SOL    HW2 4659   2.814   5.411   0.499
 1254SOL     OW 4660   6.394   1.177   4.149
 1254SOL    HW1 4661   6.300   1.154   4.172
 1254SOL    HW2 4662   6.454   1.155   4.226
 1255SOL     OW 4663   5.740   1.963   6.682
 1255SOL    HW1 4664   5.813   2.026   6.655
 1255SOL    HW2 4665   5.677   2.011   6.743
 1256SOL     OW 4666   6.907   6.206   6.352
 1256SOL    HW1 4667   6.976   6.158   6.297
 1256SOL    HW2 4668   6.948   6.290   6.390
 1257SOL     OW 4669   6.766   6.474   2.198
 1257SOL    HW1 4670   6.825   6.412   2.145
 1257SOL    HW2 4671   6.728   6.543   2.137
 1258SOL     OW 4672   5.143   4.979   6.390
 1258SOL    HW1 4673   5.055   4.951   6.353
 1258SOL    HW2 4674   5.215   4.960   6.324
 1259SOL     OW 4675   6.085   6.766   4.320
 1259SOL    HW1 4676   6.183   6.786   4.324
 1259SOL    HW2 4677   6.056   6.723   4.406
 1260SOL     OW 4678   3.215   0.242   0.974
 1260SOL    HW1 4679   3.134   0.248   0.916
 1260SOL    HW2 4680   3.275   0.170   0.939
 1261SOL     OW 4681   1.301   3.305   5.222
 1261SOL    HW1 4682   1.269   3.211   5.204
 1261SOL    HW2 4683   1.387   3.320   5.172
 1262SOL     OW 4684   4.797   6.610   0.056
 1262SOL    HW1 4685   4.833   6.516   0.060
 1262SOL    HW2 4686   4.717   6.617   0.115
 1263SOL     OW 4687   6.668   0.955   1.441
 1263SOL    HW1 4688   6.712   1.018   1.378
 1263SOL    HW2 4689   6.668   0.863   1.402
 1264SOL     OW 4690   5.910   2.505   4.371
 1264SOL    HW1 4691   5.875   2.429   4.426
 1264SOL    HW2 4692   5.943   2.470   4.283
 1265SOL     OW 4693   6.039   6.325   3.793
 1265SOL    HW1 4694   6.070   6.334   3.887
 1265SOL    HW2 4695   6.050   6.230   3.763
 1266SOL     OW 4696   2.500   1.244   4.837
 1266SOL    HW1 4697   2.437   1.189   4.783
 1266SOL    HW2 4698   2.451   1.286   4.914
 1267SOL     OW 4699   6.848   4.461   1.881
 1267SOL    HW1 4700   6.936   4.461   1.928
 1267SOL    HW2 4701   6.855   4.408   1.796
 1268SOL     OW 4702   5.977   5.181   6.447
 1268SOL    HW1 4703   5.931   5.093   6.435
 1268SOL    HW2 4704   6.027   5.204   6.364
 1269SOL     OW 4705   1.108   3.702   5.367
 1269SOL    HW1 4706   1.148   3.647   5.294
 1269SOL    HW2 4707   1.177   3.719   5.438
 1270SOL     OW 4708   1.112   2.693   3.760
 1270SOL    HW1 4709   1.157   2.667   3.846
 1270SOL    HW2 4710   1.044   2.623   3.737
 1271SOL     OW 4711   5.276   4.539   2.822
 1271SOL    HW1 4712   5.347   4.505   2.884
 1271SOL    HW2 4713   5.265   4.475   2.747
 1272SOL     OW 4714   5.789   0.132   0.924
 1272SOL    HW1 4715   5.699   0.175   0.925
 1272SOL    HW2 4716   5.843   0.167   1.001
 1273SOL     OW 4717   2.633   6.247   4.250
 1273SOL    HW1 4718   2.704   6.203   4.196
 1273SOL    HW2 4719   2.547   6.196   4.240
 1274SOL     OW 4720   5.549   2.233   1.351
 1274SOL    HW1 4721   5.542   2.136   1.372
 1274SOL    HW2 4722   5.624   2.273   1.402
 1275SOL     OW 4723   3.607   1.453   3.415
 1275SOL    HW1 4724   3.611   1.549   3.444
 1275SOL    HW2 4725   3.563   1.447   3.326
 1276SOL     OW 4726   5.218   6.483   3.104
 1276SOL    HW1 4727   5.119   6.469   3.098
 1276SOL    HW2 4728   5.258   6.417   3.167
 1277SOL     OW 4729   0.704   1.850   5.182
 1277SOL    HW1 4730   0.683   1.754   5.163
 1277SOL    HW2 4731   0.694   1.904   5.099
 1278SOL     OW 4732   2.571   1.608   4.471
 1278SOL    HW1 4733   2.668   1.629   4.461
 1278SOL    HW2 4734   2.554   1.565   4.559
 1279SOL     OW 4735   1.838   4.504   0.529
 1279SOL    HW1 4736   1.806   4.572   0.594
 1279SOL    HW2 4737   1.791   4.417   0.547
 1280SOL     OW 4738   0.798   6.306   3.009
 1280SOL    HW1 4739   0.854   6.373   3.057
 1280SOL    HW2 4740   0.845   6.275   2.927
 1281SOL     OW 4741   1.433   6.216   3.941
 1281SOL    HW1 4742   1.409   6.123   3.968
 1281SOL    HW2 4743   1.349   6.269   3.926
 1282SOL     OW 4744   1.773   6.846   2.450
 1282SOL    HW1 4745   1.832   6.769   2.473
 1282SOL    HW2 4746   1.724   6.876   2.532
 1283SOL     OW 4747   5.517   4.680   5.511
 1283SOL    HW1 4748   5.483   4.627   5.433
 1283SOL    HW2 4749   5.490   4.776   5.501
 1284SOL     OW 4750   2.661   2.355   3.097
 1284SOL    HW1 4751   2.761   2.347   3.103
 1284SOL    HW2 4752   2.623   2.271   3.058
 1285SOL     OW 4753   6.281   2.306   5.572
 1285SOL    HW1 4754   6.218   2.352   5.634
 1285SOL    HW2 4755   6.371   2.350   5.578
 1286SOL     OW 4756   5.145   5.455   1.001
 1286SOL    HW1 4757   5.122   5.389   1.073
 1286SOL    HW2 4758   5.066   5.469   0.942
 1287SOL     OW 4759   5.824   3.411   6.067
 1287SOL    HW1 4760   5.842   3.458   5.980
 1287SOL    HW2 4761   5.763   3.466   6.123
 1288SOL     OW 4762   0.139   3.011   3.328
 1288SOL    HW1 4763   0.128   3.022   3.229
 1288SOL    HW2 4764   0.233   3.033   3.354
 1289SOL     OW 4765   0.501   5.087   3.151
 1289SOL    HW1 4766   0.469   5.181   3.159
 1289SOL    HW2 4767   0.600   5.084   3.161
 1290SOL     OW 4768   0.064   0.276   1.757
 1290SOL    HW1 4769   0.156   0.250   1.788
 1290SOL    HW2 4770   0.070   0.358   1.700
 1291SOL     OW 4771   1.806   5.390   1.586
 1291SOL    HW1 4772   1.823   5.485   1.611
 1291SOL    HW2 4773   1.879   5.357   1.525
 1292SOL     OW 4774   1.395   0.211   0.268
 1292SOL    HW1 4775   1.452   0.132   0.288
 1292SOL    HW2 4776   1.302   0.180   0.246
 1293SOL     OW 4777   6.672   1.044   6.625
 1293SOL    HW1 4778   6.608   1.109   6.665
 1293SOL    HW2 4779   6.647   1.028   6.529
 1294SOL     OW 4780   0.417   1.731   4.235
 1294SOL    HW1 4781   0.420   1.677   4.319
 1294SOL    HW2 4782   0.462   1.819   4.251
 1295SOL     OW 4783   5.097   3.845   0.427
 1295SOL    HW1 4784   5.107   3.787   0.508
 1295SOL    HW2 4785   5.004   3.881   0.423
 1296SOL     OW 4786   3.606   0.953   0.584
 1296SOL    HW1 4787   3.549   0.899   0.646
 1296SOL    HW2 4788   3.701   0.925   0.594
 1297SOL     OW 4789   5.283   0.706   6.036
 1297SOL    HW1 4790   5.186   0.681   6.028
 1297SOL    HW2 4791   5.314   0.685   6.129
 1298SOL     OW 4792   6.138   2.760   3.052
 1298SOL    HW1 4793   6.140   2.842   3.110
 1298SOL    HW2 4794   6.076   2.692   3.093
 1299SOL     OW 4795   1.624   4.364   4.376
 1299SOL    HW1 4796   1.596   4.447   4.327
 1299SOL    HW2 4797   1.649   4.294   4.310
 1300SOL     OW 4798   3.577   3.376   3.178
 1300SOL    HW1 4799   3.524   3.314   3.121
 1300SOL    HW2 4800   3.553   3.471   3.156
 1301SOL     OW 4801   0.539   0.547   1.501
 1301SOL    HW1 4802   0.528   0.512   1.408
 1301SOL    HW2 4803   0.628   0.592   1.510
 1302SOL     OW 4804   2.759   5.402   5.757
 1302SOL    HW1 4805   2.696   5.456   5.814
 1302SOL    HW2 4806   2.723   5.395   5.664
 1303SOL     OW 4807   2.761   7.004   1.579
 1303SOL    HW1 4808   2.813   0.055   1.550
 1303SOL    HW2 4809   2.703   7.030   1.657
 1304SOL     OW 4810   3.533   0.892   5.851
 1304SOL    HW1 4811   3.519   0.822   5.921
 1304SOL    HW2 4812   3.447   0.905   5.800
 1305SOL     OW 4813   5.806   6.220   4.286
 1305SOL    HW1 4814   5.870   6.149   4.315
 1305SOL    HW2 4815   5.777   6.273   4.366
 1306SOL     OW 4816   1.278   5.422   3.681
 1306SOL    HW1 4817   1.199   5.428   3.620
 1306SOL    HW2 4818   1.354   5.475   3.644
 1307SOL     OW 4819   1.145   0.912   5.291
 1307SOL    HW1 4820   1.218   0.865   5.341
 1307SOL    HW2 4821   1.113   0.854   5.216
 1308SOL     OW 4822   3.986   6.483   3.724
 1308SOL    HW1 4823   3.963   6.425   3.802
 1308SOL    HW2 4824   4.049   6.435   3.664
 1309SOL     OW 4825   6.596   3.007   4.242
 1309SOL    HW1 4826   6.625   2.918   4.277
 1309SOL    HW2 4827   6.635   3.021   4.151
 1310SOL     OW 4828   5.236   4.167   6.058
 1310SOL    HW1 4829   5.267   4.232   5.989
 1310SOL    HW2 4830   5.290   4.084   6.053
 1311SOL     OW 4831   5.644   4.666   0.116
 1311SOL    HW1 4832   5.573   4.734   0.132
 1311SOL    HW2 4833   5.674   4.671   0.021
 1312SOL     OW 4834   6.022   1.598   1.729
 1312SOL    HW1 4835   6.069   1.541   1.662
 1312SOL    HW2 4836   5.973   1.540   1.794
 1313SOL     OW 4837   4.252   5.259   5.098
 1313SOL    HW1 4838   4.282   5.164   5.108
 1313SOL    HW2 4839   4.193   5.267   5.018
 1314SOL     OW 4840   6.992   1.515   6.245
 1314SOL    HW1 4841   6.969   1.431   6.196
 1314SOL    HW2 4842   0.060   1.532   6.238
 1315SOL     OW 4843   1.136   0.036   4.065
 1315SOL    HW1 4844   1.098   0.096   3.995
 1315SOL    HW2 4845   1.199   0.087   4.123
 1316SOL     OW 4846   3.447   5.622   4.371
 1316SOL    HW1 4847   3.524   5.673   4.332
 1316SOL    HW2 4848   3.481   5.549   4.429
 1317SOL     OW 4849   0.408   3.336   3.243
 1317SOL    HW1 4850   0.449   3.254   3.203
 1317SOL    HW2 4851   0.344   3.376   3.177
 1318SOL     OW 4852   0.582   6.328   2.737
 1318SOL    HW1 4853   0.631   6.317   2.824
 1318SOL    HW2 4854   0.585   6.424   2.708
 1319SOL     OW 4855   0.159   6.599   0.891
 1319SOL    HW1 4856   0.252   6.563   0.904
 1319SOL    HW2 4857   0.117   6.555   0.811
 1320SOL     OW 4858   6.139   4.816   5.431
 1320SOL    HW1 4859   6.211   4.754   5.462
 1320SOL    HW2 4860   6.075   4.766   5.373
 1321SOL     OW 4861   3.692   1.204   1.353
 1321SOL    HW1 4862   3.675   1.214   1.255
 1321SOL    HW2 4863   3.605   1.196   1.402
 1322SOL     OW 4864   5.079   0.972   5.982
 1322SOL    HW1 4865   5.178   0.971   5.966
 1322SOL    HW2 4866   5.057   0.911   6.058
 1323SOL     OW 4867   6.745   0.334   4.575
 1323SOL    HW1 4868   6.771   0.427   4.601
 1323SOL    HW2 4869   6.711   0.334   4.481
 1324SOL     OW 4870   1.481   2.376   0.898
 1324SOL    HW1 4871   1.518   2.309   0.834
 1324SOL    HW2 4872   1.490   2.468   0.859
 1325SOL     OW 4873   4.899   5.083   3.687
 1325SOL    HW1 4874   4.962   5.047   3.756
 1325SOL    HW2 4875   4.814   5.110   3.733
 1326SOL     OW 4876   5.014   4.186   4.151
 1326SOL    HW1 4877   5.029   4.118   4.223
 1326SOL    HW2 4878   4.928   4.165   4.104
 1327SOL     OW 4879   3.124   5.993   3.557
 1327SOL    HW1 4880   3.196   6.050   3.515
 1327SOL    HW2 4881   3.053   6.053   3.595
 1328SOL     OW 4882   2.535   1.727   1.801
 1328SOL    HW1 4883   2.508   1.724   1.705
 1328SOL    HW2 4884   2.575   1.816   1.822
 1329SOL     OW 4885   0.878   5.749   1.657
 1329SOL    HW1 4886   0.813   5.752   1.581
 1329SOL    HW2 4887   0.969   5.777   1.625
 1330SOL     OW 4888   6.612   6.263   1.571
 1330SOL    HW1 4889   6.549   6.282   1.647
 1330SOL    HW2 4890   6.660   6.347   1.546
 1331SOL     OW 4891   0.671   1.970   1.566
 1331SOL    HW1 4892   0.659   1.971   1.467
 1331SOL    HW2 4893   0.768   1.968   1.588
 1332SOL     OW 4894   4.185   1.902   0.127
 1332SOL    HW1 4895   4.181   1.999   0.151
 1332SOL    HW2 4896   4.164   1.847   0.208
 1333SOL     OW 4897   3.780   3.654   5.630
 1333SOL    HW1 4898   3.864   3.708   5.635
 1333SOL    HW2 4899   3.804   3.556   5.635
 1334SOL     OW 4900   2.141   3.414   3.868
 1334SOL    HW1 4901   2.158   3.503   3.909
 1334SOL    HW2 4902   2.089   3.357   3.931
 1335SOL     OW 4903   1.916   5.962   3.594
 1335SOL    HW1 4904   1.972   6.024   3.649
 1335SOL    HW2 4905   1.847   5.919   3.652
 1336SOL     OW 4906   0.054   6.651   4.554
 1336SOL    HW1 4907   0.152   6.644   4.541
 1336SOL    HW2 4908   0.017   6.722   4.493
 1337SOL     OW 4909   2.726   0.388   6.748
 1337SOL    HW1 4910   2.779   0.424   6.825
 1337SOL    HW2 4911   2.757   0.295   6.727
 1338SOL     OW 4912   3.859   4.389   0.694
 1338SOL    HW1 4913   3.766   4.421   0.712
 1338SOL    HW2 4914   3.868   4.294   0.723
 1339SOL     OW 4915   0.416   4.269   6.574
 1339SOL    HW1 4916   0.387   4.185   6.619
 1339SOL    HW2 4917   0.385   4.348   6.627
 1340SOL     OW 4918   2.557   1.580   5.957
 1340SOL    HW1 4919   2.542   1.482   5.963
 1340SOL    HW2 4920   2.655   1.599   5.960
 1341SOL     OW 4921   5.194   1.535   3.753
 1341SOL    HW1 4922   5.126   1.585   3.700
 1341SOL    HW2 4923   5.251   1.600   3.803
 1342SOL     OW 4924   0.662   5.738   0.240
 1342SOL    HW1 4925   0.716   5.779   0.166
 1342SOL    HW2 4926   0.577   5.702   0.202
 1343SOL     OW 4927   3.293   6.019   3.273
 1343SOL    HW1 4928   3.328   6.086   3.207
 1343SOL    HW2 4929   3.217   6.059   3.324
 1344SOL     OW 4930   4.371   1.363   2.298
 1344SOL    HW1 4931   4.455   1.405   2.265
 1344SOL    HW2 4932   4.316   1.332   2.220
 1345SOL     OW 4933   6.549   5.462   1.728
 1345SOL    HW1 4934   6.468   5.463   1.669
 1345SOL    HW2 4935   6.543   5.385   1.792
 1346SOL     OW 4936   6.516   1.799   3.105
 1346SOL    HW1 4937   6.516   1.864   3.029
 1346SOL    HW2 4938   6.558   1.842   3.185
 1347SOL     OW 4939   4.160   0.878   3.585
 1347SOL    HW1 4940   4.125   0.969   3.604
 1347SOL    HW2 4941   4.089   0.810   3.603
 1348SOL     OW 4942   5.560   6.363   4.772
 1348SOL    HW1 4943   5.640   6.307   4.750
 1348SOL    HW2 4944   5.488   6.304   4.809
 1349SOL     OW 4945   5.164   1.196   6.771
 1349SOL    HW1 4946   5.100   1.217   6.697
 1349SOL    HW2 4947   5.242   1.145   6.734
 1350SOL     OW 4948   4.079   1.700   4.707
 1350SOL    HW1 4949   4.026   1.657   4.779
 1350SOL    HW2 4950   4.171   1.660   4.704
 1351SOL     OW 4951   1.178   1.766   4.726
 1351SOL    HW1 4952   1.101   1.772   4.662
 1351SOL    HW2 4953   1.264   1.773   4.674
 1352SOL     OW 4954   1.334   6.577   4.748
 1352SOL    HW1 4955   1.406   6.625   4.697
 1352SOL    HW2 4956   1.369   6.490   4.782
 1353SOL     OW 4957   2.762   3.119   5.774
 1353SOL    HW1 4958   2.820   3.189   5.817
 1353SOL    HW2 4959   2.666   3.139   5.793
 1354SOL     OW 4960   0.455   6.345   6.761
 1354SOL    HW1 4961   0.404   6.377   6.841
 1354SOL    HW2 4962   0.551   6.370   6.772
 1355SOL     OW 4963   4.777   3.615   0.336
 1355SOL    HW1 4964   4.754   3.652   0.246
 1355SOL    HW2 4965   4.724   3.531   0.351
 1356SOL     OW 4966   4.101   3.265   2.757
 1356SOL    HW1 4967   4.046   3.195   2.712
 1356SOL    HW2 4968   4.182   3.222   2.798
 1357SOL     OW 4969   4.221   2.493   6.165
 1357SOL    HW1 4970   4.218   2.543   6.251
 1357SOL    HW2 4971   4.161   2.413   6.171
 1358SOL     OW 4972   2.110   3.068   4.762
 1358SOL    HW1 4973   2.164   2.989   4.734
 1358SOL    HW2 4974   2.139   3.148   4.709
 1359SOL     OW 4975   0.893   1.422   6.631
 1359SOL    HW1 4976   0.925   1.338   6.676
 1359SOL    HW2 4977   0.972   1.476   6.601
 1360SOL     OW 4978   3.012   3.903   4.813
 1360SOL    HW1 4979   2.948   3.954   4.870
 1360SOL    HW2 4980   3.103   3.906   4.854
 1361SOL     OW 4981   1.135   6.187   1.210
 1361SOL    HW1 4982   1.046   6.232   1.209
 1361SOL    HW2 4983   1.206   6.254   1.230
 1362SOL     OW 4984   3.491   0.933   6.263
 1362SOL    HW1 4985   3.513   1.015   6.210
 1362SOL    HW2 4986   3.395   0.936   6.292
 1363SOL     OW 4987   6.290   5.770   1.222
 1363SOL    HW1 4988   6.228   5.839   1.184
 1363SOL    HW2 4989   6.280   5.767   1.322
 1364SOL     OW 4990   1.339   3.149   1.195
 1364SOL    HW1 4991   1.417   3.118   1.141
 1364SOL    HW2 4992   1.262   3.085   1.184
 1365SOL     OW 4993   1.381   3.033   6.291
 1365SOL    HW1 4994   1.370   2.947   6.340
 1365SOL    HW2 4995   1.467   3.076   6.317
 1366SOL     OW 4996   4.156   1.143   2.116
 1366SOL    HW1 4997   4.101   1.064   2.090
 1366SOL    HW2 4998   4.158   1.209   2.041
 1367SOL     OW 4999   1.720   0.211   4.158
 1367SOL    HW1 5000   1.743   0.129   4.211
 1367SOL    HW2 5001   1.727   0.190   4.060
 1368SOL     OW 5002   2.231   5.834   4.892
 1368SOL    HW1 5003   2.179   5.896   4.832
 1368SOL    HW2 5004   2.213   5.739   4.867
 1369SOL     OW 5005   2.599   5.551   3.313
 1369SOL    HW1 5006   2.685   5.526   3.357
 1369SOL    HW2 5007   2.523   5.522   3.371
 1370SOL     OW 5008   6.365   2.807   2.904
 1370SOL    HW1 5009   6.395   2.902   2.899
 1370SOL    HW2 5010   6.279   2.801   2.955
 1371SOL     OW 5011   6.851   1.830   6.561
 1371SOL    HW1 5012   6.813   1.920   6.541
 1371SOL    HW2 5013   6.815   1.797   6.648
 1372SOL     OW 5014   4.903   2.034   2.056
 1372SOL    HW1 5015   4.821   1.988   2.090
 1372SOL    HW2 5016   4.984   1.989   2.093
 1373SOL     OW 5017   3.882   2.781   0.934
 1373SOL    HW1 5018   3.878   2.783   0.834
 1373SOL    HW2 5019   3.954   2.841   0.967
 1374SOL     OW 5020   3.327   3.353   4.078
 1374SOL    HW1 5021   3.246   3.338   4.022
 1374SOL    HW2 5022   3.395   3.405   4.026
 1375SOL     OW 5023   6.401   4.012   5.474
 1375SOL    HW1 5024   6.380   3.925   5.428
 1375SOL    HW2 5025   6.339   4.026   5.550
 1376SOL     OW 5026   2.770   4.690   6.533
 1376SOL    HW1 5027   2.719   4.656   6.454
 1376SOL    HW2 5028   2.855   4.731   6.502
 1377SOL     OW 5029   0.990   2.098   3.923
 1377SOL    HW1 5030   1.061   2.029   3.911
 1377SOL    HW2 5031   0.900   2.057   3.908
 1378SOL     OW 5032   5.073   2.737   3.670
 1378SOL    HW1 5033   5.070   2.698   3.578
 1378SOL    HW2 5034   5.040   2.669   3.736
 1379SOL     OW 5035   5.416   5.253   6.563
 1379SOL    HW1 5036   5.488   5.210   6.617
 1379SOL    HW2 5037   5.452   5.337   6.520
 1380SOL     OW 5038   6.567   6.809   3.586
 1380SOL    HW1 5039   6.639   6.741   3.576
 1380SOL    HW2 5040   6.572   6.850   3.677
 1381SOL     OW 5041   6.907   2.862   6.433
 1381SOL    HW1 5042   6.951   2.793   6.376
 1381SOL    HW2 5043   6.859   2.928   6.376
 1382SOL     OW 5044   4.365   1.932   5.406
 1382SOL    HW1 5045   4.436   1.878   5.451
 1382SOL    HW2 5046   4.372   1.922   5.307
 1383SOL     OW 5047   5.546   0.005   0.689
 1383SOL    HW1 5048   5.552   0.104   0.684
 1383SOL    HW2 5049   5.509   6.999   0.603
 1384SOL     OW 5050   5.618   2.031   2.347
 1384SOL    HW1 5051   5.663   2.037   2.436
 1384SOL    HW2 5052   5.663   1.962   2.291
 1385SOL     OW 5053   6.853   6.861   2.171
 1385SOL    HW1 5054   6.872   6.773   2.216
 1385SOL    HW2 5055   6.930   6.922   2.184
 1386SOL     OW 5056   1.834   0.537   3.980
 1386SOL    HW1 5057   1.902   0.470   4.007
 1386SOL    HW2 5058   1.744   0.493   3.977
 1387SOL     OW 5059   1.212   5.479   1.407
 1387SOL    HW1 5060   1.144   5.533   1.456
 1387SOL    HW2 5061   1.251   5.410   1.469
 1388SOL     OW 5062   6.353   0.352   1.531
 1388SOL    HW1 5063   6.394   0.423   1.474
 1388SOL    HW2 5064   6.393   0.357   1.623
 1389SOL     OW 5065   6.493   0.210   0.679
 1389SOL    HW1 5066   6.550   0.138   0.640
 1389SOL    HW2 5067   6.532   0.240   0.766
 1390SOL     OW 5068   1.344   1.248   4.475
 1390SOL    HW1 5069   1.347   1.338   4.517
 1390SOL    HW2 5070   1.356   1.256   4.376
 1391SOL     OW 5071   0.925   3.680   3.796
 1391SOL    HW1 5072   0.846   3.737   3.774
 1391SOL    HW2 5073   0.920   3.653   3.893
 1392SOL     OW 5074   5.240   5.633   3.998
 1392SOL    HW1 5075   5.267   5.580   4.078
 1392SOL    HW2 5076   5.176   5.705   4.025
 1393SOL     OW 5077   3.552   4.600   6.689
 1393SOL    HW1 5078   3.464   4.593   6.737
 1393SOL    HW2 5079   3.581   4.696   6.686
 1394SOL     OW 5080   1.266   6.905   6.574
 1394SOL    HW1 5081   1.177   6.916   6.528
 1394SOL    HW2 5082   1.256   6.844   6.652
 1395SOL     OW 5083   3.973   5.166   6.468
 1395SOL    HW1 5084   3.912   5.165   6.548
 1395SOL    HW2 5085   3.919   5.158   6.384
 1396SOL     OW 5086   4.697   5.750   2.834
 1396SOL    HW1 5087   4.637   5.678   2.799
 1396SOL    HW2 5088   4.742   5.797   2.758
 1397SOL     OW 5089   5.800   6.198   4.739
 1397SOL    HW1 5090   5.782   6.106   4.704
 1397SOL    HW2 5091   5.890   6.200   4.782
 1398SOL     OW 5092   1.865   7.028   5.320
 1398SOL    HW1 5093   1.912   0.080   5.355
 1398SOL    HW2 5094   1.767   0.006   5.339
 1399SOL     OW 5095   2.642   5.528   2.298
 1399SOL    HW1 5096   2.620   5.592   2.372
 1399SOL    HW2 5097   2.678   5.580   2.220
 1400SOL     OW 5098   1.370   0.895   3.582
 1400SOL    HW1 5099   1.378   0.947   3.498
 1400SOL    HW2 5100   1.361   0.797   3.561
 1401SOL     OW 5101   6.975   2.294   4.238
 1401SOL    HW1 5102   6.981   2.385   4.198
 1401SOL    HW2 5103   6.975   2.226   4.164
 1402SOL     OW 5104   5.391   2.315   7.007
 1402SOL    HW1 5105   5.464   2.308   0.046
 1402SOL    HW2 5106   5.382   2.410   6.977
 1403SOL     OW 5107   3.891   1.195   2.041
 1403SOL    HW1 5108   3.961   1.261   2.069
 1403SOL    HW2 5109   3.817   1.194   2.109
 1404SOL     OW 5110   4.681   1.082   6.194
 1404SOL    HW1 5111   4.655   1.135   6.112
 1404SOL    HW2 5112   4.716   1.144   6.264
 1405SOL     OW 5113   3.377   2.818   0.456
 1405SOL    HW1 5114   3.397   2.740   0.397
 1405SOL    HW2 5115   3.442   2.819   0.532
 1406SOL     OW 5116   0.569   3.371   1.878
 1406SOL    HW1 5117   0.558   3.289   1.934
 1406SOL    HW2 5118   0.628   3.436   1.926
 1407SOL     OW 5119   6.627   2.218   2.528
 1407SOL    HW1 5120   6.666   2.159   2.457
 1407SOL    HW2 5121   6.589   2.300   2.484
 1408SOL     OW 5122   6.794   4.360   0.044
 1408SOL    HW1 5123   6.885   4.402   0.038
 1408SOL    HW2 5124   6.726   4.422   0.007
 1409SOL     OW 5125   6.928   1.136   3.843
 1409SOL    HW1 5126   7.001   1.166   3.782
 1409SOL    HW2 5127   6.840   1.167   3.807
 1410SOL     OW 5128   0.476   1.708   6.337
 1410SOL    HW1 5129   0.526   1.695   6.423
 1410SOL    HW2 5130   0.523   1.659   6.264
 1411SOL     OW 5131   1.779   1.297   1.190
 1411SOL    HW1 5132   1.791   1.298   1.290
 1411SOL    HW2 5133   1.760   1.389   1.158
 1412SOL     OW 5134   2.118   1.929   0.400
 1412SOL    HW1 5135   2.110   1.873   0.318
 1412SOL    HW2 5136   2.098   2.024   0.378
 1413SOL     OW 5137   3.230   6.888   3.392
 1413SOL    HW1 5138   3.311   6.930   3.433
 1413SOL    HW2 5139   3.229   6.790   3.414
 1414SOL     OW 5140   1.534   0.681   2.536
 1414SOL    HW1 5141   1.538   0.777   2.562
 1414SOL    HW2 5142   1.626   0.641   2.538
 1415SOL     OW 5143   5.628   6.619   4.567
 1415SOL    HW1 5144   5.645   6.634   4.665
 1415SOL    HW2 5145   5.648   6.523   4.545
 1416SOL     OW 5146   4.816   5.921   3.789
 1416SOL    HW1 5147   4.859   5.992   3.733
 1416SOL    HW2 5148   4.863   5.834   3.775
 1417SOL     OW 5149   3.482   3.094   5.672
 1417SOL    HW1 5150   3.503   3.060   5.764
 1417SOL    HW2 5151   3.384   3.109   5.663
 1418SOL     OW 5152   3.476   4.182   4.192
 1418SOL    HW1 5153   3.477   4.282   4.190
 1418SOL    HW2 5154   3.510   4.146   4.105
 1419SOL     OW 5155   3.270   5.914   3.903
 1419SOL    HW1 5156   3.309   5.923   3.995
 1419SOL    HW2 5157   3.192   5.852   3.906
 1420SOL     OW 5158   0.425   6.779   3.130
 1420SOL    HW1 5159   0.384   6.829   3.206
 1420SOL    HW2 5160   0.503   6.726   3.163
 1421SOL     OW 5161   3.626   0.969   3.135
 1421SOL    HW1 5162   3.639   0.871   3.153
 1421SOL    HW2 5163   3.532   0.986   3.106
 1422SOL     OW 5164   2.641   5.464   0.501
 1422SOL    HW1 5165   2.606   5.371   0.507
 1422SOL    HW2 5166   2.567   5.529   0.517
 1423SOL     OW 5167   4.784   0.383   2.552
 1423SOL    HW1 5168   4.754   0.479   2.556
 1423SOL    HW2 5169   4.704   0.324   2.545
 1424SOL     OW 5170   6.468   5.464   2.202
 1424SOL    HW1 5171   6.392   5.482   2.139
 1424SOL    HW2 5172   6.448   5.382   2.255
 1425SOL     OW 5173   2.016   0.102   4.154
 1425SOL    HW1 5174   1.956   0.049   4.094
 1425SOL    HW2 5175   1.963   0.175   4.198
 1426SOL     OW 5176   1.509   0.962   6.229
 1426SOL    HW1 5177   1.559   0.996   6.149
 1426SOL    HW2 5178   1.575   0.935   6.300
 1427SOL     OW 5179   4.860   2.644   6.307
 1427SOL    HW1 5180   4.826   2.579   6.375
 1427SOL    HW2 5181   4.885   2.730   6.352
 1428SOL     OW 5182   5.417   0.536   1.067
 1428SOL    HW1 5183   5.393   0.613   1.008
 1428SOL    HW2 5184   5.460   0.571   1.151
 1429SOL     OW 5185   5.591   5.442   1.437
 1429SOL    HW1 5186   5.496   5.433   1.468
 1429SOL    HW2 5187   5.628   5.529   1.470
 1430SOL     OW 5188   2.948   5.047   2.561
 1430SOL    HW1 5189   3.028   5.055   2.620
 1430SOL    HW2 5190   2.890   5.128   2.571
 1431SOL     OW 5191   2.224   1.031   0.687
 1431SOL    HW1 5192   2.224   1.069   0.780
 1431SOL    HW2 5193   2.137   0.985   0.670
 1432SOL     OW 5194   3.096   6.964   1.388
 1432SOL    HW1 5195   3.163   6.926   1.325
 1432SOL    HW2 5196   3.121   0.029   1.409
 1433SOL     OW 5197   4.984   6.913   3.473
 1433SOL    HW1 5198   4.911   6.948   3.531
 1433SOL    HW2 5199   4.955   6.916   3.377
 1434SOL     OW 5200   0.641   0.926   5.182
 1434SOL    HW1 5201   0.589   0.997   5.134
 1434SOL    HW2 5202   0.721   0.901   5.129
 1435SOL     OW 5203   7.016   2.067   3.953
 1435SOL    HW1 5204   7.003   2.018   4.039
 1435SOL    HW2 5205   6.999   2.005   3.876
 1436SOL     OW 5206   5.440   3.374   1.306
 1436SOL    HW1 5207   5.427   3.382   1.405
 1436SOL    HW2 5208   5.355   3.345   1.263
 1437SOL     OW 5209   4.771   0.680   2.543
 1437SOL    HW1 5210   4.745   0.742   2.616
 1437SOL    HW2 5211   4.837   0.724   2.482
 1438SOL     OW 5212   2.876   6.851   2.122
 1438SOL    HW1 5213   2.870   6.827   2.026
 1438SOL    HW2 5214   2.785   6.873   2.157
 1439SOL     OW 5215   0.764   5.726   2.698
 1439SOL    HW1 5216   0.794   5.661   2.767
 1439SOL    HW2 5217   0.736   5.677   2.615
 1440SOL     OW 5218   2.135   2.869   1.129
 1440SOL    HW1 5219   2.114   2.875   1.227
 1440SOL    HW2 5220   2.147   2.961   1.092
 1441SOL     OW 5221   4.978   6.344   6.562
 1441SOL    HW1 5222   4.892   6.354   6.514
 1441SOL    HW2 5223   4.995   6.425   6.618
 1442SOL     OW 5224   4.726   5.920   1.527
 1442SOL    HW1 5225   4.630   5.945   1.510
 1442SOL    HW2 5226   4.737   5.891   1.622
 1443SOL     OW 5227   6.841   2.616   2.324
 1443SOL    HW1 5228   6.845   2.519   2.300
 1443SOL    HW2 5229   6.746   2.642   2.342
 1444SOL     OW 5230   0.520   6.979   4.784
 1444SOL    HW1 5231   0.442   0.010   4.795
 1444SOL    HW2 5232   0.546   6.974   4.688
 1445SOL     OW 5233   0.531   2.110   1.278
 1445SOL    HW1 5234   0.547   2.209   1.266
 1445SOL    HW2 5235   0.488   2.073   1.196
 1446SOL     OW 5236   6.020   5.523   1.773
 1446SOL    HW1 5237   6.096   5.556   1.716
 1446SOL    HW2 5238   5.988   5.597   1.832
 1447SOL     OW 5239   0.015   6.791   3.981
 1447SOL    HW1 5240   0.098   6.834   3.944
 1447SOL    HW2 5241   0.011   6.805   4.080
 1448SOL     OW 5242   1.740   0.818   5.298
 1448SOL    HW1 5243   1.775   0.912   5.302
 1448SOL    HW2 5244   1.702   0.800   5.208
 1449SOL     OW 5245   1.944   3.371   2.249
 1449SOL    HW1 5246   1.866   3.329   2.203
 1449SOL    HW2 5247   1.964   3.320   2.332
 1450SOL     OW 5248   3.144   2.185   2.601
 1450SOL    HW1 5249   3.170   2.183   2.504
 1450SOL    HW2 5250   3.172   2.273   2.640
 1451SOL     OW 5251   4.014   1.881   2.678
 1451SOL    HW1 5252   4.102   1.839   2.702
 1451SOL    HW2 5253   3.954   1.812   2.638
 1452SOL     OW 5254   4.037   3.044   5.307
 1452SOL    HW1 5255   4.131   3.015   5.325
 1452SOL    HW2 5256   3.983   3.035   5.391
 1453SOL     OW 5257   1.827   3.075   4.821
 1453SOL    HW1 5258   1.831   3.033   4.912
 1453SOL    HW2 5259   1.918   3.073   4.779
 1454SOL     OW 5260   3.279   2.142   2.358
 1454SOL    HW1 5261   3.235   2.080   2.293
 1454SOL    HW2 5262   3.315   2.221   2.308
 1455SOL     OW 5263   6.927   5.913   2.806
 1455SOL    HW1 5264   6.958   5.971   2.731
 1455SOL    HW2 5265   6.831   5.892   2.794
 1456SOL     OW 5266   6.254   6.013   3.523
 1456SOL    HW1 5267   6.163   5.989   3.489
 1456SOL    HW2 5268   6.321   5.999   3.451
 1457SOL     OW 5269   1.272   5.597   5.751
 1457SOL    HW1 5270   1.256   5.675   5.812
 1457SOL    HW2 5271   1.221   5.518   5.783
 1458SOL     OW 5272   6.932   5.620   4.880
 1458SOL    HW1 5273   6.923   5.570   4.966
 1458SOL    HW2 5274   6.927   5.719   4.899
 1459SOL     OW 5275   0.040   6.173   5.508
 1459SOL    HW1 5276   0.042   6.093   5.568
 1459SOL    HW2 5277   0.044   6.143   5.413
 1460SOL     OW 5278   1.601   6.436   5.111
 1460SOL    HW1 5279   1.628   6.394   5.024
 1460SOL    HW2 5280   1.679   6.433   5.175
 1461SOL     OW 5281   5.810   3.743   3.351
 1461SOL    HW1 5282   5.856   3.675   3.294
 1461SOL    HW2 5283   5.866   3.761   3.432
 1462SOL     OW 5284   0.832   1.731   2.167
 1462SOL    HW1 5285   0.861   1.776   2.251
 1462SOL    HW2 5286   0.771   1.792   2.116
 1463SOL     OW 5287   2.128   4.655   6.917
 1463SOL    HW1 5288   2.150   4.670   6.821
 1463SOL    HW2 5289   2.029   4.662   6.930
 1464SOL     OW 5290   0.834   4.101   5.351
 1464SOL    HW1 5291   0.822   4.002   5.344
 1464SOL    HW2 5292   0.891   4.122   5.430
 1465SOL     OW 5293   1.807   3.079   5.463
 1465SOL    HW1 5294   1.740   3.005   5.456
 1465SOL    HW2 5295   1.899   3.040   5.460
 1466SOL     OW 5296   5.587   1.191   2.618
 1466SOL    HW1 5297   5.548   1.105   2.586
 1466SOL    HW2 5298   5.523   1.266   2.600
 1467SOL     OW 5299   0.382   0.572   3.860
 1467SOL    HW1 5300   0.467   0.625   3.865
 1467SOL    HW2 5301   0.309   0.630   3.822
 1468SOL     OW 5302   3.755   6.826   4.010
 1468SOL    HW1 5303   3.687   6.755   4.030
 1468SOL    HW2 5304   3.811   6.798   3.933
 1469SOL     OW 5305   5.216   4.768   3.310
 1469SOL    HW1 5306   5.121   4.746   3.286
 1469SOL    HW2 5307   5.225   4.775   3.409
 1470SOL     OW 5308   6.060   1.290   1.559
 1470SOL    HW1 5309   6.060   1.197   1.521
 1470SOL    HW2 5310   5.969   1.311   1.594
 1471SOL     OW 5311   5.024   6.114   0.062
 1471SOL    HW1 5312   5.091   6.039   0.068
 1471SOL    HW2 5313   4.942   6.089   0.113
 1472SOL     OW 5314   2.188   0.474   6.897
 1472SOL    HW1 5315   2.264   0.513   6.950
 1472SOL    HW2 5316   2.220   0.454   6.805
 1473SOL     OW 5317   1.395   6.056   3.314
 1473SOL    HW1 5318   1.319   6.005   3.355
 1473SOL    HW2 5319   1.482   6.024   3.352
 1474SOL     OW 5320   1.501   4.469   1.576
 1474SOL    HW1 5321   1.424   4.509   1.625
 1474SOL    HW2 5322   1.477   4.378   1.542
 1475SOL     OW 5323   6.618   6.867   6.398
 1475SOL    HW1 5324   6.596   6.789   6.456
 1475SOL    HW2 5325   6.690   6.841   6.333
 1476SOL     OW 5326   6.073   0.155   6.640
 1476SOL    HW1 5327   6.036   0.064   6.618
 1476SOL    HW2 5328   6.156   0.144   6.695
 1477SOL     OW 5329   3.674   4.178   1.944
 1477SOL    HW1 5330   3.739   4.237   1.990
 1477SOL    HW2 5331   3.625   4.230   1.874
 1478SOL     OW 5332   4.193   3.843   6.248
 1478SOL    HW1 5333   4.109   3.788   6.251
 1478SOL    HW2 5334   4.254   3.806   6.178
 1479SOL     OW 5335   4.282   4.552   1.083
 1479SOL    HW1 5336   4.227   4.578   1.003
 1479SOL    HW2 5337   4.345   4.626   1.106
 1480SOL     OW 5338   2.805   2.076   3.575
 1480SOL    HW1 5339   2.738   2.100   3.505
 1480SOL    HW2 5340   2.761   2.073   3.664
 1481SOL     OW 5341   4.069   1.600   5.544
 1481SOL    HW1 5342   3.998   1.623   5.610
 1481SOL    HW2 5343   4.131   1.678   5.532
 1482SOL     OW 5344   6.614   1.275   0.761
 1482SOL    HW1 5345   6.621   1.179   0.786
 1482SOL    HW2 5346   6.663   1.330   0.830
 1483SOL     OW 5347   6.184   6.297   0.287
 1483SOL    HW1 5348   6.228   6.274   0.201
 1483SOL    HW2 5349   6.250   6.292   0.362
 1484SOL     OW 5350   3.325   6.454   5.820
 1484SOL    HW1 5351   3.333   6.525   5.750
 1484SOL    HW2 5352   3.233   6.455   5.859
 1485SOL     OW 5353   5.427   4.024   3.421
 1485SOL    HW1 5354   5.334   3.987   3.429
 1485SOL    HW2 5355   5.476   3.972   3.351
 1486SOL     OW 5356   6.347   6.215   4.617
 1486SOL    HW1 5357   6.402   6.245   4.695
 1486SOL    HW2 5358   6.352   6.284   4.544
 1487SOL     OW 5359   5.715   0.327   6.437
 1487SOL    HW1 5360   5.757   0.298   6.523
 1487SOL    HW2 5361   5.622   0.358   6.455
 1488SOL     OW 5362   6.624   2.720   2.394
 1488SOL    HW1 5363   6.687   2.726   2.471
 1488SOL    HW2 5364   6.563   2.799   2.393
 1489SOL     OW 5365   3.130   5.506   6.888
 1489SOL    HW1 5366   3.230   5.503   6.884
 1489SOL    HW2 5367   3.092   5.431   6.834
 1490SOL     OW 5368   5.946   2.699   1.930
 1490SOL    HW1 5369   5.971   2.776   1.989
 1490SOL    HW2 5370   6.029   2.651   1.901
 1491SOL     OW 5371   5.701   3.570   4.484
 1491SOL    HW1 5372   5.797   3.568   4.458
 1491SOL    HW2 5373   5.674   3.665   4.502
 1492SOL     OW 5374   1.387   2.938   1.924
 1492SOL    HW1 5375   1.297   2.940   1.881
 1492SOL    HW2 5376   1.379   2.906   2.019
 1493SOL     OW 5377   6.425   1.871   6.532
 1493SOL    HW1 5378   6.488   1.843   6.605
 1493SOL    HW2 5379   6.333   1.881   6.569
 1494SOL     OW 5380   1.649   3.313   6.592
 1494SOL    HW1 5381   1.727   3.268   6.548
 1494SOL    HW2 5382   1.582   3.339   6.523
 1495SOL     OW 5383   6.146   4.013   4.070
 1495SOL    HW1 5384   6.130   3.921   4.106
 1495SOL    HW2 5385   6.068   4.071   4.090
 1496SOL     OW 5386   6.712   5.379   5.952
 1496SOL    HW1 5387   6.661   5.333   5.880
 1496SOL    HW2 5388   6.656   5.454   5.989
 1497SOL     OW 5389   4.627   2.614   2.723
 1497SOL    HW1 5390   4.642   2.556   2.643
 1497SOL    HW2 5391   4.643   2.709   2.697
 1498SOL     OW 5392   3.808   4.126   0.695
 1498SOL    HW1 5393   3.710   4.122   0.713
 1498SOL    HW2 5394   3.831   4.066   0.618
 1499SOL     OW 5395   1.431   4.623   4.136
 1499SOL    HW1 5396   1.382   4.545   4.097
 1499SOL    HW2 5397   1.411   4.629   4.234
 1500SOL     OW 5398   2.365   5.797   1.581
 1500SOL    HW1 5399   2.437   5.778   1.648
 1500SOL    HW2 5400   2.385   5.884   1.535
 1501SOL     OW 5401   5.525   1.696   1.391
 1501SOL    HW1 5402   5.428   1.670   1.386
 1501SOL    HW2 5403   5.561   1.704   1.298
 1502SOL     OW 5404   0.628   6.668   5.900
 1502SOL    HW1 5405   0.590   6.727   5.971
 1502SOL    HW2 5406   0.710   6.709   5.862
 1503SOL     OW 5407   6.470   6.335   2.111
 1503SOL    HW1 5408   6.370   6.337   2.108
 1503SOL    HW2 5409   6.503   6.416   2.160
 1504SOL     OW 5410   1.349   0.615   3.572
 1504SOL    HW1 5411   1.351   0.611   3.672
 1504SOL    HW2 5412   1.344   0.522   3.536
 1505SOL     OW 5413   6.840   4.562   4.661
 1505SOL    HW1 5414   6.891   4.507   4.727
 1505SOL    HW2 5415   6.860   4.528   4.569
 1506SOL     OW 5416   1.128   1.379   0.730
 1506SOL    HW1 5417   1.061   1.337   0.669
 1506SOL    HW2 5418   1.106   1.476   0.742
 1507SOL     OW 5419   2.152   2.433   4.055
 1507SOL    HW1 5420   2.177   2.510   4.113
 1507SOL    HW2 5421   2.088   2.463   3.985
 1508SOL     OW 5422   1.698   0.547   1.311
 1508SOL    HW1 5423   1.601   0.524   1.301
 1508SOL    HW2 5424   1.712   0.643   1.289
 1509SOL     OW 5425   4.326   0.734   4.791
 1509SOL    HW1 5426   4.227   0.723   4.790
 1509SOL    HW2 5427   4.354   0.785   4.709
 1510SOL     OW 5428   2.629   6.843   5.197
 1510SOL    HW1 5429   2.641   6.942   5.194
 1510SOL    HW2 5430   2.638   6.811   5.291
 1511SOL     OW 5431   3.839   4.215   5.161
 1511SOL    HW1 5432   3.836   4.307   5.202
 1511SOL    HW2 5433   3.883   4.152   5.225
 1512SOL     OW 5434   5.291   6.712   1.043
 1512SOL    HW1 5435   5.359   6.700   1.115
 1512SOL    HW2 5436   5.336   6.721   0.954
 1513SOL     OW 5437   3.061   6.255   5.438
 1513SOL    HW1 5438   3.045   6.157   5.444
 1513SOL    HW2 5439   3.159   6.273   5.443
 1514SOL     OW 5440   3.190   1.249   6.940
 1514SOL    HW1 5441   3.286   1.232   6.917
 1514SOL    HW2 5442   3.183   1.278   0.005
 1515SOL     OW 5443   3.715   0.784   1.299
 1515SOL    HW1 5444   3.667   0.842   1.365
 1515SOL    HW2 5445   3.758   0.840   1.229
 1516SOL     OW 5446   0.168   6.611   6.643
 1516SOL    HW1 5447   0.069   6.614   6.633
 1516SOL    HW2 5448   0.197   6.516   6.654
 1517SOL     OW 5449   2.128   6.107   2.656
 1517SOL    HW1 5450   2.085   6.041   2.594
 1517SOL    HW2 5451   2.227   6.107   2.642
 1518SOL     OW 5452   2.471   2.347   6.668
 1518SOL    HW1 5453   2.535   2.349   6.745
 1518SOL    HW2 5454   2.506   2.288   6.596
 1519SOL     OW 5455   0.682   4.423   6.860
 1519SOL    HW1 5456   0.585   4.396   6.867
 1519SOL    HW2 5457   0.693   4.515   6.898
 1520SOL     OW 5458   0.391   0.191   3.079
 1520SOL    HW1 5459   0.357   0.283   3.059
 1520SOL    HW2 5460   0.352   0.159   3.165
 1521SOL     OW 5461   2.585   5.055   6.877
 1521SOL    HW1 5462   2.629   5.078   6.790
 1521SOL    HW2 5463   2.511   4.989   6.860
 1522SOL     OW 5464   6.498   6.064   4.095
 1522SOL    HW1 5465   6.402   6.039   4.084
 1522SOL    HW2 5466   6.520   6.142   4.036
 1523SOL     OW 5467   2.513   6.723   0.508
 1523SOL    HW1 5468   2.587   6.682   0.455
 1523SOL    HW2 5469   2.425   6.686   0.478
 1524SOL     OW 5470   1.841   2.071   4.652
 1524SOL    HW1 5471   1.818   2.156   4.605
 1524SOL    HW2 5472   1.908   2.020   4.598
 1525SOL     OW 5473   6.171   4.061   0.507
 1525SOL    HW1 5474   6.093   4.011   0.468
 1525SOL    HW2 5475   6.170   4.050   0.606
 1526SOL     OW 5476   0.758   1.433   2.244
 1526SOL    HW1 5477   0.737   1.523   2.206
 1526SOL    HW2 5478   0.713   1.362   2.189
 1527SOL     OW 5479   4.912   1.214   4.634
 1527SOL    HW1 5480   4.908   1.204   4.535
 1527SOL    HW2 5481   5.000   1.180   4.667
 1528SOL     OW 5482   2.932   3.174   2.132
 1528SOL    HW1 5483   2.868   3.100   2.154
 1528SOL    HW2 5484   2.895   3.230   2.058
 1529SOL     OW 5485   4.379   0.757   5.709
 1529SOL    HW1 5486   4.374   0.662   5.678
 1529SOL    HW2 5487   4.385   0.760   5.809
 1530SOL     OW 5488   2.609   6.914   2.112
 1530SOL    HW1 5489   2.533   6.935   2.174
 1530SOL    HW2 5490   2.576   6.917   2.017
 1531SOL     OW 5491   5.806   6.372   4.514
 1531SOL    HW1 5492   5.824   6.313   4.593
 1531SOL    HW2 5493   5.872   6.448   4.514
 1532SOL     OW 5494   3.102   5.544   2.269
 1532SOL    HW1 5495   3.108   5.466   2.207
 1532SOL    HW2 5496   3.193   5.580   2.286
 1533SOL     OW 5497   5.730   5.677   1.828
 1533SOL    HW1 5498   5.790   5.756   1.841
 1533SOL    HW2 5499   5.638   5.700   1.860
 1534SOL     OW 5500   2.647   5.253   6.645
 1534SOL    HW1 5501   2.724   5.317   6.634
 1534SOL    HW2 5502   2.573   5.280   6.583
 1535SOL     OW 5503   5.284   5.270   3.443
 1535SOL    HW1 5504   5.200   5.287   3.495
 1535SOL    HW2 5505   5.345   5.212   3.496
 1536SOL     OW 5506   3.824   4.852   6.503
 1536SOL    HW1 5507   3.731   4.887   6.489
 1536SOL    HW2 5508   3.852   4.868   6.597
 1537SOL     OW 5509   2.600   6.167   2.097
 1537SOL    HW1 5510   2.620   6.195   2.191
 1537SOL    HW2 5511   2.573   6.247   2.043
 1538SOL     OW 5512   2.739   1.499   0.540
 1538SOL    HW1 5513   2.816   1.560   0.520
 1538SOL    HW2 5514   2.692   1.475   0.455
 1539SOL     OW 5515   0.109   2.957   0.614
 1539SOL    HW1 5516   0.135   3.023   0.544
 1539SOL    HW2 5517   0.052   3.003   0.683
 1540SOL     OW 5518   3.724   5.764   3.818
 1540SOL    HW1 5519   3.821   5.780   3.800
 1540SOL    HW2 5520   3.680   5.732   3.734
 1541SOL     OW 5521   4.496   2.648   5.525
 1541SOL    HW1 5522   4.434   2.683   5.455
 1541SOL    HW2 5523   4.443   2.609   5.600
 1542SOL     OW 5524   0.818   4.457   2.953
 1542SOL    HW1 5525   0.901   4.434   3.003
 1542SOL    HW2 5526   0.826   4.426   2.858
 1543SOL     OW 5527   4.093   4.915   1.032
 1543SOL    HW1 5528   4.070   4.837   0.973
 1543SOL    HW2 5529   4.137   4.986   0.977
 1544SOL     OW 5530   3.885   2.951   3.461
 1544SOL    HW1 5531   3.798   2.978   3.419
 1544SOL    HW2 5532   3.889   2.851   3.466
 1545SOL     OW 5533   6.321   4.232   0.809
 1545SOL    HW1 5534   6.304   4.134   0.817
 1545SOL    HW2 5535   6.234   4.280   0.800
 1546SOL     OW 5536   6.616   6.305   5.783
 1546SOL    HW1 5537   6.709   6.291   5.750
 1546SOL    HW2 5538   6.568   6.217   5.784
 1547SOL     OW 5539   1.270   2.787   6.726
 1547SOL    HW1 5540   1.177   2.748   6.719
 1547SOL    HW2 5541   1.317   2.746   6.804
 1548SOL     OW 5542   6.710   2.183   0.401
 1548SOL    HW1 5543   6.780   2.220   0.462
 1548SOL    HW2 5544   6.627   2.239   0.408
 1549SOL     OW 5545   4.691   0.225   4.289
 1549SOL    HW1 5546   4.711   0.146   4.348
 1549SOL    HW2 5547   4.719   0.205   4.196
 1550SOL     OW 5548   3.094   4.016   4.567
 1550SOL    HW1 5549   3.066   3.948   4.635
 1550SOL    HW2 5550   3.163   4.077   4.607
 1551SOL     OW 5551   0.121   5.208   5.859
 1551SOL    HW1 5552   0.199   5.235   5.802
 1551SOL    HW2 5553   0.069   5.290   5.884
 1552SOL     OW 5554   2.483   4.050   1.324
 1552SOL    HW1 5555   2.428   3.981   1.372
 1552SOL    HW2 5556   2.473   4.138   1.369
 1553SOL     OW 5557   1.190   2.355   5.751
 1553SOL    HW1 5558   1.256   2.341   5.677
 1553SOL    HW2 5559   1.162   2.267   5.789
 1554SOL     OW 5560   4.261   2.056   3.527
 1554SOL    HW1 5561   4.218   1.966   3.518
 1554SOL    HW2 5562   4.293   2.068   3.622
 1555SOL     OW 5563   6.343   4.526   5.635
 1555SOL    HW1 5564   6.359   4.435   5.597
 1555SOL    HW2 5565   6.380   4.595   5.574
 1556SOL     OW 5566   2.210   1.138   5.480
 1556SOL    HW1 5567   2.203   1.039   5.493
 1556SOL    HW2 5568   2.172   1.162   5.390
 1557SOL     OW 5569   1.108   1.585   6.220
 1557SOL    HW1 5570   1.048   1.514   6.257
 1557SOL    HW2 5571   1.196   1.545   6.195
 1558SOL     OW 5572   6.706   6.919   4.342
 1558SOL    HW1 5573   6.722   6.822   4.324
 1558SOL    HW2 5574   6.634   6.928   4.411
 1559SOL     OW 5575   1.565   1.287   6.155
 1559SOL    HW1 5576   1.661   1.272   6.129
 1559SOL    HW2 5577   1.540   1.220   6.225
 1560SOL     OW 5578   0.221   0.033   1.428
 1560SOL    HW1 5579   0.216   6.976   1.477
 1560SOL    HW2 5580   0.136   0.084   1.442
 1561SOL     OW 5581   5.954   6.478   1.888
 1561SOL    HW1 5582   6.025   6.497   1.820
 1561SOL    HW2 5583   5.911   6.564   1.916
 1562SOL     OW 5584   6.015   6.988   4.201
 1562SOL    HW1 5585   6.028   0.019   4.279
 1562SOL    HW2 5586   6.033   6.894   4.230
 1563SOL     OW 5587   2.378   0.325   6.341
 1563SOL    HW1 5588   2.352   0.229   6.353
 1563SOL    HW2 5589   2.466   0.342   6.385
 1564SOL     OW 5590   1.507   2.309   2.696
 1564SOL    HW1 5591   1.530   2.341   2.788
 1564SOL    HW2 5592   1.524   2.211   2.689
 1565SOL     OW 5593   6.243   4.194   1.768
 1565SOL    HW1 5594   6.226   4.158   1.676
 1565SOL    HW2 5595   6.334   4.235   1.771
 1566SOL     OW 5596   5.742   4.246   2.141
 1566SOL    HW1 5597   5.697   4.273   2.226
 1566SOL    HW2 5598   5.674   4.217   2.074
 1567SOL     OW 5599   6.594   5.202   5.703
 1567SOL    HW1 5600   6.567   5.123   5.758
 1567SOL    HW2 5601   6.575   5.184   5.607
 1568SOL     OW 5602   0.504   6.081   1.265
 1568SOL    HW1 5603   0.592   6.130   1.267
 1568SOL    HW2 5604   0.443   6.126   1.200
 1569SOL     OW 5605   3.821   5.662   4.961
 1569SOL    HW1 5606   3.874   5.616   4.890
 1569SOL    HW2 5607   3.736   5.698   4.922
 1570SOL     OW 5608   2.653   2.393   1.475
 1570SOL    HW1 5609   2.606   2.451   1.409
 1570SOL    HW2 5610   2.693   2.314   1.428
 1571SOL     OW 5611   0.475   3.033   6.323
 1571SOL    HW1 5612   0.514   3.008   6.235
 1571SOL    HW2 5613   0.521   2.981   6.396
 1572SOL     OW 5614   0.554   5.925   4.526
 1572SOL    HW1 5615   0.585   5.831   4.541
 1572SOL    HW2 5616   0.456   5.924   4.504
 1573SOL     OW 5617   4.403   0.699   6.928
 1573SOL    HW1 5618   4.487   0.682   6.876
 1573SOL    HW2 5619   4.408   0.789   6.971
 1574SOL     OW 5620   5.126   3.435   2.189
 1574SOL    HW1 5621   5.205   3.383   2.156
 1574SOL    HW2 5622   5.043   3.382   2.173
 1575SOL     OW 5623   3.305   2.619   0.051
 1575SOL    HW1 5624   3.393   2.610   0.003
 1575SOL    HW2 5625   3.245   2.544   0.024
 1576SOL     OW 5626   5.890   5.347   3.178
 1576SOL    HW1 5627   5.805   5.399   3.187
 1576SOL    HW2 5628   5.930   5.332   3.268
 1577SOL     OW 5629   1.952   0.875   0.712
 1577SOL    HW1 5630   2.019   0.831   0.771
 1577SOL    HW2 5631   1.865   0.882   0.760
 1578SOL     OW 5632   5.616   6.525   4.998
 1578SOL    HW1 5633   5.582   6.457   4.933
 1578SOL    HW2 5634   5.544   6.592   5.017
 1579SOL     OW 5635   6.242   1.626   2.970
 1579SOL    HW1 5636   6.217   1.694   2.900
 1579SOL    HW2 5637   6.341   1.625   2.981
 1580SOL     OW 5638   2.810   3.822   5.887
 1580SOL    HW1 5639   2.889   3.861   5.936
 1580SOL    HW2 5640   2.734   3.811   5.951
 1581SOL     OW 5641   6.171   3.307   4.234
 1581SOL    HW1 5642   6.183   3.210   4.256
 1581SOL    HW2 5643   6.080   3.336   4.264
 1582SOL     OW 5644   6.455   6.271   3.919
 1582SOL    HW1 5645   6.406   6.324   3.987
 1582SOL    HW2 5646   6.503   6.333   3.857
 1583SOL     OW 5647   2.830   3.140   0.949
 1583SOL    HW1 5648   2.853   3.071   1.017
 1583SOL    HW2 5649   2.845   3.231   0.988
 1584SOL     OW 5650   1.686   6.931   6.622
 1584SOL    HW1 5651   1.646   6.902   6.709
 1584SOL    HW2 5652   1.623   6.910   6.547
 1585SOL     OW 5653   5.956   1.164   5.779
 1585SOL    HW1 5654   5.906   1.247   5.804
 1585SOL    HW2 5655   5.928   1.135   5.687
 1586SOL     OW 5656   3.987   3.295   2.999
 1586SOL    HW1 5657   4.030   3.289   2.910
 1586SOL    HW2 5658   4.000   3.209   3.048
 1587SOL     OW 5659   1.796   6.819   5.612
 1587SOL    HW1 5660   1.873   6.824   5.548
 1587SOL    HW2 5661   1.826   6.776   5.697
 1588SOL     OW 5662   0.383   3.621   0.636
 1588SOL    HW1 5663   0.455   3.566   0.593
 1588SOL    HW2 5664   0.420   3.709   0.665
 1589SOL     OW 5665   5.149   5.072   2.408
 1589SOL    HW1 5666   5.180   4.999   2.468
 1589SOL    HW2 5667   5.049   5.071   2.403
 1590SOL     OW 5668   2.466   6.202   4.696
 1590SOL    HW1 5669   2.427   6.241   4.779
 1590SOL    HW2 5670   2.564   6.188   4.709
 1591SOL     OW 5671   2.116   3.726   0.389
 1591SOL    HW1 5672   2.128   3.759   0.296
 1591SOL    HW2 5673   2.067   3.638   0.388
 1592SOL     OW 5674   3.695   3.772   4.320
 1592SOL    HW1 5675   3.708   3.847   4.256
 1592SOL    HW2 5676   3.729   3.687   4.279
 1593SOL     OW 5677   0.832   4.810   3.964
 1593SOL    HW1 5678   0.866   4.740   3.901
 1593SOL    HW2 5679   0.906   4.870   3.991
 1594SOL     OW 5680   0.375   5.214   2.689
 1594SOL    HW1 5681   0.321   5.290   2.726
 1594SOL    HW2 5682   0.427   5.245   2.610
 1595SOL     OW 5683   6.716   3.422   5.229
 1595SOL    HW1 5684   6.676   3.446   5.318
 1595SOL    HW2 5685   6.655   3.454   5.156
 1596SOL     OW 5686   3.408   5.025   6.407
 1596SOL    HW1 5687   3.415   4.952   6.339
 1596SOL    HW2 5688   3.332   5.085   6.383
 1597SOL     OW 5689   2.019   6.605   1.401
 1597SOL    HW1 5690   2.064   6.633   1.316
 1597SOL    HW2 5691   2.011   6.684   1.462
 1598SOL     OW 5692   6.841   5.425   1.874
 1598SOL    HW1 5693   6.769   5.390   1.934
 1598SOL    HW2 5694   6.805   5.498   1.817
 1599SOL     OW 5695   3.336   5.387   0.120
 1599SOL    HW1 5696   3.242   5.378   0.152
 1599SOL    HW2 5697   3.346   5.472   0.069
 1600SOL     OW 5698   3.564   1.548   5.120
 1600SOL    HW1 5699   3.602   1.640   5.127
 1600SOL    HW2 5700   3.602   1.490   5.192
 1601SOL     OW 5701   1.636   5.583   5.063
 1601SOL    HW1 5702   1.567   5.589   4.991
 1601SOL    HW2 5703   1.598   5.535   5.142
 1602SOL     OW 5704   0.378   3.108   1.494
 1602SOL    HW1 5705   0.406   3.013   1.505
 1602SOL    HW2 5706   0.379   3.154   1.583
 1603SOL     OW 5707   5.775   0.225   1.356
 1603SOL    HW1 5708   5.834   0.216   1.436
 1603SOL    HW2 5709   5.822   0.189   1.275
 1604SOL     OW 5710   1.124   5.128   3.340
 1604SOL    HW1 5711   1.088   5.133   3.247
 1604SOL    HW2 5712   1.219   5.160   3.340
 1605SOL     OW 5713   5.142   5.313   1.948
 1605SOL    HW1 5714   5.193   5.308   2.034
 1605SOL    HW2 5715   5.057   5.362   1.964
 1606SOL     OW 5716   6.477   5.097   4.578
 1606SOL    HW1 5717   6.443   5.030   4.512
 1606SOL    HW2 5718   6.403   5.125   4.638
 1607SOL     OW 5719   6.273   3.499   1.472
 1607SOL    HW1 5720   6.186   3.450   1.468
 1607SOL    HW2 5721   6.274   3.570   1.401
 1608SOL     OW 5722   1.780   6.895   1.098
 1608SOL    HW1 5723   1.756   6.892   1.001
 1608SOL    HW2 5724   1.853   6.962   1.112
 1609SOL     OW 5725   6.167   2.339   5.297
 1609SOL    HW1 5726   6.226   2.338   5.378
 1609SOL    HW2 5727   6.085   2.393   5.317
 1610SOL     OW 5728   4.255   0.142   3.470
 1610SOL    HW1 5729   4.215   0.096   3.549
 1610SOL    HW2 5730   4.313   0.217   3.501
 1611SOL     OW 5731   4.479   3.847   1.556
 1611SOL    HW1 5732   4.433   3.780   1.613
 1611SOL    HW2 5733   4.443   3.841   1.463
 1612SOL     OW 5734   3.307   0.158   4.334
 1612SOL    HW1 5735   3.214   0.186   4.311
 1612SOL    HW2 5736   3.324   0.065   4.299
 1613SOL     OW 5737   2.270   0.006   1.147
 1613SOL    HW1 5738   2.307   6.986   1.226
 1613SOL    HW2 5739   2.328   7.019   1.067
 1614SOL     OW 5740   6.412   2.147   5.761
 1614SOL    HW1 5741   6.344   2.154   5.687
 1614SOL    HW2 5742   6.367   2.162   5.849
 1615SOL     OW 5743   6.613   5.610   4.969
 1615SOL    HW1 5744   6.688   5.668   5.000
 1615SOL    HW2 5745   6.551   5.591   5.046
 1616SOL     OW 5746   2.153   2.350   5.153
 1616SOL    HW1 5747   2.076   2.413   5.142
 1616SOL    HW2 5748   2.133   2.265   5.104
 1617SOL     OW 5749   3.130   0.730   2.477
 1617SOL    HW1 5750   3.031   0.726   2.468
 1617SOL    HW2 5751   3.155   0.725   2.574
 1618SOL     OW 5752   5.267   2.809   1.727
 1618SOL    HW1 5753   5.247   2.901   1.695
 1618SOL    HW2 5754   5.182   2.757   1.735
 1619SOL     OW 5755   1.850   3.078   4.505
 1619SOL    HW1 5756   1.753   3.061   4.487
 1619SOL    HW2 5757   1.868   3.176   4.502
 1620SOL     OW 5758   3.569   5.862   1.526
 1620SOL    HW1 5759   3.611   5.855   1.617
 1620SOL    HW2 5760   3.565   5.958   1.499
 1621SOL     OW 5761   2.474   2.642   1.542
 1621SOL    HW1 5762   2.403   2.617   1.608
 1621SOL    HW2 5763   2.473   2.578   1.466
 1622SOL     OW 5764   2.227   2.607   5.446
 1622SOL    HW1 5765   2.269   2.539   5.386
 1622SOL    HW2 5766   2.272   2.695   5.433
 1623SOL     OW 5767   2.294   2.337   4.688
 1623SOL    HW1 5768   2.254   2.318   4.599
 1623SOL    HW2 5769   2.222   2.345   4.756
 1624SOL     OW 5770   2.015   0.896   0.464
 1624SOL    HW1 5771   2.002   0.912   0.561
 1624SOL    HW2 5772   1.937   0.932   0.413
 1625SOL     OW 5773   1.630   0.155   0.973
 1625SOL    HW1 5774   1.565   0.115   1.038
 1625SOL    HW2 5775   1.674   0.235   1.015
 1626SOL     OW 5776   2.359   4.040   5.946
 1626SOL    HW1 5777   2.448   4.084   5.951
 1626SOL    HW2 5778   2.325   4.023   6.038
 1627SOL     OW 5779   4.989   4.408   2.710
 1627SOL    HW1 5780   5.014   4.418   2.807
 1627SOL    HW2 5781   5.062   4.447   2.653
 1628SOL     OW 5782   3.770   3.225   0.170
 1628SOL    HW1 5783   3.812   3.293   0.229
 1628SOL    HW2 5784   3.686   3.262   0.131
 1629SOL     OW 5785   2.158   2.583   3.296
 1629SOL    HW1 5786   2.153   2.591   3.196
 1629SOL    HW2 5787   2.221   2.509   3.320
 1630SOL     OW 5788   5.768   4.393   4.234
 1630SOL    HW1 5789   5.698   4.435   4.291
 1630SOL    HW2 5790   5.730   4.315   4.184
 1631SOL     OW 5791   0.788   0.904   5.648
 1631SOL    HW1 5792   0.870   0.918   5.594
 1631SOL    HW2 5793   0.708   0.935   5.597
 1632SOL     OW 5794   3.468   6.828   6.781
 1632SOL    HW1 5795   3.511   6.821   6.691
 1632SOL    HW2 5796   3.371   6.849   6.770
 1633SOL     OW 5797   6.832   3.876   2.628
 1633SOL    HW1 5798   6.920   3.921   2.639
 1633SOL    HW2 5799   6.805   3.878   2.532
 1634SOL     OW 5800   3.763   0.318   1.197
 1634SOL    HW1 5801   3.856   0.352   1.186
 1634SOL    HW2 5802   3.700   0.395   1.208
 1635SOL     OW 5803   2.388   4.335   3.632
 1635SOL    HW1 5804   2.367   4.273   3.708
 1635SOL    HW2 5805   2.376   4.288   3.545
 1636SOL     OW 5806   2.019   6.845   0.895
 1636SOL    HW1 5807   2.102   6.891   0.927
 1636SOL    HW2 5808   1.944   6.911   0.890
 1637SOL     OW 5809   0.744   3.159   2.080
 1637SOL    HW1 5810   0.758   3.082   2.142
 1637SOL    HW2 5811   0.756   3.245   2.129
 1638SOL     OW 5812   0.311   2.488   5.735
 1638SOL    HW1 5813   0.334   2.425   5.660
 1638SOL    HW2 5814   0.390   2.547   5.753
 1639SOL     OW 5815   3.520   5.236   3.288
 1639SOL    HW1 5816   3.422   5.220   3.304
 1639SOL    HW2 5817   3.570   5.151   3.305
 1640SOL     OW 5818   5.651   6.698   1.016
 1640SOL    HW1 5819   5.672   6.600   1.012
 1640SOL    HW2 5820   5.727   6.747   1.058
 1641SOL     OW 5821   6.508   2.752   4.647
 1641SOL    HW1 5822   6.521   2.702   4.562
 1641SOL    HW2 5823   6.416   2.791   4.649
 1642SOL     OW 5824   0.508   2.620   1.181
 1642SOL    HW1 5825   0.527   2.522   1.179
 1642SOL    HW2 5826   0.585   2.668   1.221
 1643SOL     OW 5827   4.821   0.207   5.406
 1643SOL    HW1 5828   4.847   0.261   5.326
 1643SOL    HW2 5829   4.745   0.147   5.383
 1644SOL     OW 5830   3.711   1.466   0.972
 1644SOL    HW1 5831   3.748   1.374   0.964
 1644SOL    HW2 5832   3.658   1.488   0.890
 1645SOL     OW 5833   2.287   5.762   5.654
 1645SOL    HW1 5834   2.337   5.708   5.586
 1645SOL    HW2 5835   2.221   5.821   5.607
 1646SOL     OW 5836   2.938   3.296   0.526
 1646SOL    HW1 5837   2.896   3.363   0.465
 1646SOL    HW2 5838   2.882   3.287   0.609
 1647SOL     OW 5839   6.280   2.797   1.986
 1647SOL    HW1 5840   6.303   2.803   1.889
 1647SOL    HW2 5841   6.296   2.703   2.018
 1648SOL     OW 5842   2.796   0.579   3.831
 1648SOL    HW1 5843   2.776   0.492   3.786
 1648SOL    HW2 5844   2.739   0.651   3.791
 1649SOL     OW 5845   2.860   0.572   4.436
 1649SOL    HW1 5846   2.946   0.621   4.425
 1649SOL    HW2 5847   2.878   0.480   4.470
 1650SOL     OW 5848   2.740   6.761   4.491
 1650SOL    HW1 5849   2.772   6.771   4.585
 1650SOL    HW2 5850   2.644   6.788   4.485
 1651SOL     OW 5851   1.637   6.811   2.226
 1651SOL    HW1 5852   1.690   6.821   2.310
 1651SOL    HW2 5853   1.541   6.795   2.249
 1652SOL     OW 5854   3.990   3.350   0.801
 1652SOL    HW1 5855   3.920   3.404   0.754
 1652SOL    HW2 5856   3.957   3.326   0.892
 1653SOL     OW 5857   1.400   4.278   0.872
 1653SOL    HW1 5858   1.368   4.203   0.814
 1653SOL    HW2 5859   1.500   4.284   0.867
 1654SOL     OW 5860   0.526   2.250   3.994
 1654SOL    HW1 5861   0.489   2.300   3.915
 1654SOL    HW2 5862   0.547   2.315   4.067
 1655SOL     OW 5863   4.268   4.211   5.316
 1655SOL    HW1 5864   4.213   4.245   5.392
 1655SOL    HW2 5865   4.273   4.281   5.244
 1656SOL     OW 5866   6.807   3.123   2.346
 1656SOL    HW1 5867   6.725   3.069   2.330
 1656SOL    HW2 5868   6.785   3.220   2.334
 1657SOL     OW 5869   0.626   0.537   6.174
 1657SOL    HW1 5870   0.674   0.480   6.107
 1657SOL    HW2 5871   0.574   0.607   6.126
 1658SOL     OW 5872   5.962   6.951   3.264
 1658SOL    HW1 5873   6.028   6.982   3.195
 1658SOL    HW2 5874   5.940   7.026   3.326
 1659SOL     OW 5875   6.250   2.864   6.236
 1659SOL    HW1 5876   6.168   2.920   6.250
 1659SOL    HW2 5877   6.321   2.893   6.300
 1660SOL     OW 5878   2.451   5.725   3.776
 1660SOL    HW1 5879   2.358   5.694   3.755
 1660SOL    HW2 5880   2.504   5.731   3.691
 1661SOL     OW 5881   2.483   1.273   3.572
 1661SOL    HW1 5882   2.400   1.312   3.612
 1661SOL    HW2 5883   2.561   1.332   3.591
 1662SOL     OW 5884   0.410   1.369   3.594
 1662SOL    HW1 5885   0.445   1.320   3.514
 1662SOL    HW2 5886   0.456   1.457   3.601
 1663SOL     OW 5887   0.911   0.449   3.407
 1663SOL    HW1 5888   0.896   0.517   3.335
 1663SOL    HW2 5889   0.948   0.366   3.366
 1664SOL     OW 5890   1.736   6.094   3.905
 1664SOL    HW1 5891   1.740   6.109   4.004
 1664SOL    HW2 5892   1.828   6.083   3.869
 1665SOL     OW 5893   0.112   1.099   3.988
 1665SOL    HW1 5894   0.028   1.115   3.936
 1665SOL    HW2 5895   0.191   1.105   3.928
 1666SOL     OW 5896   6.050   2.044   0.145
 1666SOL    HW1 5897   6.012   2.137   0.148
 1666SOL    HW2 5898   6.125   2.041   0.080
 1667SOL     OW 5899   6.287   0.081   0.836
 1667SOL    HW1 5900   6.354   0.132   0.783
 1667SOL    HW2 5901   6.329   7.027   0.873
 1668SOL     OW 5902   2.457   0.006   4.702
 1668SOL    HW1 5903   2.536   0.049   4.659
 1668SOL    HW2 5904   2.401   0.076   4.747
 1669SOL     OW 5905   5.016   5.441   6.488
 1669SOL    HW1 5906   5.042   5.357   6.535
 1669SOL    HW2 5907   4.920   5.435   6.459
 1670SOL     OW 5908   6.565   3.913   6.609
 1670SOL    HW1 5909   6.568   3.924   6.510
 1670SOL    HW2 5910   6.655   3.929   6.648
 1671SOL     OW 5911   6.210   4.091   1.525
 1671SOL    HW1 5912   6.281   4.078   1.457
 1671SOL    HW2 5913   6.178   4.002   1.558
 1672SOL     OW 5914   2.110   4.452   3.290
 1672SOL    HW1 5915   2.061   4.490   3.368
 1672SOL    HW2 5916   2.069   4.485   3.205
 1673SOL     OW 5917   6.423   3.466   3.316
 1673SOL    HW1 5918   6.474   3.550   3.335
 1673SOL    HW2 5919   6.484   3.387   3.325
 1674SOL     OW 5920   2.272   6.053   0.387
 1674SOL    HW1 5921   2.247   5.958   0.406
 1674SOL    HW2 5922   2.340   6.084   0.453
 1675SOL     OW 5923   4.932   2.308   6.429
 1675SOL    HW1 5924   4.919   2.321   6.331
 1675SOL    HW2 5925   5.030   2.308   6.449
 1676SOL     OW 5926   2.901   1.596   3.267
 1676SOL    HW1 5927   2.868   1.638   3.183
 1676SOL    HW2 5928   2.857   1.639   3.346
 1677SOL     OW 5929   5.405   0.066   5.773
 1677SOL    HW1 5930   5.347   7.018   5.749
 1677SOL    HW2 5931   5.501   0.042   5.757
 1678SOL     OW 5932   4.169   6.618   1.967
 1678SOL    HW1 5933   4.127   6.708   1.960
 1678SOL    HW2 5934   4.128   6.556   1.901
 1679SOL     OW 5935   6.422   4.398   0.204
 1679SOL    HW1 5936   6.484   4.466   0.241
 1679SOL    HW2 5937   6.435   4.311   0.252
 1680SOL     OW 5938   7.020   2.120   5.958
 1680SOL    HW1 5939   0.062   2.145   5.892
 1680SOL    HW2 5940   6.987   2.028   5.937
 1681SOL     OW 5941   4.750   5.024   1.383
 1681SOL    HW1 5942   4.773   5.086   1.309
 1681SOL    HW2 5943   4.784   4.933   1.362
 1682SOL     OW 5944   0.504   3.783   5.881
 1682SOL    HW1 5945   0.571   3.714   5.909
 1682SOL    HW2 5946   0.542   3.874   5.894
 1683SOL     OW 5947   6.071   5.510   5.354
 1683SOL    HW1 5948   6.013   5.511   5.435
 1683SOL    HW2 5949   6.161   5.472   5.377
 1684SOL     OW 5950   0.630   6.977   4.534
 1684SOL    HW1 5951   0.630   0.027   4.474
 1684SOL    HW2 5952   0.724   6.958   4.563
 1685SOL     OW 5953   1.318   2.177   7.021
 1685SOL    HW1 5954   1.388   2.244   6.995
 1685SOL    HW2 5955   1.229   2.223   7.027
 1686SOL     OW 5956   1.378   0.573   6.160
 1686SOL    HW1 5957   1.279   0.566   6.150
 1686SOL    HW2 5958   1.402   0.584   6.256
 1687SOL     OW 5959   2.764   0.077   2.671
 1687SOL    HW1 5960   2.792   7.011   2.680
 1687SOL    HW2 5961   2.727   0.109   2.759
 1688SOL     OW 5962   0.175   1.603   2.771
 1688SOL    HW1 5963   0.197   1.684   2.716
 1688SOL    HW2 5964   0.094   1.622   2.827
 1689SOL     OW 5965   2.293   2.180   1.418
 1689SOL    HW1 5966   2.305   2.257   1.356
 1689SOL    HW2 5967   2.196   2.160   1.428
 1690SOL     OW 5968   1.283   1.852   6.986
 1690SOL    HW1 5969   1.310   1.778   0.017
 1690SOL    HW2 5970   1.320   1.939   7.020
 1691SOL     OW 5971   4.526   4.456   3.646
 1691SOL    HW1 5972   4.477   4.527   3.697
 1691SOL    HW2 5973   4.590   4.409   3.708
 1692SOL     OW 5974   0.578   6.051   3.953
 1692SOL    HW1 5975   0.587   6.139   3.906
 1692SOL    HW2 5976   0.483   6.022   3.953
 1693SOL     OW 5977   3.955   2.232   4.128
 1693SOL    HW1 5978   3.884   2.215   4.059
 1693SOL    HW2 5979   4.044   2.240   4.082
 1694SOL     OW 5980   6.279   6.280   5.291
 1694SOL    HW1 5981   6.251   6.363   5.341
 1694SOL    HW2 5982   6.209   6.257   5.224
 1695SOL     OW 5983   3.694   1.350   6.390
 1695SOL    HW1 5984   3.690   1.250   6.396
 1695SOL    HW2 5985   3.604   1.388   6.409
 1696SOL     OW 5986   3.468   5.699   2.067
 1696SOL    HW1 5987   3.507   5.632   2.005
 1696SOL    HW2 5988   3.451   5.657   2.156
 1697SOL     OW 5989   1.701   1.697   1.787
 1697SOL    HW1 5990   1.672   1.746   1.868
 1697SOL    HW2 5991   1.796   1.666   1.798
 1698SOL     OW 5992   5.187   1.487   6.644
 1698SOL    HW1 5993   5.129   1.406   6.638
 1698SOL    HW2 5994   5.241   1.483   6.729
 1699SOL     OW 5995   2.567   5.146   1.575
 1699SOL    HW1 5996   2.587   5.193   1.661
 1699SOL    HW2 5997   2.476   5.105   1.579
 1700SOL     OW 5998   5.824   3.220   4.836
 1700SOL    HW1 5999   5.823   3.157   4.759
 1700SOL    HW2 6000   5.812   3.169   4.921
 1701SOL     OW 6001   5.603   3.172   4.514
 1701SOL    HW1 6002   5.612   3.088   4.567
 1701SOL    HW2 6003   5.648   3.160   4.425
 1702SOL     OW 6004   5.400   2.479   1.605
 1702SOL    HW1 6005   5.468   2.408   1.588
 1702SOL    HW2 6006   5.402   2.506   1.701
 1703SOL     OW 6007   2.265   3.967   1.522
 1703SOL    HW1 6008   2.299   3.962   1.616
 1703SOL    HW2 6009   2.208   4.048   1.511
 1704SOL     OW 6010   6.312   1.922   2.034
 1704SOL    HW1 6011   6.282   1.950   1.943
 1704SOL    HW2 6012   6.316   1.822   2.039
 1705SOL     OW 6013   3.620   2.913   1.862
 1705SOL    HW1 6014   3.520   2.914   1.868
 1705SOL    HW2 6015   3.658   2.892   1.952
 1706SOL     OW 6016   2.766   0.645   6.222
 1706SOL    HW1 6017   2.803   0.571   6.278
 1706SOL    HW2 6018   2.742   0.723   6.280
 1707SOL     OW 6019   4.892   1.364   2.403
 1707SOL    HW1 6020   4.853   1.451   2.434
 1707SOL    HW2 6021   4.982   1.381   2.362
 1708SOL     OW 6022   0.475   3.925   0.793
 1708SOL    HW1 6023   0.544   3.884   0.852
 1708SOL    HW2 6024   0.405   3.969   0.849
 1709SOL     OW 6025   3.199   5.038   4.030
 1709SOL    HW1 6026   3.190   5.121   4.085
 1709SOL    HW2 6027   3.134   4.969   4.063
 1710SOL     OW 6028   6.627   4.010   4.951
 1710SOL    HW1 6029   6.535   4.023   4.913
 1710SOL    HW2 6030   6.681   4.093   4.938
 1711SOL     OW 6031   0.780   4.457   6.108
 1711SOL    HW1 6032   0.822   4.382   6.161
 1711SOL    HW2 6033   0.710   4.501   6.164
 1712SOL     OW 6034   1.726   4.272   1.994
 1712SOL    HW1 6035   1.815   4.288   1.951
 1712SOL    HW2 6036   1.715   4.174   2.010
 1713SOL     OW 6037   2.245   3.476   0.968
 1713SOL    HW1 6038   2.177   3.485   0.895
 1713SOL    HW2 6039   2.253   3.562   1.018
 1714SOL     OW 6040   4.462   0.640   0.577
 1714SOL    HW1 6041   4.374   0.683   0.597
 1714SOL    HW2 6042   4.492   0.587   0.656
 1715SOL     OW 6043   1.883   3.748   3.473
 1715SOL    HW1 6044   1.945   3.750   3.551
 1715SOL    HW2 6045   1.883   3.837   3.427
 1716SOL     OW 6046   0.191   6.896   0.567
 1716SOL    HW1 6047   0.184   6.830   0.492
 1716SOL    HW2 6048   0.197   6.988   0.530
 1717SOL     OW 6049   3.122   1.096   0.464
 1717SOL    HW1 6050   3.215   1.086   0.429
 1717SOL    HW2 6051   3.104   1.192   0.485
 1718SOL     OW 6052   1.541   3.995   5.535
 1718SOL    HW1 6053   1.501   3.936   5.466
 1718SOL    HW2 6054   1.634   4.020   5.509
 1719SOL     OW 6055   2.611   2.464   0.475
 1719SOL    HW1 6056   2.651   2.468   0.383
 1719SOL    HW2 6057   2.685   2.469   0.543
 1720SOL     OW 6058   6.854   1.884   2.144
 1720SOL    HW1 6059   6.869   1.789   2.117
 1720SOL    HW2 6060   6.804   1.932   2.071
 1721SOL     OW 6061   0.775   5.862   4.314
 1721SOL    HW1 6062   0.733   5.843   4.225
 1721SOL    HW2 6063   0.707   5.851   4.386
 1722SOL     OW 6064   4.549   0.476   1.826
 1722SOL    HW1 6065   4.612   0.422   1.771
 1722SOL    HW2 6066   4.561   0.454   1.923
 1723SOL     OW 6067   5.701   1.050   3.402
 1723SOL    HW1 6068   5.625   1.098   3.446
 1723SOL    HW2 6069   5.786   1.073   3.449
 1724SOL     OW 6070   5.504   6.819   0.042
 1724SOL    HW1 6071   5.444   6.748   0.007
 1724SOL    HW2 6072   5.584   6.777   0.085
 1725SOL     OW 6073   4.499   5.556   2.465
 1725SOL    HW1 6074   4.496   5.589   2.559
 1725SOL    HW2 6075   4.492   5.633   2.402
 1726SOL     OW 6076   6.003   4.489   5.369
 1726SOL    HW1 6077   6.080   4.452   5.317
 1726SOL    HW2 6078   6.034   4.516   5.460
 1727SOL     OW 6079   2.597   4.711   5.893
 1727SOL    HW1 6080   2.569   4.755   5.808
 1727SOL    HW2 6081   2.554   4.622   5.901
 1728SOL     OW 6082   4.870   6.189   3.732
 1728SOL    HW1 6083   4.897   6.218   3.823
 1728SOL    HW2 6084   4.776   6.217   3.714
 1729SOL     OW 6085   6.687   3.252   3.687
 1729SOL    HW1 6086   6.700   3.321   3.616
 1729SOL    HW2 6087   6.680   3.297   3.776
 1730SOL     OW 6088   4.677   2.485   5.008
 1730SOL    HW1 6089   4.724   2.492   5.096
 1730SOL    HW2 6090   4.628   2.398   5.004
 1731SOL     OW 6091   0.805   6.897   6.227
 1731SOL    HW1 6092   0.714   6.861   6.206
 1731SOL    HW2 6093   0.845   6.844   6.302
 1732SOL     OW 6094   1.514   4.307   6.754
 1732SOL    HW1 6095   1.575   4.241   6.710
 1732SOL    HW2 6096   1.498   4.383   6.692
 1733SOL     OW 6097   1.891   4.124   6.397
 1733SOL    HW1 6098   1.978   4.082   6.424
 1733SOL    HW2 6099   1.857   4.080   6.315
 1734SOL     OW 6100   5.173   4.022   0.706
 1734SOL    HW1 6101   5.235   3.948   0.731
 1734SOL    HW2 6102   5.137   4.006   0.614
 1735SOL     OW 6103   5.012   4.875   0.031
 1735SOL    HW1 6104   4.996   4.777   0.024
 1735SOL    HW2 6105   5.083   4.903   6.996
 1736SOL     OW 6106   3.909   3.419   0.337
 1736SOL    HW1 6107   3.871   3.460   0.420
 1736SOL    HW2 6108   3.976   3.349   0.362
 1737SOL     OW 6109   1.029   6.597   2.949
 1737SOL    HW1 6110   0.993   6.570   3.038
 1737SOL    HW2 6111   0.995   6.689   2.926
 1738SOL     OW 6112   0.315   1.598   2.395
 1738SOL    HW1 6113   0.310   1.498   2.392
 1738SOL    HW2 6114   0.411   1.626   2.395
 1739SOL     OW 6115   3.885   1.546   6.994
 1739SOL    HW1 6116   3.930   1.535   6.905
 1739SOL    HW2 6117   3.892   1.641   7.023
 1740SOL     OW 6118   0.921   1.806   6.916
 1740SOL    HW1 6119   0.935   1.819   7.014
 1740SOL    HW2 6120   0.998   1.755   6.878
 1741SOL     OW 6121   0.815   0.567   2.372
 1741SOL    HW1 6122   0.764   0.511   2.436
 1741SOL    HW2 6123   0.755   0.598   2.299
 1742SOL     OW 6124   5.980   6.025   3.410
 1742SOL    HW1 6125   5.882   6.034   3.388
 1742SOL    HW2 6126   6.033   6.084   3.349
 1743SOL     OW 6127   4.426   1.504   6.636
 1743SOL    HW1 6128   4.342   1.487   6.585
 1743SOL    HW2 6129   4.482   1.570   6.587
 1744SOL     OW 6130   4.270   6.523   1.585
 1744SOL    HW1 6131   4.363   6.490   1.599
 1744SOL    HW2 6132   4.248   6.517   1.487
 1745SOL     OW 6133   0.372   1.959   5.134
 1745SOL    HW1 6134   0.381   1.863   5.107
 1745SOL    HW2 6135   0.394   2.017   5.056
 1746SOL     OW 6136   2.909   1.709   0.496
 1746SOL    HW1 6137   3.002   1.737   0.521
 1746SOL    HW2 6138   2.884   1.753   0.410
 1747SOL     OW 6139   4.202   0.204   4.607
 1747SOL    HW1 6140   4.187   0.159   4.519
 1747SOL    HW2 6141   4.299   0.199   4.631
 1748SOL     OW 6142   5.228   0.885   1.319
 1748SOL    HW1 6143   5.312   0.852   1.364
 1748SOL    HW2 6144   5.172   0.806   1.292
 1749SOL     OW 6145   5.259   0.034   6.027
 1749SOL    HW1 6146   5.164   0.028   5.997
 1749SOL    HW2 6147   5.317   0.059   5.949
 1750SOL     OW 6148   3.692   1.374   2.969
 1750SOL    HW1 6149   3.752   1.316   3.023
 1750SOL    HW2 6150   3.671   1.329   2.882
 1751SOL     OW 6151   2.732   5.763   4.650
 1751SOL    HW1 6152   2.693   5.845   4.608
 1751SOL    HW2 6153   2.662   5.692   4.654
 1752SOL     OW 6154   0.006   2.724   6.256
 1752SOL    HW1 6155   7.028   2.628   6.283
 1752SOL    HW2 6156   7.012   2.733   6.159
 1753SOL     OW 6157   1.604   0.108   2.173
 1753SOL    HW1 6158   1.687   0.062   2.205
 1753SOL    HW2 6159   1.558   0.050   2.105
 1754SOL     OW 6160   2.913   3.668   3.327
 1754SOL    HW1 6161   2.982   3.698   3.262
 1754SOL    HW2 6162   2.893   3.571   3.311
 1755SOL     OW 6163   0.364   4.015   6.692
 1755SOL    HW1 6164   0.287   3.965   6.731
 1755SOL    HW2 6165   0.450   3.981   6.732
 1756SOL     OW 6166   5.550   5.487   5.971
 1756SOL    HW1 6167   5.548   5.487   5.871
 1756SOL    HW2 6168   5.494   5.410   6.004
 1757SOL     OW 6169   4.053   0.396   4.762
 1757SOL    HW1 6170   3.961   0.417   4.731
 1757SOL    HW2 6171   4.100   0.341   4.692
 1758SOL     OW 6172   2.357   0.727   2.981
 1758SOL    HW1 6173   2.274   0.684   3.016
 1758SOL    HW2 6174   2.411   0.660   2.930
 1759SOL     OW 6175   6.465   5.576   6.016
 1759SOL    HW1 6176   6.440   5.668   6.048
 1759SOL    HW2 6177   6.397   5.544   5.950
 1760SOL     OW 6178   4.650   6.483   3.487
 1760SOL    HW1 6179   4.652   6.430   3.572
 1760SOL    HW2 6180   4.700   6.568   3.500
 1761SOL     OW 6181   6.497   3.105   0.846
 1761SOL    HW1 6182   6.474   3.055   0.763
 1761SOL    HW2 6183   6.413   3.136   0.890
 1762SOL     OW 6184   5.912   2.400   0.125
 1762SOL    HW1 6185   5.931   2.354   0.038
 1762SOL    HW2 6186   5.993   2.451   0.154
 1763SOL     OW 6187   2.066   2.110   4.247
 1763SOL    HW1 6188   2.124   2.083   4.170
 1763SOL    HW2 6189   1.979   2.146   4.212
 1764SOL     OW 6190   6.828   4.566   3.486
 1764SOL    HW1 6191   6.812   4.539   3.391
 1764SOL    HW2 6192   6.914   4.525   3.518
 1765SOL     OW 6193   2.569   2.700   6.553
 1765SOL    HW1 6194   2.546   2.604   6.540
 1765SOL    HW2 6195   2.643   2.725   6.490
 1766SOL     OW 6196   6.076   4.393   5.882
 1766SOL    HW1 6197   6.093   4.403   5.980
 1766SOL    HW2 6198   6.154   4.350   5.838
 1767SOL     OW 6199   0.038   4.277   1.355
 1767SOL    HW1 6200   0.125   4.296   1.400
 1767SOL    HW2 6201   6.999   4.342   1.385
 1768SOL     OW 6202   6.323   0.054   3.338
 1768SOL    HW1 6203   6.303   0.090   3.430
 1768SOL    HW2 6204   6.416   0.080   3.313
 1769SOL     OW 6205   4.539   0.660   4.184
 1769SOL    HW1 6206   4.449   0.633   4.220
 1769SOL    HW2 6207   4.605   0.661   4.259
 1770SOL     OW 6208   3.426   5.462   6.057
 1770SOL    HW1 6209   3.424   5.562   6.061
 1770SOL    HW2 6210   3.521   5.431   6.070
 1771SOL     OW 6211   5.188   5.233   6.934
 1771SOL    HW1 6212   5.192   5.299   6.859
 1771SOL    HW2 6213   5.149   5.278   7.015
 1772SOL     OW 6214   2.179   6.032   2.375
 1772SOL    HW1 6215   2.206   6.117   2.330
 1772SOL    HW2 6216   2.197   5.955   2.314
 1773SOL     OW 6217   1.759   6.431   0.285
 1773SOL    HW1 6218   1.694   6.382   0.344
 1773SOL    HW2 6219   1.710   6.492   0.224
 1774SOL     OW 6220   2.682   5.814   1.113
 1774SOL    HW1 6221   2.655   5.801   1.208
 1774SOL    HW2 6222   2.601   5.818   1.055
 1775SOL     OW 6223   0.480   5.521   0.114
 1775SOL    HW1 6224   0.392   5.518   0.161
 1775SOL    HW2 6225   0.552   5.489   0.175
 1776SOL     OW 6226   3.215   6.461   5.193
 1776SOL    HW1 6227   3.215   6.481   5.095
 1776SOL    HW2 6228   3.121   6.444   5.223
 1777SOL     OW 6229   4.577   6.812   6.641
 1777SOL    HW1 6230   4.655   6.863   6.604
 1777SOL    HW2 6231   4.611   6.744   6.706
 1778SOL     OW 6232   0.943   3.570   6.071
 1778SOL    HW1 6233   0.979   3.598   5.982
 1778SOL    HW2 6234   0.961   3.472   6.085
 1779SOL     OW 6235   4.323   5.863   4.824
 1779SOL    HW1 6236   4.359   5.780   4.867
 1779SOL    HW2 6237   4.293   5.927   4.896
 1780SOL     OW 6238   3.923   2.137   6.455
 1780SOL    HW1 6239   3.865   2.161   6.533
 1780SOL    HW2 6240   3.954   2.043   6.464
 1781SOL     OW 6241   1.948   6.451   3.701
 1781SOL    HW1 6242   1.946   6.415   3.608
 1781SOL    HW2 6243   1.939   6.550   3.698
 1782SOL     OW 6244   3.211   1.122   5.277
 1782SOL    HW1 6245   3.187   1.095   5.184
 1782SOL    HW2 6246   3.269   1.203   5.274
 1783SOL     OW 6247   1.910   5.551   6.970
 1783SOL    HW1 6248   1.826   5.548   7.023
 1783SOL    HW2 6249   1.890   5.585   6.878
 1784SOL     OW 6250   1.353   6.768   6.175
 1784SOL    HW1 6251   1.383   6.804   6.264
 1784SOL    HW2 6252   1.263   6.804   6.154
 1785SOL     OW 6253   6.877   4.921   2.607
 1785SOL    HW1 6254   6.942   4.853   2.641
 1785SOL    HW2 6255   6.873   4.998   2.671
 1786SOL     OW 6256   4.316   2.495   1.775
 1786SOL    HW1 6257   4.391   2.454   1.722
 1786SOL    HW2 6258   4.300   2.439   1.856
 1787SOL     OW 6259   4.647   0.122   4.924
 1787SOL    HW1 6260   4.745   0.117   4.945
 1787SOL    HW2 6261   4.620   0.217   4.912
 1788SOL     OW 6262   1.604   4.935   5.184
 1788SOL    HW1 6263   1.522   4.898   5.140
 1788SOL    HW2 6264   1.594   5.034   5.193
 1789SOL     OW 6265   5.241   5.992   1.106
 1789SOL    HW1 6266   5.293   6.044   1.038
 1789SOL    HW2 6267   5.214   5.904   1.068
 1790SOL     OW 6268   2.202   6.849   3.220
 1790SOL    HW1 6269   2.170   6.755   3.209
 1790SOL    HW2 6270   2.180   6.881   3.312
 1791SOL     OW 6271   1.084   6.996   3.016
 1791SOL    HW1 6272   1.044   0.054   2.991
 1791SOL    HW2 6273   1.172   6.985   2.970
 1792SOL     OW 6274   0.317   4.131   4.018
 1792SOL    HW1 6275   0.397   4.171   4.061
 1792SOL    HW2 6276   0.275   4.198   3.956
 1793SOL     OW 6277   6.984   0.891   4.061
 1793SOL    HW1 6278   0.020   0.962   4.036
 1793SOL    HW2 6279   7.028   0.827   4.125
 1794SOL     OW 6280   4.432   6.341   6.489
 1794SOL    HW1 6281   4.399   6.434   6.474
 1794SOL    HW2 6282   4.457   6.300   6.401
 1795SOL     OW 6283   0.862   3.022   6.804
 1795SOL    HW1 6284   0.929   2.950   6.787
 1795SOL    HW2 6285   0.906   3.098   6.852
 1796SOL     OW 6286   4.654   0.369   5.193
 1796SOL    HW1 6287   4.582   0.380   5.125
 1796SOL    HW2 6288   4.641   0.282   5.241
 1797SOL     OW 6289   0.408   0.610   2.373
 1797SOL    HW1 6290   0.433   0.703   2.398
 1797SOL    HW2 6291   0.393   0.556   2.456
 1798SOL     OW 6292   5.824   2.024   3.048
 1798SOL    HW1 6293   5.863   1.940   3.012
 1798SOL    HW2 6294   5.758   2.003   3.120
 1799SOL     OW 6295   2.920   6.688   1.095
 1799SOL    HW1 6296   2.873   6.677   1.007
 1799SOL    HW2 6297   2.866   6.748   1.154
 1800SOL     OW 6298   2.880   4.764   2.229
 1800SOL    HW1 6299   2.971   4.804   2.229
 1800SOL    HW2 6300   2.865   4.713   2.145
 1801SOL     OW 6301   5.579   6.334   0.637
 1801SOL    HW1 6302   5.623   6.263   0.692
 1801SOL    HW2 6303   5.512   6.383   0.694
 1802SOL     OW 6304   5.869   5.355   4.330
 1802SOL    HW1 6305   5.862   5.259   4.304
 1802SOL    HW2 6306   5.807   5.409   4.273
 1803SOL     OW 6307   6.140   4.809   0.561
 1803SOL    HW1 6308   6.055   4.761   0.538
 1803SOL    HW2 6309   6.190   4.830   0.477
 1804SOL     OW 6310   2.873   4.115   6.231
 1804SOL    HW1 6311   2.806   4.189   6.231
 1804SOL    HW2 6312   2.835   4.036   6.280
 1805SOL     OW 6313   6.818   2.491   0.099
 1805SOL    HW1 6314   6.862   2.555   0.162
 1805SOL    HW2 6315   6.878   2.474   0.021
 1806SOL     OW 6316   6.736   6.406   0.648
 1806SOL    HW1 6317   6.699   6.313   0.657
 1806SOL    HW2 6318   6.674   6.462   0.594
 1807SOL     OW 6319   6.709   1.471   5.863
 1807SOL    HW1 6320   6.659   1.547   5.822
 1807SOL    HW2 6321   6.779   1.506   5.924
 1808SOL     OW 6322   2.348   4.957   4.415
 1808SOL    HW1 6323   2.335   5.051   4.444
 1808SOL    HW2 6324   2.362   4.898   4.494
 1809SOL     OW 6325   4.065   0.068   6.104
 1809SOL    HW1 6326   4.165   0.066   6.092
 1809SOL    HW2 6327   4.020   0.041   6.020
 1810SOL     OW 6328   3.771   6.314   4.095
 1810SOL    HW1 6329   3.677   6.289   4.119
 1810SOL    HW2 6330   3.791   6.406   4.130
 1811SOL     OW 6331   4.634   5.255   3.017
 1811SOL    HW1 6332   4.599   5.319   3.086
 1811SOL    HW2 6333   4.568   5.181   3.005
 1812SOL     OW 6334   4.655   4.698   5.097
 1812SOL    HW1 6335   4.745   4.662   5.072
 1812SOL    HW2 6336   4.624   4.761   5.026
 1813SOL     OW 6337   0.540   6.717   4.925
 1813SOL    HW1 6338   0.506   6.811   4.912
 1813SOL    HW2 6339   0.587   6.711   5.013
 1814SOL     OW 6340   4.059   6.621   2.549
 1814SOL    HW1 6341   4.107   6.697   2.592
 1814SOL    HW2 6342   4.095   6.608   2.456
 1815SOL     OW 6343   0.368   1.201   2.926
 1815SOL    HW1 6344   0.283   1.240   2.961
 1815SOL    HW2 6345   0.426   1.274   2.890
 1816SOL     OW 6346   1.424   5.279   0.619
 1816SOL    HW1 6347   1.368   5.196   0.614
 1816SOL    HW2 6348   1.452   5.305   0.527
 1817SOL     OW 6349   1.262   4.136   1.800
 1817SOL    HW1 6350   1.274   4.047   1.756
 1817SOL    HW2 6351   1.337   4.197   1.772
 1818SOL     OW 6352   0.331   2.145   3.238
 1818SOL    HW1 6353   0.346   2.120   3.142
 1818SOL    HW2 6354   0.292   2.237   3.242
 1819SOL     OW 6355   1.533   4.187   2.391
 1819SOL    HW1 6356   1.601   4.114   2.398
 1819SOL    HW2 6357   1.531   4.223   2.298
 1820SOL     OW 6358   5.760   6.665   2.263
 1820SOL    HW1 6359   5.726   6.755   2.289
 1820SOL    HW2 6360   5.820   6.629   2.335
 1821SOL     OW 6361   1.325   2.174   3.363
 1821SOL    HW1 6362   1.247   2.204   3.308
 1821SOL    HW2 6363   1.326   2.074   3.368
 1822SOL     OW 6364   3.392   3.334   2.328
 1822SOL    HW1 6365   3.298   3.365   2.342
 1822SOL    HW2 6366   3.443   3.404   2.278
 1823SOL     OW 6367   3.569   6.618   2.486
 1823SOL    HW1 6368   3.588   6.695   2.425
 1823SOL    HW2 6369   3.650   6.597   2.540
 1824SOL     OW 6370   4.836   1.323   1.972
 1824SOL    HW1 6371   4.935   1.339   1.976
 1824SOL    HW2 6372   4.788   1.398   2.017
 1825SOL     OW 6373   0.513   0.043   1.503
 1825SOL    HW1 6374   0.424   0.085   1.485
 1825SOL    HW2 6375   0.543   7.023   1.422
 1826SOL     OW 6376   2.499   5.239   6.119
 1826SOL    HW1 6377   2.437   5.197   6.052
 1826SOL    HW2 6378   2.538   5.323   6.081
 1827SOL     OW 6379   5.462   0.430   0.705
 1827SOL    HW1 6380   5.393   0.369   0.744
 1827SOL    HW2 6381   5.493   0.494   0.776
 1828SOL     OW 6382   3.103   2.869   0.103
 1828SOL    HW1 6383   3.118   2.906   0.194
 1828SOL    HW2 6384   3.169   2.796   0.086
 1829SOL     OW 6385   5.356   5.488   2.642
 1829SOL    HW1 6386   5.351   5.563   2.576
 1829SOL    HW2 6387   5.330   5.522   2.732
 1830SOL     OW 6388   4.547   0.624   4.475
 1830SOL    HW1 6389   4.526   0.719   4.501
 1830SOL    HW2 6390   4.476   0.564   4.511
 1831SOL     OW 6391   4.665   0.875   3.230
 1831SOL    HW1 6392   4.742   0.824   3.191
 1831SOL    HW2 6393   4.623   0.931   3.158
 1832SOL     OW 6394   6.361   2.815   6.629
 1832SOL    HW1 6395   6.264   2.807   6.606
 1832SOL    HW2 6396   6.416   2.764   6.563
 1833SOL     OW 6397   5.942   1.917   5.969
 1833SOL    HW1 6398   5.959   1.989   5.902
 1833SOL    HW2 6399   6.024   1.904   6.025
 1834SOL     OW 6400   2.389   4.086   7.023
 1834SOL    HW1 6401   2.327   4.143   6.968
 1834SOL    HW2 6402   2.452   4.038   6.962
 1835SOL     OW 6403   2.245   4.767   0.571
 1835SOL    HW1 6404   2.262   4.695   0.638
 1835SOL    HW2 6405   2.306   4.755   0.493
 1836SOL     OW 6406   0.588   6.602   0.428
 1836SOL    HW1 6407   0.591   6.641   0.520
 1836SOL    HW2 6408   0.496   6.566   0.411
 1837SOL     OW 6409   6.891   3.313   4.304
 1837SOL    HW1 6410   6.940   3.392   4.266
 1837SOL    HW2 6411   6.944   3.230   4.290
 1838SOL     OW 6412   0.975   3.282   4.493
 1838SOL    HW1 6413   0.917   3.234   4.559
 1838SOL    HW2 6414   1.069   3.282   4.526
 1839SOL     OW 6415   1.794   1.249   6.787
 1839SOL    HW1 6416   1.744   1.335   6.789
 1839SOL    HW2 6417   1.882   1.262   6.740
 1840SOL     OW 6418   1.085   5.412   1.182
 1840SOL    HW1 6419   1.116   5.420   1.276
 1840SOL    HW2 6420   1.040   5.498   1.155
 1841SOL     OW 6421   2.059   2.793   4.087
 1841SOL    HW1 6422   2.103   2.850   4.018
 1841SOL    HW2 6423   2.129   2.745   4.140
 1842SOL     OW 6424   1.731   5.455   6.427
 1842SOL    HW1 6425   1.776   5.398   6.359
 1842SOL    HW2 6426   1.801   5.499   6.485
 1843SOL     OW 6427   5.043   2.245   5.496
 1843SOL    HW1 6428   5.054   2.267   5.593
 1843SOL    HW2 6429   4.957   2.284   5.462
 1844SOL     OW 6430   5.681   5.125   3.722
 1844SOL    HW1 6431   5.687   5.210   3.670
 1844SOL    HW2 6432   5.653   5.051   3.661
 1845SOL     OW 6433   5.575   6.466   1.188
 1845SOL    HW1 6434   5.556   6.561   1.213
 1845SOL    HW2 6435   5.532   6.405   1.255
 1846SOL     OW 6436   3.717   1.009   5.705
 1846SOL    HW1 6437   3.640   0.964   5.751
 1846SOL    HW2 6438   3.739   0.960   5.621
 1847SOL     OW 6439   1.257   5.953   6.320
 1847SOL    HW1 6440   1.259   6.048   6.291
 1847SOL    HW2 6441   1.171   5.911   6.292
 1848SOL     OW 6442   2.181   1.709   4.255
 1848SOL    HW1 6443   2.126   1.669   4.329
 1848SOL    HW2 6444   2.225   1.635   4.203
 1849SOL     OW 6445   2.501   1.026   5.503
 1849SOL    HW1 6446   2.488   1.071   5.415
 1849SOL    HW2 6447   2.415   1.025   5.554
 1850SOL     OW 6448   4.786   2.122   1.269
 1850SOL    HW1 6449   4.801   2.207   1.321
 1850SOL    HW2 6450   4.825   2.045   1.319
 1851SOL     OW 6451   6.283   4.484   2.925
 1851SOL    HW1 6452   6.331   4.427   2.859
 1851SOL    HW2 6453   6.341   4.494   3.007
 1852SOL     OW 6454   5.576   1.747   6.097
 1852SOL    HW1 6455   5.568   1.668   6.036
 1852SOL    HW2 6456   5.573   1.715   6.192
 1853SOL     OW 6457   1.528   5.137   0.367
 1853SOL    HW1 6458   1.567   5.190   0.292
 1853SOL    HW2 6459   1.523   5.041   0.341
 1854SOL     OW 6460   2.526   5.229   4.681
 1854SOL    HW1 6461   2.521   5.143   4.732
 1854SOL    HW2 6462   2.481   5.301   4.734
 1855SOL     OW 6463   6.377   4.482   1.892
 1855SOL    HW1 6464   6.425   4.563   1.926
 1855SOL    HW2 6465   6.293   4.509   1.845
 1856SOL     OW 6466   5.126   2.833   0.282
 1856SOL    HW1 6467   5.178   2.860   0.362
 1856SOL    HW2 6468   5.076   2.749   0.301
 1857SOL     OW 6469   5.626   1.531   3.463
 1857SOL    HW1 6470   5.545   1.493   3.419
 1857SOL    HW2 6471   5.623   1.631   3.458
 1858SOL     OW 6472   5.690   3.629   2.178
 1858SOL    HW1 6473   5.696   3.529   2.170
 1858SOL    HW2 6474   5.737   3.658   2.261
 1859SOL     OW 6475   5.749   2.245   4.135
 1859SOL    HW1 6476   5.795   2.186   4.069
 1859SOL    HW2 6477   5.741   2.197   4.223
 1860SOL     OW 6478   3.748   2.102   5.139
 1860SOL    HW1 6479   3.770   2.120   5.044
 1860SOL    HW2 6480   3.655   2.132   5.158
 1861SOL     OW 6481   4.600   0.001   2.010
 1861SOL    HW1 6482   4.534   0.031   2.078
 1861SOL    HW2 6483   4.553   6.974   1.942
 1862SOL     OW 6484   3.101   2.674   1.103
 1862SOL    HW1 6485   3.149   2.758   1.129
 1862SOL    HW2 6486   3.167   2.608   1.067
 1863SOL     OW 6487   2.104   1.671   1.263
 1863SOL    HW1 6488   2.202   1.675   1.247
 1863SOL    HW2 6489   2.080   1.580   1.297
 1864SOL     OW 6490   6.984   6.671   3.327
 1864SOL    HW1 6491   6.966   6.671   3.228
 1864SOL    HW2 6492   0.052   6.668   3.344
 1865SOL     OW 6493   5.986   3.138   6.887
 1865SOL    HW1 6494   5.983   3.041   6.859
 1865SOL    HW2 6495   6.073   3.178   6.859
 1866SOL     OW 6496   6.352   5.707   1.947
 1866SOL    HW1 6497   6.286   5.773   1.912
 1866SOL    HW2 6498   6.307   5.621   1.966
 1867SOL     OW 6499   1.607   3.993   6.672
 1867SOL    HW1 6500   1.681   3.966   6.734
 1867SOL    HW2 6501   1.636   4.073   6.619
 1868SOL     OW 6502   6.374   4.306   5.462
 1868SOL    HW1 6503   6.411   4.213   5.458
 1868SOL    HW2 6504   6.347   4.335   5.370
 1869SOL     OW 6505   5.768   1.154   5.204
 1869SOL    HW1 6506   5.714   1.096   5.264
 1869SOL    HW2 6507   5.797   1.101   5.123
 1870SOL     OW 6508   1.792   3.507   5.172
 1870SOL    HW1 6509   1.770   3.410   5.184
 1870SOL    HW2 6510   1.887   3.516   5.141
 1871SOL     OW 6511   2.240   1.538   0.951
 1871SOL    HW1 6512   2.273   1.505   0.862
 1871SOL    HW2 6513   2.186   1.621   0.937
 1872SOL     OW 6514   1.262   5.253   6.563
 1872SOL    HW1 6515   1.300   5.342   6.537
 1872SOL    HW2 6516   1.201   5.220   6.491
 1873SOL     OW 6517   5.740   6.253   6.304
 1873SOL    HW1 6518   5.771   6.237   6.398
 1873SOL    HW2 6519   5.645   6.284   6.305
 1874SOL     OW 6520   1.004   4.151   3.033
 1874SOL    HW1 6521   1.008   4.144   2.933
 1874SOL    HW2 6522   0.930   4.093   3.067
 1875SOL     OW 6523   0.234   0.386   2.318
 1875SOL    HW1 6524   0.208   0.376   2.222
 1875SOL    HW2 6525   0.271   0.478   2.333
 1876SOL     OW 6526   1.857   6.031   4.194
 1876SOL    HW1 6527   1.922   5.980   4.250
 1876SOL    HW2 6528   1.780   5.971   4.171
 1877SOL     OW 6529   0.037   0.318   4.736
 1877SOL    HW1 6530   7.017   0.400   4.705
 1877SOL    HW2 6531   0.129   0.318   4.697
 1878SOL     OW 6532   6.301   3.253   5.717
 1878SOL    HW1 6533   6.287   3.349   5.690
 1878SOL    HW2 6534   6.396   3.228   5.701
 1879SOL     OW 6535   2.001   5.951   5.283
 1879SOL    HW1 6536   1.931   5.901   5.231
 1879SOL    HW2 6537   2.018   6.039   5.239
 1880SOL     OW 6538   6.608   0.574   4.104
 1880SOL    HW1 6539   6.531   0.519   4.072
 1880SOL    HW2 6540   6.629   0.644   4.035
 1881SOL     OW 6541   0.754   2.383   6.971
 1881SOL    HW1 6542   0.676   2.442   6.951
 1881SOL    HW2 6543   0.830   2.405   6.908
 1882SOL     OW 6544   0.802   6.310   6.993
 1882SOL    HW1 6545   0.877   6.357   0.010
 1882SOL    HW2 6546   0.719   6.317   0.017
 1883SOL     OW 6547   0.332   2.547   4.425
 1883SOL    HW1 6548   0.317   2.457   4.466
 1883SOL    HW2 6549   0.244   2.593   4.414
 1884SOL     OW 6550   6.108   1.549   1.136
 1884SOL    HW1 6551   6.116   1.496   1.220
 1884SOL    HW2 6552   6.105   1.487   1.058
 1885SOL     OW 6553   3.034   1.236   4.728
 1885SOL    HW1 6554   3.078   1.173   4.664
 1885SOL    HW2 6555   2.935   1.228   4.720
 1886SOL     OW 6556   0.623   6.729   3.497
 1886SOL    HW1 6557   0.630   6.661   3.425
 1886SOL    HW2 6558   0.714   6.762   3.521
 1887SOL     OW 6559   2.413   5.285   6.504
 1887SOL    HW1 6560   2.370   5.290   6.414
 1887SOL    HW2 6561   2.356   5.229   6.565
 1888SOL     OW 6562   2.222   0.339   3.423
 1888SOL    HW1 6563   2.225   0.398   3.343
 1888SOL    HW2 6564   2.166   0.258   3.402
 1889SOL     OW 6565   0.451   3.551   2.609
 1889SOL    HW1 6566   0.541   3.562   2.650
 1889SOL    HW2 6567   0.460   3.543   2.510
 1890SOL     OW 6568   1.872   5.576   4.657
 1890SOL    HW1 6569   1.793   5.531   4.699
 1890SOL    HW2 6570   1.846   5.613   4.568
 1891SOL     OW 6571   3.792   3.540   4.243
 1891SOL    HW1 6572   3.737   3.458   4.255
 1891SOL    HW2 6573   3.887   3.514   4.225
 1892SOL     OW 6574   6.998   0.979   2.678
 1892SOL    HW1 6575   0.030   0.987   2.600
 1892SOL    HW2 6576   6.943   0.896   2.668
 1893SOL     OW 6577   3.046   3.422   3.771
 1893SOL    HW1 6578   3.019   3.511   3.809
 1893SOL    HW2 6579   3.107   3.436   3.693
 1894SOL     OW 6580   2.774   2.450   5.712
 1894SOL    HW1 6581   2.720   2.476   5.632
 1894SOL    HW2 6582   2.855   2.508   5.718
 1895SOL     OW 6583   0.977   6.129   1.778
 1895SOL    HW1 6584   0.967   6.070   1.698
 1895SOL    HW2 6585   1.067   6.115   1.819
 1896SOL     OW 6586   6.689   2.469   0.857
 1896SOL    HW1 6587   6.654   2.503   0.770
 1896SOL    HW2 6588   6.618   2.477   0.928
 1897SOL     OW 6589   2.572   4.528   3.073
 1897SOL    HW1 6590   2.514   4.475   3.134
 1897SOL    HW2 6591   2.532   4.619   3.059
 1898SOL     OW 6592   1.979   5.847   1.760
 1898SOL    HW1 6593   1.922   5.916   1.716
 1898SOL    HW2 6594   1.973   5.858   1.859
 1899SOL     OW 6595   0.027   0.799   2.143
 1899SOL    HW1 6596   0.030   0.753   2.232
 1899SOL    HW2 6597   6.987   0.757   2.085
 1900SOL     OW 6598   3.278   6.138   6.410
 1900SOL    HW1 6599   3.186   6.145   6.371
 1900SOL    HW2 6600   3.279   6.067   6.481
 1901SOL     OW 6601   3.941   3.074   2.652
 1901SOL    HW1 6602   3.951   3.046   2.556
 1901SOL    HW2 6603   3.877   3.013   2.698
 1902SOL     OW 6604   1.315   6.944   5.485
 1902SOL    HW1 6605   1.391   6.960   5.547
 1902SOL    HW2 6606   1.348   6.946   5.390
 1903SOL     OW 6607   0.571   2.442   4.185
 1903SOL    HW1 6608   0.500   2.503   4.220
 1903SOL    HW2 6609   0.650   2.444   4.247
 1904SOL     OW 6610   5.720   5.958   2.140
 1904SOL    HW1 6611   5.778   5.880   2.161
 1904SOL    HW2 6612   5.772   6.042   2.151
 1905SOL     OW 6613   0.400   2.701   3.235
 1905SOL    HW1 6614   0.307   2.738   3.224
 1905SOL    HW2 6615   0.459   2.771   3.276
 1906SOL     OW 6616   0.480   6.357   3.561
 1906SOL    HW1 6617   0.481   6.409   3.647
 1906SOL    HW2 6618   0.425   6.274   3.572
 1907SOL     OW 6619   6.738   2.878   0.630
 1907SOL    HW1 6620   6.806   2.933   0.679
 1907SOL    HW2 6621   6.768   2.863   0.536
 1908SOL     OW 6622   4.439   0.573   1.537
 1908SOL    HW1 6623   4.468   0.581   1.633
 1908SOL    HW2 6624   4.352   0.620   1.525
 1909SOL     OW 6625   6.338   5.465   4.756
 1909SOL    HW1 6626   6.296   5.530   4.819
 1909SOL    HW2 6627   6.438   5.476   4.758
 1910SOL     OW 6628   0.302   6.764   4.728
 1910SOL    HW1 6629   0.384   6.713   4.705
 1910SOL    HW2 6630   0.278   6.747   4.824
 1911SOL     OW 6631   5.801   6.106   3.955
 1911SOL    HW1 6632   5.726   6.161   3.917
 1911SOL    HW2 6633   5.851   6.161   4.021
 1912SOL     OW 6634   3.800   4.953   2.328
 1912SOL    HW1 6635   3.818   4.952   2.426
 1912SOL    HW2 6636   3.704   4.976   2.311
 1913SOL     OW 6637   2.830   4.103   6.758
 1913SOL    HW1 6638   2.884   4.187   6.762
 1913SOL    HW2 6639   2.870   4.040   6.691
 1914SOL     OW 6640   4.574   4.809   0.289
 1914SOL    HW1 6641   4.668   4.834   0.309
 1914SOL    HW2 6642   4.528   4.782   0.373
 1915SOL     OW 6643   4.343   1.550   6.903
 1915SOL    HW1 6644   4.364   1.646   6.922
 1915SOL    HW2 6645   4.362   1.530   6.807
 1916SOL     OW 6646   3.575   1.708   3.163
 1916SOL    HW1 6647   3.587   1.611   3.181
 1916SOL    HW2 6648   3.508   1.720   3.090
 1917SOL     OW 6649   2.726   3.935   1.430
 1917SOL    HW1 6650   2.651   3.981   1.383
 1917SOL    HW2 6651   2.693   3.896   1.516
 1918SOL     OW 6652   4.863   3.272   3.942
 1918SOL    HW1 6653   4.844   3.206   3.869
 1918SOL    HW2 6654   4.837   3.234   4.030
 1919SOL     OW 6655   6.455   0.763   6.604
 1919SOL    HW1 6656   6.520   0.794   6.535
 1919SOL    HW2 6657   6.389   0.701   6.563
 1920SOL     OW 6658   4.863   3.381   0.561
 1920SOL    HW1 6659   4.889   3.459   0.618
 1920SOL    HW2 6660   4.772   3.395   0.524
 1921SOL     OW 6661   2.726   1.901   6.888
 1921SOL    HW1 6662   2.801   1.964   6.866
 1921SOL    HW2 6663   2.650   1.916   6.826
 1922SOL     OW 6664   3.671   3.273   4.110
 1922SOL    HW1 6665   3.607   3.196   4.114
 1922SOL    HW2 6666   3.747   3.256   4.173
 1923SOL     OW 6667   3.103   0.160   4.056
 1923SOL    HW1 6668   3.188   0.170   4.004
 1923SOL    HW2 6669   3.025   0.178   3.996
 1924SOL     OW 6670   5.035   1.074   1.228
 1924SOL    HW1 6671   4.960   1.086   1.293
 1924SOL    HW2 6672   5.096   1.003   1.261
 1925SOL     OW 6673   1.192   4.426   0.965
 1925SOL    HW1 6674   1.264   4.366   0.929
 1925SOL    HW2 6675   1.210   4.520   0.937
 1926SOL     OW 6676   2.467   6.609   1.434
 1926SOL    HW1 6677   2.564   6.623   1.455
 1926SOL    HW2 6678   2.448   6.511   1.430
 1927SOL     OW 6679   2.122   4.820   1.404
 1927SOL    HW1 6680   2.222   4.819   1.395
 1927SOL    HW2 6681   2.093   4.905   1.448
 1928SOL     OW 6682   1.471   4.252   2.852
 1928SOL    HW1 6683   1.435   4.257   2.759
 1928SOL    HW2 6684   1.472   4.343   2.893
 1929SOL     OW 6685   3.276   0.504   3.290
 1929SOL    HW1 6686   3.229   0.418   3.272
 1929SOL    HW2 6687   3.212   0.569   3.330
 1930SOL     OW 6688   3.147   3.846   6.934
 1930SOL    HW1 6689   3.091   3.767   6.960
 1930SOL    HW2 6690   3.202   3.875   7.013
 1931SOL     OW 6691   5.588   3.453   3.182
 1931SOL    HW1 6692   5.602   3.354   3.180
 1931SOL    HW2 6693   5.632   3.492   3.263
 1932SOL     OW 6694   4.673   1.117   1.965
 1932SOL    HW1 6695   4.752   1.177   1.984
 1932SOL    HW2 6696   4.606   1.168   1.911
 1933SOL     OW 6697   1.846   1.105   0.988
 1933SOL    HW1 6698   1.808   1.167   1.057
 1933SOL    HW2 6699   1.791   1.110   0.904
 1934SOL     OW 6700   6.224   0.577   0.229
 1934SOL    HW1 6701   6.236   0.479   0.245
 1934SOL    HW2 6702   6.175   0.591   0.142
 1935SOL     OW 6703   5.704   5.534   3.242
 1935SOL    HW1 6704   5.695   5.633   3.231
 1935SOL    HW2 6705   5.617   5.495   3.271
 1936SOL     OW 6706   6.123   2.765   6.539
 1936SOL    HW1 6707   6.028   2.766   6.570
 1936SOL    HW2 6708   6.126   2.766   6.439
 1937SOL     OW 6709   0.922   5.308   6.564
 1937SOL    HW1 6710   0.908   5.401   6.530
 1937SOL    HW2 6711   0.992   5.262   6.509
 1938SOL     OW 6712   6.908   1.166   6.868
 1938SOL    HW1 6713   6.854   1.249   6.859
 1938SOL    HW2 6714   6.986   1.170   6.805
 1939SOL     OW 6715   0.228   0.800   4.275
 1939SOL    HW1 6716   0.229   0.796   4.375
 1939SOL    HW2 6717   0.226   0.707   4.238
 1940SOL     OW 6718   0.761   5.596   2.442
 1940SOL    HW1 6719   0.831   5.613   2.373
 1940SOL    HW2 6720   0.735   5.499   2.441
 1941SOL     OW 6721   6.213   1.093   3.837
 1941SOL    HW1 6722   6.225   1.191   3.857
 1941SOL    HW2 6723   6.276   1.066   3.765
 1942SOL     OW 6724   0.924   6.764   1.711
 1942SOL    HW1 6725   0.844   6.805   1.756
 1942SOL    HW2 6726   0.998   6.755   1.776
 1943SOL     OW 6727   1.017   4.288   3.871
 1943SOL    HW1 6728   1.037   4.328   3.782
 1943SOL    HW2 6729   1.061   4.198   3.878
 1944SOL     OW 6730   0.070   3.736   3.888
 1944SOL    HW1 6731   0.079   3.817   3.830
 1944SOL    HW2 6732   0.004   3.755   3.961
 1945SOL     OW 6733   4.559   1.564   2.298
 1945SOL    HW1 6734   4.469   1.606   2.299
 1945SOL    HW2 6735   4.614   1.601   2.373
 1946SOL     OW 6736   6.033   4.766   6.773
 1946SOL    HW1 6737   6.079   4.694   6.826
 1946SOL    HW2 6738   5.942   4.782   6.811
 1947SOL     OW 6739   5.359   6.264   2.433
 1947SOL    HW1 6740   5.292   6.312   2.376
 1947SOL    HW2 6741   5.446   6.258   2.383
 1948SOL     OW 6742   4.776   2.931   2.947
 1948SOL    HW1 6743   4.733   2.951   3.035
 1948SOL    HW2 6744   4.847   2.999   2.928
 1949SOL     OW 6745   3.052   4.335   6.132
 1949SOL    HW1 6746   3.021   4.247   6.168
 1949SOL    HW2 6747   3.034   4.407   6.199
 1950SOL     OW 6748   3.783   3.075   4.377
 1950SOL    HW1 6749   3.845   3.065   4.454
 1950SOL    HW2 6750   3.689   3.083   4.410
 1951SOL     OW 6751   1.071   5.144   5.983
 1951SOL    HW1 6752   1.096   5.052   5.954
 1951SOL    HW2 6753   0.999   5.139   6.052
 1952SOL     OW 6754   5.608   3.718   6.887
 1952SOL    HW1 6755   5.674   3.734   6.814
 1952SOL    HW2 6756   5.582   3.806   6.928
 1953SOL     OW 6757   6.996   0.937   6.197
 1953SOL    HW1 6758   6.968   0.852   6.242
 1953SOL    HW2 6759   0.053   0.922   6.151
 1954SOL     OW 6760   4.070   6.734   3.350
 1954SOL    HW1 6761   4.096   6.685   3.266
 1954SOL    HW2 6762   4.085   6.832   3.336
 1955SOL     OW 6763   0.223   3.529   3.831
 1955SOL    HW1 6764   0.169   3.606   3.865
 1955SOL    HW2 6765   0.306   3.521   3.886
 1956SOL     OW 6766   4.859   1.082   1.427
 1956SOL    HW1 6767   4.837   1.033   1.512
 1956SOL    HW2 6768   4.774   1.118   1.387
 1957SOL     OW 6769   0.742   3.632   4.778
 1957SOL    HW1 6770   0.712   3.560   4.841
 1957SOL    HW2 6771   0.769   3.713   4.831
 1958SOL     OW 6772   5.548   1.739   0.504
 1958SOL    HW1 6773   5.583   1.719   0.412
 1958SOL    HW2 6774   5.462   1.790   0.497
 1959SOL     OW 6775   1.935   1.431   6.197
 1959SOL    HW1 6776   1.885   1.403   6.116
 1959SOL    HW2 6777   2.014   1.486   6.170
 1960SOL     OW 6778   4.766   4.149   2.097
 1960SOL    HW1 6779   4.681   4.183   2.056
 1960SOL    HW2 6780   4.831   4.126   2.025
 1961SOL     OW 6781   6.598   3.776   4.487
 1961SOL    HW1 6782   6.546   3.701   4.529
 1961SOL    HW2 6783   6.644   3.829   4.558
 1962SOL     OW 6784   0.246   0.223   2.549
 1962SOL    HW1 6785   0.171   0.246   2.611
 1962SOL    HW2 6786   0.236   0.274   2.464
 1963SOL     OW 6787   0.692   1.156   6.725
 1963SOL    HW1 6788   0.634   1.119   6.798
 1963SOL    HW2 6789   0.767   1.208   6.765
 1964SOL     OW 6790   5.727   3.033   0.642
 1964SOL    HW1 6791   5.641   3.066   0.681
 1964SOL    HW2 6792   5.802   3.090   0.675
 1965SOL     OW 6793   5.774   5.075   4.880
 1965SOL    HW1 6794   5.843   5.144   4.858
 1965SOL    HW2 6795   5.697   5.118   4.926
 1966SOL     OW 6796   1.877   4.932   6.882
 1966SOL    HW1 6797   1.850   5.002   6.948
 1966SOL    HW2 6798   1.846   4.843   6.913
 1967SOL     OW 6799   6.303   2.950   3.922
 1967SOL    HW1 6800   6.369   2.896   3.870
 1967SOL    HW2 6801   6.331   2.956   4.017
 1968SOL     OW 6802   2.883   1.551   5.650
 1968SOL    HW1 6803   2.886   1.473   5.587
 1968SOL    HW2 6804   2.795   1.597   5.641
 1969SOL     OW 6805   0.538   6.477   1.824
 1969SOL    HW1 6806   0.606   6.533   1.871
 1969SOL    HW2 6807   0.567   6.381   1.826
 1970SOL     OW 6808   5.240   4.374   2.586
 1970SOL    HW1 6809   5.181   4.322   2.524
 1970SOL    HW2 6810   5.309   4.313   2.626
 1971SOL     OW 6811   1.219   5.557   4.247
 1971SOL    HW1 6812   1.270   5.558   4.161
 1971SOL    HW2 6813   1.144   5.622   4.241
 1972SOL     OW 6814   5.409   2.480   3.598
 1972SOL    HW1 6815   5.325   2.430   3.578
 1972SOL    HW2 6816   5.387   2.564   3.647
 1973SOL     OW 6817   4.594   2.011   6.902
 1973SOL    HW1 6818   4.676   1.990   6.849
 1973SOL    HW2 6819   4.619   2.057   6.987
 1974SOL     OW 6820   2.397   6.091   4.232
 1974SOL    HW1 6821   2.334   6.027   4.188
 1974SOL    HW2 6822   2.358   6.122   4.319
 1975SOL     OW 6823   1.849   2.167   2.536
 1975SOL    HW1 6824   1.877   2.239   2.600
 1975SOL    HW2 6825   1.918   2.159   2.464
 1976SOL     OW 6826   2.593   0.440   4.535
 1976SOL    HW1 6827   2.675   0.497   4.536
 1976SOL    HW2 6828   2.565   0.420   4.629
 1977SOL     OW 6829   1.232   4.374   0.327
 1977SOL    HW1 6830   1.193   4.287   0.296
 1977SOL    HW2 6831   1.330   4.364   0.340
 1978SOL     OW 6832   2.781   0.598   2.317
 1978SOL    HW1 6833   2.754   0.606   2.221
 1978SOL    HW2 6834   2.768   0.503   2.348
 1979SOL     OW 6835   5.448   2.821   0.122
 1979SOL    HW1 6836   5.516   2.865   0.180
 1979SOL    HW2 6837   5.396   2.754   0.175
 1980SOL     OW 6838   4.309   6.752   1.278
 1980SOL    HW1 6839   4.356   6.826   1.327
 1980SOL    HW2 6840   4.377   6.684   1.250
 1981SOL     OW 6841   4.227   2.741   1.664
 1981SOL    HW1 6842   4.307   2.797   1.684
 1981SOL    HW2 6843   4.248   2.645   1.684
 1982SOL     OW 6844   3.243   1.522   6.196
 1982SOL    HW1 6845   3.148   1.535   6.169
 1982SOL    HW2 6846   3.292   1.609   6.186
 1983SOL     OW 6847   0.006   2.014   0.586
 1983SOL    HW1 6848   0.005   1.932   0.529
 1983SOL    HW2 6849   0.010   1.988   0.683
 1984SOL     OW 6850   4.649   3.327   6.137
 1984SOL    HW1 6851   4.652   3.426   6.121
 1984SOL    HW2 6852   4.696   3.306   6.223
 1985SOL     OW 6853   5.158   5.505   5.362
 1985SOL    HW1 6854   5.070   5.500   5.316
 1985SOL    HW2 6855   5.196   5.413   5.371
 1986SOL     OW 6856   3.266   3.283   3.303
 1986SOL    HW1 6857   3.317   3.267   3.219
 1986SOL    HW2 6858   3.210   3.203   3.324
 1987SOL     OW 6859   1.477   2.095   1.836
 1987SOL    HW1 6860   1.521   2.047   1.760
 1987SOL    HW2 6861   1.508   2.057   1.923
 1988SOL     OW 6862   1.169   1.235   2.217
 1988SOL    HW1 6863   1.232   1.216   2.292
 1988SOL    HW2 6864   1.111   1.313   2.241
 1989SOL     OW 6865   3.198   5.134   3.603
 1989SOL    HW1 6866   3.192   5.154   3.506
 1989SOL    HW2 6867   3.261   5.198   3.647
 1990SOL     OW 6868   4.603   0.153   0.681
 1990SOL    HW1 6869   4.568   0.201   0.762
 1990SOL    HW2 6870   4.659   0.075   0.710
 1991SOL     OW 6871   3.054   5.123   2.310
 1991SOL    HW1 6872   3.116   5.185   2.358
 1991SOL    HW2 6873   2.981   5.095   2.372
 1992SOL     OW 6874   0.488   1.073   3.149
 1992SOL    HW1 6875   0.452   1.104   3.062
 1992SOL    HW2 6876   0.412   1.049   3.210
 1993SOL     OW 6877   1.339   0.979   1.059
 1993SOL    HW1 6878   1.417   1.035   1.086
 1993SOL    HW2 6879   1.265   1.038   1.027
 1994SOL     OW 6880   3.030   3.626   1.547
 1994SOL    HW1 6881   2.994   3.719   1.546
 1994SOL    HW2 6882   2.966   3.565   1.499
 1995SOL     OW 6883   6.302   0.797   3.892
 1995SOL    HW1 6884   6.391   0.840   3.885
 1995SOL    HW2 6885   6.244   0.849   3.955
 1996SOL     OW 6886   4.365   0.023   0.919
 1996SOL    HW1 6887   4.283   0.016   0.863
 1996SOL    HW2 6888   4.404   6.961   0.933
 1997SOL     OW 6889   2.855   1.808   3.018
 1997SOL    HW1 6890   2.885   1.877   2.953
 1997SOL    HW2 6891   2.756   1.816   3.032
 1998SOL     OW 6892   2.503   3.388   1.003
 1998SOL    HW1 6893   2.405   3.408   1.000
 1998SOL    HW2 6894   2.551   3.462   1.050
 1999SOL     OW 6895   0.473   7.021   5.542
 1999SOL    HW1 6896   0.529   6.973   5.475
 1999SOL    HW2 6897   0.477   6.973   5.630
 2000SOL     OW 6898   4.053   4.434   6.501
 2000SOL    HW1 6899   4.125   4.368   6.526
 2000SOL    HW2 6900   3.991   4.392   6.435
 2001SOL     OW 6901   1.289   1.482   0.340
 2001SOL    HW1 6902   1.200   1.482   0.387
 2001SOL    HW2 6903   1.360   1.457   0.406
 2002SOL     OW 6904   5.551   4.392   6.712
 2002SOL    HW1 6905   5.554   4.449   6.630
 2002SOL    HW2 6906   5.601   4.437   6.786
 2003SOL     OW 6907   0.044   5.332   1.519
 2003SOL    HW1 6908   0.031   5.429   1.503
 2003SOL    HW2 6909   0.118   5.297   1.460
 2004SOL     OW 6910   3.161   0.719   3.030
 2004SOL    HW1 6911   3.135   0.815   3.020
 2004SOL    HW2 6912   3.250   0.713   3.076
 2005SOL     OW 6913   1.375   6.388   0.037
 2005SOL    HW1 6914   1.440   6.361   6.996
 2005SOL    HW2 6915   1.334   6.306   0.077
 2006SOL     OW 6916   6.184   0.138   1.739
 2006SOL    HW1 6917   6.218   0.205   1.673
 2006SOL    HW2 6918   6.261   0.098   1.788
 2007SOL     OW 6919   5.618   4.822   5.772
 2007SOL    HW1 6920   5.667   4.906   5.794
 2007SOL    HW2 6921   5.542   4.843   5.710
 2008SOL     OW 6922   1.752   2.602   2.772
 2008SOL    HW1 6923   1.688   2.560   2.837
 2008SOL    HW2 6924   1.797   2.680   2.816
 2009SOL     OW 6925   5.863   0.072   3.838
 2009SOL    HW1 6926   5.800   7.024   3.846
 2009SOL    HW2 6927   5.949   0.042   3.798
 2010SOL     OW 6928   6.679   1.030   1.714
 2010SOL    HW1 6929   6.778   1.031   1.731
 2010SOL    HW2 6930   6.662   1.017   1.616
 2011SOL     OW 6931   0.587   0.554   5.471
 2011SOL    HW1 6932   0.620   0.614   5.544
 2011SOL    HW2 6933   0.648   0.475   5.462
 2012SOL     OW 6934   0.601   2.421   0.355
 2012SOL    HW1 6935   0.612   2.495   0.421
 2012SOL    HW2 6936   0.690   2.401   0.313
 2013SOL     OW 6937   0.728   2.563   2.349
 2013SOL    HW1 6938   0.764   2.481   2.304
 2013SOL    HW2 6939   0.644   2.541   2.398
 2014SOL     OW 6940   4.011   2.018   3.031
 2014SOL    HW1 6941   4.092   2.040   3.086
 2014SOL    HW2 6942   4.023   1.929   2.987
 2015SOL     OW 6943   3.631   6.202   1.327
 2015SOL    HW1 6944   3.542   6.173   1.362
 2015SOL    HW2 6945   3.618   6.268   1.254
 2016SOL     OW 6946   2.440   0.808   4.492
 2016SOL    HW1 6947   2.532   0.845   4.478
 2016SOL    HW2 6948   2.382   0.880   4.532
 2017SOL     OW 6949   0.913   6.650   4.503
 2017SOL    HW1 6950   0.886   6.738   4.542
 2017SOL    HW2 6951   0.873   6.640   4.412
 2018SOL     OW 6952   0.407   1.685   5.134
 2018SOL    HW1 6953   0.470   1.625   5.184
 2018SOL    HW2 6954   0.439   1.694   5.039
 2019SOL     OW 6955   0.986   5.116   6.978
 2019SOL    HW1 6956   0.961   5.104   6.882
 2019SOL    HW2 6957   1.026   5.031   7.013
 2020SOL     OW 6958   2.079   6.858   1.472
 2020SOL    HW1 6959   2.090   6.842   1.570
 2020SOL    HW2 6960   2.058   6.954   1.456
 2021SOL     OW 6961   0.316   5.532   3.962
 2021SOL    HW1 6962   0.322   5.436   3.935
 2021SOL    HW2 6963   0.233   5.546   4.016
 2022SOL     OW 6964   2.130   3.375   4.240
 2022SOL    HW1 6965   2.210   3.315   4.236
 2022SOL    HW2 6966   2.047   3.320   4.246
 2023SOL     OW 6967   1.256   5.543   6.082
 2023SOL    HW1 6968   1.215   5.492   6.006
 2023SOL    HW2 6969   1.217   5.634   6.086
 2024SOL     OW 6970   6.407   5.429   3.125
 2024SOL    HW1 6971   6.397   5.349   3.067
 2024SOL    HW2 6972   6.454   5.403   3.210
 2025SOL     OW 6973   1.706   0.514   4.810
 2025SOL    HW1 6974   1.666   0.464   4.887
 2025SOL    HW2 6975   1.806   0.503   4.812
 2026SOL     OW 6976   1.679   6.410   5.595
 2026SOL    HW1 6977   1.685   6.329   5.652
 2026SOL    HW2 6978   1.770   6.450   5.582
 2027SOL     OW 6979   5.614   6.736   3.095
 2027SOL    HW1 6980   5.623   6.638   3.079
 2027SOL    HW2 6981   5.642   6.786   3.013
 2028SOL     OW 6982   2.510   5.872   4.982
 2028SOL    HW1 6983   2.418   5.838   4.960
 2028SOL    HW2 6984   2.509   5.972   4.985
 2029SOL     OW 6985   0.024   1.713   6.782
 2029SOL    HW1 6986   6.956   1.729   6.797
 2029SOL    HW2 6987   0.044   1.719   6.684
 2030SOL     OW 6988   1.238   6.423   2.630
 2030SOL    HW1 6989   1.189   6.422   2.717
 2030SOL    HW2 6990   1.295   6.341   2.623
 2031SOL     OW 6991   6.686   0.852   4.069
 2031SOL    HW1 6992   6.666   0.842   4.167
 2031SOL    HW2 6993   6.776   0.894   4.057
 2032SOL     OW 6994   2.988   2.537   6.069
 2032SOL    HW1 6995   3.052   2.505   5.999
 2032SOL    HW2 6996   2.897   2.499   6.051
 2033SOL     OW 6997   3.162   6.761   0.927
 2033SOL    HW1 6998   3.109   6.748   1.011
 2033SOL    HW2 6999   3.119   6.832   0.872
 2034SOL     OW 7000   0.851   3.806   4.943
 2034SOL    HW1 7001   0.836   3.904   4.934
 2034SOL    HW2 7002   0.930   3.789   5.002
 2035SOL     OW 7003   4.853   6.352   3.357
 2035SOL    HW1 7004   4.782   6.402   3.407
 2035SOL    HW2 7005   4.845   6.370   3.259
 2036SOL     OW 7006   6.963   3.888   5.589
 2036SOL    HW1 7007   0.004   3.827   5.553
 2036SOL    HW2 7008   6.877   3.870   5.541
 2037SOL     OW 7009   0.937   2.443   6.782
 2037SOL    HW1 7010   0.953   2.348   6.756
 2037SOL    HW2 7011   0.996   2.503   6.728
 2038SOL     OW 7012   2.283   0.768   5.813
 2038SOL    HW1 7013   2.333   0.756   5.899
 2038SOL    HW2 7014   2.191   0.802   5.834
 2039SOL     OW 7015   5.269   5.900   4.279
 2039SOL    HW1 7016   5.308   5.992   4.275
 2039SOL    HW2 7017   5.193   5.893   4.214
 2040SOL     OW 7018   2.880   1.603   0.868
 2040SOL    HW1 7019   2.802   1.546   0.842
 2040SOL    HW2 7020   2.957   1.544   0.891
 2041SOL     OW 7021   2.340   0.159   6.652
 2041SOL    HW1 7022   2.309   0.065   6.666
 2041SOL    HW2 7023   2.272   0.222   6.688
 2042SOL     OW 7024   0.073   0.512   5.261
 2042SOL    HW1 7025   0.067   0.574   5.182
 2042SOL    HW2 7026   0.154   0.536   5.316
 2043SOL     OW 7027   1.513   3.296   0.902
 2043SOL    HW1 7028   1.496   3.361   0.829
 2043SOL    HW2 7029   1.449   3.219   0.894
 2044SOL     OW 7030   2.986   1.303   2.066
 2044SOL    HW1 7031   3.035   1.216   2.076
 2044SOL    HW2 7032   3.033   1.360   1.998
 2045SOL     OW 7033   1.647   6.580   3.794
 2045SOL    HW1 7034   1.655   6.487   3.759
 2045SOL    HW2 7035   1.650   6.645   3.717
 2046SOL     OW 7036   6.819   2.082   5.587
 2046SOL    HW1 7037   6.903   2.044   5.625
 2046SOL    HW2 7038   6.793   2.164   5.639
 2047SOL     OW 7039   6.421   0.256   2.020
 2047SOL    HW1 7040   6.325   0.283   2.014
 2047SOL    HW2 7041   6.431   0.161   1.989
 2048SOL     OW 7042   2.218   1.120   3.683
 2048SOL    HW1 7043   2.131   1.170   3.678
 2048SOL    HW2 7044   2.264   1.124   3.595
 2049SOL     OW 7045   4.458   2.302   4.995
 2049SOL    HW1 7046   4.543   2.256   4.967
 2049SOL    HW2 7047   4.410   2.335   4.914
 2050SOL     OW 7048   6.688   1.346   2.575
 2050SOL    HW1 7049   6.735   1.264   2.607
 2050SOL    HW2 7050   6.661   1.335   2.480
 2051SOL     OW 7051   3.336   0.041   6.414
 2051SOL    HW1 7052   3.291   6.994   6.460
 2051SOL    HW2 7053   3.435   0.033   6.426
 2052SOL     OW 7054   0.753   4.237   0.883
 2052SOL    HW1 7055   0.677   4.232   0.947
 2052SOL    HW2 7056   0.836   4.264   0.931
 2053SOL     OW 7057   4.894   4.718   1.631
 2053SOL    HW1 7058   4.817   4.691   1.688
 2053SOL    HW2 7059   4.948   4.788   1.678
 2054SOL     OW 7060   3.049   3.805   4.104
 2054SOL    HW1 7061   3.008   3.811   4.195
 2054SOL    HW2 7062   3.107   3.884   4.089
 2055SOL     OW 7063   2.766   2.873   5.887
 2055SOL    HW1 7064   2.776   2.945   5.818
 2055SOL    HW2 7065   2.682   2.822   5.871
 2056SOL     OW 7066   2.986   5.201   1.247
 2056SOL    HW1 7067   3.051   5.271   1.278
 2056SOL    HW2 7068   2.962   5.143   1.324
 2057SOL     OW 7069   6.151   3.142   4.680
 2057SOL    HW1 7070   6.212   3.085   4.624
 2057SOL    HW2 7071   6.057   3.109   4.671
 2058SOL     OW 7072   5.243   0.837   3.868
 2058SOL    HW1 7073   5.338   0.847   3.896
 2058SOL    HW2 7074   5.206   0.927   3.842
 2059SOL     OW 7075   2.817   1.608   5.973
 2059SOL    HW1 7076   2.853   1.699   5.954
 2059SOL    HW2 7077   2.860   1.542   5.911
 2060SOL     OW 7078   1.532   2.190   6.131
 2060SOL    HW1 7079   1.454   2.143   6.090
 2060SOL    HW2 7080   1.617   2.157   6.088
 2061SOL     OW 7081   2.550   2.349   3.362
 2061SOL    HW1 7082   2.561   2.251   3.380
 2061SOL    HW2 7083   2.570   2.367   3.266
 2062SOL     OW 7084   4.530   4.830   4.471
 2062SOL    HW1 7085   4.624   4.857   4.490
 2062SOL    HW2 7086   4.500   4.762   4.538
 2063SOL     OW 7087   1.185   1.396   4.282
 2063SOL    HW1 7088   1.231   1.468   4.230
 2063SOL    HW2 7089   1.182   1.312   4.227
 2064SOL     OW 7090   0.379   4.028   4.528
 2064SOL    HW1 7091   0.288   3.986   4.518
 2064SOL    HW2 7092   0.443   3.985   4.465
 2065SOL     OW 7093   3.169   3.149   5.158
 2065SOL    HW1 7094   3.134   3.072   5.210
 2065SOL    HW2 7095   3.127   3.234   5.191
 2066SOL     OW 7096   2.672   2.409   4.589
 2066SOL    HW1 7097   2.608   2.483   4.569
 2066SOL    HW2 7098   2.634   2.350   4.661
 2067SOL     OW 7099   5.831   4.800   3.031
 2067SOL    HW1 7100   5.916   4.758   3.063
 2067SOL    HW2 7101   5.843   4.900   3.029
 2068SOL     OW 7102   2.635   6.533   4.364
 2068SOL    HW1 7103   2.719   6.584   4.380
 2068SOL    HW2 7104   2.652   6.462   4.295
 2069SOL     OW 7105   5.353   1.835   2.863
 2069SOL    HW1 7106   5.359   1.761   2.930
 2069SOL    HW2 7107   5.445   1.862   2.836
 2070SOL     OW 7108   0.516   5.840   2.023
 2070SOL    HW1 7109   0.541   5.866   1.929
 2070SOL    HW2 7110   0.589   5.868   2.086
 2071SOL     OW 7111   0.013   2.545   4.068
 2071SOL    HW1 7112   0.039   2.613   4.000
 2071SOL    HW2 7113   6.950   2.512   4.049
 2072SOL     OW 7114   5.279   2.941   5.916
 2072SOL    HW1 7115   5.336   2.865   5.884
 2072SOL    HW2 7116   5.229   2.913   5.998
 2073SOL     OW 7117   3.253   6.009   6.676
 2073SOL    HW1 7118   3.156   6.004   6.649
 2073SOL    HW2 7119   3.265   6.080   6.745
 2074SOL     OW 7120   3.337   4.268   5.704
 2074SOL    HW1 7121   3.424   4.237   5.666
 2074SOL    HW2 7122   3.262   4.236   5.647
 2075SOL     OW 7123   4.732   0.994   1.134
 2075SOL    HW1 7124   4.689   0.933   1.068
 2075SOL    HW2 7125   4.790   0.941   1.196
 2076SOL     OW 7126   6.493   0.237   2.953
 2076SOL    HW1 7127   6.409   0.213   2.904
 2076SOL    HW2 7128   6.564   0.171   2.932
 2077SOL     OW 7129   0.532   4.610   1.719
 2077SOL    HW1 7130   0.465   4.606   1.645
 2077SOL    HW2 7131   0.588   4.527   1.719
 2078SOL     OW 7132   0.589   2.690   0.843
 2078SOL    HW1 7133   0.554   2.756   0.777
 2078SOL    HW2 7134   0.514   2.658   0.901
 2079SOL     OW 7135   4.910   1.817   3.917
 2079SOL    HW1 7136   4.931   1.728   3.957
 2079SOL    HW2 7137   4.865   1.804   3.829
 2080SOL     OW 7138   2.224   2.658   4.247
 2080SOL    HW1 7139   2.206   2.711   4.331
 2080SOL    HW2 7140   2.321   2.636   4.243
 2081SOL     OW 7141   0.358   6.009   2.542
 2081SOL    HW1 7142   0.340   5.911   2.546
 2081SOL    HW2 7143   0.305   6.056   2.614
 2082SOL     OW 7144   6.536   6.565   4.210
 2082SOL    HW1 7145   6.474   6.525   4.142
 2082SOL    HW2 7146   6.561   6.495   4.277
 2083SOL     OW 7147   1.357   5.682   3.035
 2083SOL    HW1 7148   1.395   5.654   3.123
 2083SOL    HW2 7149   1.353   5.782   3.031
 2084SOL     OW 7150   6.195   1.984   1.496
 2084SOL    HW1 7151   6.129   2.059   1.495
 2084SOL    HW2 7152   6.149   1.899   1.523
 2085SOL     OW 7153   6.502   4.716   6.612
 2085SOL    HW1 7154   6.443   4.636   6.607
 2085SOL    HW2 7155   6.481   4.779   6.537
 2086SOL     OW 7156   5.331   1.342   5.442
 2086SOL    HW1 7157   5.296   1.257   5.481
 2086SOL    HW2 7158   5.386   1.322   5.361
 2087SOL     OW 7159   4.750   1.221   5.829
 2087SOL    HW1 7160   4.760   1.270   5.743
 2087SOL    HW2 7161   4.840   1.211   5.872
 2088SOL     OW 7162   0.468   3.942   5.489
 2088SOL    HW1 7163   0.469   4.022   5.429
 2088SOL    HW2 7164   0.552   3.941   5.543
 2089SOL     OW 7165   3.150   5.401   4.398
 2089SOL    HW1 7166   3.079   5.340   4.434
 2089SOL    HW2 7167   3.143   5.490   4.444
 2090SOL     OW 7168   5.784   2.485   6.029
 2090SOL    HW1 7169   5.798   2.386   6.027
 2090SOL    HW2 7170   5.693   2.507   5.993
 2091SOL     OW 7171   5.627   0.258   0.519
 2091SOL    HW1 7172   5.582   0.237   0.432
 2091SOL    HW2 7173   5.586   0.340   0.558
 2092SOL     OW 7174   3.623   3.151   2.838
 2092SOL    HW1 7175   3.673   3.200   2.767
 2092SOL    HW2 7176   3.532   3.191   2.849
 2093SOL     OW 7177   5.468   6.941   6.791
 2093SOL    HW1 7178   5.384   6.972   6.747
 2093SOL    HW2 7179   5.450   6.919   6.887
 2094SOL     OW 7180   4.242   2.514   1.018
 2094SOL    HW1 7181   4.191   2.517   1.103
 2094SOL    HW2 7182   4.340   2.529   1.036
 2095SOL     OW 7183   3.771   5.911   4.532
 2095SOL    HW1 7184   3.765   5.948   4.624
 2095SOL    HW2 7185   3.866   5.886   4.513
 2096SOL     OW 7186   3.409   0.644   3.097
 2096SOL    HW1 7187   3.507   0.656   3.112
 2096SOL    HW2 7188   3.369   0.596   3.176
 2097SOL     OW 7189   2.630   5.585   5.918
 2097SOL    HW1 7190   2.681   5.609   6.000
 2097SOL    HW2 7191   2.606   5.668   5.867
 2098SOL     OW 7192   1.317   0.168   4.238
 2098SOL    HW1 7193   1.382   0.093   4.233
 2098SOL    HW2 7194   1.320   0.209   4.329
 2099SOL     OW 7195   4.525   1.713   6.488
 2099SOL    HW1 7196   4.582   1.793   6.472
 2099SOL    HW2 7197   4.482   1.685   6.402
 2100SOL     OW 7198   4.998   0.450   0.931
 2100SOL    HW1 7199   5.033   0.387   1.001
 2100SOL    HW2 7200   5.049   0.436   0.846
 2101SOL     OW 7201   0.667   0.471   3.094
 2101SOL    HW1 7202   0.657   0.373   3.077
 2101SOL    HW2 7203   0.662   0.520   3.007
 2102SOL     OW 7204   3.790   2.978   2.965
 2102SOL    HW1 7205   3.747   3.061   2.929
 2102SOL    HW2 7206   3.802   2.912   2.891
 2103SOL     OW 7207   1.404   0.129   1.326
 2103SOL    HW1 7208   1.502   0.114   1.336
 2103SOL    HW2 7209   1.379   0.118   1.230
 2104SOL     OW 7210   1.084   4.571   2.516
 2104SOL    HW1 7211   1.057   4.477   2.501
 2104SOL    HW2 7212   1.011   4.621   2.564
 2105SOL     OW 7213   5.478   6.328   5.647
 2105SOL    HW1 7214   5.445   6.246   5.693
 2105SOL    HW2 7215   5.577   6.323   5.635
 2106SOL     OW 7216   3.600   3.821   0.830
 2106SOL    HW1 7217   3.604   3.894   0.762
 2106SOL    HW2 7218   3.614   3.733   0.786
 2107SOL     OW 7219   6.095   4.265   4.368
 2107SOL    HW1 7220   6.089   4.334   4.296
 2107SOL    HW2 7221   6.011   4.210   4.369
 2108SOL     OW 7222   3.959   6.334   5.436
 2108SOL    HW1 7223   4.044   6.377   5.406
 2108SOL    HW2 7224   3.965   6.235   5.423
 2109SOL     OW 7225   2.416   6.321   2.479
 2109SOL    HW1 7226   2.510   6.305   2.451
 2109SOL    HW2 7227   2.354   6.295   2.405
 2110SOL     OW 7228   3.714   5.856   0.491
 2110SOL    HW1 7229   3.789   5.790   0.480
 2110SOL    HW2 7230   3.707   5.912   0.408
 2111SOL     OW 7231   0.711   2.557   0.614
 2111SOL    HW1 7232   0.759   2.471   0.634
 2111SOL    HW2 7233   0.659   2.585   0.694
 2112SOL     OW 7234   0.305   0.181   6.081
 2112SOL    HW1 7235   0.313   0.263   6.137
 2112SOL    HW2 7236   0.367   0.189   6.002
 2113SOL     OW 7237   6.613   1.617   4.144
 2113SOL    HW1 7238   6.638   1.530   4.102
 2113SOL    HW2 7239   6.538   1.660   4.093
 2114SOL     OW 7240   2.590   0.637   5.491
 2114SOL    HW1 7241   2.553   0.689   5.414
 2114SOL    HW2 7242   2.676   0.679   5.520
 2115SOL     OW 7243   0.112   0.344   4.417
 2115SOL    HW1 7244   0.108   0.272   4.485
 2115SOL    HW2 7245   0.114   0.433   4.462
 2116SOL     OW 7246   2.789   6.576   6.421
 2116SOL    HW1 7247   2.772   6.492   6.473
 2116SOL    HW2 7248   2.865   6.626   6.462
 2117SOL     OW 7249   7.002   3.076   0.813
 2117SOL    HW1 7250   7.002   3.033   0.904
 2117SOL    HW2 7251   6.925   3.139   0.806
 2118SOL     OW 7252   0.102   3.240   2.839
 2118SOL    HW1 7253   0.182   3.252   2.781
 2118SOL    HW2 7254   0.034   3.310   2.817
 2119SOL     OW 7255   2.077   2.468   6.745
 2119SOL    HW1 7256   2.160   2.520   6.764
 2119SOL    HW2 7257   2.034   2.503   6.662
 2120SOL     OW 7258   5.979   1.248   0.642
 2120SOL    HW1 7259   6.071   1.277   0.669
 2120SOL    HW2 7260   5.937   1.319   0.586
 2121SOL     OW 7261   2.234   6.292   2.258
 2121SOL    HW1 7262   2.231   6.334   2.167
 2121SOL    HW2 7263   2.160   6.329   2.314
 2122SOL     OW 7264   0.199   1.973   5.394
 2122SOL    HW1 7265   0.154   1.883   5.388
 2122SOL    HW2 7266   0.245   1.992   5.307
 2123SOL     OW 7267   0.837   4.321   3.250
 2123SOL    HW1 7268   0.754   4.328   3.305
 2123SOL    HW2 7269   0.832   4.239   3.192
 2124SOL     OW 7270   5.757   3.405   6.546
 2124SOL    HW1 7271   5.678   3.449   6.502
 2124SOL    HW2 7272   5.755   3.307   6.526
 2125SOL     OW 7273   2.448   5.355   5.871
 2125SOL    HW1 7274   2.509   5.298   5.815
 2125SOL    HW2 7275   2.473   5.451   5.860
 2126SOL     OW 7276   2.239   6.202   1.851
 2126SOL    HW1 7277   2.325   6.164   1.816
 2126SOL    HW2 7278   2.251   6.299   1.870
 2127SOL     OW 7279   1.880   3.585   4.110
 2127SOL    HW1 7280   1.902   3.489   4.090
 2127SOL    HW2 7281   1.963   3.640   4.100
 2128SOL     OW 7282   5.461   3.151   0.742
 2128SOL    HW1 7283   5.392   3.218   0.714
 2128SOL    HW2 7284   5.436   3.114   0.832
 2129SOL     OW 7285   5.546   4.970   4.022
 2129SOL    HW1 7286   5.629   4.951   3.969
 2129SOL    HW2 7287   5.560   4.942   4.117
 2130SOL     OW 7288   2.341   0.261   2.848
 2130SOL    HW1 7289   2.431   0.227   2.875
 2130SOL    HW2 7290   2.347   0.359   2.830
 2131SOL     OW 7291   5.882   6.849   6.282
 2131SOL    HW1 7292   5.807   6.913   6.301
 2131SOL    HW2 7293   5.844   6.757   6.269
 2132SOL     OW 7294   3.128   1.778   0.837
 2132SOL    HW1 7295   3.033   1.749   0.839
 2132SOL    HW2 7296   3.162   1.786   0.931
 2133SOL     OW 7297   3.606   3.107   2.353
 2133SOL    HW1 7298   3.602   3.190   2.297
 2133SOL    HW2 7299   3.682   3.049   2.322
 2134SOL     OW 7300   2.696   6.709   4.783
 2134SOL    HW1 7301   2.696   6.615   4.750
 2134SOL    HW2 7302   2.615   6.724   4.841
 2135SOL     OW 7303   0.159   5.770   4.126
 2135SOL    HW1 7304   0.127   5.865   4.124
 2135SOL    HW2 7305   0.259   5.769   4.120
 2136SOL     OW 7306   0.144   4.659   3.477
 2136SOL    HW1 7307   0.130   4.686   3.382
 2136SOL    HW2 7308   0.101   4.727   3.538
 2137SOL     OW 7309   6.793   0.080   4.669
 2137SOL    HW1 7310   6.772   0.167   4.626
 2137SOL    HW2 7311   6.855   0.095   4.746
 2138SOL     OW 7312   0.920   2.104   0.246
 2138SOL    HW1 7313   0.877   2.188   0.211
 2138SOL    HW2 7314   0.988   2.128   0.315
 2139SOL     OW 7315   3.939   6.540   4.577
 2139SOL    HW1 7316   3.920   6.483   4.498
 2139SOL    HW2 7317   3.968   6.631   4.547
 2140SOL     OW 7318   1.065   5.802   3.631
 2140SOL    HW1 7319   0.989   5.841   3.578
 2140SOL    HW2 7320   1.031   5.728   3.688
 2141SOL     OW 7321   0.091   0.319   6.636
 2141SOL    HW1 7322   0.020   0.287   6.699
 2141SOL    HW2 7323   0.073   0.414   6.612
 2142SOL     OW 7324   3.986   1.279   2.907
 2142SOL    HW1 7325   3.944   1.233   2.985
 2142SOL    HW2 7326   3.915   1.315   2.847
 2143SOL     OW 7327   3.626   5.546   0.091
 2143SOL    HW1 7328   3.707   5.532   0.148
 2143SOL    HW2 7329   3.563   5.609   0.136
 2144SOL     OW 7330   1.056   1.562   2.079
 2144SOL    HW1 7331   1.005   1.477   2.065
 2144SOL    HW2 7332   0.998   1.629   2.124
 2145SOL     OW 7333   2.400   6.011   3.245
 2145SOL    HW1 7334   2.394   5.998   3.344
 2145SOL    HW2 7335   2.452   6.095   3.226
 2146SOL     OW 7336   3.061   1.798   1.467
 2146SOL    HW1 7337   3.117   1.881   1.470
 2146SOL    HW2 7338   2.991   1.803   1.539
 2147SOL     OW 7339   6.926   0.645   3.776
 2147SOL    HW1 7340   6.977   0.621   3.858
 2147SOL    HW2 7341   6.941   0.742   3.754
 2148SOL     OW 7342   6.667   4.606   4.001
 2148SOL    HW1 7343   6.680   4.679   4.068
 2148SOL    HW2 7344   6.599   4.634   3.933
 2149SOL     OW 7345   2.036   1.307   2.211
 2149SOL    HW1 7346   2.088   1.263   2.137
 2149SOL    HW2 7347   1.939   1.308   2.187
 2150SOL     OW 7348   5.726   0.911   3.172
 2150SOL    HW1 7349   5.715   0.976   3.247
 2150SOL    HW2 7350   5.713   0.818   3.207
 2151SOL     OW 7351   4.898   4.898   5.489
 2151SOL    HW1 7352   4.839   4.978   5.500
 2151SOL    HW2 7353   4.846   4.825   5.444
 2152SOL     OW 7354   6.760   6.472   2.859
 2152SOL    HW1 7355   6.799   6.388   2.897
 2152SOL    HW2 7356   6.792   6.484   2.765
 2153SOL     OW 7357   4.188   2.290   3.421
 2153SOL    HW1 7358   4.211   2.205   3.467
 2153SOL    HW2 7359   4.249   2.303   3.342
 2154SOL     OW 7360   4.394   0.312   3.624
 2154SOL    HW1 7361   4.434   0.403   3.614
 2154SOL    HW2 7362   4.434   0.267   3.705
 2155SOL     OW 7363   5.911   3.442   0.876
 2155SOL    HW1 7364   5.819   3.425   0.841
 2155SOL    HW2 7365   5.968   3.477   0.802
 2156SOL     OW 7366   5.988   5.368   2.605
 2156SOL    HW1 7367   5.995   5.468   2.602
 2156SOL    HW2 7368   5.927   5.342   2.680
 2157SOL     OW 7369   5.138   1.501   4.435
 2157SOL    HW1 7370   5.048   1.469   4.463
 2157SOL    HW2 7371   5.128   1.577   4.371
 2158SOL     OW 7372   4.740   0.952   3.638
 2158SOL    HW1 7373   4.750   1.001   3.552
 2158SOL    HW2 7374   4.665   0.886   3.631
 2159SOL     OW 7375   2.288   2.003   4.615
 2159SOL    HW1 7376   2.379   1.964   4.628
 2159SOL    HW2 7377   2.296   2.102   4.602
 2160SOL     OW 7378   2.219   4.038   1.114
 2160SOL    HW1 7379   2.197   4.107   1.183
 2160SOL    HW2 7380   2.279   4.078   1.045
 2161SOL     OW 7381   4.330   2.360   2.030
 2161SOL    HW1 7382   4.273   2.281   2.053
 2161SOL    HW2 7383   4.425   2.330   2.021
 2162SOL     OW 7384   1.564   1.189   2.532
 2162SOL    HW1 7385   1.579   1.288   2.534
 2162SOL    HW2 7386   1.652   1.143   2.518
 2163SOL     OW 7387   4.741   1.430   0.856
 2163SOL    HW1 7388   4.736   1.521   0.897
 2163SOL    HW2 7389   4.813   1.377   0.903
 2164SOL     OW 7390   6.425   6.969   2.633
 2164SOL    HW1 7391   6.426   6.941   2.537
 2164SOL    HW2 7392   6.336   6.947   2.673
 2165SOL     OW 7393   2.015   6.919   2.087
 2165SOL    HW1 7394   2.028   6.943   1.990
 2165SOL    HW2 7395   1.986   6.824   2.094
 2166SOL     OW 7396   5.867   2.657   5.103
 2166SOL    HW1 7397   5.776   2.696   5.090
 2166SOL    HW2 7398   5.874   2.621   5.196
 2167SOL     OW 7399   3.357   1.302   1.271
 2167SOL    HW1 7400   3.337   1.258   1.184
 2167SOL    HW2 7401   3.394   1.393   1.255
 2168SOL     OW 7402   5.485   6.250   4.460
 2168SOL    HW1 7403   5.486   6.204   4.372
 2168SOL    HW2 7404   5.574   6.236   4.505
 2169SOL     OW 7405   4.726   2.978   5.490
 2169SOL    HW1 7406   4.690   3.054   5.436
 2169SOL    HW2 7407   4.666   2.962   5.569
 2170SOL     OW 7408   4.670   5.536   4.602
 2170SOL    HW1 7409   4.732   5.612   4.581
 2170SOL    HW2 7410   4.666   5.523   4.701
 2171SOL     OW 7411   0.475   3.053   0.507
 2171SOL    HW1 7412   0.451   3.121   0.438
 2171SOL    HW2 7413   0.445   2.963   0.479
 2172SOL     OW 7414   2.712   0.839   3.244
 2172SOL    HW1 7415   2.629   0.786   3.262
 2172SOL    HW2 7416   2.697   0.897   3.164
 2173SOL     OW 7417   4.396   1.894   4.448
 2173SOL    HW1 7418   4.298   1.903   4.436
 2173SOL    HW2 7419   4.415   1.835   4.527
 2174SOL     OW 7420   1.359   6.143   5.519
 2174SOL    HW1 7421   1.304   6.117   5.599
 2174SOL    HW2 7422   1.319   6.223   5.475
 2175SOL     OW 7423   0.532   0.623   7.003
 2175SOL    HW1 7424   0.553   0.719   6.986
 2175SOL    HW2 7425   0.612   0.578   0.013
 2176SOL     OW 7426   2.311   2.007   2.401
 2176SOL    HW1 7427   2.398   2.000   2.449
 2176SOL    HW2 7428   2.318   1.963   2.311
 2177SOL     OW 7429   1.090   1.745   1.852
 2177SOL    HW1 7430   1.049   1.692   1.777
 2177SOL    HW2 7431   1.122   1.682   1.923
 2178SOL     OW 7432   6.140   5.701   0.494
 2178SOL    HW1 7433   6.202   5.739   0.425
 2178SOL    HW2 7434   6.177   5.614   0.528
 2179SOL     OW 7435   2.174   3.695   3.889
 2179SOL    HW1 7436   2.181   3.787   3.850
 2179SOL    HW2 7437   2.153   3.701   3.986
 2180SOL     OW 7438   2.972   3.311   2.723
 2180SOL    HW1 7439   2.901   3.357   2.776
 2180SOL    HW2 7440   3.062   3.346   2.750
 2181SOL     OW 7441   3.887   6.452   1.243
 2181SOL    HW1 7442   3.891   6.354   1.223
 2181SOL    HW2 7443   3.816   6.495   1.187
 2182SOL     OW 7444   4.628   4.288   0.290
 2182SOL    HW1 7445   4.673   4.376   0.274
 2182SOL    HW2 7446   4.655   4.224   0.219
 2183SOL     OW 7447   4.587   2.293   1.990
 2183SOL    HW1 7448   4.636   2.379   1.978
 2183SOL    HW2 7449   4.633   2.221   1.936
 2184SOL     OW 7450   4.247   2.692   5.973
 2184SOL    HW1 7451   4.174   2.749   6.009
 2184SOL    HW2 7452   4.258   2.611   6.031
 2185SOL     OW 7453   6.568   6.976   2.069
 2185SOL    HW1 7454   6.661   6.991   2.102
 2185SOL    HW2 7455   6.572   6.934   1.978
 2186SOL     OW 7456   6.438   4.756   2.830
 2186SOL    HW1 7457   6.532   4.771   2.861
 2186SOL    HW2 7458   6.396   4.684   2.885
 2187SOL     OW 7459   6.561   0.094   6.869
 2187SOL    HW1 7460   6.540   0.072   6.774
 2187SOL    HW2 7461   6.477   0.116   6.918
 2188SOL     OW 7462   4.443   2.526   3.818
 2188SOL    HW1 7463   4.478   2.551   3.909
 2188SOL    HW2 7464   4.513   2.544   3.749
 2189SOL     OW 7465   3.203   7.010   6.181
 2189SOL    HW1 7466   3.252   6.929   6.149
 2189SOL    HW2 7467   3.246   0.016   6.264
 2190SOL     OW 7468   6.312   3.310   1.230
 2190SOL    HW1 7469   6.343   3.269   1.315
 2190SOL    HW2 7470   6.363   3.394   1.212
 2191SOL     OW 7471   3.343   0.472   0.054
 2191SOL    HW1 7472   3.264   0.483   7.023
 2191SOL    HW2 7473   3.392   0.388   0.030
 2192SOL     OW 7474   3.967   6.285   2.075
 2192SOL    HW1 7475   3.933   6.376   2.101
 2192SOL    HW2 7476   3.954   6.222   2.151
 2193SOL     OW 7477   0.168   6.349   4.203
 2193SOL    HW1 7478   0.210   6.303   4.282
 2193SOL    HW2 7479   0.236   6.359   4.131
 2194SOL     OW 7480   2.248   0.109   3.060
 2194SOL    HW1 7481   2.291   0.163   2.988
 2194SOL    HW2 7482   2.315   0.085   3.130
 2195SOL     OW 7483   0.412   4.667   2.885
 2195SOL    HW1 7484   0.468   4.598   2.932
 2195SOL    HW2 7485   0.375   4.628   2.800
 2196SOL     OW 7486   4.555   4.080   6.471
 2196SOL    HW1 7487   4.602   4.059   6.557
 2196SOL    HW2 7488   4.471   4.027   6.466
 2197SOL     OW 7489   4.896   3.198   0.872
 2197SOL    HW1 7490   4.810   3.147   0.860
 2197SOL    HW2 7491   4.965   3.163   0.809
 2198SOL     OW 7492   1.045   4.642   6.841
 2198SOL    HW1 7493   1.028   4.719   6.780
 2198SOL    HW2 7494   1.142   4.639   6.864
 2199SOL     OW 7495   3.316   2.025   3.909
 2199SOL    HW1 7496   3.288   1.930   3.925
 2199SOL    HW2 7497   3.287   2.054   3.818
 2200SOL     OW 7498   4.491   0.847   3.992
 2200SOL    HW1 7499   4.524   0.781   4.059
 2200SOL    HW2 7500   4.532   0.937   4.010
 2201SOL     OW 7501   5.095   5.061   3.902
 2201SOL    HW1 7502   5.067   5.051   3.998
 2201SOL    HW2 7503   5.118   5.156   3.884
 2202SOL     OW 7504   4.676   6.034   3.983
 2202SOL    HW1 7505   4.618   5.969   4.032
 2202SOL    HW2 7506   4.741   5.985   3.926
 2203SOL     OW 7507   1.937   2.175   3.373
 2203SOL    HW1 7508   1.838   2.159   3.376
 2203SOL    HW2 7509   1.981   2.098   3.327
 2204SOL     OW 7510   4.435   1.910   0.924
 2204SOL    HW1 7511   4.499   1.959   0.865
 2204SOL    HW2 7512   4.370   1.975   0.964
 2205SOL     OW 7513   3.571   0.099   2.182
 2205SOL    HW1 7514   3.624   0.182   2.168
 2205SOL    HW2 7515   3.480   0.110   2.141
 2206SOL     OW 7516   1.542   4.894   0.236
 2206SOL    HW1 7517   1.548   4.798   0.262
 2206SOL    HW2 7518   1.445   4.921   0.229
 2207SOL     OW 7519   6.665   4.047   5.311
 2207SOL    HW1 7520   6.570   4.040   5.342
 2207SOL    HW2 7521   6.698   3.956   5.286
 2208SOL     OW 7522   6.892   5.187   2.237
 2208SOL    HW1 7523   6.875   5.089   2.238
 2208SOL    HW2 7524   6.991   5.204   2.229
 2209SOL     OW 7525   6.917   0.195   2.385
 2209SOL    HW1 7526   6.857   0.272   2.361
 2209SOL    HW2 7527   6.929   0.137   2.305
 2210SOL     OW 7528   2.737   4.659   3.544
 2210SOL    HW1 7529   2.765   4.743   3.590
 2210SOL    HW2 7530   2.786   4.650   3.458
 2211SOL     OW 7531   5.602   1.020   5.336
 2211SOL    HW1 7532   5.534   0.948   5.319
 2211SOL    HW2 7533   5.585   1.060   5.426
 2212SOL     OW 7534   2.487   5.855   6.531
 2212SOL    HW1 7535   2.396   5.826   6.500
 2212SOL    HW2 7536   2.477   5.938   6.587
 2213SOL     OW 7537   4.289   1.117   3.104
 2213SOL    HW1 7538   4.379   1.078   3.122
 2213SOL    HW2 7539   4.296   1.187   3.033
 2214SOL     OW 7540   4.219   6.996   3.690
 2214SOL    HW1 7541   4.307   6.998   3.738
 2214SOL    HW2 7542   4.190   6.901   3.679
 2215SOL     OW 7543   5.811   2.425   6.403
 2215SOL    HW1 7544   5.793   2.327   6.401
 2215SOL    HW2 7545   5.904   2.443   6.369
 2216SOL     OW 7546   3.167   1.134   2.419
 2216SOL    HW1 7547   3.086   1.077   2.432
 2216SOL    HW2 7548   3.207   1.156   2.508
 2217SOL     OW 7549   2.852   6.735   0.812
 2217SOL    HW1 7550   2.899   6.650   0.790
 2217SOL    HW2 7551   2.895   6.811   0.762
 2218SOL     OW 7552   6.126   1.366   2.131
 2218SOL    HW1 7553   6.049   1.386   2.071
 2218SOL    HW2 7554   6.118   1.271   2.164
 2219SOL     OW 7555   1.931   2.431   3.296
 2219SOL    HW1 7556   2.023   2.468   3.300
 2219SOL    HW2 7557   1.935   2.331   3.303
 2220SOL     OW 7558   2.048   6.368   3.448
 2220SOL    HW1 7559   1.968   6.378   3.388
 2220SOL    HW2 7560   2.121   6.321   3.398
 2221SOL     OW 7561   6.963   0.124   4.880
 2221SOL    HW1 7562   7.011   0.192   4.824
 2221SOL    HW2 7563   6.873   0.158   4.905
 2222SOL     OW 7564   5.301   6.169   3.443
 2222SOL    HW1 7565   5.297   6.141   3.540
 2222SOL    HW2 7566   5.394   6.197   3.421
 2223SOL     OW 7567   6.099   6.683   2.173
 2223SOL    HW1 7568   6.115   6.777   2.145
 2223SOL    HW2 7569   6.008   6.654   2.143
 2224SOL     OW 7570   0.418   5.656   1.194
 2224SOL    HW1 7571   0.492   5.703   1.146
 2224SOL    HW2 7572   0.332   5.670   1.145
 2225SOL     OW 7573   0.389   4.618   1.463
 2225SOL    HW1 7574   0.293   4.644   1.466
 2225SOL    HW2 7575   0.444   4.695   1.430
 2226SOL     OW 7576   3.429   3.918   3.283
 2226SOL    HW1 7577   3.435   3.932   3.382
 2226SOL    HW2 7578   3.341   3.955   3.251
 2227SOL     OW 7579   1.792   1.738   5.421
 2227SOL    HW1 7580   1.717   1.671   5.414
 2227SOL    HW2 7581   1.776   1.796   5.501
 2228SOL     OW 7582   1.032   4.505   4.015
 2228SOL    HW1 7583   0.960   4.501   4.084
 2228SOL    HW2 7584   1.028   4.424   3.957
 2229SOL     OW 7585   5.372   5.705   2.466
 2229SOL    HW1 7586   5.286   5.749   2.443
 2229SOL    HW2 7587   5.419   5.679   2.382
 2230SOL     OW 7588   2.110   5.439   3.047
 2230SOL    HW1 7589   2.073   5.446   3.139
 2230SOL    HW2 7590   2.107   5.529   3.003
 2231SOL     OW 7591   1.986   6.231   0.547
 2231SOL    HW1 7592   2.014   6.274   0.633
 2231SOL    HW2 7593   2.033   6.275   0.470
 2232SOL     OW 7594   6.325   2.747   3.500
 2232SOL    HW1 7595   6.372   2.774   3.416
 2232SOL    HW2 7596   6.250   2.811   3.518
 2233SOL     OW 7597   3.692   1.597   0.695
 2233SOL    HW1 7598   3.759   1.666   0.722
 2233SOL    HW2 7599   3.605   1.615   0.741
 2234SOL     OW 7600   4.429   2.548   1.387
 2234SOL    HW1 7601   4.445   2.509   1.478
 2234SOL    HW2 7602   4.493   2.507   1.322
 2235SOL     OW 7603   1.829   3.348   1.929
 2235SOL    HW1 7604   1.825   3.251   1.951
 2235SOL    HW2 7605   1.755   3.371   1.866
 2236SOL     OW 7606   1.402   3.636   4.936
 2236SOL    HW1 7607   1.338   3.561   4.954
 2236SOL    HW2 7608   1.353   3.711   4.891
 2237SOL     OW 7609   5.788   2.322   3.068
 2237SOL    HW1 7610   5.809   2.224   3.071
 2237SOL    HW2 7611   5.706   2.339   3.123
 2238SOL     OW 7612   4.936   6.091   6.634
 2238SOL    HW1 7613   4.844   6.090   6.674
 2238SOL    HW2 7614   4.955   6.183   6.598
 2239SOL     OW 7615   6.504   5.592   1.141
 2239SOL    HW1 7616   6.516   5.525   1.215
 2239SOL    HW2 7617   6.437   5.660   1.169
 2240SOL     OW 7618   0.573   4.057   1.603
 2240SOL    HW1 7619   0.606   3.964   1.593
 2240SOL    HW2 7620   0.649   4.117   1.630
 2241SOL     OW 7621   0.236   0.423   3.595
 2241SOL    HW1 7622   0.273   0.461   3.680
 2241SOL    HW2 7623   0.140   0.398   3.609
 2242SOL     OW 7624   2.168   1.456   3.049
 2242SOL    HW1 7625   2.069   1.441   3.057
 2242SOL    HW2 7626   2.186   1.513   2.968
 2243SOL     OW 7627   1.242   0.623   4.369
 2243SOL    HW1 7628   1.218   0.653   4.461
 2243SOL    HW2 7629   1.170   0.562   4.334
 2244SOL     OW 7630   3.099   0.827   4.156
 2244SOL    HW1 7631   3.069   0.917   4.125
 2244SOL    HW2 7632   3.022   0.763   4.150
 2245SOL     OW 7633   0.270   1.465   1.433
 2245SOL    HW1 7634   0.183   1.499   1.468
 2245SOL    HW2 7635   0.305   1.394   1.493
 2246SOL     OW 7636   0.853   4.728   4.724
 2246SOL    HW1 7637   0.817   4.660   4.788
 2246SOL    HW2 7638   0.940   4.695   4.686
 2247SOL     OW 7639   2.211   2.066   3.719
 2247SOL    HW1 7640   2.208   2.062   3.819
 2247SOL    HW2 7641   2.190   2.159   3.689
 2248SOL     OW 7642   4.951   4.373   5.622
 2248SOL    HW1 7643   4.977   4.470   5.620
 2248SOL    HW2 7644   4.919   4.349   5.714
 2249SOL     OW 7645   5.471   6.287   5.241
 2249SOL    HW1 7646   5.521   6.240   5.169
 2249SOL    HW2 7647   5.535   6.344   5.294
 2250SOL     OW 7648   4.567   4.883   2.751
 2250SOL    HW1 7649   4.664   4.880   2.775
 2250SOL    HW2 7650   4.552   4.948   2.677
 2251SOL     OW 7651   0.727   1.706   5.634
 2251SOL    HW1 7652   0.745   1.772   5.561
 2251SOL    HW2 7653   0.629   1.702   5.653
 2252SOL     OW 7654   4.289   1.092   5.791
 2252SOL    HW1 7655   4.239   1.168   5.751
 2252SOL    HW2 7656   4.240   1.058   5.872
 2253SOL     OW 7657   0.449   3.957   1.156
 2253SOL    HW1 7658   0.483   3.863   1.148
 2253SOL    HW2 7659   0.350   3.957   1.146
 2254SOL     OW 7660   1.543   5.735   5.810
 2254SOL    HW1 7661   1.540   5.726   5.910
 2254SOL    HW2 7662   1.499   5.656   5.768
 2255SOL     OW 7663   0.023   4.293   6.643
 2255SOL    HW1 7664   0.109   4.318   6.687
 2255SOL    HW2 7665   0.041   4.254   6.553
 2256SOL     OW 7666   2.607   5.888   2.367
 2256SOL    HW1 7667   2.684   5.932   2.320
 2256SOL    HW2 7668   2.640   5.809   2.419
 2257SOL     OW 7669   0.487   4.894   6.357
 2257SOL    HW1 7670   0.442   4.948   6.427
 2257SOL    HW2 7671   0.564   4.945   6.319
 2258SOL     OW 7672   2.035   6.589   6.093
 2258SOL    HW1 7673   1.952   6.629   6.133
 2258SOL    HW2 7674   2.018   6.492   6.075
 2259SOL     OW 7675   5.999   1.871   6.378
 2259SOL    HW1 7676   5.902   1.848   6.381
 2259SOL    HW2 7677   6.011   1.958   6.331
 2260SOL     OW 7678   4.856   3.206   1.545
 2260SOL    HW1 7679   4.948   3.176   1.521
 2260SOL    HW2 7680   4.798   3.207   1.463
 2261SOL     OW 7681   2.022   6.273   5.612
 2261SOL    HW1 7682   2.114   6.257   5.576
 2261SOL    HW2 7683   1.956   6.224   5.555
 2262SOL     OW 7684   2.530   1.864   4.640
 2262SOL    HW1 7685   2.623   1.899   4.645
 2262SOL    HW2 7686   2.528   1.782   4.583
 2263SOL     OW 7687   0.606   4.627   6.330
 2263SOL    HW1 7688   0.652   4.594   6.413
 2263SOL    HW2 7689   0.571   4.719   6.346
 2264SOL     OW 7690   3.191   2.983   4.318
 2264SOL    HW1 7691   3.270   2.958   4.374
 2264SOL    HW2 7692   3.121   3.025   4.375
 2265SOL     OW 7693   6.917   6.403   4.225
 2265SOL    HW1 7694   6.865   6.358   4.153
 2265SOL    HW2 7695   7.015   6.393   4.206
 2266SOL     OW 7696   0.157   0.010   5.205
 2266SOL    HW1 7697   0.065   7.009   5.231
 2266SOL    HW2 7698   0.150   0.080   5.134
 2267SOL     OW 7699   6.344   1.827   4.804
 2267SOL    HW1 7700   6.338   1.769   4.723
 2267SOL    HW2 7701   6.322   1.773   4.885
 2268SOL     OW 7702   0.892   0.041   0.558
 2268SOL    HW1 7703   0.866   6.975   0.570
 2268SOL    HW2 7704   0.841   0.080   0.481
 2269SOL     OW 7705   6.653   6.102   2.735
 2269SOL    HW1 7706   6.648   6.008   2.701
 2269SOL    HW2 7707   6.584   6.158   2.689
 2270SOL     OW 7708   2.917   3.387   3.015
 2270SOL    HW1 7709   2.868   3.385   3.102
 2270SOL    HW2 7710   3.015   3.374   3.032
 2271SOL     OW 7711   1.380   3.810   2.634
 2271SOL    HW1 7712   1.293   3.810   2.683
 2271SOL    HW2 7713   1.374   3.870   2.555
 2272SOL     OW 7714   4.407   0.778   5.989
 2272SOL    HW1 7715   4.495   0.810   6.024
 2272SOL    HW2 7716   4.333   0.816   6.044
 2273SOL     OW 7717   6.910   1.155   1.876
 2273SOL    HW1 7718   6.840   1.184   1.941
 2273SOL    HW2 7719   6.919   1.224   1.804
 2274SOL     OW 7720   6.388   4.669   3.370
 2274SOL    HW1 7721   6.301   4.714   3.388
 2274SOL    HW2 7722   6.398   4.589   3.430
 2275SOL     OW 7723   4.220   6.275   3.996
 2275SOL    HW1 7724   4.151   6.289   3.926
 2275SOL    HW2 7725   4.176   6.256   4.084
 2276SOL     OW 7726   3.825   5.972   4.034
 2276SOL    HW1 7727   3.726   5.966   4.048
 2276SOL    HW2 7728   3.853   5.907   3.964
 2277SOL     OW 7729   3.445   2.910   2.724
 2277SOL    HW1 7730   3.409   2.844   2.658
 2277SOL    HW2 7731   3.412   3.001   2.701
 2278SOL     OW 7732   4.241   5.034   2.060
 2278SOL    HW1 7733   4.186   4.953   2.081
 2278SOL    HW2 7734   4.186   5.100   2.009
 2279SOL     OW 7735   6.059   4.561   5.651
 2279SOL    HW1 7736   6.038   4.516   5.737
 2279SOL    HW2 7737   6.158   4.576   5.645
 2280SOL     OW 7738   5.844   0.796   5.833
 2280SOL    HW1 7739   5.929   0.776   5.785
 2280SOL    HW2 7740   5.779   0.722   5.819
 2281SOL     OW 7741   2.117   0.331   0.274
 2281SOL    HW1 7742   2.148   0.287   0.189
 2281SOL    HW2 7743   2.084   0.423   0.253
 2282SOL     OW 7744   3.322   0.296   2.463
 2282SOL    HW1 7745   3.409   0.321   2.421
 2282SOL    HW2 7746   3.318   0.197   2.477
 2283SOL     OW 7747   1.060   3.024   1.173
 2283SOL    HW1 7748   1.043   2.987   1.264
 2283SOL    HW2 7749   0.979   3.072   1.140
 2284SOL     OW 7750   1.711   2.898   0.936
 2284SOL    HW1 7751   1.754   2.838   0.869
 2284SOL    HW2 7752   1.626   2.935   0.900
 2285SOL     OW 7753   2.625   2.931   0.409
 2285SOL    HW1 7754   2.655   2.915   0.503
 2285SOL    HW2 7755   2.668   2.866   0.348
 2286SOL     OW 7756   6.412   5.498   4.308
 2286SOL    HW1 7757   6.402   5.582   4.254
 2286SOL    HW2 7758   6.327   5.482   4.358
 2287SOL     OW 7759   2.863   2.090   1.074
 2287SOL    HW1 7760   2.858   2.006   1.021
 2287SOL    HW2 7761   2.954   2.099   1.114
 2288SOL     OW 7762   3.056   5.594   4.577
 2288SOL    HW1 7763   3.131   5.639   4.529
 2288SOL    HW2 7764   3.041   5.640   4.665
 2289SOL     OW 7765   3.983   7.004   5.247
 2289SOL    HW1 7766   4.053   6.953   5.196
 2289SOL    HW2 7767   3.943   0.043   5.187
 2290SOL     OW 7768   2.134   3.810   6.515
 2290SOL    HW1 7769   2.165   3.890   6.567
 2290SOL    HW2 7770   2.156   3.727   6.566
 2291SOL     OW 7771   3.808   1.999   0.443
 2291SOL    HW1 7772   3.816   2.068   0.371
 2291SOL    HW2 7773   3.859   2.029   0.524
 2292SOL     OW 7774   5.122   2.244   2.748
 2292SOL    HW1 7775   5.195   2.270   2.685
 2292SOL    HW2 7776   5.034   2.259   2.705
 2293SOL     OW 7777   6.825   0.708   6.567
 2293SOL    HW1 7778   6.877   0.756   6.638
 2293SOL    HW2 7779   6.769   0.637   6.608
 2294SOL     OW 7780   6.900   2.859   5.390
 2294SOL    HW1 7781   6.856   2.875   5.478
 2294SOL    HW2 7782   6.994   2.894   5.393
 2295SOL     OW 7783   5.861   5.848   0.321
 2295SOL    HW1 7784   5.777   5.895   0.294
 2295SOL    HW2 7785   5.846   5.749   0.321
 2296SOL     OW 7786   3.981   5.818   4.729
 2296SOL    HW1 7787   4.037   5.882   4.676
 2296SOL    HW2 7788   4.005   5.826   4.826
 2297SOL     OW 7789   6.113   2.553   0.215
 2297SOL    HW1 7790   6.130   2.518   0.307
 2297SOL    HW2 7791   6.192   2.535   0.157
 2298SOL     OW 7792   2.214   3.991   4.764
 2298SOL    HW1 7793   2.251   3.991   4.857
 2298SOL    HW2 7794   2.201   3.897   4.733
 2299SOL     OW 7795   6.124   3.829   4.597
 2299SOL    HW1 7796   6.216   3.866   4.588
 2299SOL    HW2 7797   6.113   3.786   4.687
 2300SOL     OW 7798   3.964   1.064   2.610
 2300SOL    HW1 7799   3.944   1.002   2.686
 2300SOL    HW2 7800   3.890   1.130   2.601
 2301SOL     OW 7801   4.555   3.242   5.878
 2301SOL    HW1 7802   4.587   3.163   5.826
 2301SOL    HW2 7803   4.604   3.248   5.965
 2302SOL     OW 7804   0.340   3.781   4.760
 2302SOL    HW1 7805   0.351   3.694   4.808
 2302SOL    HW2 7806   0.415   3.793   4.695
 2303SOL     OW 7807   2.328   2.566   6.733
 2303SOL    HW1 7808   2.379   2.564   6.818
 2303SOL    HW2 7809   2.369   2.501   6.668
 2304SOL     OW 7810   3.702   0.296   3.413
 2304SOL    HW1 7811   3.620   0.239   3.411
 2304SOL    HW2 7812   3.675   0.393   3.414
 2305SOL     OW 7813   3.079   6.005   4.769
 2305SOL    HW1 7814   3.134   6.044   4.842
 2305SOL    HW2 7815   3.054   5.911   4.792
 2306SOL     OW 7816   0.900   4.756   5.616
 2306SOL    HW1 7817   0.822   4.801   5.658
 2306SOL    HW2 7818   0.874   4.663   5.588
 2307SOL     OW 7819   6.264   4.083   5.690
 2307SOL    HW1 7820   6.295   4.115   5.779
 2307SOL    HW2 7821   6.176   4.125   5.668
 2308SOL     OW 7822   0.719   6.054   2.953
 2308SOL    HW1 7823   0.626   6.016   2.951
 2308SOL    HW2 7824   0.722   6.130   3.018
 2309SOL     OW 7825   1.504   1.061   4.597
 2309SOL    HW1 7826   1.506   1.112   4.683
 2309SOL    HW2 7827   1.487   1.124   4.521
 2310SOL     OW 7828   5.056   5.846   0.755
 2310SOL    HW1 7829   5.051   5.844   0.855
 2310SOL    HW2 7830   4.975   5.890   0.719
 2311SOL     OW 7831   2.784   5.683   0.368
 2311SOL    HW1 7832   2.719   5.624   0.417
 2311SOL    HW2 7833   2.747   5.705   0.278
 2312SOL     OW 7834   2.918   5.076   1.489
 2312SOL    HW1 7835   2.886   5.155   1.541
 2312SOL    HW2 7836   2.868   4.994   1.519
 2313SOL     OW 7837   4.831   4.749   1.345
 2313SOL    HW1 7838   4.879   4.681   1.289
 2313SOL    HW2 7839   4.870   4.750   1.437
 2314SOL     OW 7840   2.102   4.777   2.384
 2314SOL    HW1 7841   2.126   4.682   2.404
 2314SOL    HW2 7842   2.145   4.837   2.451
 2315SOL     OW 7843   3.854   2.144   6.744
 2315SOL    HW1 7844   3.815   2.197   6.820
 2315SOL    HW2 7845   3.829   2.048   6.754
 2316SOL     OW 7846   5.939   4.233   1.841
 2316SOL    HW1 7847   6.034   4.257   1.817
 2316SOL    HW2 7848   5.906   4.296   1.911
 2317SOL     OW 7849   0.372   0.129   3.763
 2317SOL    HW1 7850   0.426   0.073   3.699
 2317SOL    HW2 7851   0.422   0.212   3.785
 2318SOL     OW 7852   6.314   1.878   3.341
 2318SOL    HW1 7853   6.243   1.912   3.402
 2318SOL    HW2 7854   6.350   1.791   3.376
 2319SOL     OW 7855   0.895   5.946   3.430
 2319SOL    HW1 7856   0.843   6.021   3.471
 2319SOL    HW2 7857   0.832   5.880   3.390
 2320SOL     OW 7858   6.851   4.749   3.700
 2320SOL    HW1 7859   6.849   4.732   3.601
 2320SOL    HW2 7860   6.885   4.667   3.747
 2321SOL     OW 7861   2.831   4.872   3.693
 2321SOL    HW1 7862   2.863   4.952   3.643
 2321SOL    HW2 7863   2.894   4.852   3.768
 2322SOL     OW 7864   1.847   1.973   5.274
 2322SOL    HW1 7865   1.812   2.063   5.298
 2322SOL    HW2 7866   1.798   1.903   5.325
 2323SOL     OW 7867   5.852   3.665   1.444
 2323SOL    HW1 7868   5.945   3.676   1.410
 2323SOL    HW2 7869   5.810   3.585   1.401
 2324SOL     OW 7870   0.042   5.320   4.148
 2324SOL    HW1 7871   0.035   5.416   4.123
 2324SOL    HW2 7872   6.994   5.294   4.205
 2325SOL     OW 7873   6.423   1.710   0.558
 2325SOL    HW1 7874   6.502   1.649   0.567
 2325SOL    HW2 7875   6.445   1.800   0.597
 2326SOL     OW 7876   0.669   5.421   0.311
 2326SOL    HW1 7877   0.702   5.415   0.405
 2326SOL    HW2 7878   0.711   5.349   0.256
 2327SOL     OW 7879   4.973   1.061   2.832
 2327SOL    HW1 7880   4.953   1.098   2.741
 2327SOL    HW2 7881   4.968   0.961   2.830
 2328SOL     OW 7882   6.367   5.696   3.873
 2328SOL    HW1 7883   6.331   5.741   3.791
 2328SOL    HW2 7884   6.467   5.697   3.871
 2329SOL     OW 7885   1.465   6.600   3.380
 2329SOL    HW1 7886   1.394   6.648   3.329
 2329SOL    HW2 7887   1.471   6.505   3.347
 2330SOL     OW 7888   1.825   3.920   6.802
 2330SOL    HW1 7889   1.897   3.967   6.853
 2330SOL    HW2 7890   1.789   3.845   6.857
 2331SOL     OW 7891   1.495   4.231   5.320
 2331SOL    HW1 7892   1.574   4.243   5.380
 2331SOL    HW2 7893   1.519   4.166   5.247
 2332SOL     OW 7894   6.439   3.705   6.765
 2332SOL    HW1 7895   6.359   3.764   6.764
 2332SOL    HW2 7896   6.516   3.753   6.724
 2333SOL     OW 7897   2.244   4.823   3.971
 2333SOL    HW1 7898   2.193   4.882   4.034
 2333SOL    HW2 7899   2.336   4.809   4.007
 2334SOL     OW 7900   1.827   0.396   6.134
 2334SOL    HW1 7901   1.887   0.443   6.069
 2334SOL    HW2 7902   1.733   0.396   6.099
 2335SOL     OW 7903   5.255   4.447   4.867
 2335SOL    HW1 7904   5.207   4.522   4.911
 2335SOL    HW2 7905   5.211   4.424   4.781
 2336SOL     OW 7906   4.775   1.385   5.560
 2336SOL    HW1 7907   4.786   1.476   5.522
 2336SOL    HW2 7908   4.678   1.362   5.563
 2337SOL     OW 7909   6.014   0.539   5.084
 2337SOL    HW1 7910   6.010   0.515   5.181
 2337SOL    HW2 7911   6.017   0.638   5.074
 2338SOL     OW 7912   1.629   6.614   0.086
 2338SOL    HW1 7913   1.703   6.676   0.060
 2338SOL    HW2 7914   1.574   6.591   0.006
 2339SOL     OW 7915   3.020   4.200   5.844
 2339SOL    HW1 7916   3.051   4.294   5.858
 2339SOL    HW2 7917   3.051   4.168   5.754
 2340SOL     OW 7918   4.212   5.085   3.997
 2340SOL    HW1 7919   4.274   5.040   3.933
 2340SOL    HW2 7920   4.123   5.040   3.994
 2341SOL     OW 7921   0.926   3.927   6.062
 2341SOL    HW1 7922   1.023   3.910   6.076
 2341SOL    HW2 7923   0.900   3.896   5.970
 2342SOL     OW 7924   4.637   1.296   5.024
 2342SOL    HW1 7925   4.716   1.308   5.084
 2342SOL    HW2 7926   4.660   1.328   4.932
 2343SOL     OW 7927   0.613   5.924   1.773
 2343SOL    HW1 7928   0.529   5.894   1.729
 2343SOL    HW2 7929   0.691   5.902   1.713
 2344SOL     OW 7930   1.775   0.390   2.921
 2344SOL    HW1 7931   1.791   0.302   2.876
 2344SOL    HW2 7932   1.861   0.440   2.928
 2345SOL     OW 7933   1.156   2.594   1.918
 2345SOL    HW1 7934   1.062   2.591   1.950
 2345SOL    HW2 7935   1.217   2.557   1.988
 2346SOL     OW 7936   5.760   2.797   4.822
 2346SOL    HW1 7937   5.689   2.767   4.887
 2346SOL    HW2 7938   5.781   2.723   4.759
 2347SOL     OW 7939   1.729   4.176   1.385
 2347SOL    HW1 7940   1.735   4.254   1.322
 2347SOL    HW2 7941   1.637   4.169   1.421
 2348SOL     OW 7942   3.141   6.925   1.682
 2348SOL    HW1 7943   3.209   6.856   1.708
 2348SOL    HW2 7944   3.130   6.925   1.582
 2349SOL     OW 7945   5.661   2.498   0.125
 2349SOL    HW1 7946   5.753   2.461   0.113
 2349SOL    HW2 7947   5.650   2.578   0.066
 2350SOL     OW 7948   2.506   5.723   5.478
 2350SOL    HW1 7949   2.506   5.692   5.383
 2350SOL    HW2 7950   2.596   5.708   5.518
 2351SOL     OW 7951   1.513   5.695   3.314
 2351SOL    HW1 7952   1.581   5.762   3.283
 2351SOL    HW2 7953   1.432   5.743   3.348
 2352SOL     OW 7954   5.768   6.039   6.123
 2352SOL    HW1 7955   5.830   6.073   6.053
 2352SOL    HW2 7956   5.788   6.084   6.210
 2353SOL     OW 7957   3.137   3.054   6.554
 2353SOL    HW1 7958   3.113   3.016   6.643
 2353SOL    HW2 7959   3.055   3.062   6.497
 2354SOL     OW 7960   3.272   1.549   2.429
 2354SOL    HW1 7961   3.198   1.485   2.410
 2354SOL    HW2 7962   3.248   1.639   2.394
 2355SOL     OW 7963   6.420   1.169   2.103
 2355SOL    HW1 7964   6.423   1.215   2.014
 2355SOL    HW2 7965   6.361   1.089   2.098
 2356SOL     OW 7966   3.920   5.058   3.973
 2356SOL    HW1 7967   3.916   5.157   3.958
 2356SOL    HW2 7968   3.834   5.027   4.014
 2357SOL     OW 7969   0.148   5.577   0.856
 2357SOL    HW1 7970   0.104   5.662   0.826
 2357SOL    HW2 7971   0.223   5.554   0.794
 2358SOL     OW 7972   2.026   0.998   4.741
 2358SOL    HW1 7973   2.014   1.095   4.723
 2358SOL    HW2 7974   2.006   0.979   4.837
 2359SOL     OW 7975   3.694   2.665   5.543
 2359SOL    HW1 7976   3.675   2.662   5.445
 2359SOL    HW2 7977   3.707   2.572   5.577
 2360SOL     OW 7978   3.637   5.006   1.889
 2360SOL    HW1 7979   3.624   5.006   1.790
 2360SOL    HW2 7980   3.635   4.912   1.923
 2361SOL     OW 7981   3.684   4.841   0.882
 2361SOL    HW1 7982   3.656   4.890   0.964
 2361SOL    HW2 7983   3.687   4.903   0.805
 2362SOL     OW 7984   3.493   4.921   4.407
 2362SOL    HW1 7985   3.524   5.005   4.451
 2362SOL    HW2 7986   3.544   4.843   4.443
 2363SOL     OW 7987   2.604   3.806   1.653
 2363SOL    HW1 7988   2.532   3.738   1.639
 2363SOL    HW2 7989   2.590   3.852   1.741
 2364SOL     OW 7990   4.628   0.921   2.699
 2364SOL    HW1 7991   4.564   0.990   2.732
 2364SOL    HW2 7992   4.615   0.906   2.601
 2365SOL     OW 7993   5.766   3.755   2.847
 2365SOL    HW1 7994   5.796   3.837   2.897
 2365SOL    HW2 7995   5.709   3.699   2.907
 2366SOL     OW 7996   4.458   5.177   4.839
 2366SOL    HW1 7997   4.385   5.113   4.814
 2366SOL    HW2 7998   4.430   5.270   4.818
 2367SOL     OW 7999   5.850   4.632   5.824
 2367SOL    HW1 8000   5.897   4.694   5.760
 2367SOL    HW2 8001   5.751   4.643   5.813
 2368SOL     OW 8002   5.468   1.702   5.090
 2368SOL    HW1 8003   5.422   1.615   5.071
 2368SOL    HW2 8004   5.429   1.742   5.172
 2369SOL     OW 8005   4.464   1.984   4.028
 2369SOL    HW1 8006   4.378   1.933   4.022
 2369SOL    HW2 8007   4.539   1.920   4.045
 2370SOL     OW 8008   4.146   1.986   0.475
 2370SOL    HW1 8009   4.125   2.070   0.424
 2370SOL    HW2 8010   4.118   1.907   0.421
 2371SOL     OW 8011   2.215   6.597   3.512
 2371SOL    HW1 8012   2.197   6.687   3.552
 2371SOL    HW2 8013   2.130   6.558   3.479
 2372SOL     OW 8014   5.676   6.427   6.938
 2372SOL    HW1 8015   5.620   6.443   7.019
 2372SOL    HW2 8016   5.621   6.438   6.855
 2373SOL     OW 8017   6.542   4.347   6.218
 2373SOL    HW1 8018   6.532   4.261   6.268
 2373SOL    HW2 8019   6.469   4.409   6.245
 2374SOL     OW 8020   0.691   5.370   2.749
 2374SOL    HW1 8021   0.605   5.327   2.776
 2374SOL    HW2 8022   0.736   5.407   2.830
 2375SOL     OW 8023   2.134   0.470   4.552
 2375SOL    HW1 8024   2.177   0.380   4.544
 2375SOL    HW2 8025   2.199   0.534   4.592
 2376SOL     OW 8026   6.129   3.003   4.337
 2376SOL    HW1 8027   6.133   2.985   4.436
 2376SOL    HW2 8028   6.096   2.921   4.290
 2377SOL     OW 8029   3.475   5.028   5.884
 2377SOL    HW1 8030   3.481   4.930   5.904
 2377SOL    HW2 8031   3.496   5.080   5.967
 2378SOL     OW 8032   0.752   6.988   0.882
 2378SOL    HW1 8033   0.729   6.920   0.951
 2378SOL    HW2 8034   0.841   6.967   0.842
 2379SOL     OW 8035   0.744   4.407   3.538
 2379SOL    HW1 8036   0.783   4.321   3.505
 2379SOL    HW2 8037   0.645   4.405   3.526
 2380SOL     OW 8038   4.594   5.490   6.145
 2380SOL    HW1 8039   4.537   5.471   6.065
 2380SOL    HW2 8040   4.563   5.575   6.189
 2381SOL     OW 8041   2.364   4.796   3.722
 2381SOL    HW1 8042   2.436   4.731   3.697
 2381SOL    HW2 8043   2.319   4.766   3.806
 2382SOL     OW 8044   6.375   5.943   2.193
 2382SOL    HW1 8045   6.402   5.956   2.288
 2382SOL    HW2 8046   6.411   5.856   2.160
 2383SOL     OW 8047   4.359   3.426   6.024
 2383SOL    HW1 8048   4.451   3.463   6.020
 2383SOL    HW2 8049   4.351   3.349   5.960
 2384SOL     OW 8050   1.119   2.310   3.222
 2384SOL    HW1 8051   1.024   2.296   3.248
 2384SOL    HW2 8052   1.128   2.394   3.169
 2385SOL     OW 8053   0.697   0.716   1.012
 2385SOL    HW1 8054   0.675   0.767   1.095
 2385SOL    HW2 8055   0.613   0.698   0.961
 2386SOL     OW 8056   7.024   4.922   6.748
 2386SOL    HW1 8057   0.074   4.965   6.790
 2386SOL    HW2 8058   0.010   4.910   6.650
 2387SOL     OW 8059   6.081   0.469   2.967
 2387SOL    HW1 8060   6.055   0.505   3.057
 2387SOL    HW2 8061   6.178   0.489   2.950
 2388SOL     OW 8062   1.974   5.122   3.835
 2388SOL    HW1 8063   2.023   5.085   3.914
 2388SOL    HW2 8064   2.039   5.138   3.760
 2389SOL     OW 8065   3.364   6.472   3.028
 2389SOL    HW1 8066   3.366   6.434   2.936
 2389SOL    HW2 8067   3.427   6.550   3.033
 2390SOL     OW 8068   4.924   3.522   4.746
 2390SOL    HW1 8069   4.924   3.544   4.649
 2390SOL    HW2 8070   4.859   3.581   4.794
 2391SOL     OW 8071   2.557   3.970   6.852
 2391SOL    HW1 8072   2.633   4.034   6.861
 2391SOL    HW2 8073   2.584   3.893   6.795
 2392SOL     OW 8074   3.913   5.040   5.450
 2392SOL    HW1 8075   3.838   5.051   5.384
 2392SOL    HW2 8076   3.965   5.125   5.456
 2393SOL     OW 8077   5.108   5.032   0.667
 2393SOL    HW1 8078   5.042   5.054   0.595
 2393SOL    HW2 8079   5.117   5.110   0.729
 2394SOL     OW 8080   0.003   2.463   2.660
 2394SOL    HW1 8081   7.029   2.376   2.710
 2394SOL    HW2 8082   6.941   2.486   2.627
 2395SOL     OW 8083   0.766   3.073   3.177
 2395SOL    HW1 8084   0.756   3.169   3.203
 2395SOL    HW2 8085   0.853   3.060   3.130
 2396SOL     OW 8086   0.352   0.156   5.381
 2396SOL    HW1 8087   0.264   0.112   5.359
 2396SOL    HW2 8088   0.396   0.105   5.455
 2397SOL     OW 8089   2.903   4.721   5.533
 2397SOL    HW1 8090   2.848   4.644   5.567
 2397SOL    HW2 8091   2.844   4.798   5.512
 2398SOL     OW 8092   3.985   6.180   5.000
 2398SOL    HW1 8093   3.955   6.194   4.905
 2398SOL    HW2 8094   3.921   6.225   5.062
 2399SOL     OW 8095   2.715   1.324   1.885
 2399SOL    HW1 8096   2.687   1.413   1.920
 2399SOL    HW2 8097   2.770   1.277   1.954
 2400SOL     OW 8098   0.880   2.046   6.083
 2400SOL    HW1 8099   0.811   1.976   6.102
 2400SOL    HW2 8100   0.918   2.032   5.992
 2401SOL     OW 8101   1.322   6.662   0.451
 2401SOL    HW1 8102   1.390   6.605   0.497
 2401SOL    HW2 8103   1.238   6.609   0.437
 2402SOL     OW 8104   0.861   2.982   1.545
 2402SOL    HW1 8105   0.844   3.070   1.589
 2402SOL    HW2 8106   0.958   2.972   1.524
 2403SOL     OW 8107   3.250   4.133   5.175
 2403SOL    HW1 8108   3.344   4.159   5.199
 2403SOL    HW2 8109   3.188   4.207   5.200
 2404SOL     OW 8110   6.468   2.015   1.462
 2404SOL    HW1 8111   6.506   1.954   1.533
 2404SOL    HW2 8112   6.368   2.010   1.465
 2405SOL     OW 8113   2.782   3.612   0.776
 2405SOL    HW1 8114   2.817   3.547   0.844
 2405SOL    HW2 8115   2.712   3.569   0.721
 2406SOL     OW 8116   4.853   5.948   5.648
 2406SOL    HW1 8117   4.869   5.891   5.729
 2406SOL    HW2 8118   4.941   5.973   5.607
 2407SOL     OW 8119   2.250   1.829   3.570
 2407SOL    HW1 8120   2.161   1.783   3.563
 2407SOL    HW2 8121   2.239   1.916   3.618
 2408SOL     OW 8122   4.570   6.530   5.561
 2408SOL    HW1 8123   4.496   6.566   5.618
 2408SOL    HW2 8124   4.604   6.602   5.501
 2409SOL     OW 8125   1.834   2.592   6.948
 2409SOL    HW1 8126   1.764   2.652   6.909
 2409SOL    HW2 8127   1.919   2.601   6.895
 2410SOL     OW 8128   6.955   3.338   4.719
 2410SOL    HW1 8129   6.984   3.305   4.629
 2410SOL    HW2 8130   7.026   3.397   4.757
 2411SOL     OW 8131   3.192   0.880   0.901
 2411SOL    HW1 8132   3.211   0.903   0.996
 2411SOL    HW2 8133   3.190   0.780   0.891
 2412SOL     OW 8134   3.750   2.637   0.375
 2412SOL    HW1 8135   3.655   2.628   0.345
 2412SOL    HW2 8136   3.805   2.565   0.331
 2413SOL     OW 8137   0.439   3.725   6.726
 2413SOL    HW1 8138   0.492   3.771   6.797
 2413SOL    HW2 8139   0.351   3.770   6.715
 2414SOL     OW 8140   5.987   1.972   5.184
 2414SOL    HW1 8141   6.066   1.943   5.238
 2414SOL    HW2 8142   5.982   1.917   5.100
 2415SOL     OW 8143   3.276   3.965   5.486
 2415SOL    HW1 8144   3.348   4.021   5.446
 2415SOL    HW2 8145   3.316   3.893   5.542
 2416SOL     OW 8146   6.604   3.256   3.277
 2416SOL    HW1 8147   6.619   3.162   3.309
 2416SOL    HW2 8148   6.594   3.256   3.178
 2417SOL     OW 8149   3.109   2.711   1.611
 2417SOL    HW1 8150   3.169   2.641   1.572
 2417SOL    HW2 8151   3.038   2.667   1.666
 2418SOL     OW 8152   6.043   3.462   6.485
 2418SOL    HW1 8153   6.022   3.377   6.437
 2418SOL    HW2 8154   6.025   3.451   6.583
 2419SOL     OW 8155   2.870   1.545   2.692
 2419SOL    HW1 8156   2.941   1.615   2.689
 2419SOL    HW2 8157   2.904   1.462   2.649
 2420SOL     OW 8158   0.593   2.915   1.437
 2420SOL    HW1 8159   0.683   2.946   1.469
 2420SOL    HW2 8160   0.571   2.959   1.350
 2421SOL     OW 8161   2.678   0.552   3.537
 2421SOL    HW1 8162   2.667   0.541   3.439
 2421SOL    HW2 8163   2.727   0.474   3.575
 2422SOL     OW 8164   4.017   0.006   0.431
 2422SOL    HW1 8165   3.974   0.074   0.372
 2422SOL    HW2 8166   4.081   0.051   0.493
 2423SOL     OW 8167   3.509   4.953   5.217
 2423SOL    HW1 8168   3.438   4.888   5.190
 2423SOL    HW2 8169   3.513   4.958   5.317
 2424SOL     OW 8170   5.204   0.447   6.261
 2424SOL    HW1 8171   5.289   0.499   6.266
 2424SOL    HW2 8172   5.133   0.494   6.314
 2425SOL     OW 8173   5.548   5.315   4.820
 2425SOL    HW1 8174   5.460   5.354   4.793
 2425SOL    HW2 8175   5.572   5.241   4.757
 2426SOL     OW 8176   3.075   2.051   5.127
 2426SOL    HW1 8177   3.125   2.134   5.104
 2426SOL    HW2 8178   3.067   2.044   5.227
 2427SOL     OW 8179   4.117   2.929   6.686
 2427SOL    HW1 8180   4.209   2.912   6.650
 2427SOL    HW2 8181   4.054   2.948   6.611
 2428SOL     OW 8182   1.603   1.857   1.965
 2428SOL    HW1 8183   1.612   1.834   2.062
 2428SOL    HW2 8184   1.519   1.816   1.929
 2429SOL     OW 8185   4.838   5.096   1.652
 2429SOL    HW1 8186   4.893   5.015   1.673
 2429SOL    HW2 8187   4.818   5.099   1.554
 2430SOL     OW 8188   6.898   5.809   6.674
 2430SOL    HW1 8189   6.838   5.740   6.633
 2430SOL    HW2 8190   6.983   5.765   6.703
 2431SOL     OW 8191   2.145   3.197   1.467
 2431SOL    HW1 8192   2.084   3.128   1.427
 2431SOL    HW2 8193   2.092   3.279   1.489
 2432SOL     OW 8194   2.879   5.800   3.099
 2432SOL    HW1 8195   2.788   5.784   3.138
 2432SOL    HW2 8196   2.944   5.821   3.172
 2433SOL     OW 8197   0.283   4.512   4.246
 2433SOL    HW1 8198   0.285   4.418   4.281
 2433SOL    HW2 8199   0.243   4.512   4.154
 2434SOL     OW 8200   3.708   2.117   2.847
 2434SOL    HW1 8201   3.724   2.025   2.882
 2434SOL    HW2 8202   3.792   2.151   2.805
 2435SOL     OW 8203   5.726   6.456   5.888
 2435SOL    HW1 8204   5.748   6.360   5.873
 2435SOL    HW2 8205   5.709   6.500   5.800
 2436SOL     OW 8206   0.130   3.366   0.197
 2436SOL    HW1 8207   0.070   3.305   0.249
 2436SOL    HW2 8208   0.082   3.452   0.178
 2437SOL     OW 8209   1.233   4.791   0.982
 2437SOL    HW1 8210   1.229   4.824   0.887
 2437SOL    HW2 8211   1.274   4.862   1.040
 2438SOL     OW 8212   4.107   1.967   4.695
 2438SOL    HW1 8213   4.102   1.983   4.596
 2438SOL    HW2 8214   4.082   1.873   4.715
 2439SOL     OW 8215   0.537   6.112   6.599
 2439SOL    HW1 8216   0.632   6.082   6.605
 2439SOL    HW2 8217   0.525   6.194   6.656
 2440SOL     OW 8218   0.119   2.512   5.388
 2440SOL    HW1 8219   0.085   2.526   5.481
 2440SOL    HW2 8220   0.063   2.566   5.324
 2441SOL     OW 8221   6.860   0.110   0.062
 2441SOL    HW1 8222   6.816   0.020   0.062
 2441SOL    HW2 8223   6.799   0.177   0.020
 2442SOL     OW 8224   5.755   3.002   3.403
 2442SOL    HW1 8225   5.715   2.968   3.488
 2442SOL    HW2 8226   5.825   2.937   3.371
 2443SOL     OW 8227   1.076   3.420   1.302
 2443SOL    HW1 8228   1.123   3.378   1.379
 2443SOL    HW2 8229   1.019   3.496   1.335
 2444SOL     OW 8230   3.661   5.247   2.867
 2444SOL    HW1 8231   3.662   5.180   2.941
 2444SOL    HW2 8232   3.677   5.201   2.780
 2445SOL     OW 8233   0.228   1.178   1.506
 2445SOL    HW1 8234   0.299   1.117   1.471
 2445SOL    HW2 8235   0.232   1.180   1.606
 2446SOL     OW 8236   6.477   5.574   0.741
 2446SOL    HW1 8237   6.569   5.540   0.720
 2446SOL    HW2 8238   6.479   5.627   0.825
 2447SOL     OW 8239   1.812   0.115   6.770
 2447SOL    HW1 8240   1.770   0.048   6.709
 2447SOL    HW2 8241   1.765   0.202   6.761
 2448SOL     OW 8242   5.019   0.677   4.611
 2448SOL    HW1 8243   5.014   0.613   4.687
 2448SOL    HW2 8244   5.056   0.630   4.530
 2449SOL     OW 8245   2.037   3.749   1.275
 2449SOL    HW1 8246   2.020   3.825   1.213
 2449SOL    HW2 8247   2.131   3.754   1.309
 2450SOL     OW 8248   6.751   6.391   6.121
 2450SOL    HW1 8249   6.778   6.297   6.140
 2450SOL    HW2 8250   6.827   6.452   6.143
 2451SOL     OW 8251   1.143   0.487   0.164
 2451SOL    HW1 8252   1.121   0.417   0.233
 2451SOL    HW2 8253   1.221   0.541   0.196
 2452SOL     OW 8254   1.717   2.445   4.033
 2452SOL    HW1 8255   1.752   2.538   4.047
 2452SOL    HW2 8256   1.625   2.438   4.070
 2453SOL     OW 8257   0.694   2.101   0.010
 2453SOL    HW1 8258   0.635   2.073   6.965
 2453SOL    HW2 8259   0.735   2.190   7.018
 2454SOL     OW 8260   2.156   6.423   0.701
 2454SOL    HW1 8261   2.238   6.386   0.743
 2454SOL    HW2 8262   2.182   6.482   0.624
 2455SOL     OW 8263   4.883   2.318   6.135
 2455SOL    HW1 8264   4.871   2.399   6.078
 2455SOL    HW2 8265   4.945   2.254   6.089
 2456SOL     OW 8266   1.482   2.948   5.561
 2456SOL    HW1 8267   1.400   2.916   5.609
 2456SOL    HW2 8268   1.518   3.029   5.608
 2457SOL     OW 8269   5.827   1.683   5.882
 2457SOL    HW1 8270   5.868   1.699   5.792
 2457SOL    HW2 8271   5.853   1.757   5.944
 2458SOL     OW 8272   1.298   6.948   1.473
 2458SOL    HW1 8273   1.312   0.003   1.422
 2458SOL    HW2 8274   1.310   6.966   1.571
 2459SOL     OW 8275   1.768   0.314   1.161
 2459SOL    HW1 8276   1.740   0.382   1.228
 2459SOL    HW2 8277   1.751   0.222   1.198
 2460SOL     OW 8278   0.509   1.208   4.459
 2460SOL    HW1 8279   0.461   1.144   4.518
 2460SOL    HW2 8280   0.483   1.302   4.484
 2461SOL     OW 8281   2.099   1.965   3.198
 2461SOL    HW1 8282   2.151   1.882   3.178
 2461SOL    HW2 8283   2.024   1.974   3.133
 2462SOL     OW 8284   0.402   5.313   0.574
 2462SOL    HW1 8285   0.327   5.268   0.526
 2462SOL    HW2 8286   0.373   5.405   0.601
 2463SOL     OW 8287   6.691   5.995   0.051
 2463SOL    HW1 8288   6.696   6.083   0.004
 2463SOL    HW2 8289   6.758   5.932   0.010
 2464SOL     OW 8290   0.768   2.752   4.876
 2464SOL    HW1 8291   0.857   2.758   4.832
 2464SOL    HW2 8292   0.767   2.807   4.959
 2465SOL     OW 8293   0.048   1.465   6.869
 2465SOL    HW1 8294   0.047   1.410   6.786
 2465SOL    HW2 8295   0.025   1.560   6.847
 2466SOL     OW 8296   1.240   1.877   1.150
 2466SOL    HW1 8297   1.188   1.888   1.066
 2466SOL    HW2 8298   1.189   1.821   1.215
 2467SOL     OW 8299   4.921   3.237   4.677
 2467SOL    HW1 8300   4.837   3.288   4.659
 2467SOL    HW2 8301   4.901   3.157   4.733
 2468SOL     OW 8302   3.363   6.647   4.354
 2468SOL    HW1 8303   3.375   6.681   4.448
 2468SOL    HW2 8304   3.265   6.647   4.332
 2469SOL     OW 8305   3.000   2.071   6.023
 2469SOL    HW1 8306   2.924   2.121   5.981
 2469SOL    HW2 8307   3.002   2.089   6.121
 2470SOL     OW 8308   1.976   5.291   6.325
 2470SOL    HW1 8309   1.972   5.248   6.415
 2470SOL    HW2 8310   1.972   5.221   6.254
 2471SOL     OW 8311   2.394   6.190   2.722
 2471SOL    HW1 8312   2.412   6.095   2.696
 2471SOL    HW2 8313   2.425   6.250   2.649
 2472SOL     OW 8314   5.065   0.561   2.648
 2472SOL    HW1 8315   5.158   0.526   2.658
 2472SOL    HW2 8316   5.008   0.491   2.604
 2473SOL     OW 8317   0.789   4.085   4.931
 2473SOL    HW1 8318   0.796   4.164   4.992
 2473SOL    HW2 8319   0.721   4.104   4.860
 2474SOL     OW 8320   2.036   0.359   1.233
 2474SOL    HW1 8321   2.006   0.454   1.246
 2474SOL    HW2 8322   1.964   0.308   1.187
 2475SOL     OW 8323   5.659   2.019   0.479
 2475SOL    HW1 8324   5.595   2.066   0.419
 2475SOL    HW2 8325   5.612   1.944   0.526
 2476SOL     OW 8326   4.448   6.414   7.016
 2476SOL    HW1 8327   4.480   6.339   6.958
 2476SOL    HW2 8328   4.443   6.498   6.963
 2477SOL     OW 8329   4.322   1.547   4.141
 2477SOL    HW1 8330   4.337   1.454   4.174
 2477SOL    HW2 8331   4.405   1.581   4.096
 2478SOL     OW 8332   3.362   0.423   4.075
 2478SOL    HW1 8333   3.418   0.491   4.029
 2478SOL    HW2 8334   3.397   0.331   4.056
 2479SOL     OW 8335   6.350   4.079   2.500
 2479SOL    HW1 8336   6.428   4.137   2.522
 2479SOL    HW2 8337   6.282   4.085   2.573
 2480SOL     OW 8338   2.815   2.139   1.655
 2480SOL    HW1 8339   2.866   2.192   1.588
 2480SOL    HW2 8340   2.868   2.134   1.740
 2481SOL     OW 8341   3.200   0.392   2.225
 2481SOL    HW1 8342   3.200   0.332   2.146
 2481SOL    HW2 8343   3.241   0.345   2.303
 2482SOL     OW 8344   0.012   3.283   6.964
 2482SOL    HW1 8345   0.063   3.241   0.010
 2482SOL    HW2 8346   7.004   3.370   6.995
 2483SOL     OW 8347   2.786   1.846   0.929
 2483SOL    HW1 8348   2.790   1.747   0.941
 2483SOL    HW2 8349   2.750   1.867   0.839
 2484SOL     OW 8350   4.514   1.186   5.973
 2484SOL    HW1 8351   4.593   1.187   5.911
 2484SOL    HW2 8352   4.448   1.117   5.941
 2485SOL     OW 8353   0.537   1.428   6.941
 2485SOL    HW1 8354   0.589   1.361   6.994
 2485SOL    HW2 8355   0.566   1.521   6.966
 2486SOL     OW 8356   6.554   5.779   2.567
 2486SOL    HW1 8357   6.548   5.710   2.494
 2486SOL    HW2 8358   6.475   5.840   2.561
 2487SOL     OW 8359   4.162   6.389   6.861
 2487SOL    HW1 8360   4.200   6.458   6.798
 2487SOL    HW2 8361   4.139   6.433   6.947
 2488SOL     OW 8362   0.728   3.513   0.651
 2488SOL    HW1 8363   0.746   3.609   0.669
 2488SOL    HW2 8364   0.648   3.484   0.704
 2489SOL     OW 8365   5.966   5.928   4.648
 2489SOL    HW1 8366   5.902   5.887   4.583
 2489SOL    HW2 8367   5.981   5.865   4.725
 2490SOL     OW 8368   3.142   5.793   2.734
 2490SOL    HW1 8369   3.123   5.890   2.723
 2490SOL    HW2 8370   3.164   5.773   2.830
 2491SOL     OW 8371   3.920   4.295   1.699
 2491SOL    HW1 8372   3.885   4.381   1.735
 2491SOL    HW2 8373   3.877   4.275   1.611
 2492SOL     OW 8374   6.743   4.460   2.149
 2492SOL    HW1 8375   6.797   4.531   2.195
 2492SOL    HW2 8376   6.759   4.466   2.051
 2493SOL     OW 8377   5.870   6.555   0.458
 2493SOL    HW1 8378   5.801   6.601   0.514
 2493SOL    HW2 8379   5.839   6.462   0.436
 2494SOL     OW 8380   0.109   3.147   1.428
 2494SOL    HW1 8381   0.087   3.112   1.519
 2494SOL    HW2 8382   0.208   3.141   1.413
 2495SOL     OW 8383   6.432   2.889   2.329
 2495SOL    HW1 8384   6.431   2.939   2.242
 2495SOL    HW2 8385   6.365   2.931   2.391
 2496SOL     OW 8386   5.129   4.138   5.690
 2496SOL    HW1 8387   5.067   4.172   5.620
 2496SOL    HW2 8388   5.194   4.209   5.716
 2497SOL     OW 8389   0.585   6.927   3.875
 2497SOL    HW1 8390   0.629   6.968   3.794
 2497SOL    HW2 8391   0.559   6.999   3.938
 2498SOL     OW 8392   2.136   3.103   4.381
 2498SOL    HW1 8393   2.180   3.090   4.291
 2498SOL    HW2 8394   2.038   3.112   4.368
 2499SOL     OW 8395   6.049   2.588   0.819
 2499SOL    HW1 8396   6.115   2.577   0.745
 2499SOL    HW2 8397   5.965   2.630   0.784
 2500SOL     OW 8398   3.948   3.817   2.671
 2500SOL    HW1 8399   3.970   3.823   2.768
 2500SOL    HW2 8400   3.865   3.869   2.652
 2501SOL     OW 8401   6.279   5.165   4.063
 2501SOL    HW1 8402   6.360   5.107   4.074
 2501SOL    HW2 8403   6.247   5.195   4.153
 2502SOL     OW 8404   2.434   5.887   3.538
 2502SOL    HW1 8405   2.383   5.973   3.548
 2502SOL    HW2 8406   2.383   5.824   3.480
 2503SOL     OW 8407   2.321   0.081   5.358
 2503SOL    HW1 8408   2.396   0.015   5.363
 2503SOL    HW2 8409   2.292   0.091   5.263
 2504SOL     OW 8410   4.429   1.098   2.796
 2504SOL    HW1 8411   4.377   1.168   2.844
 2504SOL    HW2 8412   4.395   1.090   2.702
 2505SOL     OW 8413   5.446   4.369   4.016
 2505SOL    HW1 8414   5.414   4.461   3.994
 2505SOL    HW2 8415   5.406   4.339   4.103
 2506SOL     OW 8416   5.833   4.938   6.412
 2506SOL    HW1 8417   5.736   4.963   6.412
 2506SOL    HW2 8418   5.842   4.839   6.398
 2507SOL     OW 8419   5.959   3.596   3.812
 2507SOL    HW1 8420   5.923   3.629   3.725
 2507SOL    HW2 8421   6.038   3.538   3.795
 2508SOL     OW 8422   5.724   0.603   4.119
 2508SOL    HW1 8423   5.680   0.542   4.052
 2508SOL    HW2 8424   5.818   0.622   4.091
 2509SOL     OW 8425   0.328   3.629   6.050
 2509SOL    HW1 8426   0.357   3.717   6.015
 2509SOL    HW2 8427   0.280   3.578   5.978
 2510SOL     OW 8428   3.499   3.741   2.258
 2510SOL    HW1 8429   3.586   3.771   2.297
 2510SOL    HW2 8430   3.506   3.645   2.230
 2511SOL     OW 8431   2.297   0.972   4.648
 2511SOL    HW1 8432   2.201   0.981   4.675
 2511SOL    HW2 8433   2.331   1.061   4.618
 2512SOL     OW 8434   2.915   5.069   3.539
 2512SOL    HW1 8435   2.882   5.160   3.515
 2512SOL    HW2 8436   3.014   5.072   3.556
 2513SOL     OW 8437   2.240   5.294   6.284
 2513SOL    HW1 8438   2.267   5.315   6.190
 2513SOL    HW2 8439   2.149   5.331   6.301
 2514SOL     OW 8440   1.044   2.711   2.361
 2514SOL    HW1 8441   0.947   2.727   2.381
 2514SOL    HW2 8442   1.070   2.762   2.280
 2515SOL     OW 8443   0.301   1.634   0.961
 2515SOL    HW1 8444   0.273   1.722   1.000
 2515SOL    HW2 8445   0.260   1.560   1.013
 2516SOL     OW 8446   6.922   2.583   4.880
 2516SOL    HW1 8447   6.998   2.623   4.828
 2516SOL    HW2 8448   6.841   2.579   4.822
 2517SOL     OW 8449   0.235   1.942   4.485
 2517SOL    HW1 8450   0.212   1.860   4.432
 2517SOL    HW2 8451   0.176   2.018   4.456
 2518SOL     OW 8452   3.421   3.278   0.866
 2518SOL    HW1 8453   3.440   3.361   0.813
 2518SOL    HW2 8454   3.325   3.278   0.894
 2519SOL     OW 8455   1.473   0.794   0.046
 2519SOL    HW1 8456   1.465   0.709   0.099
 2519SOL    HW2 8457   1.569   0.821   0.041
 2520SOL     OW 8458   2.687   2.985   1.354
 2520SOL    HW1 8459   2.649   3.077   1.351
 2520SOL    HW2 8460   2.753   2.973   1.280
 2521SOL     OW 8461   5.880   1.443   4.824
 2521SOL    HW1 8462   5.796   1.397   4.795
 2521SOL    HW2 8463   5.900   1.418   4.919
 2522SOL     OW 8464   2.045   2.163   0.283
 2522SOL    HW1 8465   2.010   2.246   0.326
 2522SOL    HW2 8466   2.143   2.174   0.266
 2523SOL     OW 8467   1.065   5.291   5.008
 2523SOL    HW1 8468   1.006   5.338   5.074
 2523SOL    HW2 8469   1.087   5.200   5.042
 2524SOL     OW 8470   0.884   2.363   4.720
 2524SOL    HW1 8471   0.924   2.380   4.630
 2524SOL    HW2 8472   0.956   2.354   4.788
 2525SOL     OW 8473   6.988   3.349   6.670
 2525SOL    HW1 8474   6.908   3.407   6.656
 2525SOL    HW2 8475   6.981   3.303   6.758
 2526SOL     OW 8476   2.366   1.117   1.109
 2526SOL    HW1 8477   2.356   1.049   1.182
 2526SOL    HW2 8478   2.285   1.175   1.106
 2527SOL     OW 8479   4.093   5.486   0.399
 2527SOL    HW1 8480   4.183   5.519   0.369
 2527SOL    HW2 8481   4.105   5.402   0.452
 2528SOL     OW 8482   4.830   5.524   6.808
 2528SOL    HW1 8483   4.889   5.446   6.787
 2528SOL    HW2 8484   4.735   5.500   6.788
 2529SOL     OW 8485   0.009   6.360   5.976
 2529SOL    HW1 8486   0.008   6.423   6.054
 2529SOL    HW2 8487   7.023   6.411   5.892
 2530SOL     OW 8488   2.483   6.083   6.678
 2530SOL    HW1 8489   2.498   6.088   6.777
 2530SOL    HW2 8490   2.401   6.136   6.655
 2531SOL     OW 8491   0.181   4.191   6.418
 2531SOL    HW1 8492   0.266   4.211   6.467
 2531SOL    HW2 8493   0.188   4.101   6.375
 2532SOL     OW 8494   5.103   6.363   3.489
 2532SOL    HW1 8495   5.012   6.363   3.446
 2532SOL    HW2 8496   5.161   6.296   3.443
 2533SOL     OW 8497   4.570   0.260   3.826
 2533SOL    HW1 8498   4.630   0.273   3.747
 2533SOL    HW2 8499   4.602   0.317   3.902
 2534SOL     OW 8500   4.290   1.720   2.551
 2534SOL    HW1 8501   4.293   1.621   2.538
 2534SOL    HW2 8502   4.280   1.741   2.648
 2535SOL     OW 8503   3.636   2.988   6.317
 2535SOL    HW1 8504   3.735   2.994   6.329
 2535SOL    HW2 8505   3.611   2.895   6.288
 2536SOL     OW 8506   0.913   0.593   0.844
 2536SOL    HW1 8507   0.964   0.511   0.869
 2536SOL    HW2 8508   0.847   0.614   0.916
 2537SOL     OW 8509   4.614   6.744   5.363
 2537SOL    HW1 8510   4.516   6.763   5.359
 2537SOL    HW2 8511   4.645   6.714   5.272
 2538SOL     OW 8512   6.250   4.042   3.795
 2538SOL    HW1 8513   6.239   4.052   3.894
 2538SOL    HW2 8514   6.171   3.994   3.758
 2539SOL     OW 8515   5.343   2.173   4.793
 2539SOL    HW1 8516   5.348   2.091   4.737
 2539SOL    HW2 8517   5.249   2.204   4.800
 2540SOL     OW 8518   2.545   2.326   1.712
 2540SOL    HW1 8519   2.609   2.311   1.787
 2540SOL    HW2 8520   2.595   2.325   1.625
 2541SOL     OW 8521   3.142   0.069   4.588
 2541SOL    HW1 8522   3.140   0.113   4.498
 2541SOL    HW2 8523   3.143   0.139   4.659
 2542SOL     OW 8524   1.757   5.703   6.031
 2542SOL    HW1 8525   1.683   5.665   6.087
 2542SOL    HW2 8526   1.796   5.630   5.974
 2543SOL     OW 8527   1.111   0.946   3.683
 2543SOL    HW1 8528   1.147   0.924   3.774
 2543SOL    HW2 8529   1.187   0.965   3.621
 2544SOL     OW 8530   0.785   5.951   6.206
 2544SOL    HW1 8531   0.773   5.983   6.112
 2544SOL    HW2 8532   0.739   6.015   6.268
 2545SOL     OW 8533   2.782   6.771   2.419
 2545SOL    HW1 8534   2.800   6.685   2.372
 2545SOL    HW2 8535   2.868   6.821   2.430
 2546SOL     OW 8536   6.984   1.225   2.437
 2546SOL    HW1 8537   7.028   1.136   2.428
 2546SOL    HW2 8538   0.018   1.289   2.481
 2547SOL     OW 8539   0.360   4.265   4.798
 2547SOL    HW1 8540   0.339   4.167   4.800
 2547SOL    HW2 8541   0.290   4.315   4.849
 2548SOL     OW 8542   6.899   0.750   5.861
 2548SOL    HW1 8543   6.809   0.707   5.847
 2548SOL    HW2 8544   6.887   0.849   5.874
 2549SOL     OW 8545   5.499   2.379   3.350
 2549SOL    HW1 8546   5.474   2.449   3.416
 2549SOL    HW2 8547   5.511   2.421   3.260
 2550SOL     OW 8548   5.662   5.118   0.226
 2550SOL    HW1 8549   5.624   5.150   0.312
 2550SOL    HW2 8550   5.597   5.057   0.181
 2551SOL     OW 8551   1.257   4.459   6.106
 2551SOL    HW1 8552   1.249   4.487   6.202
 2551SOL    HW2 8553   1.353   4.441   6.085
 2552SOL     OW 8554   1.792   6.359   3.315
 2552SOL    HW1 8555   1.716   6.324   3.370
 2552SOL    HW2 8556   1.757   6.391   3.227
 2553SOL     OW 8557   4.624   2.864   0.750
 2553SOL    HW1 8558   4.616   2.918   0.834
 2553SOL    HW2 8559   4.687   2.909   0.687
 2554SOL     OW 8560   0.848   1.666   0.509
 2554SOL    HW1 8561   0.807   1.747   0.467
 2554SOL    HW2 8562   0.947   1.667   0.496
 2555SOL     OW 8563   0.121   0.120   5.867
 2555SOL    HW1 8564   0.076   0.196   5.913
 2555SOL    HW2 8565   0.216   0.145   5.845
 2556SOL     OW 8566   4.211   5.342   0.002
 2556SOL    HW1 8567   4.166   5.265   0.048
 2556SOL    HW2 8568   4.275   5.306   6.963
 2557SOL     OW 8569   2.385   4.889   6.853
 2557SOL    HW1 8570   2.307   4.894   6.916
 2557SOL    HW2 8571   2.357   4.841   6.769
 2558SOL     OW 8572   4.281   0.885   5.241
 2558SOL    HW1 8573   4.325   0.881   5.152
 2558SOL    HW2 8574   4.351   0.874   5.313
 2559SOL     OW 8575   0.067   4.829   5.217
 2559SOL    HW1 8576   7.010   4.779   5.225
 2559SOL    HW2 8577   0.079   4.858   5.122
 2560SOL     OW 8578   6.486   0.309   0.412
 2560SOL    HW1 8579   6.490   0.324   0.511
 2560SOL    HW2 8580   6.575   0.327   0.371
 2561SOL     OW 8581   2.962   5.776   4.103
 2561SOL    HW1 8582   3.005   5.854   4.148
 2561SOL    HW2 8583   2.891   5.809   4.040
 2562SOL     OW 8584   1.808   3.897   0.438
 2562SOL    HW1 8585   1.819   3.918   0.535
 2562SOL    HW2 8586   1.871   3.954   0.384
 2563SOL     OW 8587   1.811   0.671   1.651
 2563SOL    HW1 8588   1.746   0.694   1.723
 2563SOL    HW2 8589   1.903   0.667   1.689
 2564SOL     OW 8590   1.444   6.229   2.515
 2564SOL    HW1 8591   1.502   6.226   2.434
 2564SOL    HW2 8592   1.441   6.138   2.557
 2565SOL     OW 8593   1.487   1.455   0.791
 2565SOL    HW1 8594   1.442   1.470   0.879
 2565SOL    HW2 8595   1.585   1.470   0.801
 2566SOL     OW 8596   2.531   6.538   5.201
 2566SOL    HW1 8597   2.452   6.497   5.246
 2566SOL    HW2 8598   2.571   6.608   5.261
 2567SOL     OW 8599   1.118   0.342   0.422
 2567SOL    HW1 8600   1.194   0.365   0.482
 2567SOL    HW2 8601   1.137   0.256   0.375
 2568SOL     OW 8602   5.424   3.682   0.242
 2568SOL    HW1 8603   5.517   3.716   0.254
 2568SOL    HW2 8604   5.360   3.759   0.244
 2569SOL     OW 8605   2.498   0.840   2.269
 2569SOL    HW1 8606   2.556   0.887   2.203
 2569SOL    HW2 8607   2.516   0.875   2.360
 2570SOL     OW 8608   6.489   2.923   6.347
 2570SOL    HW1 8609   6.577   2.955   6.313
 2570SOL    HW2 8610   6.499   2.832   6.387
 2571SOL     OW 8611   1.296   4.389   4.043
 2571SOL    HW1 8612   1.356   4.311   4.061
 2571SOL    HW2 8613   1.200   4.359   4.043
 2572SOL     OW 8614   1.412   5.035   3.142
 2572SOL    HW1 8615   1.478   5.022   3.069
 2572SOL    HW2 8616   1.449   5.001   3.228
 2573SOL     OW 8617   1.082   6.915   0.346
 2573SOL    HW1 8618   0.987   6.884   0.347
 2573SOL    HW2 8619   1.110   6.940   0.439
 2574SOL     OW 8620   6.876   3.145   1.358
 2574SOL    HW1 8621   6.851   3.239   1.336
 2574SOL    HW2 8622   6.972   3.141   1.386
 2575SOL     OW 8623   0.900   0.306   5.271
 2575SOL    HW1 8624   0.925   0.380   5.333
 2575SOL    HW2 8625   0.809   0.271   5.295
 2576SOL     OW 8626   4.486   6.258   5.443
 2576SOL    HW1 8627   4.520   6.346   5.477
 2576SOL    HW2 8628   4.438   6.210   5.517
 2577SOL     OW 8629   1.719   3.986   2.457
 2577SOL    HW1 8630   1.737   3.995   2.554
 2577SOL    HW2 8631   1.803   4.002   2.405
 2578SOL     OW 8632   4.139   1.390   2.006
 2578SOL    HW1 8633   4.182   1.425   1.922
 2578SOL    HW2 8634   4.116   1.467   2.066
 2579SOL     OW 8635   0.308   6.336   3.051
 2579SOL    HW1 8636   0.337   6.265   3.116
 2579SOL    HW2 8637   0.307   6.424   3.097
 2580SOL     OW 8638   3.130   1.968   5.373
 2580SOL    HW1 8639   3.053   1.917   5.410
 2580SOL    HW2 8640   3.213   1.913   5.380
 2581SOL     OW 8641   3.810   0.615   6.058
 2581SOL    HW1 8642   3.811   0.580   6.151
 2581SOL    HW2 8643   3.879   0.687   6.048
 2582SOL     OW 8644   0.370   3.273   0.302
 2582SOL    HW1 8645   0.410   3.351   0.349
 2582SOL    HW2 8646   0.282   3.299   0.261
 2583SOL     OW 8647   4.789   1.159   0.784
 2583SOL    HW1 8648   4.797   1.226   0.711
 2583SOL    HW2 8649   4.832   1.195   0.867
 2584SOL     OW 8650   3.193   4.472   6.773
 2584SOL    HW1 8651   3.234   4.405   6.834
 2584SOL    HW2 8652   3.225   4.457   6.679
 2585SOL     OW 8653   1.913   5.210   0.049
 2585SOL    HW1 8654   1.971   5.250   7.009
 2585SOL    HW2 8655   1.953   5.124   0.082
 2586SOL     OW 8656   1.746   1.687   2.615
 2586SOL    HW1 8657   1.778   1.593   2.625
 2586SOL    HW2 8658   1.807   1.749   2.665
 2587SOL     OW 8659   5.887   1.160   4.023
 2587SOL    HW1 8660   5.826   1.135   3.948
 2587SOL    HW2 8661   5.845   1.136   4.110
 2588SOL     OW 8662   4.826   1.734   6.107
 2588SOL    HW1 8663   4.804   1.831   6.116
 2588SOL    HW2 8664   4.742   1.682   6.089
 2589SOL     OW 8665   1.268   5.696   0.310
 2589SOL    HW1 8666   1.242   5.643   0.391
 2589SOL    HW2 8667   1.190   5.751   0.280
 2590SOL     OW 8668   2.915   4.818   0.569
 2590SOL    HW1 8669   2.885   4.908   0.535
 2590SOL    HW2 8670   2.871   4.747   0.514
 2591SOL     OW 8671   4.780   6.777   2.671
 2591SOL    HW1 8672   4.746   6.798   2.579
 2591SOL    HW2 8673   4.767   6.857   2.730
 2592SOL     OW 8674   3.539   3.546   0.788
 2592SOL    HW1 8675   3.450   3.569   0.825
 2592SOL    HW2 8676   3.530   3.518   0.692
 2593SOL     OW 8677   2.473   4.675   6.641
 2593SOL    HW1 8678   2.568   4.702   6.622
 2593SOL    HW2 8679   2.465   4.645   6.736
 2594SOL     OW 8680   2.381   2.766   3.285
 2594SOL    HW1 8681   2.433   2.796   3.204
 2594SOL    HW2 8682   2.294   2.727   3.256
 2595SOL     OW 8683   1.479   0.928   2.613
 2595SOL    HW1 8684   1.505   1.024   2.618
 2595SOL    HW2 8685   1.446   0.907   2.521
 2596SOL     OW 8686   6.849   0.518   1.079
 2596SOL    HW1 8687   6.861   0.432   1.030
 2596SOL    HW2 8688   6.880   0.594   1.021
 2597SOL     OW 8689   5.972   6.144   0.330
 2597SOL    HW1 8690   6.050   6.206   0.328
 2597SOL    HW2 8691   5.998   6.059   0.375
 2598SOL     OW 8692   4.717   2.754   2.157
 2598SOL    HW1 8693   4.631   2.744   2.206
 2598SOL    HW2 8694   4.717   2.841   2.107
 2599SOL     OW 8695   2.301   5.630   1.968
 2599SOL    HW1 8696   2.208   5.613   2.002
 2599SOL    HW2 8697   2.297   5.653   1.870
 2600SOL     OW 8698   5.661   5.464   4.170
 2600SOL    HW1 8699   5.639   5.551   4.126
 2600SOL    HW2 8700   5.588   5.398   4.153
 2601SOL     OW 8701   6.833   1.465   3.079
 2601SOL    HW1 8702   6.863   1.405   3.006
 2601SOL    HW2 8703   6.911   1.490   3.137
 2602SOL     OW 8704   2.139   4.742   3.100
 2602SOL    HW1 8705   2.095   4.805   3.036
 2602SOL    HW2 8706   2.109   4.649   3.082
 2603SOL     OW 8707   1.331   6.045   1.608
 2603SOL    HW1 8708   1.358   5.982   1.680
 2603SOL    HW2 8709   1.390   6.126   1.610
 2604SOL     OW 8710   5.192   3.089   2.845
 2604SOL    HW1 8711   5.202   2.989   2.843
 2604SOL    HW2 8712   5.096   3.113   2.830
 2605SOL     OW 8713   1.185   2.050   0.778
 2605SOL    HW1 8714   1.196   2.149   0.788
 2605SOL    HW2 8715   1.266   2.012   0.733
 2606SOL     OW 8716   5.323   3.843   1.010
 2606SOL    HW1 8717   5.391   3.916   1.009
 2606SOL    HW2 8718   5.243   3.872   1.063
 2607SOL     OW 8719   2.334   2.707   1.818
 2607SOL    HW1 8720   2.365   2.795   1.783
 2607SOL    HW2 8721   2.257   2.720   1.880
 2608SOL     OW 8722   3.333   4.757   5.247
 2608SOL    HW1 8723   3.244   4.712   5.253
 2608SOL    HW2 8724   3.403   4.697   5.284
 2609SOL     OW 8725   0.062   1.425   2.000
 2609SOL    HW1 8726   0.091   1.489   1.929
 2609SOL    HW2 8727   7.011   1.462   2.047
 2610SOL     OW 8728   1.281   4.635   5.178
 2610SOL    HW1 8729   1.220   4.624   5.099
 2610SOL    HW2 8730   1.352   4.565   5.175
 2611SOL     OW 8731   5.160   2.297   5.255
 2611SOL    HW1 8732   5.134   2.273   5.349
 2611SOL    HW2 8733   5.131   2.390   5.235
 2612SOL     OW 8734   6.475   5.624   0.303
 2612SOL    HW1 8735   6.497   5.593   0.210
 2612SOL    HW2 8736   6.392   5.680   0.300
 2613SOL     OW 8737   1.915   0.090   0.546
 2613SOL    HW1 8738   1.953   0.173   0.588
 2613SOL    HW2 8739   1.930   0.093   0.447
 2614SOL     OW 8740   6.157   1.761   0.569
 2614SOL    HW1 8741   6.165   1.852   0.529
 2614SOL    HW2 8742   6.245   1.714   0.564
 2615SOL     OW 8743   1.248   3.063   0.160
 2615SOL    HW1 8744   1.295   3.147   0.135
 2615SOL    HW2 8745   1.179   3.042   0.090
 2616SOL     OW 8746   1.328   1.527   5.136
 2616SOL    HW1 8747   1.257   1.597   5.138
 2616SOL    HW2 8748   1.376   1.531   5.049
 2617SOL     OW 8749   5.828   0.263   6.675
 2617SOL    HW1 8750   5.782   0.207   6.744
 2617SOL    HW2 8751   5.925   0.237   6.669
 2618SOL     OW 8752   1.937   6.954   0.160
 2618SOL    HW1 8753   1.876   6.920   0.231
 2618SOL    HW2 8754   2.031   6.930   0.183
 2619SOL     OW 8755   4.278   0.831   2.675
 2619SOL    HW1 8756   4.357   0.781   2.711
 2619SOL    HW2 8757   4.226   0.869   2.752
 2620SOL     OW 8758   5.854   2.433   1.827
 2620SOL    HW1 8759   5.895   2.524   1.834
 2620SOL    HW2 8760   5.769   2.439   1.775
 2621SOL     OW 8761   2.230   6.258   1.105
 2621SOL    HW1 8762   2.186   6.314   1.174
 2621SOL    HW2 8763   2.229   6.162   1.133
 2622SOL     OW 8764   2.243   3.478   0.263
 2622SOL    HW1 8765   2.319   3.413   0.264
 2622SOL    HW2 8766   2.211   3.493   0.357
 2623SOL     OW 8767   0.276   2.095   4.051
 2623SOL    HW1 8768   0.258   2.155   3.973
 2623SOL    HW2 8769   0.243   2.138   4.135
 2624SOL     OW 8770   1.502   0.966   5.248
 2624SOL    HW1 8771   1.449   1.046   5.277
 2624SOL    HW2 8772   1.553   0.930   5.326
 2625SOL     OW 8773   3.256   5.445   6.262
 2625SOL    HW1 8774   3.318   5.443   6.184
 2625SOL    HW2 8775   3.166   5.478   6.233
 2626SOL     OW 8776   6.899   6.746   0.589
 2626SOL    HW1 8777   6.948   6.659   0.583
 2626SOL    HW2 8778   6.963   6.822   0.578
 2627SOL     OW 8779   2.771   0.091   5.571
 2627SOL    HW1 8780   2.869   0.071   5.579
 2627SOL    HW2 8781   2.759   0.189   5.556
 2628SOL     OW 8782   0.055   5.610   1.517
 2628SOL    HW1 8783   0.086   5.640   1.607
 2628SOL    HW2 8784   7.001   5.659   1.494
 2629SOL     OW 8785   3.344   3.803   2.498
 2629SOL    HW1 8786   3.244   3.814   2.494
 2629SOL    HW2 8787   3.378   3.774   2.408
 2630SOL     OW 8788   3.152   1.510   4.812
 2630SOL    HW1 8789   3.152   1.462   4.900
 2630SOL    HW2 8790   3.060   1.512   4.775
 2631SOL     OW 8791   5.638   5.444   0.464
 2631SOL    HW1 8792   5.731   5.453   0.429
 2631SOL    HW2 8793   5.631   5.492   0.552
 2632SOL     OW 8794   4.407   5.453   1.948
 2632SOL    HW1 8795   4.333   5.405   1.900
 2632SOL    HW2 8796   4.402   5.434   2.046
 2633SOL     OW 8797   6.742   3.002   6.252
 2633SOL    HW1 8798   6.746   3.099   6.273
 2633SOL    HW2 8799   6.752   2.988   6.153
 2634SOL     OW 8800   2.117   1.790   6.231
 2634SOL    HW1 8801   2.069   1.775   6.317
 2634SOL    HW2 8802   2.196   1.729   6.225
 2635SOL     OW 8803   4.275   5.654   3.272
 2635SOL    HW1 8804   4.198   5.716   3.282
 2635SOL    HW2 8805   4.286   5.629   3.176
 2636SOL     OW 8806   3.370   6.848   6.075
 2636SOL    HW1 8807   3.306   6.815   6.006
 2636SOL    HW2 8808   3.456   6.874   6.032
 2637SOL     OW 8809   6.423   1.151   2.818
 2637SOL    HW1 8810   6.467   1.184   2.902
 2637SOL    HW2 8811   6.490   1.150   2.744
 2638SOL     OW 8812   0.190   6.155   4.708
 2638SOL    HW1 8813   0.285   6.184   4.723
 2638SOL    HW2 8814   0.180   6.060   4.738
 2639SOL     OW 8815   5.303   5.304   4.741
 2639SOL    HW1 8816   5.274   5.306   4.837
 2639SOL    HW2 8817   5.257   5.229   4.694
 2640SOL     OW 8818   1.823   0.687   2.796
 2640SOL    HW1 8819   1.768   0.636   2.729
 2640SOL    HW2 8820   1.763   0.742   2.853
 2641SOL     OW 8821   5.083   2.163   1.004
 2641SOL    HW1 8822   5.172   2.204   0.984
 2641SOL    HW2 8823   5.011   2.232   0.995
 2642SOL     OW 8824   0.251   0.781   2.748
 2642SOL    HW1 8825   0.196   0.736   2.818
 2642SOL    HW2 8826   0.258   0.720   2.668
 2643SOL     OW 8827   1.577   4.881   4.876
 2643SOL    HW1 8828   1.648   4.932   4.924
 2643SOL    HW2 8829   1.507   4.944   4.843
 2644SOL     OW 8830   5.690   5.357   3.537
 2644SOL    HW1 8831   5.779   5.351   3.494
 2644SOL    HW2 8832   5.623   5.391   3.471
 2645SOL     OW 8833   4.489   5.612   2.728
 2645SOL    HW1 8834   4.405   5.666   2.737
 2645SOL    HW2 8835   4.474   5.521   2.767
 2646SOL     OW 8836   1.245   1.235   6.682
 2646SOL    HW1 8837   1.283   1.254   6.591
 2646SOL    HW2 8838   1.227   1.321   6.729
 2647SOL     OW 8839   4.149   0.241   2.756
 2647SOL    HW1 8840   4.072   0.246   2.692
 2647SOL    HW2 8841   4.124   0.182   2.833
 2648SOL     OW 8842   2.037   0.362   5.749
 2648SOL    HW1 8843   2.036   0.270   5.788
 2648SOL    HW2 8844   2.117   0.372   5.690
 2649SOL     OW 8845   5.781   2.040   3.682
 2649SOL    HW1 8846   5.722   1.960   3.684
 2649SOL    HW2 8847   5.753   2.100   3.607
 2650SOL     OW 8848   1.550   6.680   4.520
 2650SOL    HW1 8849   1.608   6.715   4.446
 2650SOL    HW2 8850   1.489   6.610   4.483
 2651SOL     OW 8851   3.016   1.934   2.600
 2651SOL    HW1 8852   3.069   2.016   2.582
 2651SOL    HW2 8853   2.995   1.929   2.698
 2652SOL     OW 8854   3.933   3.698   6.309
 2652SOL    HW1 8855   3.974   3.607   6.305
 2652SOL    HW2 8856   3.838   3.692   6.280
 2653SOL     OW 8857   2.423   7.014   0.536
 2653SOL    HW1 8858   2.405   0.035   0.621
 2653SOL    HW2 8859   2.470   6.929   0.558
 2654SOL     OW 8860   6.436   0.134   1.314
 2654SOL    HW1 8861   6.465   0.145   1.410
 2654SOL    HW2 8862   6.336   0.136   1.309
 2655SOL     OW 8863   5.588   6.310   4.003
 2655SOL    HW1 8864   5.609   6.266   4.090
 2655SOL    HW2 8865   5.497   6.281   3.973
 2656SOL     OW 8866   5.668   0.125   4.848
 2656SOL    HW1 8867   5.650   0.058   4.776
 2656SOL    HW2 8868   5.637   0.089   4.936
 2657SOL     OW 8869   1.630   3.389   5.871
 2657SOL    HW1 8870   1.649   3.355   5.964
 2657SOL    HW2 8871   1.704   3.361   5.810
 2658SOL     OW 8872   3.552   4.088   0.745
 2658SOL    HW1 8873   3.493   4.138   0.682
 2658SOL    HW2 8874   3.511   4.088   0.836
 2659SOL     OW 8875   0.395   2.293   5.536
 2659SOL    HW1 8876   0.486   2.328   5.516
 2659SOL    HW2 8877   0.337   2.302   5.455
 2660SOL     OW 8878   0.938   1.295   0.521
 2660SOL    HW1 8879   0.936   1.203   0.481
 2660SOL    HW2 8880   0.844   1.329   0.530
 2661SOL     OW 8881   1.955   1.466   1.835
 2661SOL    HW1 8882   1.886   1.400   1.804
 2661SOL    HW2 8883   2.015   1.489   1.759
 2662SOL     OW 8884   3.068   1.656   1.239
 2662SOL    HW1 8885   3.083   1.714   1.319
 2662SOL    HW2 8886   2.992   1.693   1.185
 2663SOL     OW 8887   3.852   0.053   0.859
 2663SOL    HW1 8888   3.844   0.033   0.761
 2663SOL    HW2 8889   3.930   0.002   0.896
 2664SOL     OW 8890   4.768   3.413   5.349
 2664SOL    HW1 8891   4.746   3.448   5.440
 2664SOL    HW2 8892   4.759   3.487   5.282
 2665SOL     OW 8893   1.325   3.475   4.481
 2665SOL    HW1 8894   1.321   3.554   4.420
 2665SOL    HW2 8895   1.421   3.447   4.492
 2666SOL     OW 8896   1.932   3.613   2.048
 2666SOL    HW1 8897   1.956   3.699   2.093
 2666SOL    HW2 8898   1.833   3.607   2.038
 2667SOL     OW 8899   6.251   2.480   4.432
 2667SOL    HW1 8900   6.245   2.502   4.529
 2667SOL    HW2 8901   6.173   2.521   4.384
 2668SOL     OW 8902   5.908   0.621   3.180
 2668SOL    HW1 8903   5.940   0.712   3.155
 2668SOL    HW2 8904   5.872   0.622   3.273
 2669SOL     OW 8905   2.595   2.017   1.823
 2669SOL    HW1 8906   2.630   2.042   1.914
 2669SOL    HW2 8907   2.635   2.077   1.755
 2670SOL     OW 8908   0.605   6.544   1.313
 2670SOL    HW1 8909   0.669   6.613   1.348
 2670SOL    HW2 8910   0.527   6.591   1.271
 2671SOL     OW 8911   4.984   4.277   6.797
 2671SOL    HW1 8912   5.029   4.234   6.718
 2671SOL    HW2 8913   5.035   4.359   6.824
 2672SOL     OW 8914   1.931   0.775   2.369
 2672SOL    HW1 8915   1.904   0.841   2.438
 2672SOL    HW2 8916   1.925   0.816   2.278
 2673SOL     OW 8917   3.170   0.920   3.792
 2673SOL    HW1 8918   3.110   0.924   3.872
 2673SOL    HW2 8919   3.123   0.958   3.713
 2674SOL     OW 8920   5.162   5.680   2.802
 2674SOL    HW1 8921   5.084   5.620   2.781
 2674SOL    HW2 8922   5.165   5.755   2.737
 2675SOL     OW 8923   4.864   0.896   3.897
 2675SOL    HW1 8924   4.827   0.916   3.806
 2675SOL    HW2 8925   4.922   0.815   3.893
 2676SOL     OW 8926   3.530   3.718   5.764
 2676SOL    HW1 8927   3.467   3.642   5.778
 2676SOL    HW2 8928   3.617   3.684   5.729
 2677SOL     OW 8929   1.984   5.393   1.171
 2677SOL    HW1 8930   1.925   5.386   1.091
 2677SOL    HW2 8931   2.070   5.437   1.145
 2678SOL     OW 8932   3.505   1.741   1.638
 2678SOL    HW1 8933   3.582   1.751   1.701
 2678SOL    HW2 8934   3.420   1.745   1.690
 2679SOL     OW 8935   2.373   4.394   2.608
 2679SOL    HW1 8936   2.427   4.395   2.692
 2679SOL    HW2 8937   2.429   4.427   2.532
 2680SOL     OW 8938   6.153   1.851   6.612
 2680SOL    HW1 8939   6.076   1.879   6.556
 2680SOL    HW2 8940   6.164   1.752   6.607
 2681SOL     OW 8941   2.366   2.783   2.979
 2681SOL    HW1 8942   2.365   2.846   2.901
 2681SOL    HW2 8943   2.341   2.691   2.948
 2682SOL     OW 8944   3.743   4.076   2.657
 2682SOL    HW1 8945   3.767   4.079   2.560
 2682SOL    HW2 8946   3.648   4.045   2.667
 2683SOL     OW 8947   1.980   3.220   1.228
 2683SOL    HW1 8948   1.954   3.315   1.212
 2683SOL    HW2 8949   2.077   3.208   1.206
 2684SOL     OW 8950   5.621   0.423   3.375
 2684SOL    HW1 8951   5.716   0.413   3.346
 2684SOL    HW2 8952   5.591   0.339   3.421
 2685SOL     OW 8953   2.125   6.696   5.689
 2685SOL    HW1 8954   2.100   6.791   5.710
 2685SOL    HW2 8955   2.150   6.690   5.592
 2686SOL     OW 8956   2.363   2.062   5.798
 2686SOL    HW1 8957   2.401   2.136   5.743
 2686SOL    HW2 8958   2.434   1.994   5.816
 2687SOL     OW 8959   3.637   2.613   1.766
 2687SOL    HW1 8960   3.621   2.676   1.841
 2687SOL    HW2 8961   3.654   2.521   1.802
 2688SOL     OW 8962   4.699   2.220   0.482
 2688SOL    HW1 8963   4.646   2.166   0.417
 2688SOL    HW2 8964   4.686   2.318   0.464
 2689SOL     OW 8965   0.556   4.044   2.057
 2689SOL    HW1 8966   0.615   4.099   2.116
 2689SOL    HW2 8967   0.470   4.025   2.104
 2690SOL     OW 8968   5.279   1.135   4.354
 2690SOL    HW1 8969   5.181   1.151   4.342
 2690SOL    HW2 8970   5.295   1.089   4.441
 2691SOL     OW 8971   5.553   3.722   3.722
 2691SOL    HW1 8972   5.547   3.819   3.699
 2691SOL    HW2 8973   5.461   3.685   3.737
 2692SOL     OW 8974   1.065   5.726   0.880
 2692SOL    HW1 8975   1.060   5.712   0.979
 2692SOL    HW2 8976   1.135   5.795   0.860
 2693SOL     OW 8977   1.117   6.019   2.969
 2693SOL    HW1 8978   1.093   6.112   2.940
 2693SOL    HW2 8979   1.041   5.957   2.949
 2694SOL     OW 8980   2.821   0.681   2.573
 2694SOL    HW1 8981   2.789   0.658   2.482
 2694SOL    HW2 8982   2.743   0.707   2.631
 2695SOL     OW 8983   6.501   6.430   2.868
 2695SOL    HW1 8984   6.596   6.449   2.842
 2695SOL    HW2 8985   6.490   6.333   2.887
 2696SOL     OW 8986   3.535   4.506   6.109
 2696SOL    HW1 8987   3.558   4.572   6.181
 2696SOL    HW2 8988   3.489   4.427   6.151
 2697SOL     OW 8989   4.725   3.016   0.135
 2697SOL    HW1 8990   4.802   3.078   0.150
 2697SOL    HW2 8991   4.643   3.055   0.177
 2698SOL     OW 8992   2.165   5.479   0.424
 2698SOL    HW1 8993   2.240   5.434   0.375
 2698SOL    HW2 8994   2.111   5.533   0.360
 2699SOL     OW 8995   3.032   0.213   2.805
 2699SOL    HW1 8996   3.072   0.132   2.762
 2699SOL    HW2 8997   3.067   0.296   2.760
 2700SOL     OW 8998   4.821   2.296   0.850
 2700SOL    HW1 8999   4.805   2.210   0.802
 2700SOL    HW2 9000   4.806   2.282   0.948
 2701SOL     OW 9001   5.341   4.324   5.524
 2701SOL    HW1 9002   5.440   4.335   5.520
 2701SOL    HW2 9003   5.318   4.227   5.512
 2702SOL     OW 9004   1.425   2.198   5.071
 2702SOL    HW1 9005   1.524   2.205   5.081
 2702SOL    HW2 9006   1.403   2.147   4.988
 2703SOL     OW 9007   2.165   6.142   1.394
 2703SOL    HW1 9008   2.101   6.176   1.463
 2703SOL    HW2 9009   2.126   6.062   1.348
 2704SOL     OW 9010   4.551   0.619   3.368
 2704SOL    HW1 9011   4.511   0.702   3.330
 2704SOL    HW2 9012   4.558   0.626   3.467
 2705SOL     OW 9013   1.272   0.696   5.381
 2705SOL    HW1 9014   1.207   0.623   5.403
 2705SOL    HW2 9015   1.363   0.669   5.412
 2706SOL     OW 9016   1.059   4.609   4.616
 2706SOL    HW1 9017   1.155   4.606   4.644
 2706SOL    HW2 9018   1.044   4.541   4.544
 2707SOL     OW 9019   3.954   0.706   2.837
 2707SOL    HW1 9020   4.016   0.690   2.915
 2707SOL    HW2 9021   3.924   0.801   2.838
 2708SOL     OW 9022   5.502   3.315   5.096
 2708SOL    HW1 9023   5.522   3.385   5.027
 2708SOL    HW2 9024   5.413   3.274   5.076
 2709SOL     OW 9025   5.133   1.547   5.199
 2709SOL    HW1 9026   5.100   1.453   5.191
 2709SOL    HW2 9027   5.064   1.603   5.245
 2710SOL     OW 9028   0.893   3.127   4.258
 2710SOL    HW1 9029   0.958   3.140   4.332
 2710SOL    HW2 9030   0.845   3.040   4.271
 2711SOL     OW 9031   4.650   0.552   1.069
 2711SOL    HW1 9032   4.662   0.648   1.046
 2711SOL    HW2 9033   4.613   0.545   1.162
 2712SOL     OW 9034   4.520   6.424   1.648
 2712SOL    HW1 9035   4.574   6.353   1.603
 2712SOL    HW2 9036   4.472   6.385   1.727
 2713SOL     OW 9037   4.103   4.459   5.362
 2713SOL    HW1 9038   4.158   4.468   5.279
 2713SOL    HW2 9039   4.119   4.538   5.421
 2714SOL     OW 9040   3.002   3.997   6.031
 2714SOL    HW1 9041   3.021   4.070   5.964
 2714SOL    HW2 9042   2.941   4.032   6.102
 2715SOL     OW 9043   4.778   6.929   0.397
 2715SOL    HW1 9044   4.738   6.946   0.307
 2715SOL    HW2 9045   4.869   6.969   0.401
 2716SOL     OW 9046   4.434   0.776   2.179
 2716SOL    HW1 9047   4.427   0.872   2.207
 2716SOL    HW2 9048   4.499   0.729   2.239
 2717SOL     OW 9049   6.884   1.676   1.982
 2717SOL    HW1 9050   6.811   1.618   2.019
 2717SOL    HW2 9051   6.860   1.706   1.890
 2718SOL     OW 9052   5.906   1.122   6.412
 2718SOL    HW1 9053   5.898   1.120   6.512
 2718SOL    HW2 9054   5.817   1.101   6.372
 2719SOL     OW 9055   1.304   4.429   4.532
 2719SOL    HW1 9056   1.216   4.394   4.500
 2719SOL    HW2 9057   1.352   4.472   4.456
 2720SOL     OW 9058   1.933   4.779   6.123
 2720SOL    HW1 9059   1.914   4.705   6.059
 2720SOL    HW2 9060   1.924   4.745   6.217
 2721SOL     OW 9061   2.613   6.047   3.734
 2721SOL    HW1 9062   2.542   6.077   3.799
 2721SOL    HW2 9063   2.580   5.968   3.683
 2722SOL     OW 9064   3.214   4.721   6.870
 2722SOL    HW1 9065   3.176   4.709   6.961
 2722SOL    HW2 9066   3.215   4.633   6.822
 2723SOL     OW 9067   4.680   5.175   0.418
 2723SOL    HW1 9068   4.628   5.126   0.347
 2723SOL    HW2 9069   4.728   5.108   0.475
 2724SOL     OW 9070   0.303   6.194   1.076
 2724SOL    HW1 9071   0.292   6.270   1.140
 2724SOL    HW2 9072   0.241   6.120   1.101
 2725SOL     OW 9073   6.206   4.063   3.138
 2725SOL    HW1 9074   6.193   3.964   3.133
 2725SOL    HW2 9075   6.184   4.095   3.230
 2726SOL     OW 9076   6.314   2.322   2.253
 2726SOL    HW1 9077   6.328   2.223   2.257
 2726SOL    HW2 9078   6.381   2.367   2.312
 2727SOL     OW 9079   1.375   4.494   3.773
 2727SOL    HW1 9080   1.307   4.449   3.715
 2727SOL    HW2 9081   1.347   4.488   3.869
 2728SOL     OW 9082   4.225   4.229   6.465
 2728SOL    HW1 9083   4.240   4.134   6.490
 2728SOL    HW2 9084   4.297   4.260   6.403
 2729SOL     OW 9085   0.483   7.002   0.765
 2729SOL    HW1 9086   0.575   7.008   0.805
 2729SOL    HW2 9087   0.417   6.982   0.837
 2730SOL     OW 9088   1.205   5.258   2.911
 2730SOL    HW1 9089   1.304   5.259   2.899
 2730SOL    HW2 9090   1.163   5.200   2.841
 2731SOL     OW 9091   3.740   3.868   5.432
 2731SOL    HW1 9092   3.809   3.880   5.360
 2731SOL    HW2 9093   3.777   3.810   5.505
 2732SOL     OW 9094   4.409   1.035   2.133
 2732SOL    HW1 9095   4.317   1.073   2.140
 2732SOL    HW2 9096   4.465   1.093   2.074
 2733SOL     OW 9097   0.440   0.333   0.230
 2733SOL    HW1 9098   0.438   0.370   0.137
 2733SOL    HW2 9099   0.529   0.351   0.272
 2734SOL     OW 9100   3.680   0.248   1.849
 2734SOL    HW1 9101   3.752   0.186   1.815
 2734SOL    HW2 9102   3.596   0.233   1.797
 2735SOL     OW 9103   0.804   2.864   2.896
 2735SOL    HW1 9104   0.853   2.835   2.978
 2735SOL    HW2 9105   0.852   2.940   2.854
 2736SOL     OW 9106   5.409   4.460   2.120
 2736SOL    HW1 9107   5.426   4.492   2.213
 2736SOL    HW2 9108   5.374   4.535   2.064
 2737SOL     OW 9109   2.725   0.395   6.346
 2737SOL    HW1 9110   2.662   0.349   6.408
 2737SOL    HW2 9111   2.716   0.357   6.254
 2738SOL     OW 9112   5.040   5.617   1.454
 2738SOL    HW1 9113   5.094   5.536   1.433
 2738SOL    HW2 9114   5.009   5.614   1.549
 2739SOL     OW 9115   0.493   5.509   1.777
 2739SOL    HW1 9116   0.459   5.555   1.859
 2739SOL    HW2 9117   0.593   5.510   1.777
 2740SOL     OW 9118   6.281   5.970   5.093
 2740SOL    HW1 9119   6.249   5.876   5.094
 2740SOL    HW2 9120   6.207   6.031   5.065
 2741SOL     OW 9121   6.947   6.717   0.227
 2741SOL    HW1 9122   6.853   6.687   0.209
 2741SOL    HW2 9123   6.998   6.718   0.142
 2742SOL     OW 9124   2.808   4.861   1.603
 2742SOL    HW1 9125   2.749   4.822   1.673
 2742SOL    HW2 9126   2.887   4.802   1.588
 2743SOL     OW 9127   5.022   2.163   3.732
 2743SOL    HW1 9128   5.076   2.082   3.754
 2743SOL    HW2 9129   4.957   2.141   3.659
 2744SOL     OW 9130   3.144   3.734   3.166
 2744SOL    HW1 9131   3.242   3.738   3.189
 2744SOL    HW2 9132   3.124   3.800   3.093
 2745SOL     OW 9133   0.885   6.160   6.542
 2745SOL    HW1 9134   0.874   6.068   6.579
 2745SOL    HW2 9135   0.978   6.172   6.507
 2746SOL     OW 9136   1.751   0.757   4.148
 2746SOL    HW1 9137   1.769   0.670   4.102
 2746SOL    HW2 9138   1.799   0.760   4.235
 2747SOL     OW 9139   5.391   5.025   0.654
 2747SOL    HW1 9140   5.299   5.033   0.616
 2747SOL    HW2 9141   5.443   4.959   0.599
 2748SOL     OW 9142   4.430   0.442   7.007
 2748SOL    HW1 9143   4.397   0.423   0.070
 2748SOL    HW2 9144   4.427   0.541   6.990
 2749SOL     OW 9145   4.533   0.872   6.633
 2749SOL    HW1 9146   4.547   0.884   6.535
 2749SOL    HW2 9147   4.437   0.891   6.656
 2750SOL     OW 9148   2.015   6.200   1.618
 2750SOL    HW1 9149   1.957   6.256   1.677
 2750SOL    HW2 9150   2.098   6.174   1.668
 2751SOL     OW 9151   6.612   5.753   1.960
 2751SOL    HW1 9152   6.515   5.729   1.956
 2751SOL    HW2 9153   6.660   5.710   1.883
 2752SOL     OW 9154   4.268   5.271   6.501
 2752SOL    HW1 9155   4.176   5.241   6.478
 2752SOL    HW2 9156   4.325   5.192   6.524
 2753SOL     OW 9157   4.305   4.974   5.161
 2753SOL    HW1 9158   4.370   4.926   5.221
 2753SOL    HW2 9159   4.300   4.926   5.073
 2754SOL     OW 9160   1.035   0.931   4.114
 2754SOL    HW1 9161   0.999   0.980   4.035
 2754SOL    HW2 9162   0.983   0.846   4.128
 2755SOL     OW 9163   3.579   0.637   1.968
 2755SOL    HW1 9164   3.588   0.707   1.898
 2755SOL    HW2 9165   3.500   0.656   2.026
 2756SOL     OW 9166   4.339   5.544   5.984
 2756SOL    HW1 9167   4.268   5.486   6.026
 2756SOL    HW2 9168   4.297   5.599   5.912
 2757SOL     OW 9169   1.490   4.893   0.616
 2757SOL    HW1 9170   1.420   4.965   0.621
 2757SOL    HW2 9171   1.581   4.935   0.618
 2758SOL     OW 9172   5.519   7.029   5.328
 2758SOL    HW1 9173   5.454   0.066   5.362
 2758SOL    HW2 9174   5.503   6.941   5.373
 2759SOL     OW 9175   4.309   4.787   2.904
 2759SOL    HW1 9176   4.385   4.830   2.856
 2759SOL    HW2 9177   4.340   4.701   2.945
 2760SOL     OW 9178   0.470   7.016   3.552
 2760SOL    HW1 9179   0.428   7.023   3.461
 2760SOL    HW2 9180   0.520   6.929   3.559
 2761SOL     OW 9181   2.574   4.729   4.942
 2761SOL    HW1 9182   2.661   4.685   4.966
 2761SOL    HW2 9183   2.516   4.664   4.893
 2762SOL     OW 9184   1.760   2.332   5.787
 2762SOL    HW1 9185   1.673   2.344   5.836
 2762SOL    HW2 9186   1.763   2.395   5.710
 2763SOL     OW 9187   5.836   0.361   1.824
 2763SOL    HW1 9188   5.769   0.411   1.768
 2763SOL    HW2 9189   5.807   0.266   1.834
 2764SOL     OW 9190   6.427   0.367   1.131
 2764SOL    HW1 9191   6.417   0.281   1.180
 2764SOL    HW2 9192   6.504   0.360   1.067
 2765SOL     OW 9193   5.227   1.560   3.264
 2765SOL    HW1 9194   5.259   1.530   3.354
 2765SOL    HW2 9195   5.134   1.595   3.271
 2766SOL     OW 9196   4.750   6.497   2.264
 2766SOL    HW1 9197   4.769   6.520   2.169
 2766SOL    HW2 9198   4.674   6.553   2.298
 2767SOL     OW 9199   6.940   4.070   5.201
 2767SOL    HW1 9200   7.014   4.006   5.223
 2767SOL    HW2 9201   6.869   4.065   5.271
 2768SOL     OW 9202   5.372   0.584   5.734
 2768SOL    HW1 9203   5.321   0.610   5.816
 2768SOL    HW2 9204   5.364   0.486   5.719
 2769SOL     OW 9205   1.009   4.080   1.930
 2769SOL    HW1 9206   1.001   3.981   1.918
 2769SOL    HW2 9207   1.101   4.109   1.904
 2770SOL     OW 9208   4.164   6.640   2.272
 2770SOL    HW1 9209   4.112   6.606   2.195
 2770SOL    HW2 9210   4.221   6.567   2.309
 2771SOL     OW 9211   4.206   0.690   1.459
 2771SOL    HW1 9212   4.221   0.630   1.381
 2771SOL    HW2 9213   4.109   0.693   1.482
 2772SOL     OW 9214   3.629   0.632   0.925
 2772SOL    HW1 9215   3.651   0.535   0.925
 2772SOL    HW2 9216   3.659   0.673   0.839
 2773SOL     OW 9217   3.243   5.349   1.324
 2773SOL    HW1 9218   3.297   5.273   1.290
 2773SOL    HW2 9219   3.302   5.411   1.377
 2774SOL     OW 9220   4.897   2.891   1.798
 2774SOL    HW1 9221   4.881   2.920   1.704
 2774SOL    HW2 9222   4.819   2.917   1.854
 2775SOL     OW 9223   1.043   0.231   1.670
 2775SOL    HW1 9224   1.017   0.312   1.618
 2775SOL    HW2 9225   0.989   0.153   1.641
 2776SOL     OW 9226   2.779   5.769   0.072
 2776SOL    HW1 9227   2.840   5.689   0.077
 2776SOL    HW2 9228   2.750   5.783   7.008
 2777SOL     OW 9229   1.008   2.621   4.253
 2777SOL    HW1 9230   0.980   2.549   4.189
 2777SOL    HW2 9231   0.950   2.701   4.242
 2778SOL     OW 9232   3.436   2.227   5.228
 2778SOL    HW1 9233   3.359   2.291   5.232
 2778SOL    HW2 9234   3.410   2.147   5.173
 2779SOL     OW 9235   6.239   0.649   0.508
 2779SOL    HW1 9236   6.257   0.560   0.549
 2779SOL    HW2 9237   6.235   0.640   0.408
 2780SOL     OW 9238   2.795   6.582   6.144
 2780SOL    HW1 9239   2.780   6.567   6.242
 2780SOL    HW2 9240   2.872   6.645   6.132
 2781SOL     OW 9241   5.515   3.574   6.563
 2781SOL    HW1 9242   5.418   3.571   6.587
 2781SOL    HW2 9243   5.570   3.554   6.644
 2782SOL     OW 9244   3.771   0.353   6.238
 2782SOL    HW1 9245   3.710   0.360   6.317
 2782SOL    HW2 9246   3.721   0.315   6.160
 2783SOL     OW 9247   0.542   4.160   5.336
 2783SOL    HW1 9248   0.635   4.135   5.362
 2783SOL    HW2 9249   0.544   4.248   5.287
 2784SOL     OW 9250   2.833   1.847   1.664
 2784SOL    HW1 9251   2.823   1.947   1.661
 2784SOL    HW2 9252   2.885   1.822   1.746
 2785SOL     OW 9253   5.525   2.789   2.509
 2785SOL    HW1 9254   5.620   2.815   2.526
 2785SOL    HW2 9255   5.500   2.813   2.415
 2786SOL     OW 9256   3.902   0.411   0.675
 2786SOL    HW1 9257   3.971   0.372   0.736
 2786SOL    HW2 9258   3.811   0.394   0.713
 2787SOL     OW 9259   1.572   4.251   5.858
 2787SOL    HW1 9260   1.621   4.308   5.792
 2787SOL    HW2 9261   1.480   4.287   5.872
 2788SOL     OW 9262   2.108   2.323   0.657
 2788SOL    HW1 9263   2.125   2.227   0.676
 2788SOL    HW2 9264   2.146   2.347   0.568
 2789SOL     OW 9265   6.990   3.332   3.143
 2789SOL    HW1 9266   0.008   3.349   3.229
 2789SOL    HW2 9267   6.908   3.279   3.160
 2790SOL     OW 9268   3.256   6.486   4.882
 2790SOL    HW1 9269   3.294   6.394   4.893
 2790SOL    HW2 9270   3.244   6.505   4.784
 2791SOL     OW 9271   2.160   3.731   2.193
 2791SOL    HW1 9272   2.181   3.649   2.139
 2791SOL    HW2 9273   2.088   3.709   2.260
 2792SOL     OW 9274   0.316   1.723   6.003
 2792SOL    HW1 9275   0.242   1.707   5.938
 2792SOL    HW2 9276   0.350   1.817   5.992
 2793SOL     OW 9277   5.280   0.505   5.134
 2793SOL    HW1 9278   5.279   0.521   5.232
 2793SOL    HW2 9279   5.202   0.449   5.108
 2794SOL     OW 9280   0.594   1.431   2.558
 2794SOL    HW1 9281   0.517   1.395   2.505
 2794SOL    HW2 9282   0.660   1.472   2.496
 2795SOL     OW 9283   1.480   3.623   0.968
 2795SOL    HW1 9284   1.538   3.668   1.036
 2795SOL    HW2 9285   1.423   3.555   1.013
 2796SOL     OW 9286   4.063   5.295   2.260
 2796SOL    HW1 9287   4.048   5.393   2.249
 2796SOL    HW2 9288   4.157   5.273   2.237
 2797SOL     OW 9289   5.205   4.741   5.433
 2797SOL    HW1 9290   5.221   4.816   5.498
 2797SOL    HW2 9291   5.252   4.659   5.466
 2798SOL     OW 9292   2.072   3.868   3.226
 2798SOL    HW1 9293   2.128   3.915   3.158
 2798SOL    HW2 9294   2.078   3.769   3.212
 2799SOL     OW 9295   6.921   5.803   0.010
 2799SOL    HW1 9296   6.940   5.715   6.996
 2799SOL    HW2 9297   7.007   5.844   0.041
 2800SOL     OW 9298   2.769   0.842   6.430
 2800SOL    HW1 9299   2.744   0.898   6.509
 2800SOL    HW2 9300   2.869   0.829   6.428
 2801SOL     OW 9301   3.981   5.717   2.017
 2801SOL    HW1 9302   3.936   5.760   1.939
 2801SOL    HW2 9303   4.055   5.776   2.050
 2802SOL     OW 9304   6.338   0.206   6.488
 2802SOL    HW1 9305   6.246   0.242   6.478
 2802SOL    HW2 9306   6.337   0.106   6.478
 2803SOL     OW 9307   3.041   6.257   4.632
 2803SOL    HW1 9308   2.972   6.233   4.563
 2803SOL    HW2 9309   3.069   6.174   4.681
 2804SOL     OW 9310   0.495   5.278   2.430
 2804SOL    HW1 9311   0.440   5.357   2.404
 2804SOL    HW2 9312   0.592   5.298   2.412
 2805SOL     OW 9313   6.787   4.309   6.576
 2805SOL    HW1 9314   6.884   4.295   6.598
 2805SOL    HW2 9315   6.766   4.407   6.579
 2806SOL     OW 9316   5.426   4.150   2.667
 2806SOL    HW1 9317   5.515   4.165   2.624
 2806SOL    HW2 9318   5.439   4.102   2.755
 2807SOL     OW 9319   3.895   4.849   4.249
 2807SOL    HW1 9320   3.808   4.827   4.205
 2807SOL    HW2 9321   3.971   4.816   4.193
 2808SOL     OW 9322   4.413   0.201   4.246
 2808SOL    HW1 9323   4.362   0.284   4.225
 2808SOL    HW2 9324   4.509   0.224   4.264
 2809SOL     OW 9325   5.262   1.854   0.405
 2809SOL    HW1 9326   5.229   1.939   0.364
 2809SOL    HW2 9327   5.269   1.783   0.335
 2810SOL     OW 9328   2.747   0.976   5.992
 2810SOL    HW1 9329   2.841   0.964   5.960
 2810SOL    HW2 9330   2.684   0.962   5.916
 2811SOL     OW 9331   6.888   0.580   4.226
 2811SOL    HW1 9332   6.925   0.495   4.189
 2811SOL    HW2 9333   6.789   0.580   4.214
 2812SOL     OW 9334   4.731   4.358   2.669
 2812SOL    HW1 9335   4.675   4.440   2.675
 2812SOL    HW2 9336   4.827   4.383   2.672
 2813SOL     OW 9337   6.388   1.889   6.259
 2813SOL    HW1 9338   6.399   1.872   6.357
 2813SOL    HW2 9339   6.450   1.830   6.208
 2814SOL     OW 9340   5.837   4.954   5.398
 2814SOL    HW1 9341   5.870   4.886   5.464
 2814SOL    HW2 9342   5.746   4.985   5.424
 2815SOL     OW 9343   1.423   1.069   4.208
 2815SOL    HW1 9344   1.386   0.976   4.201
 2815SOL    HW2 9345   1.521   1.065   4.224
 2816SOL     OW 9346   4.005   6.246   3.398
 2816SOL    HW1 9347   3.935   6.182   3.429
 2816SOL    HW2 9348   3.975   6.289   3.313
 2817SOL     OW 9349   1.545   1.128   1.181
 2817SOL    HW1 9350   1.475   1.194   1.154
 2817SOL    HW2 9351   1.633   1.175   1.190
 2818SOL     OW 9352   1.188   2.165   6.492
 2818SOL    HW1 9353   1.227   2.239   6.547
 2818SOL    HW2 9354   1.153   2.202   6.406
 2819SOL     OW 9355   6.430   3.327   2.348
 2819SOL    HW1 9356   6.384   3.415   2.350
 2819SOL    HW2 9357   6.372   3.258   2.393
 2820SOL     OW 9358   5.478   3.400   3.957
 2820SOL    HW1 9359   5.575   3.410   3.981
 2820SOL    HW2 9360   5.427   3.367   4.036
 2821SOL     OW 9361   1.673   3.413   2.774
 2821SOL    HW1 9362   1.688   3.330   2.720
 2821SOL    HW2 9363   1.599   3.399   2.839
 2822SOL     OW 9364   3.383   2.188   0.447
 2822SOL    HW1 9365   3.294   2.223   0.418
 2822SOL    HW2 9366   3.369   2.111   0.510
 2823SOL     OW 9367   1.467   0.787   4.509
 2823SOL    HW1 9368   1.367   0.783   4.508
 2823SOL    HW2 9369   1.497   0.880   4.532
 2824SOL     OW 9370   3.034   2.822   5.976
 2824SOL    HW1 9371   3.069   2.780   6.060
 2824SOL    HW2 9372   2.937   2.798   5.965
 2825SOL     OW 9373   5.629   6.189   1.027
 2825SOL    HW1 9374   5.625   6.131   1.108
 2825SOL    HW2 9375   5.646   6.284   1.054
 2826SOL     OW 9376   5.934   4.053   5.142
 2826SOL    HW1 9377   5.892   4.060   5.051
 2826SOL    HW2 9378   5.896   3.974   5.190
 2827SOL     OW 9379   0.835   0.102   6.107
 2827SOL    HW1 9380   0.844   0.010   6.146
 2827SOL    HW2 9381   0.910   0.160   6.138
 2828SOL     OW 9382   3.497   2.479   6.120
 2828SOL    HW1 9383   3.414   2.504   6.071
 2828SOL    HW2 9384   3.486   2.388   6.161
 2829SOL     OW 9385   3.072   1.295   0.191
 2829SOL    HW1 9386   3.115   1.296   0.281
 2829SOL    HW2 9387   3.013   1.215   0.183
 2830SOL     OW 9388   3.270   4.125   0.270
 2830SOL    HW1 9389   3.196   4.164   0.326
 2830SOL    HW2 9390   3.244   4.128   0.174
 2831SOL     OW 9391   6.362   6.343   4.328
 2831SOL    HW1 9392   6.350   6.358   4.230
 2831SOL    HW2 9393   6.457   6.315   4.346
 2832SOL     OW 9394   0.648   0.680   2.168
 2832SOL    HW1 9395   0.608   0.772   2.166
 2832SOL    HW2 9396   0.586   0.616   2.123
 2833SOL     OW 9397   5.350   2.827   2.260
 2833SOL    HW1 9398   5.345   2.915   2.213
 2833SOL    HW2 9399   5.264   2.778   2.248
 2834SOL     OW 9400   5.041   0.957   4.903
 2834SOL    HW1 9401   5.100   1.006   4.839
 2834SOL    HW2 9402   4.945   0.982   4.886
 2835SOL     OW 9403   6.238   6.333   3.161
 2835SOL    HW1 9404   6.206   6.428   3.161
 2835SOL    HW2 9405   6.326   6.328   3.209
 2836SOL     OW 9406   6.738   6.513   1.541
 2836SOL    HW1 9407   6.684   6.591   1.508
 2836SOL    HW2 9408   6.772   6.532   1.633
 2837SOL     OW 9409   5.976   2.139   4.609
 2837SOL    HW1 9410   5.993   2.195   4.690
 2837SOL    HW2 9411   6.040   2.164   4.537
 2838SOL     OW 9412   1.867   4.719   4.120
 2838SOL    HW1 9413   1.802   4.683   4.052
 2838SOL    HW2 9414   1.855   4.818   4.127
 2839SOL     OW 9415   5.058   2.839   1.388
 2839SOL    HW1 9416   5.018   2.823   1.297
 2839SOL    HW2 9417   5.005   2.789   1.456
 2840SOL     OW 9418   0.810   2.693   5.202
 2840SOL    HW1 9419   0.786   2.686   5.299
 2840SOL    HW2 9420   0.783   2.782   5.167
 2841SOL     OW 9421   0.107   5.890   0.124
 2841SOL    HW1 9422   0.179   5.859   0.061
 2841SOL    HW2 9423   0.138   5.877   0.218
 2842SOL     OW 9424   5.279   3.272   2.476
 2842SOL    HW1 9425   5.203   3.337   2.472
 2842SOL    HW2 9426   5.248   3.186   2.515
 2843SOL     OW 9427   3.915   0.406   3.629
 2843SOL    HW1 9428   3.994   0.372   3.679
 2843SOL    HW2 9429   3.839   0.341   3.638
 2844SOL     OW 9430   1.578   3.782   4.734
 2844SOL    HW1 9431   1.579   3.825   4.824
 2844SOL    HW2 9432   1.489   3.739   4.719
 2845SOL     OW 9433   1.037   4.224   6.505
 2845SOL    HW1 9434   1.020   4.294   6.575
 2845SOL    HW2 9435   1.087   4.266   6.429
 2846SOL     OW 9436   5.557   0.963   5.757
 2846SOL    HW1 9437   5.575   1.054   5.721
 2846SOL    HW2 9438   5.643   0.918   5.780
 2847SOL     OW 9439   3.883   4.942   4.902
 2847SOL    HW1 9440   3.785   4.953   4.888
 2847SOL    HW2 9441   3.900   4.897   4.990
 2848SOL     OW 9442   2.244   6.926   6.250
 2848SOL    HW1 9443   2.147   6.922   6.274
 2848SOL    HW2 9444   2.260   6.875   6.165
 2849SOL     OW 9445   2.135   2.538   1.491
 2849SOL    HW1 9446   2.095   2.627   1.509
 2849SOL    HW2 9447   2.153   2.491   1.578
 2850SOL     OW 9448   4.615   1.123   0.402
 2850SOL    HW1 9449   4.636   1.027   0.418
 2850SOL    HW2 9450   4.627   1.174   0.488
 2851SOL     OW 9451   3.497   6.398   5.238
 2851SOL    HW1 9452   3.413   6.424   5.191
 2851SOL    HW2 9453   3.483   6.312   5.287
 2852SOL     OW 9454   0.533   2.039   6.459
 2852SOL    HW1 9455   0.535   1.939   6.466
 2852SOL    HW2 9456   0.497   2.065   6.369
 2853SOL     OW 9457   3.589   3.230   1.086
 2853SOL    HW1 9458   3.624   3.149   1.134
 2853SOL    HW2 9459   3.551   3.202   0.998
 2854SOL     OW 9460   0.305   1.581   4.034
 2854SOL    HW1 9461   0.368   1.637   4.087
 2854SOL    HW2 9462   0.323   1.484   4.052
 2855SOL     OW 9463   2.979   1.843   3.553
 2855SOL    HW1 9464   2.980   1.828   3.652
 2855SOL    HW2 9465   2.946   1.936   3.534
 2856SOL     OW 9466   3.249   1.606   5.408
 2856SOL    HW1 9467   3.274   1.641   5.498
 2856SOL    HW2 9468   3.150   1.613   5.395
 2857SOL     OW 9469   2.966   3.608   5.505
 2857SOL    HW1 9470   2.971   3.554   5.421
 2857SOL    HW2 9471   2.980   3.705   5.484
 2858SOL     OW 9472   5.401   2.800   3.038
 2858SOL    HW1 9473   5.480   2.751   3.000
 2858SOL    HW2 9474   5.376   2.759   3.126
 2859SOL     OW 9475   6.519   4.957   0.102
 2859SOL    HW1 9476   6.608   4.998   0.082
 2859SOL    HW2 9477   6.479   4.923   0.017
 2860SOL     OW 9478   4.367   2.343   0.683
 2860SOL    HW1 9479   4.288   2.384   0.728
 2860SOL    HW2 9480   4.451   2.385   0.718
 2861SOL     OW 9481   4.425   4.173   6.032
 2861SOL    HW1 9482   4.334   4.132   6.025
 2861SOL    HW2 9483   4.491   4.103   6.059
 2862SOL     OW 9484   6.657   6.574   3.266
 2862SOL    HW1 9485   6.713   6.580   3.350
 2862SOL    HW2 9486   6.614   6.484   3.261
 2863SOL     OW 9487   6.373   6.258   6.703
 2863SOL    HW1 9488   6.298   6.234   6.764
 2863SOL    HW2 9489   6.386   6.185   6.635
 2864SOL     OW 9490   4.675   2.156   0.086
 2864SOL    HW1 9491   4.609   2.157   0.161
 2864SOL    HW2 9492   4.695   2.250   0.058
 2865SOL     OW 9493   4.906   4.575   5.059
 2865SOL    HW1 9494   4.949   4.555   5.147
 2865SOL    HW2 9495   4.972   4.619   4.998
 2866SOL     OW 9496   0.602   0.133   6.305
 2866SOL    HW1 9497   0.588   0.065   6.377
 2866SOL    HW2 9498   0.671   0.100   6.241
 2867SOL     OW 9499   6.380   4.052   4.790
 2867SOL    HW1 9500   6.292   4.068   4.835
 2867SOL    HW2 9501   6.366   3.995   4.709
 2868SOL     OW 9502   2.178   4.917   4.720
 2868SOL    HW1 9503   2.104   4.913   4.788
 2868SOL    HW2 9504   2.197   5.013   4.699
 2869SOL     OW 9505   5.881   1.938   2.517
 2869SOL    HW1 9506   5.916   1.996   2.443
 2869SOL    HW2 9507   5.952   1.926   2.587
 2870SOL     OW 9508   4.196   2.016   1.499
 2870SOL    HW1 9509   4.170   1.952   1.571
 2870SOL    HW2 9510   4.227   1.966   1.419
 2871SOL     OW 9511   1.145   1.309   5.582
 2871SOL    HW1 9512   1.130   1.374   5.657
 2871SOL    HW2 9513   1.222   1.250   5.605
 2872SOL     OW 9514   1.635   0.410   4.310
 2872SOL    HW1 9515   1.679   0.334   4.262
 2872SOL    HW2 9516   1.569   0.455   4.250
 2873SOL     OW 9517   6.202   4.985   2.442
 2873SOL    HW1 9518   6.188   5.083   2.435
 2873SOL    HW2 9519   6.175   4.941   2.357
 2874SOL     OW 9520   5.192   1.934   1.851
 2874SOL    HW1 9521   5.279   1.957   1.894
 2874SOL    HW2 9522   5.153   1.854   1.896
 2875SOL     OW 9523   2.598   5.179   0.464
 2875SOL    HW1 9524   2.682   5.127   0.473
 2875SOL    HW2 9525   2.522   5.128   0.505
 2876SOL     OW 9526   5.529   2.108   1.665
 2876SOL    HW1 9527   5.544   2.066   1.576
 2876SOL    HW2 9528   5.502   2.039   1.732
 2877SOL     OW 9529   1.179   3.351   5.579
 2877SOL    HW1 9530   1.277   3.342   5.563
 2877SOL    HW2 9531   1.163   3.405   5.661
 2878SOL     OW 9532   5.019   4.800   0.865
 2878SOL    HW1 9533   5.052   4.723   0.920
 2878SOL    HW2 9534   5.093   4.831   0.805
 2879SOL     OW 9535   5.328   4.734   0.102
 2879SOL    HW1 9536   5.271   4.679   0.042
 2879SOL    HW2 9537   5.283   4.744   0.191
 2880SOL     OW 9538   1.564   0.399   3.841
 2880SOL    HW1 9539   1.518   0.325   3.890
 2880SOL    HW2 9540   1.504   0.479   3.836
 2881SOL     OW 9541   7.010   0.409   0.041
 2881SOL    HW1 9542   6.911   0.400   0.042
 2881SOL    HW2 9543   0.008   0.463   6.991
 2882SOL     OW 9544   6.461   4.543   3.132
 2882SOL    HW1 9545   6.439   4.592   3.216
 2882SOL    HW2 9546   6.459   4.445   3.149
 2883SOL     OW 9547   3.128   6.500   2.293
 2883SOL    HW1 9548   3.183   6.549   2.226
 2883SOL    HW2 9549   3.137   6.544   2.382
 2884SOL     OW 9550   2.408   4.794   3.072
 2884SOL    HW1 9551   2.317   4.755   3.090
 2884SOL    HW2 9552   2.406   4.842   2.984
 2885SOL     OW 9553   1.230   2.116   4.172
 2885SOL    HW1 9554   1.266   2.040   4.227
 2885SOL    HW2 9555   1.131   2.106   4.162
 2886SOL     OW 9556   2.827   2.457   6.445
 2886SOL    HW1 9557   2.812   2.552   6.421
 2886SOL    HW2 9558   2.836   2.449   6.545
 2887SOL     OW 9559   2.210   0.403   5.350
 2887SOL    HW1 9560   2.297   0.361   5.323
 2887SOL    HW2 9561   2.160   0.430   5.268
 2888SOL     OW 9562   0.366   5.280   6.796
 2888SOL    HW1 9563   0.464   5.297   6.785
 2888SOL    HW2 9564   0.315   5.361   6.767
 2889SOL     OW 9565   1.353   1.257   0.598
 2889SOL    HW1 9566   1.382   1.305   0.681
 2889SOL    HW2 9567   1.253   1.251   0.597
 2890SOL     OW 9568   2.420   0.549   0.333
 2890SOL    HW1 9569   2.375   0.515   0.416
 2890SOL    HW2 9570   2.405   0.648   0.327
 2891SOL     OW 9571   3.093   4.652   5.304
 2891SOL    HW1 9572   3.030   4.593   5.253
 2891SOL    HW2 9573   3.050   4.680   5.390
 2892SOL     OW 9574   4.018   4.063   5.316
 2892SOL    HW1 9575   4.113   4.093   5.324
 2892SOL    HW2 9576   4.016   3.967   5.290
 2893SOL     OW 9577   2.930   0.602   4.981
 2893SOL    HW1 9578   2.951   0.700   4.986
 2893SOL    HW2 9579   2.981   0.561   4.904
 2894SOL     OW 9580   3.949   2.985   2.352
 2894SOL    HW1 9581   4.000   3.043   2.289
 2894SOL    HW2 9582   3.968   2.889   2.332
 2895SOL     OW 9583   3.717   2.687   0.037
 2895SOL    HW1 9584   3.706   2.777   0.080
 2895SOL    HW2 9585   3.633   2.663   7.017
 2896SOL     OW 9586   1.098   4.876   0.029
 2896SOL    HW1 9587   1.087   4.777   0.034
 2896SOL    HW2 9588   1.177   4.905   0.082
 2897SOL     OW 9589   0.312   0.481   3.061
 2897SOL    HW1 9590   0.284   0.466   3.155
 2897SOL    HW2 9591   0.247   0.541   3.016
 2898SOL     OW 9592   2.031   5.029   2.729
 2898SOL    HW1 9593   1.951   5.053   2.675
 2898SOL    HW2 9594   2.058   5.107   2.785
 2899SOL     OW 9595   5.164   1.123   0.767
 2899SOL    HW1 9596   5.184   1.067   0.686
 2899SOL    HW2 9597   5.181   1.219   0.745
 2900SOL     OW 9598   2.319   5.560   6.851
 2900SOL    HW1 9599   2.416   5.583   6.862
 2900SOL    HW2 9600   2.307   5.461   6.856
 2901SOL     OW 9601   2.940   0.043   0.982
 2901SOL    HW1 9602   2.984   7.024   0.908
 2901SOL    HW2 9603   2.928   7.012   1.060
 2902SOL     OW 9604   4.547   4.937   1.530
 2902SOL    HW1 9605   4.623   4.985   1.486
 2902SOL    HW2 9606   4.535   4.847   1.486
 2903SOL     OW 9607   3.088   2.331   1.662
 2903SOL    HW1 9608   3.029   2.361   1.737
 2903SOL    HW2 9609   3.180   2.365   1.676
 2904SOL     OW 9610   2.956   2.209   4.319
 2904SOL    HW1 9611   2.862   2.179   4.305
 2904SOL    HW2 9612   2.962   2.260   4.405
 2905SOL     OW 9613   0.977   2.373   2.266
 2905SOL    HW1 9614   0.948   2.280   2.292
 2905SOL    HW2 9615   1.029   2.413   2.341
 2906SOL     OW 9616   5.195   5.246   2.720
 2906SOL    HW1 9617   5.233   5.314   2.657
 2906SOL    HW2 9618   5.264   5.221   2.787
 2907SOL     OW 9619   6.022   0.121   4.426
 2907SOL    HW1 9620   6.029   0.219   4.409
 2907SOL    HW2 9621   5.990   0.106   4.520
 2908SOL     OW 9622   4.328   5.838   4.544
 2908SOL    HW1 9623   4.348   5.824   4.641
 2908SOL    HW2 9624   4.331   5.750   4.496
 2909SOL     OW 9625   2.296   6.287   6.356
 2909SOL    HW1 9626   2.282   6.386   6.345
 2909SOL    HW2 9627   2.386   6.262   6.322
 2910SOL     OW 9628   4.084   5.233   5.325
 2910SOL    HW1 9629   4.144   5.233   5.245
 2910SOL    HW2 9630   4.016   5.306   5.315
 2911SOL     OW 9631   2.849   4.786   2.807
 2911SOL    HW1 9632   2.860   4.717   2.735
 2911SOL    HW2 9633   2.796   4.747   2.882
 2912SOL     OW 9634   3.000   5.219   1.000
 2912SOL    HW1 9635   2.995   5.222   1.100
 2912SOL    HW2 9636   3.063   5.146   0.972
 2913SOL     OW 9637   0.011   2.500   1.421
 2913SOL    HW1 9638   7.016   2.597   1.421
 2913SOL    HW2 9639   0.103   2.488   1.458
 2914SOL     OW 9640   5.134   4.571   6.585
 2914SOL    HW1 9641   5.163   4.666   6.596
 2914SOL    HW2 9642   5.044   4.558   6.625
 2915SOL     OW 9643   4.667   0.724   2.891
 2915SOL    HW1 9644   4.698   0.711   2.985
 2915SOL    HW2 9645   4.672   0.821   2.867
 2916SOL     OW 9646   5.152   0.565   4.397
 2916SOL    HW1 9647   5.243   0.587   4.431
 2916SOL    HW2 9648   5.130   0.625   4.320
 2917SOL     OW 9649   3.907   0.373   2.495
 2917SOL    HW1 9650   3.808   0.384   2.492
 2917SOL    HW2 9651   3.950   0.437   2.431
 2918SOL     OW 9652   1.459   3.075   4.562
 2918SOL    HW1 9653   1.509   3.016   4.498
 2918SOL    HW2 9654   1.518   3.099   4.638
 2919SOL     OW 9655   5.975   5.275   0.300
 2919SOL    HW1 9656   6.037   5.200   0.320
 2919SOL    HW2 9657   5.918   5.252   0.221
 2920SOL     OW 9658   4.602   1.421   2.837
 2920SOL    HW1 9659   4.635   1.387   2.748
 2920SOL    HW2 9660   4.643   1.366   2.910
 2921SOL     OW 9661   6.381   1.226   0.000
 2921SOL    HW1 9662   6.474   1.196   0.017
 2921SOL    HW2 9663   6.363   1.310   0.052
 2922SOL     OW 9664   4.684   0.494   3.972
 2922SOL    HW1 9665   4.750   0.567   3.957
 2922SOL    HW2 9666   4.604   0.530   4.021
 2923SOL     OW 9667   0.075   4.075   0.657
 2923SOL    HW1 9668   0.010   4.031   0.594
 2923SOL    HW2 9669   0.152   4.112   0.605
 2924SOL     OW 9670   6.305   6.502   6.613
 2924SOL    HW1 9671   6.325   6.408   6.641
 2924SOL    HW2 9672   6.272   6.502   6.519
 2925SOL     OW 9673   6.594   4.548   0.783
 2925SOL    HW1 9674   6.507   4.598   0.777
 2925SOL    HW2 9675   6.644   4.559   0.697
 2926SOL     OW 9676   6.871   1.386   2.803
 2926SOL    HW1 9677   6.929   1.307   2.824
 2926SOL    HW2 9678   6.807   1.362   2.730
 2927SOL     OW 9679   6.859   2.958   3.156
 2927SOL    HW1 9680   6.930   2.990   3.093
 2927SOL    HW2 9681   6.796   2.897   3.108
 2928SOL     OW 9682   5.499   5.940   0.610
 2928SOL    HW1 9683   5.542   5.880   0.677
 2928SOL    HW2 9684   5.414   5.897   0.576
 2929SOL     OW 9685   0.066   0.573   5.793
 2929SOL    HW1 9686   0.045   0.493   5.850
 2929SOL    HW2 9687   7.012   0.621   5.771
 2930SOL     OW 9688   2.488   7.010   4.305
 2930SOL    HW1 9689   2.390   7.019   4.284
 2930SOL    HW2 9690   2.521   0.063   4.349
 2931SOL     OW 9691   4.867   4.526   6.642
 2931SOL    HW1 9692   4.814   4.444   6.618
 2931SOL    HW2 9693   4.835   4.562   6.729
 2932SOL     OW 9694   0.430   5.207   1.653
 2932SOL    HW1 9695   0.462   5.301   1.664
 2932SOL    HW2 9696   0.354   5.206   1.588
 2933SOL     OW 9697   4.261   1.981   3.186
 2933SOL    HW1 9698   4.314   1.948   3.107
 2933SOL    HW2 9699   4.274   2.080   3.194
 2934SOL     OW 9700   1.772   1.328   1.467
 2934SOL    HW1 9701   1.726   1.389   1.531
 2934SOL    HW2 9702   1.840   1.273   1.515
 2935SOL     OW 9703   6.637   0.994   0.827
 2935SOL    HW1 9704   6.598   0.969   0.916
 2935SOL    HW2 9705   6.658   0.911   0.776
 2936SOL     OW 9706   4.357   4.484   1.482
 2936SOL    HW1 9707   4.278   4.487   1.543
 2936SOL    HW2 9708   4.398   4.393   1.485
 2937SOL     OW 9709   2.488   4.391   0.742
 2937SOL    HW1 9710   2.516   4.338   0.661
 2937SOL    HW2 9711   2.562   4.452   0.769
 2938SOL     OW 9712   4.727   5.655   0.109
 2938SOL    HW1 9713   4.698   5.601   0.188
 2938SOL    HW2 9714   4.665   5.733   0.097
 2939SOL     OW 9715   6.685   6.455   6.569
 2939SOL    HW1 9716   6.653   6.458   6.664
 2939SOL    HW2 9717   6.696   6.360   6.541
 2940SOL     OW 9718   3.727   6.887   5.301
 2940SOL    HW1 9719   3.825   6.906   5.290
 2940SOL    HW2 9720   3.683   6.886   5.211
 2941SOL     OW 9721   4.128   1.237   5.421
 2941SOL    HW1 9722   4.069   1.315   5.400
 2941SOL    HW2 9723   4.085   1.181   5.492
 2942SOL     OW 9724   2.713   6.440   3.748
 2942SOL    HW1 9725   2.706   6.409   3.653
 2942SOL    HW2 9726   2.800   6.410   3.786
 2943SOL     OW 9727   5.449   4.448   3.018
 2943SOL    HW1 9728   5.396   4.363   3.014
 2943SOL    HW2 9729   5.542   4.429   3.049
 2944SOL     OW 9730   5.453   5.265   0.776
 2944SOL    HW1 9731   5.499   5.230   0.857
 2944SOL    HW2 9732   5.436   5.189   0.713
 2945SOL     OW 9733   3.418   3.809   4.206
 2945SOL    HW1 9734   3.351   3.863   4.258
 2945SOL    HW2 9735   3.433   3.722   4.253
 2946SOL     OW 9736   1.398   6.191   5.118
 2946SOL    HW1 9737   1.395   6.291   5.119
 2946SOL    HW2 9738   1.407   6.158   5.023
 2947SOL     OW 9739   0.341   5.281   0.035
 2947SOL    HW1 9740   0.390   5.368   0.047
 2947SOL    HW2 9741   0.319   5.269   6.968
 2948SOL     OW 9742   6.606   3.109   5.026
 2948SOL    HW1 9743   6.678   3.172   4.997
 2948SOL    HW2 9744   6.637   3.058   5.106
 2949SOL     OW 9745   0.696   6.747   1.086
 2949SOL    HW1 9746   0.793   6.725   1.095
 2949SOL    HW2 9747   0.653   6.684   1.022
 2950SOL     OW 9748   5.489   4.061   4.901
 2950SOL    HW1 9749   5.394   4.066   4.870
 2950SOL    HW2 9750   5.500   3.982   4.962
 2951SOL     OW 9751   6.573   0.647   0.031
 2951SOL    HW1 9752   6.590   0.712   6.987
 2951SOL    HW2 9753   6.499   0.681   0.089
 2952SOL     OW 9754   0.522   3.714   1.849
 2952SOL    HW1 9755   0.561   3.787   1.904
 2952SOL    HW2 9756   0.585   3.691   1.775
 2953SOL     OW 9757   5.667   1.454   1.791
 2953SOL    HW1 9758   5.686   1.485   1.698
 2953SOL    HW2 9759   5.604   1.377   1.788
 2954SOL     OW 9760   4.887   6.177   2.033
 2954SOL    HW1 9761   4.846   6.171   1.941
 2954SOL    HW2 9762   4.948   6.257   2.036
 2955SOL     OW 9763   5.491   1.970   1.435
 2955SOL    HW1 9764   5.500   1.871   1.444
 2955SOL    HW2 9765   5.398   1.998   1.460
 2956SOL     OW 9766   5.207   6.039   3.234
 2956SOL    HW1 9767   5.252   6.098   3.301
 2956SOL    HW2 9768   5.159   5.965   3.282
 2957SOL     OW 9769   0.911   5.182   1.169
 2957SOL    HW1 9770   0.981   5.247   1.139
 2957SOL    HW2 9771   0.825   5.229   1.184
 2958SOL     OW 9772   2.076   4.856   6.420
 2958SOL    HW1 9773   2.042   4.927   6.481
 2958SOL    HW2 9774   2.127   4.897   6.345
 2959SOL     OW 9775   3.004   5.664   6.637
 2959SOL    HW1 9776   3.065   5.603   6.587
 2959SOL    HW2 9777   3.056   5.744   6.669
 2960SOL     OW 9778   3.452   1.213   6.973
 2960SOL    HW1 9779   3.487   1.128   6.934
 2960SOL    HW2 9780   3.527   1.277   6.988
 2961SOL     OW 9781   5.624   1.090   3.862
 2961SOL    HW1 9782   5.560   1.099   3.938
 2961SOL    HW2 9783   5.620   1.173   3.806
 2962SOL     OW 9784   4.094   6.991   2.500
 2962SOL    HW1 9785   4.148   6.926   2.446
 2962SOL    HW2 9786   4.117   6.980   2.597
 2963SOL     OW 9787   2.317   2.883   4.757
 2963SOL    HW1 9788   2.358   2.958   4.808
 2963SOL    HW2 9789   2.339   2.796   4.801
 2964SOL     OW 9790   2.463   6.050   6.945
 2964SOL    HW1 9791   2.450   6.102   7.029
 2964SOL    HW2 9792   2.395   5.977   6.939
 2965SOL     OW 9793   1.203   2.873   5.687
 2965SOL    HW1 9794   1.237   2.909   5.774
 2965SOL    HW2 9795   1.158   2.784   5.703
 2966SOL     OW 9796   4.697   5.328   2.465
 2966SOL    HW1 9797   4.780   5.327   2.520
 2966SOL    HW2 9798   4.647   5.413   2.482
 2967SOL     OW 9799   5.604   2.947   4.646
 2967SOL    HW1 9800   5.555   2.869   4.606
 2967SOL    HW2 9801   5.683   2.914   4.698
 2968SOL     OW 9802   6.635   4.222   4.436
 2968SOL    HW1 9803   6.539   4.197   4.449
 2968SOL    HW2 9804   6.662   4.206   4.342
 2969SOL     OW 9805   3.709   1.382   5.291
 2969SOL    HW1 9806   3.803   1.414   5.299
 2969SOL    HW2 9807   3.663   1.392   5.379
 2970SOL     OW 9808   1.060   4.253   6.107
 2970SOL    HW1 9809   1.116   4.328   6.072
 2970SOL    HW2 9810   1.072   4.245   6.206
 2971SOL     OW 9811   5.752   2.969   1.578
 2971SOL    HW1 9812   5.765   2.969   1.478
 2971SOL    HW2 9813   5.663   2.928   1.600
 2972SOL     OW 9814   0.700   4.787   4.190
 2972SOL    HW1 9815   0.734   4.812   4.100
 2972SOL    HW2 9816   0.773   4.799   4.258
 2973SOL     OW 9817   6.044   0.124   4.016
 2973SOL    HW1 9818   6.048   0.060   4.092
 2973SOL    HW2 9819   5.957   0.113   3.967
 2974SOL     OW 9820   6.103   4.160   1.076
 2974SOL    HW1 9821   6.054   4.148   0.989
 2974SOL    HW2 9822   6.100   4.256   1.103
 2975SOL     OW 9823   6.189   2.045   3.913
 2975SOL    HW1 9824   6.266   1.982   3.919
 2975SOL    HW2 9825   6.222   2.138   3.932
 2976SOL     OW 9826   2.269   5.649   1.372
 2976SOL    HW1 9827   2.286   5.697   1.458
 2976SOL    HW2 9828   2.295   5.553   1.382
 2977SOL     OW 9829   2.052   0.145   3.346
 2977SOL    HW1 9830   2.072   0.119   3.251
 2977SOL    HW2 9831   1.961   0.110   3.371
 2978SOL     OW 9832   2.106   0.341   6.636
 2978SOL    HW1 9833   2.078   0.360   6.542
 2978SOL    HW2 9834   2.033   0.292   6.684
 2979SOL     OW 9835   2.175   0.960   3.058
 2979SOL    HW1 9836   2.253   0.905   3.030
 2979SOL    HW2 9837   2.186   1.053   3.026
 2980SOL     OW 9838   6.035   0.207   3.422
 2980SOL    HW1 9839   5.951   0.193   3.473
 2980SOL    HW2 9840   6.074   0.296   3.445
 2981SOL     OW 9841   0.806   0.950   5.937
 2981SOL    HW1 9842   0.760   1.038   5.952
 2981SOL    HW2 9843   0.795   0.923   5.841
 2982SOL     OW 9844   5.261   6.050   2.147
 2982SOL    HW1 9845   5.346   6.036   2.198
 2982SOL    HW2 9846   5.283   6.063   2.050
 2983SOL     OW 9847   0.449   1.547   3.048
 2983SOL    HW1 9848   0.371   1.508   3.098
 2983SOL    HW2 9849   0.453   1.507   2.956
 2984SOL     OW 9850   6.504   4.181   1.889
 2984SOL    HW1 9851   6.413   4.160   1.925
 2984SOL    HW2 9852   6.522   4.279   1.898
 2985SOL     OW 9853   6.469   2.180   3.145
 2985SOL    HW1 9854   6.403   2.133   3.086
 2985SOL    HW2 9855   6.503   2.262   3.099
 2986SOL     OW 9856   1.866   3.354   4.559
 2986SOL    HW1 9857   1.856   3.346   4.658
 2986SOL    HW2 9858   1.778   3.381   4.519
 2987SOL     OW 9859   5.116   1.529   4.743
 2987SOL    HW1 9860   5.215   1.543   4.745
 2987SOL    HW2 9861   5.089   1.492   4.654
 2988SOL     OW 9862   0.125   1.372   2.643
 2988SOL    HW1 9863   0.149   1.467   2.666
 2988SOL    HW2 9864   0.126   1.317   2.726
 2989SOL     OW 9865   0.046   5.005   0.778
 2989SOL    HW1 9866   0.042   4.976   0.873
 2989SOL    HW2 9867   0.074   5.101   0.774
 2990SOL     OW 9868   2.802   1.158   0.843
 2990SOL    HW1 9869   2.898   1.183   0.832
 2990SOL    HW2 9870   2.795   1.076   0.899
 2991SOL     OW 9871   6.115   4.424   0.197
 2991SOL    HW1 9872   6.213   4.430   0.217
 2991SOL    HW2 9873   6.092   4.332   0.168
 2992SOL     OW 9874   3.653   5.075   6.574
 2992SOL    HW1 9875   3.638   5.123   6.661
 2992SOL    HW2 9876   3.564   5.054   6.532
 2993SOL     OW 9877   1.074   3.822   0.099
 2993SOL    HW1 9878   0.992   3.861   0.057
 2993SOL    HW2 9879   1.074   3.842   0.197
 2994SOL     OW 9880   4.123   6.817   6.325
 2994SOL    HW1 9881   4.151   6.909   6.300
 2994SOL    HW2 9882   4.052   6.822   6.395
 2995SOL     OW 9883   2.483   0.811   5.323
 2995SOL    HW1 9884   2.509   0.886   5.384
 2995SOL    HW2 9885   2.421   0.845   5.253
 2996SOL     OW 9886   4.690   6.699   6.417
 2996SOL    HW1 9887   4.671   6.675   6.322
 2996SOL    HW2 9888   4.610   6.743   6.457
 2997SOL     OW 9889   3.545   5.763   0.711
 2997SOL    HW1 9890   3.476   5.836   0.717
 2997SOL    HW2 9891   3.611   5.786   0.640
 2998SOL     OW 9892   6.524   3.891   5.965
 2998SOL    HW1 9893   6.580   3.961   6.008
 2998SOL    HW2 9894   6.546   3.886   5.867
 2999SOL     OW 9895   2.940   1.422   1.226
 2999SOL    HW1 9896   2.857   1.471   1.200
 2999SOL    HW2 9897   3.010   1.488   1.255
 3000SOL     OW 9898   1.418   1.821   5.351
 3000SOL    HW1 9899   1.457   1.784   5.267
 3000SOL    HW2 9900   1.385   1.914   5.335
 3001SOL     OW 9901   4.883   6.205   5.959
 3001SOL    HW1 9902   4.972   6.170   5.931
 3001SOL    HW2 9903   4.849   6.269   5.890
 3002SOL     OW 9904   3.593   0.263   5.328
 3002SOL    HW1 9905   3.520   0.300   5.385
 3002SOL    HW2 9906   3.658   0.336   5.306
 3003SOL     OW 9907   1.309   0.469   5.784
 3003SOL    HW1 9908   1.370   0.445   5.709
 3003SOL    HW2 9909   1.362   0.481   5.868
 3004SOL     OW 9910   0.271   3.656   6.339
 3004SOL    HW1 9911   0.332   3.606   6.399
 3004SOL    HW2 9912   0.295   3.638   6.244
 3005SOL     OW 9913   4.649   2.172   1.040
 3005SOL    HW1 9914   4.551   2.195   1.037
 3005SOL    HW2 9915   4.674   2.149   1.134
 3006SOL     OW 9916   3.891   6.185   2.333
 3006SOL    HW1 9917   3.970   6.131   2.303
 3006SOL    HW2 9918   3.822   6.124   2.371
 3007SOL     OW 9919   5.485   5.395   1.851
 3007SOL    HW1 9920   5.459   5.481   1.808
 3007SOL    HW2 9921   5.435   5.320   1.808
 3008SOL     OW 9922   4.741   5.127   5.586
 3008SOL    HW1 9923   4.726   5.224   5.605
 3008SOL    HW2 9924   4.694   5.071   5.653
 3009SOL     OW 9925   1.871   0.454   1.816
 3009SOL    HW1 9926   1.923   0.371   1.797
 3009SOL    HW2 9927   1.810   0.474   1.740
 3010SOL     OW 9928   3.437   0.874   3.812
 3010SOL    HW1 9929   3.340   0.865   3.788
 3010SOL    HW2 9930   3.445   0.896   3.909
 3011SOL     OW 9931   5.565   0.212   0.231
 3011SOL    HW1 9932   5.510   0.151   0.174
 3011SOL    HW2 9933   5.657   0.221   0.192
 3012SOL     OW 9934   0.116   5.009   1.452
 3012SOL    HW1 9935   0.183   5.083   1.456
 3012SOL    HW2 9936   0.115   4.960   1.539
 3013SOL     OW 9937   5.675   4.948   1.580
 3013SOL    HW1 9938   5.661   5.034   1.630
 3013SOL    HW2 9939   5.673   4.871   1.644
 3014SOL     OW 9940   5.403   5.644   5.357
 3014SOL    HW1 9941   5.431   5.681   5.269
 3014SOL    HW2 9942   5.308   5.613   5.352
 3015SOL     OW 9943   3.441   1.359   0.551
 3015SOL    HW1 9944   3.399   1.448   0.568
 3015SOL    HW2 9945   3.463   1.350   0.453
 3016SOL     OW 9946   4.189   6.293   4.378
 3016SOL    HW1 9947   4.161   6.209   4.425
 3016SOL    HW2 9948   4.289   6.298   4.375
 3017SOL     OW 9949   0.571   6.653   2.687
 3017SOL    HW1 9950   0.630   6.661   2.607
 3017SOL    HW2 9951   0.590   6.729   2.749
 3018SOL     OW 9952   4.154   6.820   5.888
 3018SOL    HW1 9953   4.087   6.764   5.937
 3018SOL    HW2 9954   4.176   6.776   5.801
 3019SOL     OW 9955   4.881   0.764   1.601
 3019SOL    HW1 9956   4.849   0.841   1.656
 3019SOL    HW2 9957   4.868   0.679   1.651
 3020SOL     OW 9958   2.031   0.252   1.709
 3020SOL    HW1 9959   2.053   0.277   1.615
 3020SOL    HW2 9960   2.104   0.284   1.770
 3021SOL     OW 9961   4.249   0.217   6.275
 3021SOL    HW1 9962   4.288   0.268   6.352
 3021SOL    HW2 9963   4.169   0.265   6.240
 3022SOL     OW 9964   6.975   0.453   3.242
 3022SOL    HW1 9965   6.922   0.410   3.314
 3022SOL    HW2 9966   6.995   0.385   3.171
 3023SOL     OW 9967   5.429   0.081   1.721
 3023SOL    HW1 9968   5.503   0.080   1.653
 3023SOL    HW2 9969   5.398   0.175   1.736
 3024SOL     OW 9970   1.846   6.755   7.007
 3024SOL    HW1 9971   1.884   6.833   0.028
 3024SOL    HW2 9972   1.861   6.768   6.909
 3025SOL     OW 9973   1.858   2.385   2.170
 3025SOL    HW1 9974   1.895   2.323   2.239
 3025SOL    HW2 9975   1.933   2.426   2.119
 3026SOL     OW 9976   2.804   5.784   0.697
 3026SOL    HW1 9977   2.770   5.771   0.604
 3026SOL    HW2 9978   2.784   5.703   0.752
 3027SOL     OW 9979   0.862   2.444   4.091
 3027SOL    HW1 9980   0.845   2.359   4.141
 3027SOL    HW2 9981   0.879   2.423   3.995
 3028SOL     OW 9982   1.683   0.630   4.499
 3028SOL    HW1 9983   1.670   0.537   4.465
 3028SOL    HW2 9984   1.595   0.675   4.509
 3029SOL     OW 9985   6.329   5.233   5.906
 3029SOL    HW1 9986   6.388   5.220   5.986
 3029SOL    HW2 9987   6.348   5.161   5.839
 3030SOL     OW 9988   0.466   1.045   5.946
 3030SOL    HW1 9989   0.486   1.007   6.036
 3030SOL    HW2 9990   0.537   1.112   5.921
 3031SOL     OW 9991   6.938   5.020   5.933
 3031SOL    HW1 9992   6.893   5.076   6.003
 3031SOL    HW2 9993   0.006   5.041   5.933
 3032SOL     OW 9994   4.152   0.200   5.625
 3032SOL    HW1 9995   4.097   0.283   5.612
 3032SOL    HW2 9996   4.212   0.213   5.704
 3033SOL     OW 9997   4.968   4.174   6.148
 3033SOL    HW1 9998   5.059   4.148   6.117
 3033SOL    HW2 9999   4.965   4.272   6.167
 3034SOL     OW10000   2.860   6.689   5.109
 3034SOL    HW110001   2.907   6.614   5.157
 3034SOL    HW210002   2.775   6.710   5.156
 3035SOL     OW10003   5.922   6.315   6.954
 3035SOL    HW110004   5.935   6.255   0.004
 3035SOL    HW210005   5.826   6.341   6.947
 3036SOL     OW10006   0.203   4.917   5.443
 3036SOL    HW110007   0.141   4.901   5.519
 3036SOL    HW210008   0.157   4.894   5.357
 3037SOL     OW10009   5.377   6.165   6.609
 3037SOL    HW110010   5.299   6.142   6.667
 3037SOL    HW210011   5.351   6.237   6.545
 3038SOL     OW10012   5.861   5.759   5.404
 3038SOL    HW110013   5.885   5.677   5.457
 3038SOL    HW210014   5.777   5.799   5.442
 3039SOL     OW10015   0.598   4.643   0.682
 3039SOL    HW110016   0.526   4.574   0.679
 3039SOL    HW210017   0.612   4.672   0.777
 3040SOL     OW10018   2.588   0.859   0.367
 3040SOL    HW110019   2.508   0.849   0.425
 3040SOL    HW210020   2.661   0.905   0.418
 3041SOL     OW10021   1.955   1.734   5.979
 3041SOL    HW110022   2.009   1.721   5.895
 3041SOL    HW210023   2.015   1.763   6.053
 3042SOL     OW10024   5.128   0.243   1.092
 3042SOL    HW110025   5.176   0.282   1.171
 3042SOL    HW210026   5.054   0.184   1.125
 3043SOL     OW10027   0.364   4.763   6.834
 3043SOL    HW110028   0.298   4.733   6.903
 3043SOL    HW210029   0.416   4.840   6.870
 3044SOL     OW10030   2.437   3.028   6.932
 3044SOL    HW110031   2.452   3.094   6.858
 3044SOL    HW210032   2.368   3.063   6.995
 3045SOL     OW10033   4.452   2.326   4.510
 3045SOL    HW110034   4.400   2.359   4.589
 3045SOL    HW210035   4.391   2.317   4.431
 3046SOL     OW10036   2.504   2.301   5.726
 3046SOL    HW110037   2.589   2.286   5.777
 3046SOL    HW210038   2.525   2.330   5.633
 3047SOL     OW10039   6.668   5.201   2.079
 3047SOL    HW110040   6.669   5.101   2.074
 3047SOL    HW210041   6.745   5.232   2.135
 3048SOL     OW10042   3.365   3.012   2.444
 3048SOL    HW110043   3.301   3.075   2.488
 3048SOL    HW210044   3.442   3.064   2.407
 3049SOL     OW10045   0.683   0.925   0.800
 3049SOL    HW110046   0.706   0.841   0.849
 3049SOL    HW210047   0.642   0.901   0.711
 3050SOL     OW10048   1.392   0.274   4.769
 3050SOL    HW110049   1.298   0.282   4.802
 3050SOL    HW210050   1.420   0.361   4.728
 3051SOL     OW10051   2.731   5.183   5.413
 3051SOL    HW110052   2.678   5.106   5.378
 3051SOL    HW210053   2.796   5.150   5.482
 3052SOL     OW10054   4.761   6.309   2.538
 3052SOL    HW110055   4.723   6.314   2.446
 3052SOL    HW210056   4.760   6.400   2.580
 3053SOL     OW10057   3.593   6.265   1.858
 3053SOL    HW110058   3.497   6.241   1.841
 3053SOL    HW210059   3.615   6.350   1.810
 3054SOL     OW10060   1.474   4.465   5.159
 3054SOL    HW110061   1.550   4.463   5.094
 3054SOL    HW210062   1.494   4.404   5.236
 3055SOL     OW10063   6.174   6.901   2.731
 3055SOL    HW110064   6.074   6.906   2.727
 3055SOL    HW210065   6.201   6.870   2.822
 3056SOL     OW10066   5.015   0.761   2.436
 3056SOL    HW110067   5.042   0.684   2.495
 3056SOL    HW210068   5.032   0.847   2.484
 3057SOL     OW10069   6.945   4.483   2.526
 3057SOL    HW110070   6.968   4.538   2.607
 3057SOL    HW210071   7.009   4.504   2.452
 3058SOL     OW10072   5.715   6.928   1.355
 3058SOL    HW110073   5.805   6.904   1.317
 3058SOL    HW210074   5.674   7.000   1.300
 3059SOL     OW10075   2.828   2.554   7.007
 3059SOL    HW110076   2.882   2.637   6.994
 3059SOL    HW210077   2.747   2.557   6.949
 3060SOL     OW10078   0.300   6.093   6.956
 3060SOL    HW110079   0.315   6.173   6.899
 3060SOL    HW210080   0.231   6.034   6.914
 3061SOL     OW10081   6.629   0.715   5.788
 3061SOL    HW110082   6.570   0.756   5.718
 3061SOL    HW210083   6.592   0.733   5.879
 3062SOL     OW10084   3.480   5.768   6.111
 3062SOL    HW110085   3.395   5.816   6.086
 3062SOL    HW210086   3.490   5.769   6.211
 3063SOL     OW10087   2.873   6.176   1.234
 3063SOL    HW110088   2.969   6.191   1.257
 3063SOL    HW210089   2.832   6.263   1.205
 3064SOL     OW10090   6.678   4.648   3.030
 3064SOL    HW110091   6.692   4.613   2.937
 3064SOL    HW210092   6.597   4.605   3.069
 3065SOL     OW10093   3.405   1.381   1.746
 3065SOL    HW110094   3.407   1.378   1.646
 3065SOL    HW210095   3.477   1.442   1.779
 3066SOL     OW10096   6.153   5.308   0.818
 3066SOL    HW110097   6.060   5.302   0.782
 3066SOL    HW210098   6.180   5.220   0.857
 3067SOL     OW10099   3.788   6.932   3.113
 3067SOL    HW110100   3.701   6.888   3.135
 3067SOL    HW210101   3.851   6.865   3.075
 3068SOL     OW10102   6.046   4.626   6.508
 3068SOL    HW110103   6.132   4.575   6.509
 3068SOL    HW210104   6.035   4.676   6.594
 3069SOL     OW10105   1.059   5.311   3.517
 3069SOL    HW110106   1.061   5.223   3.470
 3069SOL    HW210107   1.112   5.378   3.465
 3070SOL     OW10108   4.663   2.261   3.839
 3070SOL    HW110109   4.760   2.252   3.814
 3070SOL    HW210110   4.655   2.281   3.936
 3071SOL     OW10111   5.398   0.629   3.534
 3071SOL    HW110112   5.461   0.668   3.467
 3071SOL    HW210113   5.430   0.651   3.626
 3072SOL     OW10114   0.066   0.696   1.291
 3072SOL    HW110115   7.020   0.638   1.320
 3072SOL    HW210116   0.140   0.639   1.255
 3073SOL     OW10117   1.764   1.379   4.587
 3073SOL    HW110118   1.807   1.451   4.533
 3073SOL    HW210119   1.759   1.295   4.534
 3074SOL     OW10120   4.583   3.803   5.826
 3074SOL    HW110121   4.525   3.876   5.790
 3074SOL    HW210122   4.573   3.721   5.770
 3075SOL     OW10123   6.788   5.300   1.454
 3075SOL    HW110124   6.879   5.298   1.496
 3075SOL    HW210125   6.745   5.210   1.466
 3076SOL     OW10126   0.202   0.832   5.877
 3076SOL    HW110127   0.151   0.785   5.805
 3076SOL    HW210128   0.284   0.873   5.837
 3077SOL     OW10129   4.385   4.651   3.474
 3077SOL    HW110130   4.434   4.565   3.491
 3077SOL    HW210131   4.326   4.640   3.394
 3078SOL     OW10132   2.459   2.993   1.063
 3078SOL    HW110133   2.508   3.072   1.102
 3078SOL    HW210134   2.419   2.940   1.137
 3079SOL     OW10135   5.235   3.218   5.963
 3079SOL    HW110136   5.187   3.281   5.903
 3079SOL    HW210137   5.220   3.124   5.931
 3080SOL     OW10138   5.834   6.993   2.311
 3080SOL    HW110139   5.913   6.947   2.352
 3080SOL    HW210140   5.760   6.998   2.378
 3081SOL     OW10141   0.695   4.703   5.865
 3081SOL    HW110142   0.697   4.794   5.908
 3081SOL    HW210143   0.660   4.712   5.771
 3082SOL     OW10144   3.382   6.438   2.746
 3082SOL    HW110145   3.400   6.380   2.666
 3082SOL    HW210146   3.349   6.527   2.715
 3083SOL     OW10147   3.336   6.688   2.612
 3083SOL    HW110148   3.418   6.663   2.562
 3083SOL    HW210149   3.359   6.753   2.684
 3084SOL     OW10150   5.001   0.296   4.108
 3084SOL    HW110151   4.971   0.329   4.198
 3084SOL    HW210152   5.068   0.359   4.070
 3085SOL     OW10153   0.933   5.032   2.256
 3085SOL    HW110154   0.936   5.045   2.157
 3085SOL    HW210155   1.001   5.090   2.300
 3086SOL     OW10156   6.230   1.301   4.764
 3086SOL    HW110157   6.320   1.291   4.805
 3086SOL    HW210158   6.240   1.327   4.668
 3087SOL     OW10159   5.906   3.314   1.117
 3087SOL    HW110160   5.912   3.346   1.022
 3087SOL    HW210161   5.940   3.220   1.122
 3088SOL     OW10162   2.936   3.760   6.594
 3088SOL    HW110163   3.007   3.826   6.619
 3088SOL    HW210164   2.969   3.668   6.612
 3089SOL     OW10165   3.103   2.000   2.191
 3089SOL    HW110166   3.020   1.976   2.241
 3089SOL    HW210167   3.081   2.066   2.119
 3090SOL     OW10168   6.356   1.431   0.907
 3090SOL    HW110169   6.411   1.396   0.983
 3090SOL    HW210170   6.394   1.517   0.874
 3091SOL     OW10171   1.852   6.494   6.823
 3091SOL    HW110172   1.885   6.586   6.804
 3091SOL    HW210173   1.876   6.468   6.916
 3092SOL     OW10174   4.805   5.317   0.063
 3092SOL    HW110175   4.790   5.411   0.033
 3092SOL    HW210176   4.901   5.305   0.088
 3093SOL     OW10177   4.332   6.784   2.881
 3093SOL    HW110178   4.342   6.685   2.884
 3093SOL    HW210179   4.398   6.826   2.944
 3094SOL     OW10180   4.083   5.274   4.633
 3094SOL    HW110181   4.142   5.273   4.552
 3094SOL    HW210182   4.054   5.368   4.652
 3095SOL     OW10183   2.177   5.207   4.711
 3095SOL    HW110184   2.202   5.272   4.783
 3095SOL    HW210185   2.217   5.236   4.624
 3096SOL     OW10186   0.183   2.182   5.712
 3096SOL    HW110187   0.276   2.219   5.702
 3096SOL    HW210188   0.119   2.257   5.726
 3097SOL     OW10189   1.874   0.574   6.780
 3097SOL    HW110190   1.956   0.599   6.728
 3097SOL    HW210191   1.896   0.567   6.877
 3098SOL     OW10192   3.707   3.043   0.611
 3098SOL    HW110193   3.693   3.026   0.513
 3098SOL    HW210194   3.627   3.011   0.662
 3099SOL     OW10195   1.533   5.854   5.350
 3099SOL    HW110196   1.525   5.873   5.448
 3099SOL    HW210197   1.457   5.897   5.301
 3100SOL     OW10198   6.189   6.603   5.899
 3100SOL    HW110199   6.271   6.660   5.898
 3100SOL    HW210200   6.216   6.507   5.895
 3101SOL     OW10201   2.933   0.659   0.952
 3101SOL    HW110202   2.936   0.574   1.006
 3101SOL    HW210203   3.009   0.660   0.888
 3102SOL     OW10204   0.841   5.928   0.966
 3102SOL    HW110205   0.922   5.985   0.977
 3102SOL    HW210206   0.867   5.843   0.919
 3103SOL     OW10207   4.316   4.149   1.673
 3103SOL    HW110208   4.397   4.129   1.728
 3103SOL    HW210209   4.260   4.067   1.663
 3104SOL     OW10210   5.721   6.044   3.306
 3104SOL    HW110211   5.754   6.036   3.212
 3104SOL    HW210212   5.660   5.968   3.327
 3105SOL     OW10213   5.742   6.025   3.696
 3105SOL    HW110214   5.719   6.122   3.699
 3105SOL    HW210215   5.842   6.015   3.703
 3106SOL     OW10216   0.165   3.475   4.267
 3106SOL    HW110217   0.184   3.466   4.365
 3106SOL    HW210218   0.208   3.400   4.218
 3107SOL     OW10219   2.466   6.794   4.534
 3107SOL    HW110220   2.421   6.817   4.448
 3107SOL    HW210221   2.467   6.874   4.594
 3108SOL     OW10222   2.169   6.840   2.851
 3108SOL    HW110223   2.262   6.876   2.849
 3108SOL    HW210224   2.130   6.855   2.941
 3109SOL     OW10225   4.674   5.207   3.831
 3109SOL    HW110226   4.613   5.285   3.820
 3109SOL    HW210227   4.628   5.136   3.884
 3110SOL     OW10228   0.904   2.735   1.610
 3110SOL    HW110229   0.894   2.834   1.600
 3110SOL    HW210230   0.831   2.699   1.668
 3111SOL     OW10231   0.346   4.624   2.277
 3111SOL    HW110232   0.303   4.665   2.358
 3111SOL    HW210233   0.325   4.680   2.197
 3112SOL     OW10234   3.166   3.013   5.859
 3112SOL    HW110235   3.173   3.099   5.909
 3112SOL    HW210236   3.100   2.954   5.905
 3113SOL     OW10237   4.131   0.320   3.789
 3113SOL    HW110238   4.155   0.282   3.878
 3113SOL    HW210239   4.182   0.405   3.774
 3114SOL     OW10240   5.366   5.603   0.999
 3114SOL    HW110241   5.278   5.557   0.991
 3114SOL    HW210242   5.436   5.538   1.028
 3115SOL     OW10243   3.387   3.194   3.044
 3115SOL    HW110244   3.302   3.242   3.023
 3115SOL    HW210245   3.377   3.097   3.021
 3116SOL     OW10246   0.306   1.401   6.536
 3116SOL    HW110247   0.387   1.391   6.595
 3116SOL    HW210248   0.322   1.353   6.450
 3117SOL     OW10249   2.969   4.364   6.541
 3117SOL    HW110250   3.054   4.363   6.488
 3117SOL    HW210251   2.987   4.394   6.634
 3118SOL     OW10252   6.174   5.365   6.964
 3118SOL    HW110253   6.270   5.342   6.949
 3118SOL    HW210254   6.134   5.400   6.879
 3119SOL     OW10255   2.293   4.007   6.656
 3119SOL    HW110256   2.325   3.934   6.716
 3119SOL    HW210257   2.311   4.096   6.698
 3120SOL     OW10258   2.377   5.294   6.873
 3120SOL    HW110259   2.475   5.300   6.894
 3120SOL    HW210260   2.364   5.240   6.790
 3121SOL     OW10261   6.828   6.359   3.583
 3121SOL    HW110262   6.849   6.295   3.509
 3121SOL    HW210263   6.910   6.374   3.639
 3122SOL     OW10264   3.172   5.923   1.292
 3122SOL    HW110265   3.159   6.013   1.251
 3122SOL    HW210266   3.091   5.867   1.273
 3123SOL     OW10267   2.834   6.965   3.873
 3123SOL    HW110268   2.799   7.007   3.958
 3123SOL    HW210269   2.765   6.903   3.836
 3124SOL     OW10270   4.258   6.964   5.095
 3124SOL    HW110271   4.325   6.968   5.021
 3124SOL    HW210272   4.253   0.023   5.140
 3125SOL     OW10273   0.002   2.378   5.777
 3125SOL    HW110274   0.041   2.395   5.867
 3125SOL    HW210275   6.933   2.369   5.785
 3126SOL     OW10276   3.830   5.830   6.417
 3126SOL    HW110277   3.751   5.826   6.478
 3126SOL    HW210278   3.839   5.922   6.379
 3127SOL     OW10279   1.019   1.405   4.515
 3127SOL    HW110280   0.948   1.344   4.481
 3127SOL    HW210281   1.098   1.404   4.453
 3128SOL     OW10282   2.102   1.091   0.925
 3128SOL    HW110283   2.136   1.174   0.969
 3128SOL    HW210284   2.003   1.084   0.938
 3129SOL     OW10285   1.508   3.562   2.585
 3129SOL    HW110286   1.572   3.545   2.660
 3129SOL    HW210287   1.457   3.646   2.603
 3130SOL     OW10288   2.858   5.603   2.628
 3130SOL    HW110289   2.823   5.595   2.722
 3130SOL    HW210290   2.903   5.517   2.602
 3131SOL     OW10291   0.816   3.342   3.806
 3131SOL    HW110292   0.772   3.300   3.726
 3131SOL    HW210293   0.915   3.339   3.796
 3132SOL     OW10294   4.753   3.529   5.599
 3132SOL    HW110295   4.680   3.499   5.661
 3132SOL    HW210296   4.800   3.608   5.638
 3133SOL     OW10297   2.132   1.374   3.462
 3133SOL    HW110298   2.085   1.364   3.550
 3133SOL    HW210299   2.102   1.459   3.418
 3134SOL     OW10300   5.576   2.337   1.837
 3134SOL    HW110301   5.615   2.310   1.925
 3134SOL    HW210302   5.549   2.256   1.785
 3135SOL     OW10303   1.214   2.518   3.061
 3135SOL    HW110304   1.250   2.492   2.971
 3135SOL    HW210305   1.202   2.617   3.064
 3136SOL     OW10306   6.813   1.089   4.592
 3136SOL    HW110307   6.848   1.122   4.505
 3136SOL    HW210308   6.727   1.040   4.577
 3137SOL     OW10309   0.519   1.729   4.881
 3137SOL    HW110310   0.510   1.779   4.795
 3137SOL    HW210311   0.611   1.690   4.888
 3138SOL     OW10312   6.642   2.433   4.730
 3138SOL    HW110313   6.576   2.457   4.801
 3138SOL    HW210314   6.678   2.516   4.688
 3139SOL     OW10315   5.535   5.422   5.459
 3139SOL    HW110316   5.604   5.383   5.397
 3139SOL    HW210317   5.496   5.504   5.418
 3140SOL     OW10318   6.415   6.109   5.859
 3140SOL    HW110319   6.451   6.134   5.949
 3140SOL    HW210320   6.334   6.051   5.871
 3141SOL     OW10321   1.218   0.407   2.054
 3141SOL    HW110322   1.263   0.378   2.138
 3141SOL    HW210323   1.258   0.358   1.976
 3142SOL     OW10324   3.888   6.634   0.922
 3142SOL    HW110325   3.957   6.663   0.989
 3142SOL    HW210326   3.850   6.546   0.950
 3143SOL     OW10327   0.219   2.197   0.578
 3143SOL    HW110328   0.314   2.197   0.547
 3143SOL    HW210329   0.183   2.104   0.575
 3144SOL     OW10330   2.781   3.178   0.222
 3144SOL    HW110331   2.721   3.207   0.296
 3144SOL    HW210332   2.774   3.079   0.211
 3145SOL     OW10333   1.895   4.936   2.220
 3145SOL    HW110334   1.981   4.961   2.265
 3145SOL    HW210335   1.914   4.888   2.135
 3146SOL     OW10336   1.974   6.625   4.360
 3146SOL    HW110337   1.879   6.596   4.347
 3146SOL    HW210338   2.029   6.547   4.391
 3147SOL     OW10339   4.296   4.353   0.772
 3147SOL    HW110340   4.210   4.392   0.808
 3147SOL    HW210341   4.373   4.398   0.817
 3148SOL     OW10342   2.878   5.891   4.352
 3148SOL    HW110343   2.954   5.935   4.401
 3148SOL    HW210344   2.892   5.792   4.350
 3149SOL     OW10345   1.837   6.159   5.440
 3149SOL    HW110346   1.832   6.062   5.464
 3149SOL    HW210347   1.752   6.186   5.394
 3150SOL     OW10348   6.485   0.689   4.693
 3150SOL    HW110349   6.407   0.645   4.738
 3150SOL    HW210350   6.476   0.788   4.699
 3151SOL     OW10351   3.648   6.504   1.734
 3151SOL    HW110352   3.702   6.567   1.791
 3151SOL    HW210353   3.696   6.489   1.648
 3152SOL     OW10354   1.504   4.605   6.200
 3152SOL    HW110355   1.485   4.545   6.278
 3152SOL    HW210356   1.589   4.577   6.155
 3153SOL     OW10357   0.521   4.154   3.046
 3153SOL    HW110358   0.443   4.138   2.986
 3153SOL    HW210359   0.496   4.132   3.140
 3154SOL     OW10360   5.898   2.435   6.677
 3154SOL    HW110361   5.998   2.437   6.670
 3154SOL    HW210362   5.858   2.430   6.585
 3155SOL     OW10363   4.049   5.556   0.716
 3155SOL    HW110364   4.034   5.588   0.623
 3155SOL    HW210365   3.961   5.537   0.759
 3156SOL     OW10366   2.994   3.283   3.479
 3156SOL    HW110367   3.054   3.204   3.462
 3156SOL    HW210368   2.994   3.304   3.576
 3157SOL     OW10369   2.085   2.152   4.988
 3157SOL    HW110370   2.013   2.116   5.048
 3157SOL    HW210371   2.157   2.083   4.976
 3158SOL     OW10372   4.629   6.712   1.385
 3158SOL    HW110373   4.708   6.655   1.407
 3158SOL    HW210374   4.586   6.744   1.469
 3159SOL     OW10375   5.209   4.339   0.630
 3159SOL    HW110376   5.128   4.364   0.578
 3159SOL    HW210377   5.190   4.256   0.684
 3160SOL     OW10378   6.060   4.331   0.774
 3160SOL    HW110379   6.065   4.355   0.677
 3160SOL    HW210380   5.992   4.259   0.787
 3161SOL     OW10381   0.151   1.874   4.143
 3161SOL    HW110382   0.205   1.957   4.159
 3161SOL    HW210383   0.155   1.816   4.224
 3162SOL     OW10384   0.127   0.404   6.212
 3162SOL    HW110385   0.169   0.343   6.280
 3162SOL    HW210386   0.035   0.429   6.241
 3163SOL     OW10387   1.726   4.219   5.496
 3163SOL    HW110388   1.659   4.285   5.529
 3163SOL    HW210389   1.752   4.242   5.402
 3164SOL     OW10390   6.100   5.195   6.075
 3164SOL    HW110391   6.180   5.166   6.023
 3164SOL    HW210392   6.122   5.276   6.130
 3165SOL     OW10393   0.078   2.824   1.570
 3165SOL    HW110394   0.076   2.762   1.649
 3165SOL    HW210395   0.153   2.797   1.509
 3166SOL     OW10396   3.871   3.371   6.290
 3166SOL    HW110397   3.776   3.364   6.320
 3166SOL    HW210398   3.932   3.340   6.363
 3167SOL     OW10399   7.016   4.862   1.956
 3167SOL    HW110400   6.936   4.905   1.998
 3167SOL    HW210401   0.034   4.807   2.024
 3168SOL     OW10402   6.487   3.476   0.445
 3168SOL    HW110403   6.410   3.533   0.414
 3168SOL    HW210404   6.560   3.535   0.478
 3169SOL     OW10405   3.418   1.940   5.417
 3169SOL    HW110406   3.414   1.852   5.465
 3169SOL    HW210407   3.430   2.013   5.484
 3170SOL     OW10408   3.184   0.666   4.557
 3170SOL    HW110409   3.225   0.730   4.492
 3170SOL    HW210410   3.200   0.572   4.525
 3171SOL     OW10411   6.229   5.686   2.504
 3171SOL    HW110412   6.192   5.706   2.414
 3171SOL    HW210413   6.155   5.684   2.571
 3172SOL     OW10414   5.166   6.812   4.751
 3172SOL    HW110415   5.163   6.760   4.665
 3172SOL    HW210416   5.093   6.780   4.812
 3173SOL     OW10417   1.737   0.815   1.290
 3173SOL    HW110418   1.818   0.860   1.253
 3173SOL    HW210419   1.661   0.880   1.294
 3174SOL     OW10420   2.333   2.955   0.488
 3174SOL    HW110421   2.420   2.977   0.444
 3174SOL    HW210422   2.341   2.967   0.586
 3175SOL     OW10423   0.201   5.831   0.363
 3175SOL    HW110424   0.298   5.842   0.385
 3175SOL    HW210425   0.157   5.775   0.433
 3176SOL     OW10426   0.875   5.393   6.856
 3176SOL    HW110427   0.914   5.413   6.946
 3176SOL    HW210428   0.947   5.363   6.794
 3177SOL     OW10429   1.077   0.249   3.891
 3177SOL    HW110430   1.145   0.185   3.856
 3177SOL    HW210431   1.017   0.277   3.816
 3178SOL     OW10432   3.716   3.563   0.142
 3178SOL    HW110433   3.645   3.550   0.073
 3178SOL    HW210434   3.787   3.493   0.130
 3179SOL     OW10435   1.273   2.592   4.250
 3179SOL    HW110436   1.175   2.610   4.267
 3179SOL    HW210437   1.319   2.575   4.337
 3180SOL     OW10438   6.516   1.383   6.676
 3180SOL    HW110439   6.496   1.291   6.710
 3180SOL    HW210440   6.519   1.382   6.576
 3181SOL     OW10441   6.674   1.464   2.005
 3181SOL    HW110442   6.593   1.487   2.059
 3181SOL    HW210443   6.719   1.384   2.044
 3182SOL     OW10444   1.012   6.453   5.859
 3182SOL    HW110445   1.005   6.396   5.777
 3182SOL    HW210446   1.064   6.535   5.839
 3183SOL     OW10447   4.683   3.710   1.193
 3183SOL    HW110448   4.730   3.742   1.275
 3183SOL    HW210449   4.586   3.694   1.214
 3184SOL     OW10450   6.978   2.203   2.756
 3184SOL    HW110451   7.008   2.113   2.789
 3184SOL    HW210452   6.906   2.237   2.816
 3185SOL     OW10453   0.298   6.326   0.128
 3185SOL    HW110454   0.265   6.374   0.047
 3185SOL    HW210455   0.339   6.238   0.102
 3186SOL     OW10456   3.569   0.343   1.496
 3186SOL    HW110457   3.580   0.414   1.427
 3186SOL    HW210458   3.637   0.271   1.481
 3187SOL     OW10459   3.851   4.289   1.051
 3187SOL    HW110460   3.788   4.222   1.089
 3187SOL    HW210461   3.800   4.359   1.002
 3188SOL     OW10462   3.403   0.129   4.023
 3188SOL    HW110463   3.486   0.126   3.968
 3188SOL    HW210464   3.406   0.057   4.092
 3189SOL     OW10465   5.572   6.224   1.561
 3189SOL    HW110466   5.540   6.268   1.476
 3189SOL    HW210467   5.608   6.294   1.623
 3190SOL     OW10468   1.078   0.606   2.665
 3190SOL    HW110469   1.043   0.518   2.633
 3190SOL    HW210470   1.153   0.636   2.605
 3191SOL     OW10471   3.297   1.485   0.967
 3191SOL    HW110472   3.310   1.568   1.021
 3191SOL    HW210473   3.201   1.457   0.971
 3192SOL     OW10474   5.908   3.484   4.219
 3192SOL    HW110475   5.816   3.449   4.235
 3192SOL    HW210476   5.930   3.553   4.288
 3193SOL     OW10477   5.608   4.225   1.889
 3193SOL    HW110478   5.509   4.223   1.901
 3193SOL    HW210479   5.639   4.140   1.846
 3194SOL     OW10480   3.295   5.344   4.899
 3194SOL    HW110481   3.340   5.284   4.966
 3194SOL    HW210482   3.202   5.311   4.882
 3195SOL     OW10483   7.029   4.337   4.168
 3195SOL    HW110484   0.060   4.355   4.091
 3195SOL    HW210485   6.935   4.334   4.137
 3196SOL     OW10486   0.155   5.926   6.778
 3196SOL    HW110487   0.058   5.919   6.755
 3196SOL    HW210488   0.206   5.954   6.697
 3197SOL     OW10489   0.590   4.358   5.873
 3197SOL    HW110490   0.550   4.333   5.961
 3197SOL    HW210491   0.643   4.442   5.883
 3198SOL     OW10492   5.543   0.039   1.197
 3198SOL    HW110493   5.557   7.010   1.117
 3198SOL    HW210494   5.516   0.130   1.167
 3199SOL     OW10495   2.914   2.264   3.157
 3199SOL    HW110496   2.984   2.279   3.087
 3199SOL    HW210497   2.959   2.249   3.245
 3200SOL     OW10498   6.646   1.609   7.006
 3200SOL    HW110499   6.702   1.533   6.973
 3200SOL    HW210500   6.550   1.593   6.982
 3201SOL     OW10501   4.010   5.292   3.748
 3201SOL    HW110502   4.068   5.366   3.717
 3201SOL    HW210503   4.001   5.223   3.676
 3202SOL     OW10504   1.271   4.897   2.165
 3202SOL    HW110505   1.195   4.944   2.119
 3202SOL    HW210506   1.348   4.888   2.102
 3203SOL     OW10507   5.125   6.976   0.666
 3203SOL    HW110508   5.189   6.935   0.601
 3203SOL    HW210509   5.034   6.938   0.651
 3204SOL     OW10510   6.185   6.353   2.241
 3204SOL    HW110511   6.183   6.254   2.234
 3204SOL    HW210512   6.116   6.383   2.307
 3205SOL     OW10513   1.743   4.506   4.575
 3205SOL    HW110514   1.786   4.448   4.645
 3205SOL    HW210515   1.706   4.448   4.503
 3206SOL     OW10516   2.071   6.419   0.369
 3206SOL    HW110517   2.095   6.509   0.406
 3206SOL    HW210518   1.975   6.420   0.340
 3207SOL     OW10519   1.624   1.108   3.518
 3207SOL    HW110520   1.634   1.089   3.616
 3207SOL    HW210521   1.547   1.170   3.504
 3208SOL     OW10522   6.144   5.940   6.207
 3208SOL    HW110523   6.072   5.917   6.273
 3208SOL    HW210524   6.107   5.934   6.114
 3209SOL     OW10525   0.940   6.481   3.194
 3209SOL    HW110526   0.930   6.533   3.279
 3209SOL    HW210527   1.020   6.421   3.201
 3210SOL     OW10528   0.762   5.932   2.138
 3210SOL    HW110529   0.740   6.030   2.135
 3210SOL    HW210530   0.727   5.893   2.223
 3211SOL     OW10531   7.014   4.685   4.086
 3211SOL    HW110532   0.069   4.732   4.060
 3211SOL    HW210533   7.015   4.667   4.184
 3212SOL     OW10534   4.583   2.001   4.691
 3212SOL    HW110535   4.558   2.075   4.628
 3212SOL    HW210536   4.501   1.968   4.738
 3213SOL     OW10537   5.587   0.218   2.145
 3213SOL    HW110538   5.525   0.167   2.206
 3213SOL    HW210539   5.630   0.154   2.082
 3214SOL     OW10540   4.238   3.704   0.709
 3214SOL    HW110541   4.220   3.605   0.716
 3214SOL    HW210542   4.335   3.718   0.691
 3215SOL     OW10543   6.752   1.392   6.843
 3215SOL    HW110544   6.674   1.381   6.780
 3215SOL    HW210545   6.835   1.406   6.790
 3216SOL     OW10546   4.993   6.697   5.541
 3216SOL    HW110547   4.961   6.603   5.529
 3216SOL    HW210548   4.923   6.750   5.588
 3217SOL     OW10549   0.247   4.454   6.699
 3217SOL    HW110550   0.168   4.505   6.669
 3217SOL    HW210551   0.317   4.517   6.732
 3218SOL     OW10552   4.190   2.654   1.359
 3218SOL    HW110553   4.281   2.614   1.350
 3218SOL    HW210554   4.188   2.715   1.439
 3219SOL     OW10555   0.691   2.278   3.101
 3219SOL    HW110556   0.683   2.179   3.099
 3219SOL    HW210557   0.604   2.318   3.128
 3220SOL     OW10558   6.972   2.506   6.605
 3220SOL    HW110559   6.903   2.578   6.597
 3220SOL    HW210560   7.029   2.504   6.523
 3221SOL     OW10561   3.997   0.454   1.201
 3221SOL    HW110562   3.987   0.545   1.243
 3221SOL    HW210563   4.044   0.463   1.113
 3222SOL     OW10564   5.983   3.620   2.076
 3222SOL    HW110565   6.013   3.705   2.119
 3222SOL    HW210566   5.906   3.582   2.126
 3223SOL     OW10567   1.074   4.256   5.521
 3223SOL    HW110568   1.090   4.281   5.426
 3223SOL    HW210569   1.068   4.338   5.577
 3224SOL     OW10570   2.708   6.801   1.425
 3224SOL    HW110571   2.719   6.716   1.478
 3224SOL    HW210572   2.721   6.879   1.486
 3225SOL     OW10573   1.325   1.350   0.091
 3225SOL    HW110574   1.243   1.379   0.042
 3225SOL    HW210575   1.323   1.387   0.184
 3226SOL     OW10576   6.709   1.494   3.607
 3226SOL    HW110577   6.791   1.537   3.644
 3226SOL    HW210578   6.721   1.477   3.510
 3227SOL     OW10579   2.394   1.772   4.900
 3227SOL    HW110580   2.394   1.829   4.818
 3227SOL    HW210581   2.471   1.707   4.895
 3228SOL     OW10582   5.234   3.441   4.906
 3228SOL    HW110583   5.249   3.534   4.942
 3228SOL    HW210584   5.278   3.433   4.817
 3229SOL     OW10585   4.883   1.461   4.494
 3229SOL    HW110586   4.817   1.397   4.456
 3229SOL    HW210587   4.850   1.555   4.482
 3230SOL     OW10588   1.179   6.736   4.469
 3230SOL    HW110589   1.079   6.742   4.472
 3230SOL    HW210590   1.218   6.820   4.509
 3231SOL     OW10591   4.232   4.549   6.872
 3231SOL    HW110592   4.210   4.646   6.858
 3231SOL    HW210593   4.188   4.516   6.955
 3232SOL     OW10594   1.138   4.046   3.932
 3232SOL    HW110595   1.099   4.050   4.024
 3232SOL    HW210596   1.211   3.978   3.930
 3233SOL     OW10597   2.838   4.239   0.848
 3233SOL    HW110598   2.768   4.310   0.864
 3233SOL    HW210599   2.793   4.155   0.818
 3234SOL     OW10600   6.695   2.093   4.105
 3234SOL    HW110601   6.658   2.128   4.192
 3234SOL    HW210602   6.778   2.040   4.123
 3235SOL     OW10603   6.311   0.546   1.837
 3235SOL    HW110604   6.231   0.507   1.791
 3235SOL    HW210605   6.391   0.536   1.779
 3236SOL     OW10606   0.484   1.292   1.123
 3236SOL    HW110607   0.491   1.221   1.052
 3236SOL    HW210608   0.389   1.323   1.128
 3237SOL     OW10609   2.816   5.278   5.004
 3237SOL    HW110610   2.823   5.278   5.104
 3237SOL    HW210611   2.794   5.186   4.972
 3238SOL     OW10612   0.016   6.174   6.642
 3238SOL    HW110613   6.960   6.168   6.590
 3238SOL    HW210614   7.025   6.176   6.740
 3239SOL     OW10615   2.238   6.604   6.282
 3239SOL    HW110616   2.311   6.668   6.258
 3239SOL    HW210617   2.181   6.587   6.202
 3240SOL     OW10618   1.027   2.502   4.493
 3240SOL    HW110619   1.091   2.433   4.457
 3240SOL    HW210620   0.997   2.562   4.419
 3241SOL     OW10621   4.125   5.979   5.114
 3241SOL    HW110622   4.070   6.052   5.075
 3241SOL    HW210623   4.068   5.898   5.129
 3242SOL     OW10624   3.054   1.375   0.938
 3242SOL    HW110625   2.966   1.353   0.981
 3242SOL    HW210626   3.095   1.292   0.901
 3243SOL     OW10627   3.390   6.144   2.669
 3243SOL    HW110628   3.423   6.151   2.762
 3243SOL    HW210629   3.293   6.118   2.670
 3244SOL     OW10630   1.604   0.101   5.393
 3244SOL    HW110631   1.610   0.189   5.439
 3244SOL    HW210632   1.547   0.110   5.311
 3245SOL     OW10633   3.441   2.174   5.965
 3245SOL    HW110634   3.460   2.209   6.056
 3245SOL    HW210635   3.488   2.231   5.897
 3246SOL     OW10636   6.090   6.504   1.659
 3246SOL    HW110637   6.174   6.556   1.646
 3246SOL    HW210638   6.054   6.477   1.570
 3247SOL     OW10639   5.890   2.669   4.618
 3247SOL    HW110640   5.964   2.735   4.603
 3247SOL    HW210641   5.879   2.613   4.537
 3248SOL     OW10642   5.171   4.042   3.239
 3248SOL    HW110643   5.210   3.952   3.259
 3248SOL    HW210644   5.182   4.064   3.142
 3249SOL     OW10645   3.951   5.061   5.879
 3249SOL    HW110646   4.001   5.071   5.965
 3249SOL    HW210647   3.933   4.964   5.862
 3250SOL     OW10648   4.414   4.778   0.520
 3250SOL    HW110649   4.458   4.777   0.610
 3250SOL    HW210650   4.372   4.688   0.503
 3251SOL     OW10651   2.557   1.464   2.996
 3251SOL    HW110652   2.515   1.528   2.931
 3251SOL    HW210653   2.559   1.505   3.087
 3252SOL     OW10654   3.123   2.191   2.977
 3252SOL    HW110655   3.172   2.180   2.891
 3252SOL    HW210656   3.175   2.150   3.051
 3253SOL     OW10657   5.332   4.248   1.992
 3253SOL    HW110658   5.364   4.318   2.056
 3253SOL    HW210659   5.239   4.272   1.961
 3254SOL     OW10660   6.161   3.797   3.106
 3254SOL    HW110661   6.107   3.716   3.083
 3254SOL    HW210662   6.220   3.820   3.029
 3255SOL     OW10663   2.812   4.593   0.459
 3255SOL    HW110664   2.864   4.551   0.534
 3255SOL    HW210665   2.807   4.530   0.382
 3256SOL     OW10666   6.244   6.519   5.437
 3256SOL    HW110667   6.263   6.616   5.446
 3256SOL    HW210668   6.261   6.473   5.524
 3257SOL     OW10669   2.702   0.898   1.714
 3257SOL    HW110670   2.756   0.891   1.630
 3257SOL    HW210671   2.648   0.982   1.712
 3258SOL     OW10672   4.537   6.645   2.348
 3258SOL    HW110673   4.524   6.729   2.401
 3258SOL    HW210674   4.470   6.577   2.378
 3259SOL     OW10675   5.854   5.732   3.458
 3259SOL    HW110676   5.870   5.665   3.531
 3259SOL    HW210677   5.876   5.823   3.492
 3260SOL     OW10678   1.896   1.753   1.088
 3260SOL    HW110679   1.840   1.816   1.141
 3260SOL    HW210680   1.988   1.750   1.126
 3261SOL     OW10681   4.777   6.380   4.373
 3261SOL    HW110682   4.768   6.283   4.348
 3261SOL    HW210683   4.818   6.430   4.298
 3262SOL     OW10684   4.807   2.545   3.687
 3262SOL    HW110685   4.878   2.582   3.627
 3262SOL    HW210686   4.743   2.490   3.633
 3263SOL     OW10687   3.212   5.059   2.720
 3263SOL    HW110688   3.307   5.038   2.745
 3263SOL    HW210689   3.153   5.049   2.800
 3264SOL     OW10690   4.883   3.911   6.300
 3264SOL    HW110691   4.890   4.011   6.300
 3264SOL    HW210692   4.942   3.874   6.228
 3265SOL     OW10693   5.161   6.780   5.344
 3265SOL    HW110694   5.229   6.732   5.401
 3265SOL    HW210695   5.081   6.802   5.400
 3266SOL     OW10696   1.489   2.309   5.828
 3266SOL    HW110697   1.423   2.368   5.781
 3266SOL    HW210698   1.452   2.282   5.917
 3267SOL     OW10699   5.538   4.017   0.640
 3267SOL    HW110700   5.625   3.973   0.619
 3267SOL    HW210701   5.474   3.948   0.676
 3268SOL     OW10702   2.507   5.121   0.837
 3268SOL    HW110703   2.489   5.038   0.889
 3268SOL    HW210704   2.466   5.114   0.746
 3269SOL     OW10705   4.137   3.377   1.534
 3269SOL    HW110706   4.135   3.476   1.552
 3269SOL    HW210707   4.045   3.340   1.545
 3270SOL     OW10708   6.168   6.136   2.984
 3270SOL    HW110709   6.186   6.205   3.053
 3270SOL    HW210710   6.254   6.097   2.951
 3271SOL     OW10711   4.871   0.233   0.306
 3271SOL    HW110712   4.893   0.328   0.284
 3271SOL    HW210713   4.855   0.181   0.222
 3272SOL     OW10714   4.393   6.622   6.449
 3272SOL    HW110715   4.379   6.696   6.516
 3272SOL    HW210716   4.342   6.643   6.366
 3273SOL     OW10717   6.529   0.657   2.708
 3273SOL    HW110718   6.540   0.635   2.611
 3273SOL    HW210719   6.464   0.733   2.717
 3274SOL     OW10720   3.292   0.275   1.575
 3274SOL    HW110721   3.382   0.295   1.536
 3274SOL    HW210722   3.228   0.253   1.501
 3275SOL     OW10723   4.813   0.383   6.004
 3275SOL    HW110724   4.727   0.341   6.033
 3275SOL    HW210725   4.836   0.459   6.065
 3276SOL     OW10726   2.052   5.316   1.411
 3276SOL    HW110727   2.015   5.340   1.321
 3276SOL    HW210728   2.149   5.340   1.415
 3277SOL     OW10729   0.631   6.137   6.341
 3277SOL    HW110730   0.550   6.174   6.296
 3277SOL    HW210731   0.606   6.102   6.431
 3278SOL     OW10732   1.299   6.758   6.843
 3278SOL    HW110733   1.246   6.821   6.901
 3278SOL    HW210734   1.248   6.673   6.832
 3279SOL     OW10735   1.980   6.413   2.091
 3279SOL    HW110736   1.990   6.334   2.151
 3279SOL    HW210737   1.936   6.488   2.141
 3280SOL     OW10738   3.060   5.746   3.382
 3280SOL    HW110739   3.124   5.817   3.408
 3280SOL    HW210740   2.969   5.769   3.416
 3281SOL     OW10741   1.719   0.021   1.535
 3281SOL    HW110742   1.812   0.039   1.505
 3281SOL    HW210743   1.712   6.956   1.568
 3282SOL     OW10744   1.057   4.502   2.226
 3282SOL    HW110745   1.088   4.558   2.150
 3282SOL    HW210746   1.079   4.547   2.312
 3283SOL     OW10747   1.421   0.624   3.297
 3283SOL    HW110748   1.489   0.659   3.233
 3283SOL    HW210749   1.439   0.661   3.389
 3284SOL     OW10750   2.447   6.196   6.021
 3284SOL    HW110751   2.519   6.132   6.048
 3284SOL    HW210752   2.358   6.153   6.032
 3285SOL     OW10753   0.898   3.680   4.083
 3285SOL    HW110754   0.883   3.617   4.159
 3285SOL    HW210755   0.994   3.709   4.082
 3286SOL     OW10756   5.101   4.714   0.543
 3286SOL    HW110757   5.033   4.642   0.550
 3286SOL    HW210758   5.093   4.775   0.622
 3287SOL     OW10759   0.607   1.845   1.294
 3287SOL    HW110760   0.581   1.941   1.296
 3287SOL    HW210761   0.689   1.834   1.237
 3288SOL     OW10762   1.049   6.586   0.413
 3288SOL    HW110763   1.041   6.685   0.406
 3288SOL    HW210764   1.002   6.554   0.496
 3289SOL     OW10765   1.504   0.745   4.026
 3289SOL    HW110766   1.591   0.757   4.074
 3289SOL    HW210767   1.473   0.834   3.991
 3290SOL     OW10768   0.251   4.982   4.691
 3290SOL    HW110769   0.171   4.925   4.705
 3290SOL    HW210770   0.327   4.926   4.658
 3291SOL     OW10771   1.440   1.304   1.527
 3291SOL    HW110772   1.465   1.290   1.431
 3291SOL    HW210773   1.486   1.386   1.562
 3292SOL     OW10774   1.077   6.792   4.063
 3292SOL    HW110775   1.074   6.892   4.057
 3292SOL    HW210776   1.165   6.764   4.101
 3293SOL     OW10777   5.682   1.307   3.163
 3293SOL    HW110778   5.601   1.306   3.222
 3293SOL    HW210779   5.755   1.253   3.206
 3294SOL     OW10780   0.061   6.576   1.962
 3294SOL    HW110781   0.134   6.508   1.966
 3294SOL    HW210782   7.012   6.544   2.014
 3295SOL     OW10783   3.029   2.736   6.543
 3295SOL    HW110784   3.031   2.834   6.565
 3295SOL    HW210785   2.995   2.724   6.450
 3296SOL     OW10786   1.136   6.785   1.893
 3296SOL    HW110787   1.088   6.804   1.979
 3296SOL    HW210788   1.170   6.690   1.894
 3297SOL     OW10789   3.849   0.399   5.178
 3297SOL    HW110790   3.862   0.300   5.171
 3297SOL    HW210791   3.787   0.430   5.106
 3298SOL     OW10792   6.814   5.293   3.405
 3298SOL    HW110793   6.912   5.304   3.425
 3298SOL    HW210794   6.763   5.283   3.490
 3299SOL     OW10795   2.234   1.462   4.745
 3299SOL    HW110796   2.172   1.540   4.745
 3299SOL    HW210797   2.270   1.447   4.837
 3300SOL     OW10798   0.483   6.824   4.369
 3300SOL    HW110799   0.390   6.859   4.364
 3300SOL    HW210800   0.533   6.870   4.443
 3301SOL     OW10801   6.218   4.110   2.266
 3301SOL    HW110802   6.256   4.110   2.358
 3301SOL    HW210803   6.197   4.205   2.239
 3302SOL     OW10804   1.826   5.915   5.590
 3302SOL    HW110805   1.866   5.845   5.649
 3302SOL    HW210806   1.727   5.912   5.597
 3303SOL     OW10807   3.245   3.492   5.202
 3303SOL    HW110808   3.161   3.447   5.234
 3303SOL    HW210809   3.324   3.454   5.251
 3304SOL     OW10810   2.383   1.109   3.901
 3304SOL    HW110811   2.323   1.119   3.821
 3304SOL    HW210812   2.441   1.029   3.889
 3305SOL     OW10813   1.845   2.282   0.733
 3305SOL    HW110814   1.936   2.260   0.698
 3305SOL    HW210815   1.848   2.367   0.784
 3306SOL     OW10816   1.359   1.630   0.609
 3306SOL    HW110817   1.411   1.645   0.525
 3306SOL    HW210818   1.414   1.579   0.675
 3307SOL     OW10819   0.298   6.534   0.420
 3307SOL    HW110820   0.286   6.462   0.351
 3307SOL    HW210821   0.233   6.608   0.402
 3308SOL     OW10822   5.556   5.175   0.457
 3308SOL    HW110823   5.571   5.270   0.486
 3308SOL    HW210824   5.482   5.136   0.512
 3309SOL     OW10825   0.507   4.365   1.931
 3309SOL    HW110826   0.452   4.293   1.973
 3309SOL    HW210827   0.448   4.443   1.908
 3310SOL     OW10828   2.139   0.355   2.326
 3310SOL    HW110829   2.053   0.368   2.276
 3310SOL    HW210830   2.155   0.434   2.386
 3311SOL     OW10831   4.430   5.021   0.772
 3311SOL    HW110832   4.335   5.050   0.770
 3311SOL    HW210833   4.465   5.029   0.866
 3312SOL     OW10834   2.075   2.321   5.771
 3312SOL    HW110835   2.045   2.295   5.679
 3312SOL    HW210836   2.008   2.383   5.811
 3313SOL     OW10837   5.278   6.213   5.463
 3313SOL    HW110838   5.366   6.236   5.505
 3313SOL    HW210839   5.260   6.275   5.387
 3314SOL     OW10840   0.722   4.156   6.812
 3314SOL    HW110841   0.735   4.128   6.717
 3314SOL    HW210842   0.697   4.253   6.815
 3315SOL     OW10843   6.678   3.475   3.512
 3315SOL    HW110844   6.720   3.444   3.427
 3315SOL    HW210845   6.641   3.567   3.500
 3316SOL     OW10846   3.603   0.056   6.426
 3316SOL    HW110847   3.591   0.155   6.440
 3316SOL    HW210848   3.616   0.038   6.328
 3317SOL     OW10849   6.337   2.485   1.125
 3317SOL    HW110850   6.356   2.432   1.207
 3317SOL    HW210851   6.240   2.511   1.123
 3318SOL     OW10852   2.511   4.961   6.347
 3318SOL    HW110853   2.569   4.942   6.268
 3318SOL    HW210854   2.565   5.002   6.420
 3319SOL     OW10855   1.289   6.252   6.200
 3319SOL    HW110856   1.349   6.183   6.158
 3319SOL    HW210857   1.307   6.341   6.159
 3320SOL     OW10858   1.499   0.768   0.944
 3320SOL    HW110859   1.441   0.844   0.976
 3320SOL    HW210860   1.506   0.699   1.016
 3321SOL     OW10861   3.968   3.764   4.485
 3321SOL    HW110862   4.013   3.782   4.398
 3321SOL    HW210863   3.877   3.725   4.468
 3322SOL     OW10864   5.336   3.622   2.837
 3322SOL    HW110865   5.312   3.525   2.831
 3322SOL    HW210866   5.353   3.657   2.745
 3323SOL     OW10867   2.059   3.842   0.631
 3323SOL    HW110868   1.969   3.882   0.653
 3323SOL    HW210869   2.050   3.781   0.553
 3324SOL     OW10870   6.363   2.903   1.744
 3324SOL    HW110871   6.456   2.886   1.713
 3324SOL    HW210872   6.342   3.000   1.736
 3325SOL     OW10873   1.566   4.784   5.797
 3325SOL    HW110874   1.639   4.719   5.816
 3325SOL    HW210875   1.511   4.750   5.720
 3326SOL     OW10876   4.258   6.922   2.193
 3326SOL    HW110877   4.274   6.847   2.256
 3326SOL    HW210878   4.207   6.888   2.114
 3327SOL     OW10879   4.638   6.268   2.212
 3327SOL    HW110880   4.681   6.357   2.231
 3327SOL    HW210881   4.689   6.221   2.141
 3328SOL     OW10882   6.538   6.295   3.293
 3328SOL    HW110883   6.505   6.252   3.377
 3328SOL    HW210884   6.614   6.242   3.256
 3329SOL     OW10885   5.667   0.044   5.711
 3329SOL    HW110886   5.692   6.989   5.665
 3329SOL    HW210887   5.711   0.121   5.664
 3330SOL     OW10888   5.645   0.866   3.651
 3330SOL    HW110889   5.626   0.917   3.568
 3330SOL    HW210890   5.662   0.929   3.727
 3331SOL     OW10891   0.688   3.590   2.749
 3331SOL    HW110892   0.772   3.639   2.729
 3331SOL    HW210893   0.659   3.610   2.843
 3332SOL     OW10894   4.274   5.011   1.478
 3332SOL    HW110895   4.217   4.949   1.531
 3332SOL    HW210896   4.369   5.004   1.509
 3333SOL     OW10897   2.262   3.745   1.047
 3333SOL    HW110898   2.300   3.751   1.139
 3333SOL    HW210899   2.177   3.797   1.043
 3334SOL     OW10900   2.125   2.551   1.961
 3334SOL    HW110901   2.070   2.474   1.930
 3334SOL    HW210902   2.214   2.518   1.993
 3335SOL     OW10903   4.314   3.939   6.488
 3335SOL    HW110904   4.276   3.917   6.398
 3335SOL    HW210905   4.352   3.856   6.529
 3336SOL     OW10906   3.503   6.019   6.301
 3336SOL    HW110907   3.425   6.061   6.347
 3336SOL    HW210908   3.583   6.079   6.309
 3337SOL     OW10909   3.005   3.921   4.335
 3337SOL    HW110910   3.062   3.953   4.260
 3337SOL    HW210911   3.028   3.972   4.418
 3338SOL     OW10912   3.545   2.914   1.583
 3338SOL    HW110913   3.599   2.864   1.650
 3338SOL    HW210914   3.452   2.928   1.618
 3339SOL     OW10915   0.929   6.854   5.774
 3339SOL    HW110916   0.977   6.875   5.689
 3339SOL    HW210917   0.989   6.872   5.852
 3340SOL     OW10918   4.635   2.245   6.691
 3340SOL    HW110919   4.570   2.289   6.754
 3340SOL    HW210920   4.720   2.226   6.740
 3341SOL     OW10921   1.150   3.598   1.693
 3341SOL    HW110922   1.186   3.628   1.782
 3341SOL    HW210923   1.225   3.593   1.627
 3342SOL     OW10924   5.805   0.560   3.773
 3342SOL    HW110925   5.784   0.467   3.744
 3342SOL    HW210926   5.880   0.558   3.839
 3343SOL     OW10927   3.577   5.103   0.022
 3343SOL    HW110928   3.532   5.141   0.103
 3343SOL    HW210929   3.673   5.133   0.021
 3344SOL     OW10930   2.290   3.655   0.599
 3344SOL    HW110931   2.258   3.690   0.511
 3344SOL    HW210932   2.213   3.618   0.651
 3345SOL     OW10933   4.175   5.071   0.808
 3345SOL    HW110934   4.173   5.166   0.838
 3345SOL    HW210935   4.084   5.045   0.775
 3346SOL     OW10936   0.614   0.811   0.582
 3346SOL    HW110937   0.535   0.782   0.528
 3346SOL    HW210938   0.684   0.740   0.579
 3347SOL     OW10939   0.906   2.888   5.896
 3347SOL    HW110940   0.828   2.947   5.873
 3347SOL    HW210941   0.891   2.847   5.985
 3348SOL     OW10942   2.760   4.260   5.913
 3348SOL    HW110943   2.777   4.358   5.916
 3348SOL    HW210944   2.847   4.211   5.903
 3349SOL     OW10945   2.609   5.479   1.774
 3349SOL    HW110946   2.680   5.455   1.840
 3349SOL    HW210947   2.593   5.578   1.777
 3350SOL     OW10948   3.212   4.957   4.418
 3350SOL    HW110949   3.206   5.004   4.506
 3350SOL    HW210950   3.296   4.903   4.415
 3351SOL     OW10951   4.066   6.874   2.011
 3351SOL    HW110952   4.000   6.890   2.084
 3351SOL    HW210953   4.093   6.962   1.971
 3352SOL     OW10954   5.881   0.730   0.296
 3352SOL    HW110955   5.923   0.639   0.289
 3352SOL    HW210956   5.829   0.736   0.381
 3353SOL     OW10957   4.956   6.924   6.067
 3353SOL    HW110958   4.968   6.945   5.970
 3353SOL    HW210959   4.916   6.833   6.077
 3354SOL     OW10960   3.775   1.428   0.523
 3354SOL    HW110961   3.743   1.339   0.557
 3354SOL    HW210962   3.749   1.500   0.587
 3355SOL     OW10963   1.012   2.066   5.839
 3355SOL    HW110964   0.959   1.985   5.812
 3355SOL    HW210965   1.109   2.046   5.831
 3356SOL     OW10966   2.931   0.170   5.282
 3356SOL    HW110967   2.922   0.269   5.272
 3356SOL    HW210968   2.948   0.147   5.378
 3357SOL     OW10969   3.429   3.612   4.401
 3357SOL    HW110970   3.399   3.654   4.487
 3357SOL    HW210971   3.369   3.535   4.379
 3358SOL     OW10972   0.166   1.879   1.509
 3358SOL    HW110973   0.237   1.825   1.465
 3358SOL    HW210974   0.162   1.970   1.466
 3359SOL     OW10975   0.650   0.196   3.018
 3359SOL    HW110976   0.559   0.153   3.018
 3359SOL    HW210977   0.698   0.173   2.934
 3360SOL     OW10978   1.592   5.751   4.592
 3360SOL    HW110979   1.512   5.707   4.552
 3360SOL    HW210980   1.572   5.774   4.688
 3361SOL     OW10981   0.895   0.209   4.663
 3361SOL    HW110982   0.927   0.187   4.571
 3361SOL    HW210983   0.812   0.264   4.657
 3362SOL     OW10984   3.937   0.600   5.342
 3362SOL    HW110985   3.894   0.551   5.266
 3362SOL    HW210986   3.992   0.675   5.307
 3363SOL     OW10987   5.312   3.395   0.686
 3363SOL    HW110988   5.231   3.450   0.664
 3363SOL    HW210989   5.391   3.432   0.637
 3364SOL     OW10990   2.403   3.257   1.422
 3364SOL    HW110991   2.306   3.229   1.423
 3364SOL    HW210992   2.431   3.280   1.515
 3365SOL     OW10993   0.532   3.351   2.913
 3365SOL    HW110994   0.619   3.311   2.883
 3365SOL    HW210995   0.494   3.295   2.987
 3366SOL     OW10996   5.425   2.693   3.322
 3366SOL    HW110997   5.522   2.671   3.308
 3366SOL    HW210998   5.416   2.754   3.400
 3367SOL     OW10999   3.216   4.043   3.168
 3367SOL    HW111000   3.161   4.042   3.252
 3367SOL    HW211001   3.158   4.071   3.091
 3368SOL     OW11002   1.434   1.189   3.938
 3368SOL    HW111003   1.371   1.266   3.939
 3368SOL    HW211004   1.419   1.133   4.020
 3369SOL     OW11005   6.418   3.082   0.449
 3369SOL    HW111006   6.487   3.058   0.381
 3369SOL    HW211007   6.405   3.006   0.512
 3370SOL     OW11008   0.243   5.945   3.565
 3370SOL    HW111009   0.293   5.912   3.485
 3370SOL    HW211010   0.264   5.888   3.644
 3371SOL     OW11011   2.963   2.552   1.332
 3371SOL    HW111012   3.025   2.590   1.263
 3371SOL    HW211013   2.896   2.622   1.358
 3372SOL     OW11014   5.963   2.606   3.481
 3372SOL    HW111015   6.053   2.562   3.483
 3372SOL    HW211016   5.964   2.687   3.539
 3373SOL     OW11017   0.822   4.716   1.385
 3373SOL    HW111018   0.841   4.746   1.479
 3373SOL    HW211019   0.733   4.752   1.356
 3374SOL     OW11020   0.757   5.437   4.306
 3374SOL    HW111021   0.822   5.489   4.362
 3374SOL    HW211022   0.724   5.358   4.358
 3375SOL     OW11023   6.982   6.512   5.763
 3375SOL    HW111024   0.012   6.519   5.683
 3375SOL    HW211025   6.969   6.603   5.803
 3376SOL     OW11026   3.281   3.735   4.585
 3376SOL    HW111027   3.198   3.679   4.577
 3376SOL    HW211028   3.260   3.829   4.555
 3377SOL     OW11029   5.739   5.659   4.688
 3377SOL    HW111030   5.816   5.607   4.650
 3377SOL    HW211031   5.655   5.604   4.680
 3378SOL     OW11032   0.643   5.554   6.500
 3378SOL    HW111033   0.711   5.580   6.569
 3378SOL    HW211034   0.676   5.581   6.410
 3379SOL     OW11035   6.302   4.727   3.835
 3379SOL    HW111036   6.395   4.736   3.798
 3379SOL    HW211037   6.265   4.818   3.852
 3380SOL     OW11038   1.133   4.606   1.956
 3380SOL    HW111039   1.120   4.633   1.861
 3380SOL    HW211040   1.218   4.645   1.991
 3381SOL     OW11041   3.154   4.943   0.227
 3381SOL    HW111042   3.068   4.893   0.239
 3381SOL    HW211043   3.199   4.955   0.316
 3382SOL     OW11044   0.577   3.177   0.107
 3382SOL    HW111045   0.669   3.152   0.138
 3382SOL    HW211046   0.520   3.202   0.185
 3383SOL     OW11047   3.496   5.873   6.948
 3383SOL    HW111048   3.593   5.852   6.936
 3383SOL    HW211049   3.460   5.821   7.025
 3384SOL     OW11050   3.121   2.890   6.804
 3384SOL    HW111051   3.055   2.817   6.821
 3384SOL    HW211052   3.178   2.902   6.886
 3385SOL     OW11053   6.401   1.849   4.143
 3385SOL    HW111054   6.339   1.793   4.198
 3385SOL    HW211055   6.457   1.906   4.204
 3386SOL     OW11056   6.710   4.346   5.201
 3386SOL    HW111057   6.686   4.293   5.120
 3386SOL    HW211058   6.708   4.287   5.282
 3387SOL     OW11059   5.920   1.211   2.739
 3387SOL    HW111060   5.858   1.162   2.799
 3387SOL    HW211061   5.869   1.280   2.687
 3388SOL     OW11062   1.318   3.975   1.563
 3388SOL    HW111063   1.300   3.905   1.633
 3388SOL    HW211064   1.256   3.961   1.486
 3389SOL     OW11065   6.087   5.229   6.682
 3389SOL    HW111066   6.037   5.216   6.596
 3389SOL    HW211067   6.155   5.156   6.692
 3390SOL     OW11068   3.433   4.487   0.906
 3390SOL    HW111069   3.394   4.453   0.992
 3390SOL    HW211070   3.387   4.443   0.829
 3391SOL     OW11071   5.980   4.202   5.626
 3391SOL    HW111072   5.933   4.219   5.539
 3391SOL    HW211073   5.977   4.285   5.682
 3392SOL     OW11074   4.780   5.823   5.892
 3392SOL    HW111075   4.708   5.865   5.948
 3392SOL    HW211076   4.831   5.757   5.947
 3393SOL     OW11077   3.352   1.163   0.702
 3393SOL    HW111078   3.408   1.085   0.673
 3393SOL    HW211079   3.378   1.244   0.649
 3394SOL     OW11080   3.339   5.339   2.083
 3394SOL    HW111081   3.390   5.363   2.166
 3394SOL    HW211082   3.242   5.328   2.105
 3395SOL     OW11083   1.562   6.179   3.053
 3395SOL    HW111084   1.512   6.218   2.976
 3395SOL    HW211085   1.522   6.091   3.078
 3396SOL     OW11086   4.001   0.079   4.207
 3396SOL    HW111087   3.975   7.020   4.243
 3396SOL    HW211088   3.922   0.120   4.161
 3397SOL     OW11089   3.072   6.105   2.150
 3397SOL    HW111090   3.132   6.166   2.202
 3397SOL    HW211091   3.005   6.064   2.212
 3398SOL     OW11092   6.175   0.294   1.005
 3398SOL    HW111093   6.261   0.333   1.038
 3398SOL    HW211094   6.194   0.224   0.937
 3399SOL     OW11095   5.886   6.626   2.722
 3399SOL    HW111096   5.953   6.570   2.771
 3399SOL    HW211097   5.796   6.584   2.730
 3400SOL     OW11098   3.171   3.148   5.623
 3400SOL    HW111099   3.152   3.089   5.702
 3400SOL    HW211100   3.084   3.173   5.579
 3401SOL     OW11101   6.487   4.138   3.700
 3401SOL    HW111102   6.393   4.112   3.723
 3401SOL    HW211103   6.551   4.076   3.745
 3402SOL     OW11104   6.930   3.959   0.476
 3402SOL    HW111105   6.841   4.003   0.465
 3402SOL    HW211106   6.928   3.868   0.436
 3403SOL     OW11107   5.434   6.786   4.185
 3403SOL    HW111108   5.471   6.856   4.246
 3403SOL    HW211109   5.500   6.767   4.112
 3404SOL     OW11110   5.163   4.899   3.061
 3404SOL    HW111111   5.252   4.854   3.075
 3404SOL    HW211112   5.143   4.957   3.140
 3405SOL     OW11113   4.552   0.279   0.275
 3405SOL    HW111114   4.574   0.371   0.308
 3405SOL    HW211115   4.598   0.263   0.188
 3406SOL     OW11116   5.014   4.476   0.855
 3406SOL    HW111117   4.925   4.456   0.813
 3406SOL    HW211118   5.086   4.467   0.786
 3407SOL     OW11119   2.430   1.830   0.701
 3407SOL    HW111120   2.422   1.749   0.758
 3407SOL    HW211121   2.403   1.911   0.753
 3408SOL     OW11122   3.241   6.857   4.597
 3408SOL    HW111123   3.199   6.948   4.587
 3408SOL    HW211124   3.178   6.788   4.562
 3409SOL     OW11125   4.945   2.230   0.089
 3409SOL    HW111126   4.961   2.277   0.176
 3409SOL    HW211127   4.882   2.154   0.103
 3410SOL     OW11128   6.364   2.053   2.264
 3410SOL    HW111129   6.295   2.020   2.328
 3410SOL    HW211130   6.346   2.014   2.173
 3411SOL     OW11131   5.235   3.141   6.520
 3411SOL    HW111132   5.187   3.213   6.570
 3411SOL    HW211133   5.226   3.157   6.422
 3412SOL     OW11134   4.942   3.529   2.773
 3412SOL    HW111135   4.911   3.462   2.706
 3412SOL    HW211136   4.996   3.600   2.727
 3413SOL     OW11137   1.298   2.189   0.397
 3413SOL    HW111138   1.276   2.284   0.419
 3413SOL    HW211139   1.363   2.186   0.321
 3414SOL     OW11140   3.144   3.514   1.867
 3414SOL    HW111141   3.045   3.525   1.876
 3414SOL    HW211142   3.164   3.466   1.781
 3415SOL     OW11143   2.895   0.911   7.007
 3415SOL    HW111144   2.817   0.974   7.013
 3415SOL    HW211145   2.926   0.888   0.070
 3416SOL     OW11146   5.169   5.680   6.550
 3416SOL    HW111147   5.092   5.737   6.521
 3416SOL    HW211148   5.135   5.592   6.583
 3417SOL     OW11149   5.697   0.501   2.583
 3417SOL    HW111150   5.642   0.430   2.628
 3417SOL    HW211151   5.782   0.514   2.634
 3418SOL     OW11152   4.751   6.110   1.261
 3418SOL    HW111153   4.656   6.086   1.277
 3418SOL    HW211154   4.778   6.081   1.169
 3419SOL     OW11155   2.646   4.614   5.277
 3419SOL    HW111156   2.700   4.602   5.193
 3419SOL    HW211157   2.707   4.634   5.353
 3420SOL     OW11158   4.895   0.163   2.321
 3420SOL    HW111159   4.946   0.203   2.245
 3420SOL    HW211160   4.957   0.109   2.378
 3421SOL     OW11161   0.795   1.333   4.779
 3421SOL    HW111162   0.881   1.282   4.784
 3421SOL    HW211163   0.763   1.353   4.871
 3422SOL     OW11164   2.888   5.060   1.790
 3422SOL    HW111165   2.823   5.028   1.721
 3422SOL    HW211166   2.955   4.988   1.809
 3423SOL     OW11167   1.651   5.976   5.970
 3423SOL    HW111168   1.683   5.882   5.983
 3423SOL    HW211169   1.552   5.980   5.989
 3424SOL     OW11170   6.199   5.359   2.786
 3424SOL    HW111171   6.183   5.340   2.883
 3424SOL    HW211172   6.124   5.321   2.731
 3425SOL     OW11173   5.979   3.197   6.501
 3425SOL    HW111174   5.992   3.111   6.451
 3425SOL    HW211175   5.897   3.189   6.559
 3426SOL     OW11176   6.407   4.882   6.404
 3426SOL    HW111177   6.477   4.908   6.338
 3426SOL    HW211178   6.320   4.868   6.357
 3427SOL     OW11179   1.705   0.922   6.409
 3427SOL    HW111180   1.663   0.881   6.490
 3427SOL    HW211181   1.804   0.911   6.413
 3428SOL     OW11182   4.012   1.191   4.079
 3428SOL    HW111183   3.966   1.133   4.012
 3428SOL    HW211184   3.959   1.193   4.164
 3429SOL     OW11185   5.890   5.497   0.416
 3429SOL    HW111186   5.956   5.572   0.417
 3429SOL    HW211187   5.933   5.415   0.379
 3430SOL     OW11188   2.706   4.708   6.933
 3430SOL    HW111189   2.609   4.728   6.924
 3430SOL    HW211190   2.728   4.691   7.029
 3431SOL     OW11191   1.782   3.520   1.608
 3431SOL    HW111192   1.798   3.434   1.560
 3431SOL    HW211193   1.866   3.575   1.605
 3432SOL     OW11194   6.958   5.554   6.915
 3432SOL    HW111195   0.006   5.499   6.948
 3432SOL    HW211196   6.958   5.554   6.815
 3433SOL     OW11197   0.248   1.131   0.091
 3433SOL    HW111198   0.251   1.191   0.012
 3433SOL    HW211199   0.333   1.079   0.098
 3434SOL     OW11200   4.053   3.022   1.420
 3434SOL    HW111201   4.018   3.107   1.459
 3434SOL    HW211202   4.026   2.945   1.478
 3435SOL     OW11203   3.603   2.776   1.354
 3435SOL    HW111204   3.536   2.830   1.406
 3435SOL    HW211205   3.683   2.761   1.411
 3436SOL     OW11206   4.970   5.496   4.793
 3436SOL    HW111207   4.934   5.483   4.885
 3436SOL    HW211208   5.028   5.577   4.791
 3437SOL     OW11209   2.998   5.860   0.329
 3437SOL    HW111210   3.014   5.875   0.232
 3437SOL    HW211211   2.924   5.793   0.341
 3438SOL     OW11212   2.538   4.019   1.039
 3438SOL    HW111213   2.526   4.024   1.138
 3438SOL    HW211214   2.505   4.104   0.997
 3439SOL     OW11215   3.161   5.750   0.966
 3439SOL    HW111216   3.177   5.651   0.974
 3439SOL    HW211217   3.080   5.775   1.018
 3440SOL     OW11218   4.122   4.694   5.660
 3440SOL    HW111219   4.165   4.733   5.741
 3440SOL    HW211220   4.083   4.605   5.683
 3441SOL     OW11221   0.602   5.795   5.600
 3441SOL    HW111222   0.677   5.757   5.653
 3441SOL    HW211223   0.638   5.838   5.517
 3442SOL     OW11224   1.689   2.122   6.814
 3442SOL    HW111225   1.625   2.146   6.741
 3442SOL    HW211226   1.694   2.023   6.823
 3443SOL     OW11227   6.936   6.353   1.997
 3443SOL    HW111228   6.979   6.274   2.040
 3443SOL    HW211229   6.908   6.330   1.904
 3444SOL     OW11230   1.465   3.910   5.797
 3444SOL    HW111231   1.500   3.925   5.705
 3444SOL    HW211232   1.509   3.829   5.836
 3445SOL     OW11233   6.046   4.638   3.938
 3445SOL    HW111234   6.146   4.641   3.925
 3445SOL    HW211235   6.019   4.708   4.005
 3446SOL     OW11236   5.736   1.396   6.758
 3446SOL    HW111237   5.810   1.424   6.697
 3446SOL    HW211238   5.658   1.458   6.746
 3447SOL     OW11239   5.521   1.632   6.391
 3447SOL    HW111240   5.425   1.615   6.415
 3447SOL    HW211241   5.572   1.546   6.399
 3448SOL     OW11242   0.798   5.617   4.830
 3448SOL    HW111243   0.806   5.520   4.852
 3448SOL    HW211244   0.747   5.628   4.744
 3449SOL     OW11245   1.379   4.142   4.555
 3449SOL    HW111246   1.440   4.101   4.487
 3449SOL    HW211247   1.399   4.239   4.564
 3450SOL     OW11248   2.183   6.871   3.568
 3450SOL    HW111249   2.270   6.901   3.528
 3450SOL    HW211250   2.176   6.906   3.662
 3451SOL     OW11251   2.691   1.813   1.197
 3451SOL    HW111252   2.716   1.823   1.101
 3451SOL    HW211253   2.669   1.904   1.234
 3452SOL     OW11254   4.522   1.343   5.281
 3452SOL    HW111255   4.456   1.270   5.261
 3452SOL    HW211256   4.559   1.378   5.196
 3453SOL     OW11257   4.828   6.433   6.202
 3453SOL    HW111258   4.733   6.433   6.172
 3453SOL    HW211259   4.885   6.474   6.132
 3454SOL     OW11260   1.647   3.426   3.981
 3454SOL    HW111261   1.710   3.359   3.943
 3454SOL    HW211262   1.697   3.487   4.043
 3455SOL     OW11263   2.084   3.840   6.246
 3455SOL    HW111264   2.158   3.897   6.210
 3455SOL    HW211265   2.097   3.827   6.345
 3456SOL     OW11266   4.849   4.893   2.790
 3456SOL    HW111267   4.878   4.986   2.813
 3456SOL    HW211268   4.917   4.828   2.824
 3457SOL     OW11269   4.408   4.135   0.258
 3457SOL    HW111270   4.462   4.218   0.277
 3457SOL    HW211271   4.319   4.162   0.221
 3458SOL     OW11272   4.451   1.426   0.914
 3458SOL    HW111273   4.394   1.507   0.928
 3458SOL    HW211274   4.544   1.455   0.888
 3459SOL     OW11275   6.329   0.933   2.451
 3459SOL    HW111276   6.302   1.029   2.462
 3459SOL    HW211277   6.277   0.892   2.377
 3460SOL     OW11278   5.236   1.884   5.130
 3460SOL    HW111279   5.189   1.971   5.115
 3460SOL    HW211280   5.255   1.873   5.227
 3461SOL     OW11281   5.041   4.541   5.327
 3461SOL    HW111282   5.101   4.615   5.358
 3461SOL    HW211283   5.095   4.471   5.281
 3462SOL     OW11284   1.341   3.903   0.027
 3462SOL    HW111285   1.358   3.846   6.976
 3462SOL    HW211286   1.252   3.879   0.066
 3463SOL     OW11287   6.279   3.517   0.111
 3463SOL    HW111288   6.235   3.533   0.023
 3463SOL    HW211289   6.268   3.421   0.137
 3464SOL     OW11290   0.962   4.936   4.966
 3464SOL    HW111291   1.021   4.952   4.887
 3464SOL    HW211292   0.895   4.865   4.944
 3465SOL     OW11293   1.198   2.326   0.843
 3465SOL    HW111294   1.289   2.358   0.867
 3465SOL    HW211295   1.131   2.366   0.906
 3466SOL     OW11296   4.826   3.923   3.395
 3466SOL    HW111297   4.794   3.976   3.317
 3466SOL    HW211298   4.889   3.978   3.450
 3467SOL     OW11299   1.859   1.391   6.469
 3467SOL    HW111300   1.864   1.469   6.532
 3467SOL    HW211301   1.890   1.420   6.378
 3468SOL     OW11302   5.968   5.352   2.068
 3468SOL    HW111303   5.943   5.381   2.161
 3468SOL    HW211304   5.888   5.358   2.009
 3469SOL     OW11305   5.943   3.234   0.657
 3469SOL    HW111306   6.024   3.227   0.715
 3469SOL    HW211307   5.890   3.314   0.684
 3470SOL     OW11308   5.969   5.843   6.394
 3470SOL    HW111309   6.030   5.823   6.470
 3470SOL    HW211310   5.903   5.913   6.422
 3471SOL     OW11311   3.972   6.876   4.857
 3471SOL    HW111312   3.876   6.846   4.855
 3471SOL    HW211313   3.977   6.973   4.832
 3472SOL     OW11314   3.490   0.621   3.880
 3472SOL    HW111315   3.502   0.644   3.977
 3472SOL    HW211316   3.480   0.704   3.826
 3473SOL     OW11317   4.528   7.030   3.546
 3473SOL    HW111318   4.506   0.047   3.631
 3473SOL    HW211319   4.493   6.936   3.550
 3474SOL     OW11320   6.355   5.083   1.202
 3474SOL    HW111321   6.378   5.091   1.299
 3474SOL    HW211322   6.430   5.120   1.147
 3475SOL     OW11323   2.221   5.794   5.160
 3475SOL    HW111324   2.135   5.826   5.200
 3475SOL    HW211325   2.219   5.807   5.061
 3476SOL     OW11326   2.244   2.075   2.651
 3476SOL    HW111327   2.231   1.989   2.700
 3476SOL    HW211328   2.258   2.057   2.554
 3477SOL     OW11329   4.980   5.632   2.532
 3477SOL    HW111330   4.963   5.565   2.604
 3477SOL    HW211331   5.013   5.585   2.450
 3478SOL     OW11332   3.867   5.436   0.202
 3478SOL    HW111333   3.847   5.347   0.161
 3478SOL    HW211334   3.923   5.424   0.283
 3479SOL     OW11335   2.007   1.325   0.463
 3479SOL    HW111336   1.930   1.279   0.507
 3479SOL    HW211337   2.052   1.385   0.529
 3480SOL     OW11338   2.210   0.146   5.098
 3480SOL    HW111339   2.206   0.241   5.068
 3480SOL    HW211340   2.142   0.092   5.048
 3481SOL     OW11341   1.726   4.209   0.193
 3481SOL    HW111342   1.639   4.246   0.159
 3481SOL    HW211343   1.721   4.109   0.195
 3482SOL     OW11344   0.211   2.118   1.310
 3482SOL    HW111345   0.264   2.067   1.243
 3482SOL    HW211346   0.255   2.207   1.327
 3483SOL     OW11347   4.338   1.554   1.405
 3483SOL    HW111348   4.334   1.608   1.489
 3483SOL    HW211349   4.422   1.500   1.404
 3484SOL     OW11350   3.734   4.118   4.296
 3484SOL    HW111351   3.640   4.131   4.266
 3484SOL    HW211352   3.738   4.116   4.395
 3485SOL     OW11353   6.363   3.190   3.772
 3485SOL    HW111354   6.429   3.229   3.836
 3485SOL    HW211355   6.341   3.097   3.799
 3486SOL     OW11356   6.436   1.974   2.580
 3486SOL    HW111357   6.531   2.004   2.575
 3486SOL    HW211358   6.418   1.936   2.671
 3487SOL     OW11359   1.719   6.035   1.711
 3487SOL    HW111360   1.686   6.128   1.726
 3487SOL    HW211361   1.693   5.978   1.789
 3488SOL     OW11362   0.051   2.922   4.859
 3488SOL    HW111363   0.091   2.923   4.950
 3488SOL    HW211364   0.087   2.844   4.807
 3489SOL     OW11365   1.842   5.641   6.644
 3489SOL    HW111366   1.792   5.717   6.602
 3489SOL    HW211367   1.935   5.670   6.666
 3490SOL     OW11368   5.259   3.086   0.162
 3490SOL    HW111369   5.246   3.006   0.221
 3490SOL    HW211370   5.262   3.057   0.067
 3491SOL     OW11371   6.313   2.474   5.089
 3491SOL    HW111372   6.263   2.420   5.157
 3491SOL    HW211373   6.256   2.551   5.060
 3492SOL     OW11374   1.321   4.218   6.407
 3492SOL    HW111375   1.287   4.135   6.363
 3492SOL    HW211376   1.271   4.232   6.493
 3493SOL     OW11377   0.277   5.001   1.175
 3493SOL    HW111378   0.203   5.038   1.119
 3493SOL    HW211379   0.239   4.946   1.250
 3494SOL     OW11380   3.363   6.662   1.074
 3494SOL    HW111381   3.288   6.700   1.021
 3494SOL    HW211382   3.450   6.677   1.026
 3495SOL     OW11383   5.364   4.324   5.857
 3495SOL    HW111384   5.395   4.410   5.898
 3495SOL    HW211385   5.436   4.286   5.799
 3496SOL     OW11386   0.748   6.208   1.471
 3496SOL    HW111387   0.716   6.254   1.388
 3496SOL    HW211388   0.798   6.273   1.528
 3497SOL     OW11389   3.117   0.539   4.785
 3497SOL    HW111390   3.087   0.540   4.689
 3497SOL    HW211391   3.165   0.625   4.805
 3498SOL     OW11392   1.947   1.830   0.635
 3498SOL    HW111393   2.001   1.875   0.564
 3498SOL    HW211394   1.870   1.781   0.593
 3499SOL     OW11395   0.128   4.338   2.864
 3499SOL    HW111396   0.137   4.410   2.795
 3499SOL    HW211397   0.111   4.379   2.953
 3500SOL     OW11398   6.505   2.388   0.307
 3500SOL    HW111399   6.542   2.454   0.372
 3500SOL    HW211400   6.481   2.435   0.222
 3501SOL     OW11401   6.826   4.969   3.367
 3501SOL    HW111402   6.813   5.068   3.369
 3501SOL    HW211403   6.738   4.924   3.357
 3502SOL     OW11404   0.922   6.376   1.594
 3502SOL    HW111405   0.912   6.387   1.693
 3502SOL    HW211406   1.013   6.406   1.566
 3503SOL     OW11407   2.929   0.782   3.403
 3503SOL    HW111408   2.864   0.802   3.329
 3503SOL    HW211409   2.913   0.845   3.479
 3504SOL     OW11410   1.660   2.220   2.056
 3504SOL    HW111411   1.713   2.298   2.088
 3504SOL    HW211412   1.717   2.163   1.996
 3505SOL     OW11413   4.274   0.384   4.061
 3505SOL    HW111414   4.271   0.287   4.041
 3505SOL    HW211415   4.322   0.432   3.988
 3506SOL     OW11416   6.158   3.147   3.399
 3506SOL    HW111417   6.247   3.160   3.444
 3506SOL    HW211418   6.168   3.078   3.327
 3507SOL     OW11419   0.041   6.500   5.070
 3507SOL    HW111420   0.030   6.431   4.999
 3507SOL    HW211421   0.057   6.589   5.028
 3508SOL     OW11422   0.592   4.571   0.200
 3508SOL    HW111423   0.528   4.643   0.174
 3508SOL    HW211424   0.587   4.556   0.299
 3509SOL     OW11425   3.749   6.778   0.224
 3509SOL    HW111426   3.837   6.809   0.258
 3509SOL    HW211427   3.719   6.836   0.148
 3510SOL     OW11428   2.547   1.805   3.012
 3510SOL    HW111429   2.531   1.739   2.938
 3510SOL    HW211430   2.515   1.765   3.099
 3511SOL     OW11431   0.319   1.143   3.799
 3511SOL    HW111432   0.307   1.092   3.714
 3511SOL    HW211433   0.369   1.228   3.780
 3512SOL     OW11434   3.350   2.889   2.178
 3512SOL    HW111435   3.387   2.890   2.270
 3512SOL    HW211436   3.296   2.972   2.162
 3513SOL     OW11437   6.610   4.567   0.307
 3513SOL    HW111438   6.671   4.633   0.262
 3513SOL    HW211439   6.543   4.616   0.363
 3514SOL     OW11440   3.164   5.465   3.629
 3514SOL    HW111441   3.191   5.466   3.532
 3514SOL    HW211442   3.132   5.555   3.655
 3515SOL     OW11443   3.699   5.692   4.296
 3515SOL    HW111444   3.730   5.756   4.366
 3515SOL    HW211445   3.757   5.611   4.297
 3516SOL     OW11446   1.877   1.553   0.321
 3516SOL    HW111447   1.818   1.501   0.260
 3516SOL    HW211448   1.923   1.492   0.385
 3517SOL     OW11449   0.618   1.311   6.180
 3517SOL    HW111450   0.672   1.336   6.260
 3517SOL    HW211451   0.534   1.265   6.210
 3518SOL     OW11452   4.158   3.817   5.852
 3518SOL    HW111453   4.194   3.817   5.758
 3518SOL    HW211454   4.224   3.862   5.912
 3519SOL     OW11455   4.168   0.528   6.334
 3519SOL    HW111456   4.115   0.483   6.262
 3519SOL    HW211457   4.221   0.460   6.385
 3520SOL     OW11458   4.534   4.688   1.436
 3520SOL    HW111459   4.632   4.675   1.426
 3520SOL    HW211460   4.492   4.601   1.464
 3521SOL     OW11461   0.284   1.546   5.489
 3521SOL    HW111462   0.308   1.611   5.561
 3521SOL    HW211463   0.191   1.511   5.505
 3522SOL     OW11464   2.136   0.485   0.937
 3522SOL    HW111465   2.163   0.391   0.913
 3522SOL    HW211466   2.210   0.527   0.989
 3523SOL     OW11467   1.957   4.406   4.260
 3523SOL    HW111468   1.895   4.368   4.328
 3523SOL    HW211469   2.003   4.486   4.297
 3524SOL     OW11470   2.826   1.455   2.947
 3524SOL    HW111471   2.729   1.445   2.971
 3524SOL    HW211472   2.833   1.482   2.851
 3525SOL     OW11473   1.932   3.032   3.487
 3525SOL    HW111474   1.895   2.947   3.526
 3525SOL    HW211475   1.869   3.107   3.504
 3526SOL     OW11476   3.321   5.893   4.204
 3526SOL    HW111477   3.372   5.934   4.280
 3526SOL    HW211478   3.372   5.815   4.168
 3527SOL     OW11479   6.908   4.060   6.751
 3527SOL    HW111480   6.921   4.153   6.717
 3527SOL    HW211481   6.860   4.063   6.839
 3528SOL     OW11482   0.986   6.577   3.768
 3528SOL    HW111483   0.966   6.596   3.865
 3528SOL    HW211484   0.971   6.480   3.750
 3529SOL     OW11485   3.650   0.469   6.979
 3529SOL    HW111486   3.737   0.491   7.024
 3529SOL    HW211487   3.574   0.498   0.007
 3530SOL     OW11488   2.236   5.820   2.206
 3530SOL    HW111489   2.318   5.777   2.169
 3530SOL    HW211490   2.155   5.772   2.172
 3531SOL     OW11491   5.130   4.113   0.045
 3531SOL    HW111492   5.060   4.080   7.011
 3531SOL    HW211493   5.216   4.128   7.026
 3532SOL     OW11494   2.177   0.559   6.373
 3532SOL    HW111495   2.257   0.502   6.394
 3532SOL    HW211496   2.134   0.526   6.289
 3533SOL     OW11497   1.225   1.058   2.860
 3533SOL    HW111498   1.255   1.154   2.855
 3533SOL    HW211499   1.156   1.041   2.789
 3534SOL     OW11500   4.555   6.726   4.967
 3534SOL    HW111501   4.492   6.649   4.977
 3534SOL    HW211502   4.504   6.811   4.968
 3535SOL     OW11503   3.637   4.565   0.078
 3535SOL    HW111504   3.567   4.586   0.146
 3535SOL    HW211505   3.679   4.650   0.045
 3536SOL     OW11506   1.914   2.917   2.712
 3536SOL    HW111507   1.984   2.981   2.744
 3536SOL    HW211508   1.826   2.940   2.754
 3537SOL     OW11509   3.319   5.206   1.646
 3537SOL    HW111510   3.293   5.137   1.579
 3537SOL    HW211511   3.356   5.161   1.728
 3538SOL     OW11512   2.823   0.362   4.199
 3538SOL    HW111513   2.898   0.422   4.224
 3538SOL    HW211514   2.779   0.397   4.116
 3539SOL     OW11515   5.366   4.895   6.147
 3539SOL    HW111516   5.438   4.847   6.097
 3539SOL    HW211517   5.282   4.841   6.144
 3540SOL     OW11518   5.235   3.640   6.621
 3540SOL    HW111519   5.239   3.589   6.707
 3540SOL    HW211520   5.280   3.729   6.634
 3541SOL     OW11521   0.357   3.024   2.834
 3541SOL    HW111522   0.334   3.115   2.802
 3541SOL    HW211523   0.448   2.998   2.801
 3542SOL     OW11524   5.794   0.802   6.459
 3542SOL    HW111525   5.728   0.791   6.385
 3542SOL    HW211526   5.798   0.898   6.485
 3543SOL     OW11527   0.431   3.291   5.062
 3543SOL    HW111528   0.416   3.265   5.158
 3543SOL    HW211529   0.350   3.266   5.008
 3544SOL     OW11530   4.497   4.848   6.064
 3544SOL    HW111531   4.588   4.877   6.035
 3544SOL    HW211532   4.440   4.928   6.082
 3545SOL     OW11533   2.455   6.876   1.878
 3545SOL    HW111534   2.469   6.966   1.838
 3545SOL    HW211535   2.451   6.807   1.806
 3546SOL     OW11536   6.862   3.528   1.390
 3546SOL    HW111537   6.822   3.484   1.470
 3546SOL    HW211538   6.957   3.496   1.379
 3547SOL     OW11539   1.877   4.432   3.974
 3547SOL    HW111540   1.796   4.483   3.944
 3547SOL    HW211541   1.920   4.480   4.051
 3548SOL     OW11542   6.361   6.362   5.649
 3548SOL    HW111543   6.312   6.334   5.732
 3548SOL    HW211544   6.458   6.338   5.658
 3549SOL     OW11545   0.886   6.918   0.107
 3549SOL    HW111546   0.815   6.872   0.054
 3549SOL    HW211547   0.844   6.975   0.177
 3550SOL     OW11548   6.802   2.649   4.647
 3550SOL    HW111549   6.886   2.625   4.598
 3550SOL    HW211550   6.793   2.749   4.650
 3551SOL     OW11551   6.264   1.854   5.233
 3551SOL    HW111552   6.353   1.883   5.268
 3551SOL    HW211553   6.277   1.802   5.149
 3552SOL     OW11554   6.148   1.196   4.258
 3552SOL    HW111555   6.080   1.144   4.309
 3552SOL    HW211556   6.105   1.238   4.178
 3553SOL     OW11557   5.484   5.513   6.481
 3553SOL    HW111558   5.466   5.605   6.516
 3553SOL    HW211559   5.435   5.501   6.394
 3554SOL     OW11560   5.766   3.447   0.341
 3554SOL    HW111561   5.749   3.542   0.314
 3554SOL    HW211562   5.765   3.388   0.261
 3555SOL     OW11563   2.880   1.025   4.901
 3555SOL    HW111564   2.893   0.939   4.850
 3555SOL    HW211565   2.846   1.095   4.838
 3556SOL     OW11566   5.301   1.599   0.283
 3556SOL    HW111567   5.248   1.637   0.207
 3556SOL    HW211568   5.266   1.509   0.306
 3557SOL     OW11569   5.115   0.693   0.998
 3557SOL    HW111570   5.081   0.786   0.985
 3557SOL    HW211571   5.043   0.628   0.975
 3558SOL     OW11572   4.423   6.081   3.461
 3558SOL    HW111573   4.330   6.056   3.433
 3558SOL    HW211574   4.455   6.016   3.530
 3559SOL     OW11575   4.272   6.308   0.166
 3559SOL    HW111576   4.341   6.305   0.094
 3559SOL    HW211577   4.231   6.399   0.170
 3560SOL     OW11578   1.957   5.716   4.254
 3560SOL    HW111579   1.883   5.674   4.306
 3560SOL    HW211580   2.004   5.784   4.311
 3561SOL     OW11581   4.539   3.326   6.441
 3561SOL    HW111582   4.454   3.361   6.403
 3561SOL    HW211583   4.518   3.264   6.517
 3562SOL     OW11584   2.803   0.993   0.495
 3562SOL    HW111585   2.755   1.070   0.538
 3562SOL    HW211586   2.859   0.946   0.563
 3563SOL     OW11587   5.772   2.163   6.399
 3563SOL    HW111588   5.844   2.127   6.459
 3563SOL    HW211589   5.781   2.122   6.308
 3564SOL     OW11590   5.792   2.760   3.068
 3564SOL    HW111591   5.875   2.712   3.098
 3564SOL    HW211592   5.806   2.859   3.080
 3565SOL     OW11593   5.293   6.094   5.138
 3565SOL    HW111594   5.205   6.097   5.092
 3565SOL    HW211595   5.329   6.187   5.150
 3566SOL     OW11596   0.707   0.944   4.399
 3566SOL    HW111597   0.772   0.985   4.335
 3566SOL    HW211598   0.621   0.924   4.352
 3567SOL     OW11599   1.955   4.319   0.029
 3567SOL    HW111600   1.886   4.287   0.094
 3567SOL    HW211601   1.911   4.371   6.986
 3568SOL     OW11602   1.812   3.272   5.696
 3568SOL    HW111603   1.842   3.356   5.652
 3568SOL    HW211604   1.791   3.204   5.626
 3569SOL     OW11605   0.655   0.378   3.598
 3569SOL    HW111606   0.724   0.443   3.629
 3569SOL    HW211607   0.607   0.416   3.519
 3570SOL     OW11608   0.065   1.848   5.061
 3570SOL    HW111609   0.113   1.894   4.987
 3570SOL    HW211610   0.126   1.780   5.103
 3571SOL     OW11611   0.068   5.532   5.304
 3571SOL    HW111612   0.095   5.628   5.298
 3571SOL    HW211613   7.018   5.523   5.363
 3572SOL     OW11614   5.191   7.009   5.219
 3572SOL    HW111615   5.168   0.055   5.280
 3572SOL    HW211616   5.192   6.924   5.271
 3573SOL     OW11617   0.685   2.702   1.778
 3573SOL    HW111618   0.626   2.621   1.775
 3573SOL    HW211619   0.629   2.784   1.781
 3574SOL     OW11620   1.253   3.580   0.675
 3574SOL    HW111621   1.184   3.558   0.744
 3574SOL    HW211622   1.215   3.566   0.584
 3575SOL     OW11623   6.840   0.760   2.692
 3575SOL    HW111624   6.753   0.786   2.651
 3575SOL    HW211625   6.845   0.660   2.699
 3576SOL     OW11626   0.485   1.051   0.955
 3576SOL    HW111627   0.503   1.013   1.046
 3576SOL    HW211628   0.567   1.044   0.899
 3577SOL     OW11629   2.357   4.727   1.107
 3577SOL    HW111630   2.264   4.697   1.084
 3577SOL    HW211631   2.394   4.780   1.031
 3578SOL     OW11632   3.622   5.026   1.617
 3578SOL    HW111633   3.572   4.953   1.571
 3578SOL    HW211634   3.720   5.010   1.608
 3579SOL     OW11635   2.156   2.786   6.691
 3579SOL    HW111636   2.206   2.856   6.640
 3579SOL    HW211637   2.213   2.704   6.699
 3580SOL     OW11638   5.603   0.921   2.419
 3580SOL    HW111639   5.592   0.822   2.413
 3580SOL    HW211640   5.631   0.945   2.512
 3581SOL     OW11641   6.903   1.648   2.799
 3581SOL    HW111642   6.894   1.666   2.701
 3581SOL    HW211643   6.901   1.550   2.815
 3582SOL     OW11644   0.466   0.695   6.040
 3582SOL    HW111645   0.483   0.734   5.950
 3582SOL    HW211646   0.411   0.612   6.031
 3583SOL     OW11647   0.936   6.850   2.828
 3583SOL    HW111648   0.982   6.899   2.902
 3583SOL    HW211649   0.837   6.858   2.840
 3584SOL     OW11650   5.627   6.970   4.655
 3584SOL    HW111651   5.575   6.904   4.708
 3584SOL    HW211652   5.647   6.932   4.565
 3585SOL     OW11653   2.037   5.187   2.278
 3585SOL    HW111654   1.995   5.269   2.240
 3585SOL    HW211655   2.135   5.204   2.294
 3586SOL     OW11656   1.374   1.240   6.424
 3586SOL    HW111657   1.470   1.260   6.441
 3586SOL    HW211658   1.362   1.142   6.408
 3587SOL     OW11659   3.438   6.144   5.423
 3587SOL    HW111660   3.434   6.219   5.489
 3587SOL    HW211661   3.493   6.070   5.461
 3588SOL     OW11662   2.789   2.347   5.029
 3588SOL    HW111663   2.757   2.254   5.049
 3588SOL    HW211664   2.855   2.344   4.954
 3589SOL     OW11665   3.203   6.034   5.034
 3589SOL    HW111666   3.235   5.947   4.997
 3589SOL    HW211667   3.123   6.018   5.093
 3590SOL     OW11668   1.318   6.757   0.138
 3590SOL    HW111669   1.302   6.742   0.236
 3590SOL    HW211670   1.340   6.670   0.095
 3591SOL     OW11671   4.958   2.097   4.489
 3591SOL    HW111672   4.970   2.021   4.425
 3591SOL    HW211673   4.862   2.122   4.494
 3592SOL     OW11674   5.695   0.731   1.664
 3592SOL    HW111675   5.629   0.800   1.631
 3592SOL    HW211676   5.664   0.694   1.751
 3593SOL     OW11677   1.407   5.069   4.784
 3593SOL    HW111678   1.422   5.141   4.852
 3593SOL    HW211679   1.311   5.040   4.786
 3594SOL     OW11680   4.604   1.595   4.295
 3594SOL    HW111681   4.507   1.620   4.295
 3594SOL    HW211682   4.613   1.496   4.291
 3595SOL     OW11683   2.057   6.798   6.512
 3595SOL    HW111684   2.155   6.778   6.515
 3595SOL    HW211685   2.034   6.836   6.422
 3596SOL     OW11686   6.452   3.090   2.882
 3596SOL    HW111687   6.515   3.148   2.934
 3596SOL    HW211688   6.445   3.125   2.788
 3597SOL     OW11689   4.404   0.382   3.276
 3597SOL    HW111690   4.444   0.469   3.303
 3597SOL    HW211691   4.412   0.371   3.177
 3598SOL     OW11692   2.258   7.013   0.340
 3598SOL    HW111693   2.267   0.076   0.302
 3598SOL    HW211694   2.329   6.999   0.408
 3599SOL     OW11695   0.302   2.288   4.513
 3599SOL    HW111696   0.401   2.279   4.530
 3599SOL    HW211697   0.252   2.230   4.577
 3600SOL     OW11698   6.214   6.276   0.766
 3600SOL    HW111699   6.120   6.243   0.777
 3600SOL    HW211700   6.278   6.204   0.791
 3601SOL     OW11701   0.344   4.040   6.053
 3601SOL    HW111702   0.366   4.133   6.080
 3601SOL    HW211703   0.413   4.006   5.989
 3602SOL     OW11704   3.897   2.037   1.044
 3602SOL    HW111705   3.913   2.134   1.026
 3602SOL    HW211706   3.850   2.027   1.131
 3603SOL     OW11707   3.381   5.426   5.234
 3603SOL    HW111708   3.304   5.485   5.207
 3603SOL    HW211709   3.424   5.463   5.316
 3604SOL     OW11710   5.452   4.535   3.371
 3604SOL    HW111711   5.419   4.623   3.336
 3604SOL    HW211712   5.379   4.467   3.364
 3605SOL     OW11713   5.706   1.169   6.227
 3605SOL    HW111714   5.629   1.114   6.197
 3605SOL    HW211715   5.771   1.181   6.152
 3606SOL     OW11716   1.561   4.403   2.199
 3606SOL    HW111717   1.619   4.474   2.240
 3606SOL    HW211718   1.611   4.359   2.125
 3607SOL     OW11719   4.557   6.181   4.873
 3607SOL    HW111720   4.557   6.276   4.903
 3607SOL    HW211721   4.467   6.158   4.835
 3608SOL     OW11722   6.846   3.132   2.871
 3608SOL    HW111723   6.906   3.081   2.933
 3608SOL    HW211724   6.885   3.222   2.853
 3609SOL     OW11725   0.996   1.005   4.463
 3609SOL    HW111726   1.070   1.043   4.408
 3609SOL    HW211727   1.022   1.007   4.560
 3610SOL     OW11728   1.556   4.730   5.527
 3610SOL    HW111729   1.643   4.761   5.487
 3610SOL    HW211730   1.480   4.778   5.483
 3611SOL     OW11731   4.442   4.892   6.912
 3611SOL    HW111732   4.422   4.844   6.826
 3611SOL    HW211733   4.444   4.991   6.895
 3612SOL     OW11734   2.836   5.811   1.496
 3612SOL    HW111735   2.758   5.771   1.449
 3612SOL    HW211736   2.916   5.752   1.484
 3613SOL     OW11737   5.403   3.861   6.668
 3613SOL    HW111738   5.460   3.804   6.727
 3613SOL    HW211739   5.439   3.954   6.666
 3614SOL     OW11740   3.870   3.161   5.108
 3614SOL    HW111741   3.928   3.148   5.189
 3614SOL    HW211742   3.926   3.196   5.033
 3615SOL     OW11743   5.901   6.573   6.521
 3615SOL    HW111744   5.895   6.531   6.430
 3615SOL    HW211745   5.935   6.506   6.586
 3616SOL     OW11746   7.005   1.478   4.334
 3616SOL    HW111747   6.966   1.389   4.357
 3616SOL    HW211748   6.953   1.518   4.258
 3617SOL     OW11749   0.282   0.795   1.498
 3617SOL    HW111750   0.209   0.769   1.435
 3617SOL    HW211751   0.352   0.723   1.500
 3618SOL     OW11752   3.882   5.583   6.277
 3618SOL    HW111753   3.893   5.681   6.290
 3618SOL    HW211754   3.968   5.536   6.297
 3619SOL     OW11755   5.075   3.111   3.783
 3619SOL    HW111756   5.114   3.150   3.700
 3619SOL    HW211757   4.996   3.054   3.759
 3620SOL     OW11758   5.768   2.097   5.568
 3620SOL    HW111759   5.863   2.128   5.565
 3620SOL    HW211760   5.759   2.024   5.637
 3621SOL     OW11761   2.583   2.631   6.860
 3621SOL    HW111762   2.607   2.717   6.905
 3621SOL    HW211763   2.578   2.646   6.761
 3622SOL     OW11764   1.644   3.763   1.143
 3622SOL    HW111765   1.714   3.835   1.149
 3622SOL    HW211766   1.664   3.692   1.211
 3623SOL     OW11767   5.928   5.136   4.575
 3623SOL    HW111768   5.961   5.051   4.617
 3623SOL    HW211769   5.943   5.212   4.638
 3624SOL     OW11770   2.099   6.845   1.741
 3624SOL    HW111771   2.064   6.926   1.788
 3624SOL    HW211772   2.172   6.804   1.796
 3625SOL     OW11773   1.616   2.803   4.779
 3625SOL    HW111774   1.618   2.867   4.856
 3625SOL    HW211775   1.655   2.848   4.698
 3626SOL     OW11776   2.271   2.735   5.083
 3626SOL    HW111777   2.317   2.674   5.019
 3626SOL    HW211778   2.308   2.827   5.074
 3627SOL     OW11779   3.873   3.050   4.120
 3627SOL    HW111780   3.833   3.040   4.211
 3627SOL    HW211781   3.800   3.065   4.053
 3628SOL     OW11782   2.872   5.170   4.172
 3628SOL    HW111783   2.880   5.075   4.203
 3628SOL    HW211784   2.954   5.221   4.199
 3629SOL     OW11785   6.222   3.967   5.118
 3629SOL    HW111786   6.141   4.026   5.112
 3629SOL    HW211787   6.236   3.921   5.030
 3630SOL     OW11788   6.363   2.171   4.532
 3630SOL    HW111789   6.365   2.271   4.532
 3630SOL    HW211790   6.360   2.138   4.627
 3631SOL     OW11791   2.333   1.242   4.590
 3631SOL    HW111792   2.271   1.224   4.514
 3631SOL    HW211793   2.300   1.320   4.642
 3632SOL     OW11794   5.060   6.522   6.753
 3632SOL    HW111795   5.155   6.531   6.784
 3632SOL    HW211796   5.017   6.613   6.753
 3633SOL     OW11797   0.573   2.928   5.758
 3633SOL    HW111798   0.636   3.001   5.786
 3633SOL    HW211799   0.544   2.943   5.664
 3634SOL     OW11800   2.141   4.358   6.602
 3634SOL    HW111801   2.235   4.387   6.585
 3634SOL    HW211802   2.079   4.435   6.587
 3635SOL     OW11803   1.387   1.887   4.286
 3635SOL    HW111804   1.469   1.902   4.231
 3635SOL    HW211805   1.367   1.789   4.290
 3636SOL     OW11806   0.824   6.626   1.479
 3636SOL    HW111807   0.864   6.544   1.519
 3636SOL    HW211808   0.844   6.705   1.537
 3637SOL     OW11809   5.340   1.826   2.429
 3637SOL    HW111810   5.377   1.918   2.413
 3637SOL    HW211811   5.386   1.786   2.508
 3638SOL     OW11812   6.814   5.346   3.123
 3638SOL    HW111813   6.810   5.328   3.221
 3638SOL    HW211814   6.770   5.271   3.073
 3639SOL     OW11815   2.581   5.614   6.900
 3639SOL    HW111816   2.660   5.640   6.845
 3639SOL    HW211817   2.602   5.530   6.951
 3640SOL     OW11818   2.463   0.185   3.406
 3640SOL    HW111819   2.377   0.236   3.417
 3640SOL    HW211820   2.524   0.206   3.482
 3641SOL     OW11821   2.547   0.290   5.301
 3641SOL    HW111822   2.613   0.329   5.365
 3641SOL    HW211823   2.486   0.229   5.351
 3642SOL     OW11824   5.850   0.828   2.772
 3642SOL    HW111825   5.755   0.858   2.776
 3642SOL    HW211826   5.860   0.756   2.703
 3643SOL     OW11827   3.608   6.546   3.414
 3643SOL    HW111828   3.596   6.536   3.513
 3643SOL    HW211829   3.697   6.587   3.396
 3644SOL     OW11830   5.729   0.613   0.983
 3644SOL    HW111831   5.711   0.558   1.064
 3644SOL    HW211832   5.701   0.708   1.000
 3645SOL     OW11833   4.573   5.718   3.823
 3645SOL    HW111834   4.572   5.629   3.777
 3645SOL    HW211835   4.620   5.710   3.911
 3646SOL     OW11836   0.607   5.860   5.039
 3646SOL    HW111837   0.552   5.885   5.119
 3646SOL    HW211838   0.685   5.805   5.068
 3647SOL     OW11839   3.783   2.314   0.371
 3647SOL    HW111840   3.782   2.322   0.471
 3647SOL    HW211841   3.863   2.262   0.342
 3648SOL     OW11842   2.437   6.145   3.937
 3648SOL    HW111843   2.399   6.236   3.924
 3648SOL    HW211844   2.488   6.142   4.023
 3649SOL     OW11845   3.540   2.920   3.142
 3649SOL    HW111846   3.628   2.914   3.094
 3649SOL    HW211847   3.466   2.901   3.078
 3650SOL     OW11848   5.484   5.949   2.315
 3650SOL    HW111849   5.575   5.964   2.277
 3650SOL    HW211850   5.451   5.859   2.285
 3651SOL     OW11851   1.846   5.648   1.566
 3651SOL    HW111852   1.872   5.714   1.636
 3651SOL    HW211853   1.747   5.635   1.567
 3652SOL     OW11854   3.925   0.029   3.610
 3652SOL    HW111855   4.020   0.011   3.638
 3652SOL    HW211856   3.925   0.069   3.519
 3653SOL     OW11857   0.083   3.662   3.185
 3653SOL    HW111858   0.003   3.703   3.142
 3653SOL    HW211859   0.130   3.603   3.118
 3654SOL     OW11860   1.982   0.028   1.860
 3654SOL    HW111861   2.030   0.092   1.800
 3654SOL    HW211862   1.888   0.060   1.874
 3655SOL     OW11863   6.486   1.175   3.900
 3655SOL    HW111864   6.464   1.186   3.997
 3655SOL    HW211865   6.421   1.229   3.845
 3656SOL     OW11866   1.569   1.450   2.671
 3656SOL    HW111867   1.620   1.536   2.673
 3656SOL    HW211868   1.487   1.461   2.615
 3657SOL     OW11869   6.127   4.923   1.183
 3657SOL    HW111870   6.205   4.973   1.221
 3657SOL    HW211871   6.077   4.981   1.120
 3658SOL     OW11872   2.785   4.033   5.512
 3658SOL    HW111873   2.743   3.970   5.447
 3658SOL    HW211874   2.794   4.123   5.471
 3659SOL     OW11875   1.295   3.352   0.522
 3659SOL    HW111876   1.237   3.332   0.601
 3659SOL    HW211877   1.349   3.271   0.499
 3660SOL     OW11878   5.321   3.791   0.748
 3660SOL    HW111879   5.308   3.774   0.846
 3660SOL    HW211880   5.260   3.731   0.696
 3661SOL     OW11881   5.147   1.017   2.533
 3661SOL    HW111882   5.199   0.991   2.451
 3661SOL    HW211883   5.058   1.053   2.506
 3662SOL     OW11884   1.940   6.268   4.315
 3662SOL    HW111885   1.903   6.203   4.249
 3662SOL    HW211886   2.036   6.246   4.334
 3663SOL     OW11887   2.730   2.416   6.137
 3663SOL    HW111888   2.654   2.367   6.094
 3663SOL    HW211889   2.696   2.500   6.180
 3664SOL     OW11890   3.870   0.018   1.744
 3664SOL    HW111891   3.912   6.957   1.734
 3664SOL    HW211892   3.854   0.057   1.653
 3665SOL     OW11893   2.351   1.748   5.583
 3665SOL    HW111894   2.310   1.682   5.520
 3665SOL    HW211895   2.387   1.825   5.532
 3666SOL     OW11896   0.852   4.664   3.149
 3666SOL    HW111897   0.864   4.615   3.063
 3666SOL    HW211898   0.891   4.611   3.224
 3667SOL     OW11899   0.400   1.084   6.825
 3667SOL    HW111900   0.331   1.018   6.795
 3667SOL    HW211901   0.355   1.169   6.851
 3668SOL     OW11902   1.991   0.173   0.847
 3668SOL    HW111903   1.954   0.265   0.844
 3668SOL    HW211904   2.091   0.177   0.839
 3669SOL     OW11905   5.391   1.613   4.755
 3669SOL    HW111906   5.455   1.581   4.826
 3669SOL    HW211907   5.442   1.639   4.673
 3670SOL     OW11908   3.437   4.851   6.188
 3670SOL    HW111909   3.342   4.875   6.172
 3670SOL    HW211910   3.477   4.814   6.104
 3671SOL     OW11911   1.384   1.277   2.834
 3671SOL    HW111912   1.464   1.308   2.783
 3671SOL    HW211913   1.314   1.348   2.832
 3672SOL     OW11914   5.855   5.874   0.012
 3672SOL    HW111915   5.770   5.822   0.022
 3672SOL    HW211916   5.927   5.831   0.066
 3673SOL     OW11917   3.723   0.121   5.799
 3673SOL    HW111918   3.689   0.077   5.716
 3673SOL    HW211919   3.801   0.070   5.835
 3674SOL     OW11920   1.380   6.663   0.790
 3674SOL    HW111921   1.395   6.576   0.741
 3674SOL    HW211922   1.436   6.734   0.748
 3675SOL     OW11923   1.626   1.869   4.130
 3675SOL    HW111924   1.710   1.815   4.133
 3675SOL    HW211925   1.631   1.934   4.055
 3676SOL     OW11926   0.772   4.585   2.478
 3676SOL    HW111927   0.741   4.627   2.393
 3676SOL    HW211928   0.821   4.501   2.457
 3677SOL     OW11929   6.342   1.304   3.519
 3677SOL    HW111930   6.413   1.294   3.449
 3677SOL    HW211931   6.333   1.219   3.570
 3678SOL     OW11932   0.784   2.709   4.012
 3678SOL    HW111933   0.820   2.617   4.031
 3678SOL    HW211934   0.825   2.744   3.928
 3679SOL     OW11935   6.383   1.054   1.404
 3679SOL    HW111936   6.383   0.957   1.428
 3679SOL    HW211937   6.477   1.089   1.403
 3680SOL     OW11938   6.535   4.546   5.245
 3680SOL    HW111939   6.529   4.580   5.152
 3680SOL    HW211940   6.604   4.474   5.250
 3681SOL     OW11941   5.392   0.322   4.280
 3681SOL    HW111942   5.394   0.325   4.380
 3681SOL    HW211943   5.377   0.415   4.245
 3682SOL     OW11944   0.333   1.844   6.866
 3682SOL    HW111945   0.276   1.777   6.818
 3682SOL    HW211946   0.343   1.816   6.961
 3683SOL     OW11947   4.596   6.652   4.059
 3683SOL    HW111948   4.664   6.593   4.015
 3683SOL    HW211949   4.615   6.747   4.036
 3684SOL     OW11950   2.153   3.945   2.017
 3684SOL    HW111951   2.178   4.031   2.062
 3684SOL    HW211952   2.148   3.872   2.085
 3685SOL     OW11953   5.736   5.650   6.405
 3685SOL    HW111954   5.642   5.618   6.412
 3685SOL    HW211955   5.790   5.611   6.480
 3686SOL     OW11956   0.579   4.098   0.350
 3686SOL    HW111957   0.606   4.078   0.444
 3686SOL    HW211958   0.641   4.051   0.287
 3687SOL     OW11959   3.992   0.752   1.067
 3687SOL    HW111960   4.055   0.783   1.138
 3687SOL    HW211961   4.037   0.685   1.008
 3688SOL     OW11962   0.333   2.383   6.622
 3688SOL    HW111963   0.238   2.356   6.633
 3688SOL    HW211964   0.388   2.301   6.602
 3689SOL     OW11965   1.188   6.218   3.489
 3689SOL    HW111966   1.230   6.295   3.537
 3689SOL    HW211967   1.222   6.132   3.528
 3690SOL     OW11968   4.954   4.425   6.247
 3690SOL    HW111969   4.877   4.469   6.201
 3690SOL    HW211970   5.013   4.495   6.287
 3691SOL     OW11971   2.928   3.115   6.394
 3691SOL    HW111972   2.989   3.194   6.403
 3691SOL    HW211973   2.912   3.097   6.297
 3692SOL     OW11974   6.504   0.566   5.366
 3692SOL    HW111975   6.498   0.574   5.266
 3692SOL    HW211976   6.519   0.470   5.390
 3693SOL     OW11977   1.549   1.534   3.459
 3693SOL    HW111978   1.608   1.612   3.478
 3693SOL    HW211979   1.549   1.516   3.360
 3694SOL     OW11980   1.854   4.412   3.566
 3694SOL    HW111981   1.925   4.386   3.631
 3694SOL    HW211982   1.766   4.417   3.614
 3695SOL     OW11983   2.536   2.387   1.014
 3695SOL    HW111984   2.564   2.411   1.107
 3695SOL    HW211985   2.607   2.332   0.971
 3696SOL     OW11986   2.985   6.108   5.995
 3696SOL    HW111987   2.926   6.159   6.057
 3696SOL    HW211988   3.031   6.035   6.046
 3697SOL     OW11989   5.479   1.361   3.303
 3697SOL    HW111990   5.417   1.382   3.228
 3697SOL    HW211991   5.427   1.324   3.380
 3698SOL     OW11992   2.830   0.719   5.595
 3698SOL    HW111993   2.894   0.694   5.523
 3698SOL    HW211994   2.875   0.714   5.684
 3699SOL     OW11995   1.143   5.205   2.395
 3699SOL    HW111996   1.136   5.302   2.370
 3699SOL    HW211997   1.239   5.180   2.404
 3700SOL     OW11998   6.195   6.841   3.930
 3700SOL    HW111999   6.212   6.915   3.995
 3700SOL    HW212000   6.281   6.802   3.899
 3701SOL     OW12001   4.210   1.509   3.826
 3701SOL    HW112002   4.214   1.510   3.726
 3701SOL    HW212003   4.291   1.554   3.864
 3702SOL     OW12004   5.280   0.954   6.360
 3702SOL    HW112005   5.190   0.953   6.316
 3702SOL    HW212006   5.270   0.988   6.453
 3703SOL     OW12007   3.538   4.554   0.356
 3703SOL    HW112008   3.593   4.618   0.410
 3703SOL    HW212009   3.597   4.482   0.319
 3704SOL     OW12010   3.586   5.839   1.146
 3704SOL    HW112011   3.636   5.770   1.198
 3704SOL    HW212012   3.609   5.930   1.181
 3705SOL     OW12013   6.789   1.216   4.091
 3705SOL    HW112014   6.784   1.306   4.046
 3705SOL    HW212015   6.807   1.146   4.022
 3706SOL     OW12016   2.437   2.392   2.917
 3706SOL    HW112017   2.523   2.408   2.966
 3706SOL    HW212018   2.373   2.345   2.978
 3707SOL     OW12019   4.319   1.578   5.332
 3707SOL    HW112020   4.358   1.548   5.244
 3707SOL    HW212021   4.220   1.567   5.330
 3708SOL     OW12022   6.385   6.269   0.518
 3708SOL    HW112023   6.451   6.342   0.501
 3708SOL    HW212024   6.338   6.285   0.605
 3709SOL     OW12025   0.749   6.360   6.196
 3709SOL    HW112026   0.725   6.285   6.257
 3709SOL    HW212027   0.848   6.359   6.179
 3710SOL     OW12028   1.299   5.108   6.193
 3710SOL    HW112029   1.251   5.101   6.105
 3710SOL    HW212030   1.343   5.020   6.214
 3711SOL     OW12031   6.360   4.750   1.890
 3711SOL    HW112032   6.362   4.735   1.791
 3711SOL    HW212033   6.268   4.780   1.917
 3712SOL     OW12034   1.555   0.296   5.594
 3712SOL    HW112035   1.584   0.365   5.528
 3712SOL    HW212036   1.623   0.290   5.668
 3713SOL     OW12037   3.085   4.478   5.909
 3713SOL    HW112038   2.998   4.525   5.893
 3713SOL    HW212039   3.075   4.415   5.986
 3714SOL     OW12040   4.765   2.361   4.704
 3714SOL    HW112041   4.715   2.294   4.760
 3714SOL    HW212042   4.863   2.350   4.719
 3715SOL     OW12043   4.483   4.514   4.309
 3715SOL    HW112044   4.465   4.416   4.299
 3715SOL    HW212045   4.426   4.550   4.384
 3716SOL     OW12046   1.509   1.247   4.821
 3716SOL    HW112047   1.596   1.277   4.860
 3716SOL    HW212048   1.437   1.310   4.848
 3717SOL     OW12049   5.853   0.592   6.623
 3717SOL    HW112050   5.817   0.668   6.568
 3717SOL    HW212051   5.799   0.510   6.606
 3718SOL     OW12052   1.123   6.980   6.207
 3718SOL    HW112053   1.065   6.967   6.287
 3718SOL    HW212054   1.171   0.038   6.214
 3719SOL     OW12055   3.531   4.163   0.393
 3719SOL    HW112056   3.445   4.142   0.346
 3719SOL    HW212057   3.521   4.144   0.490
 3720SOL     OW12058   6.686   1.249   6.260
 3720SOL    HW112059   6.602   1.209   6.224
 3720SOL    HW212060   6.664   1.309   6.337
 3721SOL     OW12061   5.487   2.298   0.581
 3721SOL    HW112062   5.536   2.376   0.621
 3721SOL    HW212063   5.477   2.312   0.482
 3722SOL     OW12064   3.989   5.673   1.221
 3722SOL    HW112065   4.018   5.596   1.278
 3722SOL    HW212066   4.066   5.708   1.169
 3723SOL     OW12067   3.408   1.658   0.550
 3723SOL    HW112068   3.479   1.704   0.497
 3723SOL    HW212069   3.427   1.668   0.648
 3724SOL     OW12070   1.504   3.622   6.661
 3724SOL    HW112071   1.468   3.680   6.587
 3724SOL    HW212072   1.542   3.538   6.622
 3725SOL     OW12073   5.011   6.330   2.395
 3725SOL    HW112074   5.044   6.245   2.353
 3725SOL    HW212075   4.936   6.309   2.457
 3726SOL     OW12076   6.072   3.527   2.415
 3726SOL    HW112077   6.160   3.558   2.379
 3726SOL    HW212078   6.004   3.601   2.406
 3727SOL     OW12079   2.274   2.188   5.458
 3727SOL    HW112080   2.330   2.241   5.521
 3727SOL    HW212081   2.177   2.210   5.472
 3728SOL     OW12082   0.935   3.622   6.927
 3728SOL    HW112083   0.907   3.708   6.884
 3728SOL    HW212084   0.968   3.641   7.020
 3729SOL     OW12085   1.467   3.314   3.503
 3729SOL    HW112086   1.555   3.306   3.456
 3729SOL    HW212087   1.478   3.375   3.582
 3730SOL     OW12088   2.000   0.079   1.406
 3730SOL    HW112089   2.026   0.171   1.435
 3730SOL    HW212090   1.980   0.080   1.308
 3731SOL     OW12091   2.407   6.158   0.162
 3731SOL    HW112092   2.387   6.244   0.209
 3731SOL    HW212093   2.342   6.088   0.191
 3732SOL     OW12094   1.760   4.174   4.193
 3732SOL    HW112095   1.811   4.109   4.249
 3732SOL    HW212096   1.823   4.222   4.132
 3733SOL     OW12097   3.565   3.422   1.810
 3733SOL    HW112098   3.495   3.364   1.851
 3733SOL    HW212099   3.543   3.438   1.714
 3734SOL     OW12100   4.182   1.303   3.519
 3734SOL    HW112101   4.244   1.274   3.446
 3734SOL    HW212102   4.164   1.401   3.510
 3735SOL     OW12103   3.576   2.281   1.630
 3735SOL    HW112104   3.573   2.365   1.575
 3735SOL    HW212105   3.624   2.299   1.716
 3736SOL     OW12106   5.013   0.638   6.008
 3736SOL    HW112107   5.045   0.545   5.986
 3736SOL    HW212108   4.966   0.636   6.096
 3737SOL     OW12109   2.770   6.948   3.368
 3737SOL    HW112110   2.783   6.883   3.443
 3737SOL    HW212111   2.715   6.906   3.296
 3738SOL     OW12112   0.443   0.519   4.499
 3738SOL    HW112113   0.514   0.504   4.430
 3738SOL    HW212114   0.485   0.542   4.587
 3739SOL     OW12115   6.863   3.302   0.522
 3739SOL    HW112116   6.798   3.305   0.446
 3739SOL    HW212117   6.815   3.277   0.606
 3740SOL     OW12118   6.147   6.630   0.064
 3740SOL    HW112119   6.055   6.638   0.026
 3740SOL    HW212120   6.143   6.635   0.164
 3741SOL     OW12121   4.349   0.708   6.467
 3741SOL    HW112122   4.277   0.641   6.449
 3741SOL    HW212123   4.373   0.706   6.564
 3742SOL     OW12124   3.471   3.487   6.155
 3742SOL    HW112125   3.550   3.483   6.092
 3742SOL    HW212126   3.427   3.398   6.157
 3743SOL     OW12127   1.560   5.938   5.604
 3743SOL    HW112128   1.522   6.031   5.606
 3743SOL    HW212129   1.539   5.891   5.689
 3744SOL     OW12130   6.154   5.126   3.619
 3744SOL    HW112131   6.103   5.091   3.698
 3744SOL    HW212132   6.097   5.119   3.538
 3745SOL     OW12133   5.142   4.614   1.570
 3745SOL    HW112134   5.187   4.647   1.487
 3745SOL    HW212135   5.051   4.654   1.577
 3746SOL     OW12136   4.529   1.189   1.092
 3746SOL    HW112137   4.515   1.219   0.998
 3746SOL    HW212138   4.592   1.111   1.094
 3747SOL     OW12139   3.141   6.498   1.267
 3747SOL    HW112140   3.074   6.552   1.317
 3747SOL    HW212141   3.194   6.557   1.206
 3748SOL     OW12142   5.355   0.449   1.813
 3748SOL    HW112143   5.425   0.492   1.868
 3748SOL    HW212144   5.268   0.497   1.825
 3749SOL     OW12145   0.917   1.040   3.908
 3749SOL    HW112146   0.936   1.135   3.885
 3749SOL    HW212147   0.945   0.981   3.832
 3750SOL     OW12148   0.551   3.802   0.311
 3750SOL    HW112149   0.480   3.752   0.261
 3750SOL    HW212150   0.513   3.838   0.396
 3751SOL     OW12151   2.284   5.147   1.684
 3751SOL    HW112152   2.293   5.097   1.770
 3751SOL    HW212153   2.293   5.245   1.701
 3752SOL     OW12154   5.579   5.215   6.822
 3752SOL    HW112155   5.551   5.311   6.822
 3752SOL    HW212156   5.662   5.204   6.767
 3753SOL     OW12157   0.131   1.443   3.552
 3753SOL    HW112158   0.099   1.500   3.627
 3753SOL    HW212159   0.231   1.437   3.555
 3754SOL     OW12160   3.921   1.491   1.725
 3754SOL    HW112161   3.890   1.432   1.651
 3754SOL    HW212162   4.005   1.453   1.764
 3755SOL     OW12163   2.947   6.535   4.667
 3755SOL    HW112164   2.850   6.516   4.680
 3755SOL    HW212165   2.997   6.449   4.659
 3756SOL     OW12166   0.987   6.235   0.546
 3756SOL    HW112167   0.928   6.298   0.496
 3756SOL    HW212168   0.961   6.141   0.526
 3757SOL     OW12169   1.290   5.266   0.220
 3757SOL    HW112170   1.303   5.199   0.147
 3757SOL    HW212171   1.364   5.257   0.287
 3758SOL     OW12172   7.014   5.577   4.062
 3758SOL    HW112173   6.955   5.605   3.987
 3758SOL    HW212174   0.052   5.649   4.079
 3759SOL     OW12175   4.953   0.500   3.413
 3759SOL    HW112176   4.908   0.412   3.399
 3759SOL    HW212177   5.052   0.490   3.399
 3760SOL     OW12178   0.648   1.132   3.671
 3760SOL    HW112179   0.653   1.037   3.704
 3760SOL    HW212180   0.587   1.137   3.592
 3761SOL     OW12181   4.121   0.863   4.518
 3761SOL    HW112182   4.167   0.834   4.602
 3761SOL    HW212183   4.172   0.829   4.439
 3762SOL     OW12184   6.347   2.095   3.612
 3762SOL    HW112185   6.349   2.185   3.654
 3762SOL    HW212186   6.415   2.036   3.656
 3763SOL     OW12187   0.592   7.014   6.536
 3763SOL    HW112188   0.521   7.008   6.607
 3763SOL    HW212189   0.669   6.955   6.561
 3764SOL     OW12190   4.891   2.004   2.774
 3764SOL    HW112191   4.868   2.088   2.824
 3764SOL    HW212192   4.990   1.995   2.766
 3765SOL     OW12193   5.640   3.711   1.588
 3765SOL    HW112194   5.731   3.696   1.549
 3765SOL    HW212195   5.647   3.717   1.687
 3766SOL     OW12196   2.259   2.405   2.525
 3766SOL    HW112197   2.167   2.421   2.489
 3766SOL    HW212198   2.259   2.320   2.578
 3767SOL     OW12199   1.619   5.385   5.314
 3767SOL    HW112200   1.717   5.384   5.296
 3767SOL    HW212201   1.601   5.346   5.404
 3768SOL     OW12202   1.333   6.724   4.239
 3768SOL    HW112203   1.271   6.710   4.317
 3768SOL    HW212204   1.348   6.636   4.193
 3769SOL     OW12205   4.825   5.387   6.021
 3769SOL    HW112206   4.796   5.330   5.944
 3769SOL    HW212207   4.744   5.417   6.072
 3770SOL     OW12208   2.378   0.560   0.056
 3770SOL    HW112209   2.447   0.617   0.012
 3770SOL    HW212210   2.401   0.549   0.153
 3771SOL     OW12211   6.583   6.052   6.097
 3771SOL    HW112212   6.542   5.962   6.082
 3771SOL    HW212213   6.658   6.065   6.032
 3772SOL     OW12214   2.824   5.405   1.556
 3772SOL    HW112215   2.748   5.423   1.619
 3772SOL    HW212216   2.790   5.402   1.462
 3773SOL     OW12217   4.821   3.958   6.939
 3773SOL    HW112218   4.908   3.975   6.894
 3773SOL    HW212219   4.746   3.988   6.879
 3774SOL     OW12220   0.301   4.343   1.469
 3774SOL    HW112221   0.368   4.418   1.466
 3774SOL    HW212222   0.345   4.259   1.437
 3775SOL     OW12223   6.087   6.334   4.701
 3775SOL    HW112224   6.060   6.406   4.637
 3775SOL    HW212225   6.174   6.294   4.671
 3776SOL     OW12226   4.058   2.628   6.572
 3776SOL    HW112227   3.979   2.685   6.549
 3776SOL    HW212228   4.031   2.532   6.574
 3777SOL     OW12229   3.196   5.234   3.364
 3777SOL    HW112230   3.199   5.334   3.368
 3777SOL    HW212231   3.154   5.206   3.278
 3778SOL     OW12232   2.828   5.441   6.548
 3778SOL    HW112233   2.906   5.490   6.588
 3778SOL    HW212234   2.755   5.506   6.527
 3779SOL     OW12235   6.399   5.147   6.533
 3779SOL    HW112236   6.381   5.057   6.493
 3779SOL    HW212237   6.410   5.215   6.460
 3780SOL     OW12238   5.770   1.839   1.407
 3780SOL    HW112239   5.763   1.930   1.366
 3780SOL    HW212240   5.689   1.785   1.385
 3781SOL     OW12241   1.249   0.885   6.712
 3781SOL    HW112242   1.236   0.892   6.811
 3781SOL    HW212243   1.164   0.851   6.670
 3782SOL     OW12244   2.920   5.533   0.033
 3782SOL    HW112245   2.865   5.450   0.030
 3782SOL    HW212246   2.991   5.530   6.992
 3783SOL     OW12247   4.662   5.224   5.328
 3783SOL    HW112248   4.704   5.159   5.391
 3783SOL    HW212249   4.586   5.270   5.373
 3784SOL     OW12250   5.212   4.331   5.255
 3784SOL    HW112251   5.274   4.361   5.327
 3784SOL    HW212252   5.262   4.321   5.169
 3785SOL     OW12253   0.756   3.398   2.179
 3785SOL    HW112254   0.677   3.433   2.229
 3785SOL    HW212255   0.785   3.466   2.111
 3786SOL     OW12256   3.223   3.015   6.291
 3786SOL    HW112257   3.226   3.025   6.391
 3786SOL    HW212258   3.197   2.921   6.268
 3787SOL     OW12259   5.455   5.819   5.763
 3787SOL    HW112260   5.458   5.720   5.773
 3787SOL    HW212261   5.525   5.860   5.822
 3788SOL     OW12262   5.608   2.875   5.559
 3788SOL    HW112263   5.660   2.789   5.565
 3788SOL    HW212264   5.656   2.946   5.610
 3789SOL     OW12265   1.772   4.706   1.730
 3789SOL    HW112266   1.762   4.620   1.680
 3789SOL    HW212267   1.682   4.733   1.766
 3790SOL     OW12268   3.167   0.287   1.977
 3790SOL    HW112269   3.112   0.235   1.911
 3790SOL    HW212270   3.227   0.350   1.929
 3791SOL     OW12271   5.123   0.734   4.191
 3791SOL    HW112272   5.036   0.721   4.145
 3791SOL    HW212273   5.145   0.832   4.194
 3792SOL     OW12274   5.843   0.337   3.239
 3792SOL    HW112275   5.856   0.257   3.180
 3792SOL    HW212276   5.892   0.415   3.200
 3793SOL     OW12277   5.041   3.538   0.369
 3793SOL    HW112278   4.948   3.575   0.377
 3793SOL    HW212279   5.077   3.556   0.278
 3794SOL     OW12280   1.768   5.136   5.677
 3794SOL    HW112281   1.816   5.183   5.752
 3794SOL    HW212282   1.836   5.093   5.617
 3795SOL     OW12283   3.721   6.069   0.301
 3795SOL    HW112284   3.739   6.060   0.203
 3795SOL    HW212285   3.646   6.133   0.316
 3796SOL     OW12286   5.451   1.105   0.175
 3796SOL    HW112287   5.436   1.161   0.256
 3796SOL    HW212288   5.457   1.009   0.201
 3797SOL     OW12289   6.998   1.500   0.978
 3797SOL    HW112290   6.950   1.439   0.915
 3797SOL    HW212291   6.986   1.595   0.949
 3798SOL     OW12292   6.948   3.825   4.103
 3798SOL    HW112293   7.028   3.878   4.132
 3798SOL    HW212294   6.881   3.824   4.177
 3799SOL     OW12295   6.237   2.328   1.961
 3799SOL    HW112296   6.277   2.264   1.896
 3799SOL    HW212297   6.300   2.342   2.038
 3800SOL     OW12298   5.820   3.280   1.502
 3800SOL    HW112299   5.768   3.360   1.472
 3800SOL    HW212300   5.903   3.272   1.447
 3801SOL     OW12301   5.435   1.281   0.376
 3801SOL    HW112302   5.349   1.330   0.387
 3801SOL    HW212303   5.459   1.234   0.461
 3802SOL     OW12304   5.943   3.792   3.580
 3802SOL    HW112305   5.936   3.873   3.638
 3802SOL    HW212306   6.039   3.769   3.566
 3803SOL     OW12307   3.749   4.420   6.735
 3803SOL    HW112308   3.671   4.477   6.707
 3803SOL    HW212309   3.826   4.480   6.759
 3804SOL     OW12310   3.874   6.022   3.520
 3804SOL    HW112311   3.953   5.962   3.533
 3804SOL    HW212312   3.823   5.992   3.439
 3805SOL     OW12313   2.574   1.831   0.084
 3805SOL    HW112314   2.499   1.788   0.033
 3805SOL    HW212315   2.650   1.850   0.022
 3806SOL     OW12316   2.169   4.581   2.143
 3806SOL    HW112317   2.209   4.556   2.232
 3806SOL    HW212318   2.089   4.523   2.126
 3807SOL     OW12319   0.070   4.148   4.394
 3807SOL    HW112320   0.066   4.175   4.298
 3807SOL    HW212321   0.065   4.048   4.402
 3808SOL     OW12322   2.486   6.711   6.099
 3808SOL    HW112323   2.401   6.736   6.051
 3808SOL    HW212324   2.494   6.612   6.103
 3809SOL     OW12325   5.219   1.986   1.436
 3809SOL    HW112326   5.225   1.987   1.337
 3809SOL    HW212327   5.222   2.080   1.471
 3810SOL     OW12328   4.845   2.104   4.195
 3810SOL    HW112329   4.775   2.144   4.254
 3810SOL    HW212330   4.862   2.165   4.117
 3811SOL     OW12331   0.361   6.254   5.709
 3811SOL    HW112332   0.311   6.299   5.635
 3811SOL    HW212333   0.398   6.324   5.770
 3812SOL     OW12334   4.363   5.594   0.377
 3812SOL    HW112335   4.443   5.534   0.378
 3812SOL    HW212336   4.337   5.615   0.471
 3813SOL     OW12337   0.060   3.635   6.576
 3813SOL    HW112338   0.105   3.643   6.487
 3813SOL    HW212339   0.123   3.592   6.641
 3814SOL     OW12340   7.007   0.827   4.972
 3814SOL    HW112341   7.020   0.728   4.983
 3814SOL    HW212342   6.921   0.854   5.016
 3815SOL     OW12343   4.689   1.841   5.768
 3815SOL    HW112344   4.654   1.748   5.756
 3815SOL    HW212345   4.615   1.906   5.750
 3816SOL     OW12346   6.623   6.661   2.057
 3816SOL    HW112347   6.551   6.699   2.115
 3816SOL    HW212348   6.644   6.726   1.984
 3817SOL     OW12349   3.791   3.500   2.681
 3817SOL    HW112350   3.767   3.419   2.628
 3817SOL    HW212351   3.883   3.490   2.718
 3818SOL     OW12352   4.519   5.835   2.387
 3818SOL    HW112353   4.435   5.884   2.411
 3818SOL    HW212354   4.542   5.854   2.291
 3819SOL     OW12355   6.354   2.604   3.135
 3819SOL    HW112356   6.333   2.518   3.090
 3819SOL    HW212357   6.286   2.673   3.109
 3820SOL     OW12358   3.783   6.825   5.941
 3820SOL    HW112359   3.709   6.833   5.874
 3820SOL    HW212360   3.747   6.837   6.033
 3821SOL     OW12361   0.915   6.459   1.238
 3821SOL    HW112362   0.840   6.397   1.217
 3821SOL    HW212363   0.893   6.512   1.320
 3822SOL     OW12364   6.407   6.144   1.375
 3822SOL    HW112365   6.497   6.186   1.391
 3822SOL    HW212366   6.419   6.046   1.358
 3823SOL     OW12367   6.142   5.208   4.402
 3823SOL    HW112368   6.098   5.157   4.476
 3823SOL    HW212369   6.118   5.305   4.409
 3824SOL     OW12370   1.811   2.509   0.868
 3824SOL    HW112371   1.888   2.550   0.917
 3824SOL    HW212372   1.747   2.582   0.839
 3825SOL     OW12373   0.521   4.695   5.636
 3825SOL    HW112374   0.501   4.597   5.637
 3825SOL    HW212375   0.513   4.729   5.543
 3826SOL     OW12376   4.290   4.776   3.840
 3826SOL    HW112377   4.319   4.684   3.865
 3826SOL    HW212378   4.241   4.773   3.753
 3827SOL     OW12379   0.694   1.206   0.018
 3827SOL    HW112380   0.730   1.113   0.021
 3827SOL    HW212381   0.656   1.230   0.107
 3828SOL     OW12382   2.537   3.533   5.826
 3828SOL    HW112383   2.446   3.533   5.785
 3828SOL    HW212384   2.600   3.583   5.767
 3829SOL     OW12385   6.803   2.272   1.322
 3829SOL    HW112386   6.791   2.367   1.295
 3829SOL    HW212387   6.848   2.221   1.249
 3830SOL     OW12388   5.585   6.245   3.716
 3830SOL    HW112389   5.505   6.288   3.759
 3830SOL    HW212390   5.590   6.273   3.620
 3831SOL     OW12391   5.252   2.060   4.274
 3831SOL    HW112392   5.229   1.993   4.204
 3831SOL    HW212393   5.234   2.152   4.239
 3832SOL     OW12394   6.316   1.456   4.139
 3832SOL    HW112395   6.225   1.431   4.107
 3832SOL    HW212396   6.369   1.374   4.160
 3833SOL     OW12397   2.125   3.435   5.396
 3833SOL    HW112398   2.185   3.514   5.381
 3833SOL    HW212399   2.161   3.356   5.346
 3834SOL     OW12400   4.312   5.034   0.461
 3834SOL    HW112401   4.339   5.032   0.365
 3834SOL    HW212402   4.329   4.945   0.503
 3835SOL     OW12403   4.671   5.167   4.652
 3835SOL    HW112404   4.642   5.222   4.573
 3835SOL    HW212405   4.606   5.180   4.727
 3836SOL     OW12406   0.638   0.256   5.345
 3836SOL    HW112407   0.540   0.259   5.323
 3836SOL    HW212408   0.668   0.161   5.349
 3837SOL     OW12409   4.753   4.591   5.779
 3837SOL    HW112410   4.759   4.507   5.833
 3837SOL    HW212411   4.841   4.611   5.737
 3838SOL     OW12412   0.474   1.866   3.315
 3838SOL    HW112413   0.443   1.946   3.265
 3838SOL    HW212414   0.572   1.853   3.301
 3839SOL     OW12415   4.677   1.432   3.835
 3839SOL    HW112416   4.749   1.365   3.855
 3839SOL    HW212417   4.595   1.384   3.803
 3840SOL     OW12418   4.076   2.235   5.988
 3840SOL    HW112419   4.081   2.230   6.087
 3840SOL    HW212420   3.989   2.197   5.956
 3841SOL     OW12421   5.754   4.005   2.942
 3841SOL    HW112422   5.689   4.081   2.946
 3841SOL    HW212423   5.843   4.035   2.977
 3842SOL     OW12424   1.827   3.881   5.022
 3842SOL    HW112425   1.861   3.856   4.932
 3842SOL    HW212426   1.885   3.953   5.061
 3843SOL     OW12427   5.420   2.394   6.698
 3843SOL    HW112428   5.512   2.369   6.726
 3843SOL    HW212429   5.360   2.394   6.778
 3844SOL     OW12430   5.754   6.305   0.414
 3844SOL    HW112431   5.719   6.306   0.508
 3844SOL    HW212432   5.816   6.227   0.403
 3845SOL     OW12433   1.964   5.631   0.658
 3845SOL    HW112434   2.014   5.634   0.745
 3845SOL    HW212435   1.965   5.537   0.623
 3846SOL     OW12436   6.630   3.285   3.011
 3846SOL    HW112437   6.665   3.375   3.041
 3846SOL    HW212438   6.706   3.230   2.977
 3847SOL     OW12439   0.246   0.895   6.705
 3847SOL    HW112440   0.268   0.943   6.620
 3847SOL    HW212441   0.162   0.842   6.692
 3848SOL     OW12442   5.573   5.293   2.778
 3848SOL    HW112443   5.596   5.248   2.692
 3848SOL    HW212444   5.512   5.233   2.831
 3849SOL     OW12445   0.188   3.204   5.700
 3849SOL    HW112446   0.088   3.195   5.710
 3849SOL    HW212447   0.209   3.249   5.614
 3850SOL     OW12448   3.341   2.876   1.177
 3850SOL    HW112449   3.414   2.817   1.142
 3850SOL    HW212450   3.373   2.971   1.177
 3851SOL     OW12451   0.111   5.287   2.349
 3851SOL    HW112452   0.059   5.326   2.425
 3851SOL    HW212453   0.145   5.197   2.374
 3852SOL     OW12454   3.568   0.705   5.232
 3852SOL    HW112455   3.523   0.772   5.291
 3852SOL    HW212456   3.657   0.741   5.203
 3853SOL     OW12457   1.950   1.111   3.164
 3853SOL    HW112458   1.909   1.073   3.247
 3853SOL    HW212459   2.031   1.059   3.139
 3854SOL     OW12460   6.928   1.427   2.257
 3854SOL    HW112461   6.832   1.452   2.244
 3854SOL    HW212462   6.933   1.347   2.316
 3855SOL     OW12463   2.769   6.020   6.664
 3855SOL    HW112464   2.672   6.040   6.655
 3855SOL    HW212465   2.793   6.013   6.761
 3856SOL     OW12466   0.302   2.803   6.632
 3856SOL    HW112467   0.279   2.803   6.729
 3856SOL    HW212468   0.334   2.894   6.606
 3857SOL     OW12469   1.227   0.155   5.814
 3857SOL    HW112470   1.206   0.163   5.717
 3857SOL    HW212471   1.261   0.243   5.848
 3858SOL     OW12472   3.134   1.092   4.994
 3858SOL    HW112473   3.045   1.047   4.993
 3858SOL    HW212474   3.128   1.178   4.944
 3859SOL     OW12475   5.862   6.478   3.368
 3859SOL    HW112476   5.857   6.564   3.319
 3859SOL    HW212477   5.816   6.487   3.457
 3860SOL     OW12478   1.532   6.689   5.028
 3860SOL    HW112479   1.539   6.768   5.088
 3860SOL    HW212480   1.556   6.606   5.078
 3861SOL     OW12481   2.080   6.362   2.667
 3861SOL    HW112482   2.089   6.262   2.661
 3861SOL    HW212483   2.146   6.398   2.732
 3862SOL     OW12484   2.066   0.352   4.033
 3862SOL    HW112485   2.063   0.325   3.937
 3862SOL    HW212486   2.071   0.270   4.090
 3863SOL     OW12487   4.047   6.766   1.139
 3863SOL    HW112488   4.141   6.753   1.170
 3863SOL    HW212489   3.987   6.774   1.219
 3864SOL     OW12490   0.841   0.999   4.983
 3864SOL    HW112491   0.866   1.057   5.061
 3864SOL    HW212492   0.924   0.955   4.947
 3865SOL     OW12493   4.951   1.274   0.304
 3865SOL    HW112494   4.973   1.177   0.311
 3865SOL    HW212495   4.913   1.293   0.213
 3866SOL     OW12496   3.798   0.843   6.666
 3866SOL    HW112497   3.748   0.837   6.580
 3866SOL    HW212498   3.769   0.768   6.726
 3867SOL     OW12499   6.700   3.384   2.246
 3867SOL    HW112500   6.717   3.354   2.152
 3867SOL    HW212501   6.610   3.353   2.276
 3868SOL     OW12502   4.449   0.923   0.067
 3868SOL    HW112503   4.417   0.942   0.160
 3868SOL    HW212504   4.423   0.998   0.006
 3869SOL     OW12505   2.936   1.026   3.608
 3869SOL    HW112506   2.992   1.108   3.613
 3869SOL    HW212507   2.841   1.049   3.633
 3870SOL     OW12508   6.625   2.087   5.947
 3870SOL    HW112509   6.592   2.087   6.042
 3870SOL    HW212510   6.555   2.048   5.888
 3871SOL     OW12511   2.939   5.219   4.481
 3871SOL    HW112512   2.891   5.221   4.569
 3871SOL    HW212513   2.903   5.145   4.425
 3872SOL     OW12514   3.020   3.856   5.430
 3872SOL    HW112515   2.950   3.912   5.475
 3872SOL    HW212516   3.109   3.899   5.442
 3873SOL     OW12517   5.678   2.784   6.514
 3873SOL    HW112518   5.753   2.756   6.574
 3873SOL    HW212519   5.590   2.764   6.558
 3874SOL     OW12520   1.764   1.037   1.962
 3874SOL    HW112521   1.698   0.969   1.930
 3874SOL    HW212522   1.775   1.028   2.061
 3875SOL     OW12523   0.128   0.580   6.590
 3875SOL    HW112524   0.104   0.622   6.503
 3875SOL    HW212525   0.225   0.552   6.588
 3876SOL     OW12526   3.048   5.290   1.784
 3876SOL    HW112527   3.129   5.278   1.727
 3876SOL    HW212528   2.996   5.205   1.786
 3877SOL     OW12529   0.908   1.828   5.794
 3877SOL    HW112530   0.843   1.780   5.736
 3877SOL    HW212531   0.911   1.784   5.884
 3878SOL     OW12532   3.931   1.607   4.916
 3878SOL    HW112533   3.891   1.698   4.925
 3878SOL    HW212534   3.859   1.538   4.926
 3879SOL     OW12535   5.462   4.947   6.826
 3879SOL    HW112536   5.480   5.043   6.802
 3879SOL    HW212537   5.474   4.890   6.745
 3880SOL     OW12538   4.955   5.672   3.871
 3880SOL    HW112539   4.885   5.609   3.906
 3880SOL    HW212540   4.984   5.733   3.945
 3881SOL     OW12541   2.053   2.787   6.956
 3881SOL    HW112542   1.965   2.835   6.958
 3881SOL    HW212543   2.092   2.793   6.864
 3882SOL     OW12544   0.366   2.631   6.120
 3882SOL    HW112545   0.404   2.709   6.071
 3882SOL    HW212546   0.414   2.620   6.207
 3883SOL     OW12547   3.697   6.112   4.373
 3883SOL    HW112548   3.707   6.027   4.425
 3883SOL    HW212549   3.777   6.170   4.387
 3884SOL     OW12550   6.642   2.799   1.729
 3884SOL    HW112551   6.633   2.791   1.828
 3884SOL    HW212552   6.737   2.821   1.707
 3885SOL     OW12553   3.998   5.556   2.249
 3885SOL    HW112554   3.974   5.598   2.161
 3885SOL    HW212555   4.024   5.628   2.314
 3886SOL     OW12556   2.871   5.151   6.796
 3886SOL    HW112557   2.868   5.052   6.785
 3886SOL    HW212558   2.892   5.174   6.891
 3887SOL     OW12559   1.983   6.112   1.929
 3887SOL    HW112560   1.923   6.166   1.871
 3887SOL    HW212561   2.078   6.138   1.911
 3888SOL     OW12562   5.153   5.130   3.256
 3888SOL    HW112563   5.203   5.201   3.306
 3888SOL    HW212564   5.094   5.080   3.319
 3889SOL     OW12565   5.306   2.757   0.627
 3889SOL    HW112566   5.389   2.720   0.587
 3889SOL    HW212567   5.279   2.839   0.577
 3890SOL     OW12568   4.448   4.560   3.913
 3890SOL    HW112569   4.480   4.608   3.995
 3890SOL    HW212570   4.471   4.463   3.921
 3891SOL     OW12571   4.780   4.740   3.625
 3891SOL    HW112572   4.715   4.768   3.554
 3891SOL    HW212573   4.741   4.761   3.715
 3892SOL     OW12574   0.415   1.687   1.442
 3892SOL    HW112575   0.477   1.719   1.371
 3892SOL    HW212576   0.372   1.602   1.413
 3893SOL     OW12577   3.140   3.087   2.884
 3893SOL    HW112578   3.089   3.118   2.804
 3893SOL    HW212579   3.099   3.125   2.967
 3894SOL     OW12580   4.375   0.492   5.964
 3894SOL    HW112581   4.281   0.525   5.977
 3894SOL    HW212582   4.435   0.570   5.948
 3895SOL     OW12583   0.955   0.127   4.405
 3895SOL    HW112584   0.950   0.203   4.341
 3895SOL    HW212585   0.924   0.043   4.360
 3896SOL     OW12586   2.017   1.748   6.512
 3896SOL    HW112587   2.085   1.683   6.545
 3896SOL    HW212588   2.026   1.834   6.563
 3897SOL     OW12589   3.385   5.925   0.930
 3897SOL    HW112590   3.455   5.875   0.981
 3897SOL    HW212591   3.294   5.889   0.952
 3898SOL     OW12592   4.229   3.336   1.065
 3898SOL    HW112593   4.211   3.399   0.990
 3898SOL    HW212594   4.168   3.257   1.058
 3899SOL     OW12595   3.233   0.130   4.978
 3899SOL    HW112596   3.138   0.111   5.001
 3899SOL    HW212597   3.280   0.043   4.958
 3900SOL     OW12598   4.157   4.753   2.449
 3900SOL    HW112599   4.234   4.751   2.385
 3900SOL    HW212600   4.171   4.683   2.520
 3901SOL     OW12601   3.596   1.347   6.718
 3901SOL    HW112602   3.617   1.357   6.815
 3901SOL    HW212603   3.654   1.276   6.678
 3902SOL     OW12604   4.748   2.868   2.681
 3902SOL    HW112605   4.822   2.921   2.639
 3902SOL    HW212606   4.724   2.908   2.769
 3903SOL     OW12607   3.530   5.199   6.785
 3903SOL    HW112608   3.564   5.292   6.774
 3903SOL    HW212609   3.550   5.166   6.877
 3904SOL     OW12610   1.387   6.621   1.089
 3904SOL    HW112611   1.408   6.653   0.997
 3904SOL    HW212612   1.470   6.624   1.145
 3905SOL     OW12613   0.269   6.363   5.143
 3905SOL    HW112614   0.206   6.439   5.124
 3905SOL    HW212615   0.323   6.384   5.225
 3906SOL     OW12616   0.977   6.269   5.364
 3906SOL    HW112617   0.973   6.286   5.265
 3906SOL    HW212618   0.905   6.204   5.389
 3907SOL     OW12619   5.482   2.173   3.924
 3907SOL    HW112620   5.445   2.233   3.994
 3907SOL    HW212621   5.537   2.226   3.859
 3908SOL     OW12622   2.636   3.853   6.154
 3908SOL    HW112623   2.570   3.778   6.160
 3908SOL    HW212624   2.692   3.855   6.237
 3909SOL     OW12625   4.389   6.062   3.879
 3909SOL    HW112626   4.484   6.039   3.898
 3909SOL    HW212627   4.370   6.154   3.912
 3910SOL     OW12628   3.491   3.541   2.692
 3910SOL    HW112629   3.590   3.526   2.684
 3910SOL    HW212630   3.458   3.589   2.611
 3911SOL     OW12631   5.496   2.155   5.500
 3911SOL    HW112632   5.591   2.135   5.526
 3911SOL    HW212633   5.485   2.144   5.401
 3912SOL     OW12634   5.668   3.157   6.451
 3912SOL    HW112635   5.665   3.068   6.405
 3912SOL    HW212636   5.627   3.226   6.392
 3913SOL     OW12637   1.165   6.887   1.215
 3913SOL    HW112638   1.108   6.805   1.216
 3913SOL    HW212639   1.250   6.869   1.264
 3914SOL     OW12640   3.117   5.894   6.108
 3914SOL    HW112641   3.122   5.832   6.030
 3914SOL    HW212642   3.204   5.943   6.117
 3915SOL     OW12643   5.166   5.765   1.916
 3915SOL    HW112644   5.190   5.779   2.012
 3915SOL    HW212645   5.113   5.843   1.883
 3916SOL     OW12646   6.990   0.353   3.540
 3916SOL    HW112647   6.999   0.258   3.508
 3916SOL    HW212648   6.953   0.353   3.633
 3917SOL     OW12649   2.894   0.146   6.675
 3917SOL    HW112650   2.846   0.075   6.622
 3917SOL    HW212651   2.971   0.181   6.621
 3918SOL     OW12652   6.209   3.253   0.274
 3918SOL    HW112653   6.250   3.273   0.363
 3918SOL    HW212654   6.114   3.224   0.288
 3919SOL     OW12655   3.371   6.343   0.695
 3919SOL    HW112656   3.323   6.370   0.778
 3919SOL    HW212657   3.422   6.258   0.711
 3920SOL     OW12658   2.165   1.128   6.177
 3920SOL    HW112659   2.162   1.226   6.160
 3920SOL    HW212660   2.247   1.106   6.230
 3921SOL     OW12661   0.404   3.285   0.956
 3921SOL    HW112662   0.380   3.300   1.052
 3921SOL    HW212663   0.376   3.192   0.930
 3922SOL     OW12664   0.034   5.062   1.071
 3922SOL    HW112665   0.027   4.973   1.117
 3922SOL    HW212666   7.029   5.134   1.132
 3923SOL     OW12667   0.201   5.526   0.163
 3923SOL    HW112668   0.114   5.573   0.173
 3923SOL    HW212669   0.185   5.431   0.137
 3924SOL     OW12670   6.447   4.957   4.293
 3924SOL    HW112671   6.446   4.940   4.194
 3924SOL    HW212672   6.455   5.055   4.310
 3925SOL     OW12673   0.567   4.782   1.323
 3925SOL    HW112674   0.574   4.802   1.225
 3925SOL    HW212675   0.582   4.866   1.375
 3926SOL     OW12676   2.611   5.810   3.203
 3926SOL    HW112677   2.590   5.712   3.204
 3926SOL    HW212678   2.529   5.862   3.227
 3927SOL     OW12679   2.584   3.618   6.309
 3927SOL    HW112680   2.561   3.639   6.404
 3927SOL    HW212681   2.503   3.629   6.251
 3928SOL     OW12682   0.222   6.739   6.299
 3928SOL    HW112683   0.254   6.799   6.225
 3928SOL    HW212684   0.198   6.795   6.378
 3929SOL     OW12685   1.165   1.474   4.742
 3929SOL    HW112686   1.216   1.525   4.674
 3929SOL    HW212687   1.097   1.416   4.696
 3930SOL     OW12688   2.906   1.878   4.052
 3930SOL    HW112689   2.829   1.819   4.027
 3930SOL    HW212690   2.975   1.824   4.100
 3931SOL     OW12691   3.501   6.356   2.278
 3931SOL    HW112692   3.521   6.283   2.344
 3931SOL    HW212693   3.539   6.442   2.312
 3932SOL     OW12694   2.209   3.876   3.462
 3932SOL    HW112695   2.144   3.887   3.387
 3932SOL    HW212696   2.177   3.804   3.524
 3933SOL     OW12697   1.985   0.567   5.917
 3933SOL    HW112698   1.995   0.505   5.840
 3933SOL    HW212699   2.045   0.646   5.904
 3934SOL     OW12700   4.937   5.523   0.397
 3934SOL    HW112701   4.939   5.449   0.330
 3934SOL    HW212702   4.997   5.502   0.474
 3935SOL     OW12703   4.439   0.088   2.184
 3935SOL    HW112704   4.372   0.015   2.198
 3935SOL    HW212705   4.393   0.168   2.145
 3936SOL     OW12706   0.961   4.079   2.779
 3936SOL    HW112707   0.887   4.024   2.740
 3936SOL    HW212708   1.013   4.123   2.706
 3937SOL     OW12709   0.315   1.949   2.740
 3937SOL    HW112710   0.266   1.921   2.658
 3937SOL    HW212711   0.394   2.004   2.715
 3938SOL     OW12712   6.090   3.111   2.764
 3938SOL    HW112713   6.029   3.163   2.703
 3938SOL    HW212714   6.059   3.016   2.768
 3939SOL     OW12715   1.479   2.412   1.951
 3939SOL    HW112716   1.532   2.329   1.970
 3939SOL    HW212717   1.506   2.450   1.863
 3940SOL     OW12718   4.526   4.425   1.196
 3940SOL    HW112719   4.524   4.507   1.253
 3940SOL    HW212720   4.436   4.382   1.195
 3941SOL     OW12721   5.505   3.122   0.321
 3941SOL    HW112722   5.420   3.140   0.272
 3941SOL    HW212723   5.555   3.048   0.275
 3942SOL     OW12724   6.464   6.650   1.021
 3942SOL    HW112725   6.490   6.570   0.968
 3942SOL    HW212726   6.402   6.622   1.095
 3943SOL     OW12727   0.110   3.187   4.542
 3943SOL    HW112728   0.204   3.183   4.578
 3943SOL    HW212729   0.103   3.128   4.461
 3944SOL     OW12730   5.642   2.413   5.185
 3944SOL    HW112731   5.672   2.318   5.177
 3944SOL    HW212732   5.686   2.467   5.113
 3945SOL     OW12733   0.342   7.012   1.056
 3945SOL    HW112734   0.297   6.975   0.974
 3945SOL    HW212735   0.311   6.962   1.136
 3946SOL     OW12736   3.627   5.026   3.776
 3946SOL    HW112737   3.622   5.012   3.875
 3946SOL    HW212738   3.710   4.983   3.741
 3947SOL     OW12739   0.187   4.350   5.783
 3947SOL    HW112740   0.158   4.305   5.698
 3947SOL    HW212741   0.286   4.342   5.793
 3948SOL     OW12742   6.313   3.203   1.712
 3948SOL    HW112743   6.347   3.289   1.749
 3948SOL    HW212744   6.333   3.199   1.614
 3949SOL     OW12745   5.599   6.283   2.700
 3949SOL    HW112746   5.665   6.243   2.636
 3949SOL    HW212747   5.563   6.211   2.760
 3950SOL     OW12748   1.625   6.101   0.242
 3950SOL    HW112749   1.587   6.011   0.221
 3950SOL    HW212750   1.705   6.091   0.302
 3951SOL     OW12751   5.423   5.679   2.198
 3951SOL    HW112752   5.465   5.681   2.107
 3951SOL    HW212753   5.420   5.585   2.232
 3952SOL     OW12754   6.251   1.006   0.108
 3952SOL    HW112755   6.182   1.009   0.180
 3952SOL    HW212756   6.281   1.099   0.088
 3953SOL     OW12757   2.878   3.674   2.479
 3953SOL    HW112758   2.957   3.658   2.420
 3953SOL    HW212759   2.857   3.772   2.481
 3954SOL     OW12760   4.192   4.105   5.741
 3954SOL    HW112761   4.098   4.105   5.708
 3954SOL    HW212762   4.193   4.096   5.841
 3955SOL     OW12763   4.089   1.272   4.828
 3955SOL    HW112764   4.006   1.293   4.880
 3955SOL    HW212765   4.078   1.306   4.734
 3956SOL     OW12766   2.706   1.208   0.602
 3956SOL    HW112767   2.726   1.303   0.580
 3956SOL    HW212768   2.717   1.192   0.700
 3957SOL     OW12769   4.450   2.068   3.762
 3957SOL    HW112770   4.503   2.153   3.756
 3957SOL    HW212771   4.460   2.030   3.854
 3958SOL     OW12772   5.249   6.628   5.887
 3958SOL    HW112773   5.319   6.568   5.925
 3958SOL    HW212774   5.161   6.580   5.885
 3959SOL     OW12775   5.715   6.010   6.671
 3959SOL    HW112776   5.683   6.028   6.764
 3959SOL    HW212777   5.649   5.953   6.623
 3960SOL     OW12778   6.292   2.670   4.236
 3960SOL    HW112779   6.324   2.763   4.217
 3960SOL    HW212780   6.332   2.639   4.322
 3961SOL     OW12781   5.019   0.033   4.291
 3961SOL    HW112782   5.068   0.119   4.278
 3961SOL    HW212783   5.085   6.990   4.310
 3962SOL     OW12784   6.502   5.246   4.336
 3962SOL    HW112785   6.473   5.342   4.340
 3962SOL    HW212786   6.511   5.210   4.429
 3963SOL     OW12787   3.385   6.093   1.775
 3963SOL    HW112788   3.411   6.009   1.823
 3963SOL    HW212789   3.290   6.115   1.796
 3964SOL     OW12790   6.036   2.355   4.200
 3964SOL    HW112791   6.059   2.261   4.227
 3964SOL    HW212792   5.959   2.353   4.136
 3965SOL     OW12793   5.065   4.376   4.404
 3965SOL    HW112794   5.139   4.309   4.399
 3965SOL    HW212795   4.995   4.353   4.337
 3966SOL     OW12796   3.214   6.563   6.636
 3966SOL    HW112797   3.217   6.605   6.726
 3966SOL    HW212798   3.304   6.527   6.613
 3967SOL     OW12799   1.912   3.919   3.873
 3967SOL    HW112800   1.886   4.014   3.890
 3967SOL    HW212801   2.009   3.906   3.894
 3968SOL     OW12802   4.520   6.368   0.661
 3968SOL    HW112803   4.541   6.411   0.749
 3968SOL    HW212804   4.504   6.270   0.675
 3969SOL     OW12805   0.086   4.422   3.141
 3969SOL    HW112806   0.167   4.471   3.175
 3969SOL    HW212807   0.067   4.344   3.200
 3970SOL     OW12808   4.502   6.555   1.206
 3970SOL    HW112809   4.551   6.470   1.224
 3970SOL    HW212810   4.547   6.630   1.254
 3971SOL     OW12811   0.980   6.295   3.701
 3971SOL    HW112812   0.985   6.256   3.793
 3971SOL    HW212813   1.015   6.229   3.634
 3972SOL     OW12814   1.573   3.548   0.085
 3972SOL    HW112815   1.655   3.551   0.142
 3972SOL    HW212816   1.494   3.578   0.139
 3973SOL     OW12817   1.970   4.341   0.986
 3973SOL    HW112818   2.015   4.306   0.904
 3973SOL    HW212819   1.945   4.265   1.045
 3974SOL     OW12820   2.909   0.183   5.948
 3974SOL    HW112821   2.909   0.279   5.918
 3974SOL    HW212822   2.993   0.139   5.916
 3975SOL     OW12823   6.827   2.835   0.080
 3975SOL    HW112824   6.850   2.790   0.167
 3975SOL    HW212825   6.850   2.774   0.004
 3976SOL     OW12826   1.152   4.184   2.593
 3976SOL    HW112827   1.220   4.247   2.630
 3976SOL    HW212828   1.191   4.137   2.513
 3977SOL     OW12829   0.471   2.993   6.953
 3977SOL    HW112830   0.514   3.055   7.019
 3977SOL    HW212831   0.419   3.046   6.886
 3978SOL     OW12832   5.535   3.991   3.661
 3978SOL    HW112833   5.616   4.043   3.636
 3978SOL    HW212834   5.468   3.996   3.586
 3979SOL     OW12835   3.904   6.072   6.164
 3979SOL    HW112836   3.865   5.983   6.142
 3979SOL    HW212837   3.841   6.145   6.135
 3980SOL     OW12838   5.393   4.895   5.680
 3980SOL    HW112839   5.359   4.966   5.619
 3980SOL    HW212840   5.319   4.863   5.739
 3981SOL     OW12841   4.589   5.527   6.935
 3981SOL    HW112842   4.521   5.540   7.007
 3981SOL    HW212843   4.672   5.578   6.958
 3982SOL     OW12844   2.760   6.022   2.933
 3982SOL    HW112845   2.816   5.944   2.959
 3982SOL    HW212846   2.663   5.996   2.937
 3983SOL     OW12847   3.427   6.041   4.411
 3983SOL    HW112848   3.511   6.095   4.412
 3983SOL    HW212849   3.351   6.098   4.442
 3984SOL     OW12850   6.213   2.975   3.200
 3984SOL    HW112851   6.209   3.051   3.135
 3984SOL    HW212852   6.307   2.960   3.229
 3985SOL     OW12853   4.756   5.361   6.334
 3985SOL    HW112854   4.710   5.422   6.270
 3985SOL    HW212855   4.784   5.278   6.287
 3986SOL     OW12856   5.325   0.760   2.622
 3986SOL    HW112857   5.336   0.660   2.619
 3986SOL    HW212858   5.306   0.794   2.530
 3987SOL     OW12859   3.663   5.273   5.538
 3987SOL    HW112860   3.630   5.221   5.459
 3987SOL    HW212861   3.664   5.214   5.619
 3988SOL     OW12862   4.581   5.649   0.907
 3988SOL    HW112863   4.492   5.645   0.862
 3988SOL    HW212864   4.581   5.722   0.976
 3989SOL     OW12865   6.741   2.545   1.323
 3989SOL    HW112866   6.677   2.597   1.268
 3989SOL    HW212867   6.817   2.603   1.350
 3990SOL     OW12868   6.845   1.607   1.382
 3990SOL    HW112869   6.789   1.685   1.352
 3990SOL    HW212870   6.858   1.545   1.305
 3991SOL     OW12871   4.693   1.441   3.342
 3991SOL    HW112872   4.659   1.480   3.428
 3991SOL    HW212873   4.696   1.512   3.272
 3992SOL     OW12874   4.347   1.670   1.669
 3992SOL    HW112875   4.301   1.703   1.751
 3992SOL    HW212876   4.445   1.661   1.687
 3993SOL     OW12877   1.174   3.302   1.524
 3993SOL    HW112878   1.173   3.298   1.624
 3993SOL    HW212879   1.265   3.326   1.492
 3994SOL     OW12880   2.520   5.577   4.590
 3994SOL    HW112881   2.437   5.614   4.549
 3994SOL    HW212882   2.594   5.578   4.522
 3995SOL     OW12883   1.326   1.951   3.944
 3995SOL    HW112884   1.289   2.004   3.868
 3995SOL    HW212885   1.398   2.004   3.990
 3996SOL     OW12886   6.760   5.633   4.543
 3996SOL    HW112887   6.813   5.550   4.560
 3996SOL    HW212888   6.757   5.652   4.445
 3997SOL     OW12889   2.895   0.368   3.072
 3997SOL    HW112890   2.916   0.459   3.108
 3997SOL    HW212891   2.844   0.378   2.987
 3998SOL     OW12892   4.377   1.842   2.929
 3998SOL    HW112893   4.405   1.908   2.859
 3998SOL    HW212894   4.457   1.789   2.958
 3999SOL     OW12895   4.385   1.342   4.321
 3999SOL    HW112896   4.307   1.282   4.307
 3999SOL    HW212897   4.369   1.401   4.400
 4000SOL     OW12898   4.927   5.230   4.684
 4000SOL    HW112899   4.919   5.329   4.689
 4000SOL    HW212900   4.835   5.190   4.678
 4001SOL     OW12901   0.722   1.567   5.195
 4001SOL    HW112902   0.821   1.581   5.204
 4001SOL    HW212903   0.706   1.481   5.147
 4002SOL     OW12904   1.946   5.083   1.971
 4002SOL    HW112905   1.947   4.985   1.950
 4002SOL    HW212906   1.980   5.097   2.064
 4003SOL     OW12907   3.842   1.863   4.393
 4003SOL    HW112908   3.803   1.934   4.453
 4003SOL    HW212909   3.826   1.887   4.298
 4004SOL     OW12910   0.029   1.836   6.377
 4004SOL    HW112911   0.002   1.794   6.291
 4004SOL    HW212912   6.983   1.832   6.442
 4005SOL     OW12913   6.825   4.920   4.659
 4005SOL    HW112914   6.911   4.873   4.675
 4005SOL    HW212915   6.766   4.909   4.740
 4006SOL     OW12916   3.439   6.218   3.145
 4006SOL    HW112917   3.512   6.227   3.213
 4006SOL    HW212918   3.399   6.308   3.126
 4007SOL     OW12919   0.410   1.653   5.719
 4007SOL    HW112920   0.426   1.688   5.812
 4007SOL    HW212921   0.391   1.555   5.723
 4008SOL     OW12922   3.408   1.567   4.844
 4008SOL    HW112923   3.309   1.563   4.829
 4008SOL    HW212924   3.431   1.523   4.930
 4009SOL     OW12925   3.965   3.854   2.927
 4009SOL    HW112926   4.025   3.844   3.006
 4009SOL    HW212927   3.909   3.935   2.938
 4010SOL     OW12928   1.240   3.147   0.849
 4010SOL    HW112929   1.201   3.163   0.940
 4010SOL    HW212930   1.166   3.132   0.784
 4011SOL     OW12931   0.491   1.424   0.687
 4011SOL    HW112932   0.520   1.465   0.773
 4011SOL    HW212933   0.568   1.423   0.623
 4012SOL     OW12934   5.148   3.377   3.358
 4012SOL    HW112935   5.210   3.456   3.354
 4012SOL    HW212936   5.169   3.315   3.283
 4013SOL     OW12937   5.200   2.829   2.817
 4013SOL    HW112938   5.250   2.801   2.899
 4013SOL    HW212939   5.132   2.759   2.794
 4014SOL     OW12940   5.382   4.790   2.849
 4014SOL    HW112941   5.350   4.696   2.837
 4014SOL    HW212942   5.482   4.792   2.849
 4015SOL     OW12943   5.020   3.532   0.069
 4015SOL    HW112944   4.923   3.556   0.068
 4015SOL    HW212945   5.068   3.579   7.025
 4016SOL     OW12946   3.098   6.670   4.462
 4016SOL    HW112947   3.057   6.661   4.371
 4016SOL    HW212948   3.031   6.646   4.532
 4017SOL     OW12949   5.086   6.691   6.239
 4017SOL    HW112950   5.139   6.762   6.192
 4017SOL    HW212951   5.010   6.662   6.181
 4018SOL     OW12952   1.996   0.084   6.959
 4018SOL    HW112953   1.935   0.112   6.885
 4018SOL    HW212954   1.952   0.014   7.014
 4019SOL     OW12955   5.359   6.670   4.407
 4019SOL    HW112956   5.442   6.683   4.462
 4019SOL    HW212957   5.377   6.699   4.313
 4020SOL     OW12958   5.534   1.793   4.588
 4020SOL    HW112959   5.573   1.752   4.506
 4020SOL    HW212960   5.587   1.874   4.613
 4021SOL     OW12961   4.754   3.135   6.787
 4021SOL    HW112962   4.763   3.228   6.752
 4021SOL    HW212963   4.835   3.111   6.841
 4022SOL     OW12964   5.020   0.942   0.945
 4022SOL    HW112965   5.013   0.991   1.032
 4022SOL    HW212966   5.060   1.003   0.876
 4023SOL     OW12967   6.825   5.775   5.562
 4023SOL    HW112968   6.874   5.689   5.549
 4023SOL    HW212969   6.752   5.762   5.629
 4024SOL     OW12970   4.058   4.425   5.702
 4024SOL    HW112971   4.058   4.396   5.798
 4024SOL    HW212972   3.985   4.377   5.653
 4025SOL     OW12973   0.151   3.956   4.135
 4025SOL    HW112974   0.215   4.026   4.103
 4025SOL    HW212975   0.199   3.869   4.145
 4026SOL     OW12976   5.831   1.410   5.573
 4026SOL    HW112977   5.739   1.387   5.541
 4026SOL    HW212978   5.892   1.422   5.495
 4027SOL     OW12979   2.797   5.308   2.649
 4027SOL    HW112980   2.846   5.332   2.566
 4027SOL    HW212981   2.702   5.287   2.628
 4028SOL     OW12982   1.075   5.627   2.971
 4028SOL    HW112983   1.037   5.571   2.897
 4028SOL    HW212984   1.174   5.636   2.959
 4029SOL     OW12985   1.777   4.328   3.257
 4029SOL    HW112986   1.798   4.355   3.351
 4029SOL    HW212987   1.825   4.243   3.234
 4030SOL     OW12988   2.625   1.126   6.195
 4030SOL    HW112989   2.652   1.062   6.123
 4030SOL    HW212990   2.552   1.085   6.251
 4031SOL     OW12991   6.667   6.126   4.321
 4031SOL    HW112992   6.606   6.059   4.364
 4031SOL    HW212993   6.644   6.136   4.224
 4032SOL     OW12994   3.672   0.169   4.778
 4032SOL    HW112995   3.759   0.150   4.731
 4032SOL    HW212996   3.615   0.226   4.720
 4033SOL     OW12997   3.559   3.945   6.495
 4033SOL    HW112998   3.627   3.894   6.547
 4033SOL    HW212999   3.597   4.034   6.469
 4034SOL     OW13000   6.138   3.530   5.405
 4034SOL    HW113001   6.164   3.615   5.359
 4034SOL    HW213002   6.042   3.509   5.386
 4035SOL     OW13003   0.302   6.124   2.293
 4035SOL    HW113004   0.332   6.063   2.366
 4035SOL    HW213005   0.338   6.216   2.309
 4036SOL     OW13006   6.054   6.085   1.344
 4036SOL    HW113007   6.108   6.131   1.415
 4036SOL    HW213008   5.957   6.089   1.368
 4037SOL     OW13009   0.814   4.036   6.552
 4037SOL    HW113010   0.902   4.082   6.562
 4037SOL    HW213011   0.816   3.979   6.470
 4038SOL     OW13012   6.530   5.333   3.346
 4038SOL    HW113013   6.508   5.389   3.426
 4038SOL    HW213014   6.621   5.293   3.357
 4039SOL     OW13015   2.663   5.197   1.311
 4039SOL    HW113016   2.647   5.171   1.407
 4039SOL    HW213017   2.581   5.179   1.258
 4040SOL     OW13018   2.845   0.309   7.020
 4040SOL    HW113019   2.757   0.262   7.029
 4040SOL    HW213020   2.873   0.345   0.079
 4041SOL     OW13021   0.367   5.861   3.329
 4041SOL    HW113022   0.412   5.939   3.287
 4041SOL    HW213023   0.321   5.807   3.258
 4042SOL     OW13024   5.383   5.177   1.723
 4042SOL    HW113025   5.355   5.098   1.777
 4042SOL    HW213026   5.347   5.167   1.630
 4043SOL     OW13027   0.069   3.410   0.803
 4043SOL    HW113028   0.102   3.420   0.897
 4043SOL    HW213029   0.048   3.314   0.785
 4044SOL     OW13030   5.213   4.890   2.600
 4044SOL    HW113031   5.163   4.805   2.586
 4044SOL    HW213032   5.270   4.882   2.682
 4045SOL     OW13033   3.022   5.418   5.645
 4045SOL    HW113034   3.050   5.329   5.610
 4045SOL    HW213035   2.925   5.417   5.666
 4046SOL     OW13036   0.965   3.994   0.630
 4046SOL    HW113037   1.061   3.966   0.634
 4046SOL    HW213038   0.947   4.037   0.541
 4047SOL     OW13039   3.632   4.149   3.427
 4047SOL    HW113040   3.682   4.130   3.343
 4047SOL    HW213041   3.545   4.192   3.405
 4048SOL     OW13042   5.209   2.223   0.526
 4048SOL    HW113043   5.298   2.263   0.544
 4048SOL    HW213044   5.137   2.290   0.544
 4049SOL     OW13045   6.477   5.994   0.212
 4049SOL    HW113046   6.549   5.987   0.143
 4049SOL    HW213047   6.513   6.040   0.293
 4050SOL     OW13048   2.155   1.122   2.052
 4050SOL    HW113049   2.172   1.028   2.081
 4050SOL    HW213050   2.242   1.165   2.025
 4051SOL     OW13051   3.102   4.212   1.025
 4051SOL    HW113052   3.117   4.149   0.949
 4051SOL    HW213053   3.005   4.234   1.032
 4052SOL     OW13054   1.105   0.388   0.893
 4052SOL    HW113055   1.062   0.411   0.980
 4052SOL    HW213056   1.107   0.289   0.882
 4053SOL     OW13057   2.518   5.859   2.102
 4053SOL    HW113058   2.489   5.942   2.054
 4053SOL    HW213059   2.521   5.876   2.201
 4054SOL     OW13060   5.219   1.610   6.404
 4054SOL    HW113061   5.190   1.565   6.489
 4054SOL    HW213062   5.166   1.573   6.327
 4055SOL     OW13063   4.622   3.598   6.064
 4055SOL    HW113064   4.644   3.641   6.151
 4055SOL    HW213065   4.625   3.666   5.991
 4056SOL     OW13066   4.257   3.475   0.058
 4056SOL    HW113067   4.290   3.404   7.026
 4056SOL    HW213068   4.200   3.540   0.008
 4057SOL     OW13069   6.547   2.237   0.714
 4057SOL    HW113070   6.546   2.191   0.803
 4057SOL    HW213071   6.633   2.286   0.703
 4058SOL     OW13072   1.349   3.772   3.865
 4058SOL    HW113073   1.300   3.737   3.785
 4058SOL    HW213074   1.442   3.734   3.866
 4059SOL     OW13075   0.047   2.124   5.152
 4059SOL    HW113076   0.065   2.029   5.128
 4059SOL    HW213077   6.992   2.154   5.109
 4060SOL     OW13078   2.243   6.783   5.976
 4060SOL    HW113079   2.195   6.697   5.989
 4060SOL    HW213080   2.210   6.828   5.893
 4061SOL     OW13081   1.872   2.844   1.952
 4061SOL    HW113082   1.867   2.744   1.953
 4061SOL    HW213083   1.820   2.881   2.029
 4062SOL     OW13084   2.656   1.001   3.029
 4062SOL    HW113085   2.578   1.064   3.032
 4062SOL    HW213086   2.741   1.053   3.038
 4063SOL     OW13087   3.939   6.603   5.861
 4063SOL    HW113088   3.912   6.515   5.902
 4063SOL    HW213089   3.863   6.667   5.866
 4064SOL     OW13090   6.299   0.108   4.576
 4064SOL    HW113091   6.211   0.104   4.529
 4064SOL    HW213092   6.287   0.080   4.672
 4065SOL     OW13093   0.917   4.540   5.898
 4065SOL    HW113094   0.851   4.599   5.852
 4065SOL    HW213095   0.877   4.503   5.982
 4066SOL     OW13096   4.813   3.992   2.324
 4066SOL    HW113097   4.785   4.038   2.240
 4066SOL    HW213098   4.821   4.060   2.397
 4067SOL     OW13099   5.047   0.329   1.602
 4067SOL    HW113100   5.020   0.359   1.510
 4067SOL    HW213101   5.128   0.271   1.596
 4068SOL     OW13102   5.460   0.285   4.565
 4068SOL    HW113103   5.375   0.233   4.557
 4068SOL    HW213104   5.533   0.226   4.600
 4069SOL     OW13105   6.406   6.090   0.811
 4069SOL    HW113106   6.400   6.003   0.762
 4069SOL    HW213107   6.489   6.139   0.784
 4070SOL     OW13108   0.217   3.574   2.750
 4070SOL    HW113109   0.167   3.506   2.696
 4070SOL    HW213110   0.310   3.582   2.716
 4071SOL     OW13111   2.908   6.948   4.701
 4071SOL    HW113112   2.842   7.022   4.691
 4071SOL    HW213113   2.997   6.976   4.664
 4072SOL     OW13114   0.043   0.571   4.983
 4072SOL    HW113115   7.008   0.495   4.978
 4072SOL    HW213116   0.129   0.546   4.939
 4073SOL     OW13117   2.730   4.355   1.714
 4073SOL    HW113118   2.681   4.442   1.718
 4073SOL    HW213119   2.828   4.371   1.729
 4074SOL     OW13120   0.053   2.677   1.801
 4074SOL    HW113121   0.118   2.631   1.862
 4074SOL    HW213122   6.994   2.632   1.806
 4075SOL     OW13123   6.531   0.623   3.772
 4075SOL    HW113124   6.573   0.584   3.690
 4075SOL    HW213125   6.545   0.722   3.773
 4076SOL     OW13126   1.540   3.762   3.252
 4076SOL    HW113127   1.545   3.718   3.341
 4076SOL    HW213128   1.582   3.853   3.257
 4077SOL     OW13129   3.817   0.660   1.690
 4077SOL    HW113130   3.729   0.618   1.712
 4077SOL    HW213131   3.802   0.741   1.633
 4078SOL     OW13132   4.876   4.128   2.555
 4078SOL    HW113133   4.837   4.215   2.585
 4078SOL    HW213134   4.974   4.138   2.541
 4079SOL     OW13135   4.565   1.075   3.033
 4079SOL    HW113136   4.526   1.093   2.942
 4079SOL    HW213137   4.607   1.159   3.068
 4080SOL     OW13138   4.131   3.573   3.993
 4080SOL    HW113139   4.033   3.571   3.974
 4080SOL    HW213140   4.153   3.505   4.062
 4081SOL     OW13141   2.694   6.979   0.283
 4081SOL    HW113142   2.658   6.916   0.215
 4081SOL    HW213143   2.647   6.964   0.370
 4082SOL     OW13144   1.396   1.511   6.161
 4082SOL    HW113145   1.437   1.581   6.220
 4082SOL    HW213146   1.451   1.428   6.164
 4083SOL     OW13147   5.888   3.715   2.360
 4083SOL    HW113148   5.863   3.743   2.453
 4083SOL    HW213149   5.942   3.788   2.318
 4084SOL     OW13150   4.006   5.792   3.097
 4084SOL    HW113151   3.930   5.813   3.035
 4084SOL    HW213152   4.070   5.730   3.052
 4085SOL     OW13153   1.394   4.578   2.654
 4085SOL    HW113154   1.337   4.654   2.686
 4085SOL    HW213155   1.465   4.560   2.722
 4086SOL     OW13156   6.233   5.053   5.305
 4086SOL    HW113157   6.214   4.958   5.330
 4086SOL    HW213158   6.147   5.101   5.289
 4087SOL     OW13159   1.266   1.496   1.249
 4087SOL    HW113160   1.339   1.552   1.210
 4087SOL    HW213161   1.180   1.514   1.201
 4088SOL     OW13162   0.402   2.140   4.897
 4088SOL    HW113163   0.479   2.185   4.853
 4088SOL    HW213164   0.324   2.204   4.901
 4089SOL     OW13165   6.579   6.711   2.550
 4089SOL    HW113166   6.639   6.634   2.527
 4089SOL    HW213167   6.617   6.796   2.514
 4090SOL     OW13168   3.384   2.495   5.574
 4090SOL    HW113169   3.463   2.476   5.515
 4090SOL    HW213170   3.353   2.588   5.559
 4091SOL     OW13171   4.346   0.118   3.135
 4091SOL    HW113172   4.328   0.153   3.227
 4091SOL    HW213173   4.390   0.189   3.081
 4092SOL     OW13174   4.136   1.889   6.742
 4092SOL    HW113175   4.110   1.799   6.707
 4092SOL    HW213176   4.234   1.890   6.763
 4093SOL     OW13177   5.480   4.336   1.428
 4093SOL    HW113178   5.535   4.257   1.401
 4093SOL    HW213179   5.383   4.316   1.413
 4094SOL     OW13180   6.021   5.948   0.514
 4094SOL    HW113181   6.085   5.874   0.535
 4094SOL    HW213182   5.957   5.919   0.443
 4095SOL     OW13183   1.273   4.889   0.281
 4095SOL    HW113184   1.192   4.929   0.323
 4095SOL    HW213185   1.268   4.789   0.289
 4096SOL     OW13186   0.738   6.387   5.667
 4096SOL    HW113187   0.727   6.385   5.767
 4096SOL    HW213188   0.764   6.479   5.639
 4097SOL     OW13189   1.780   4.042   5.900
 4097SOL    HW113190   1.782   4.012   5.805
 4097SOL    HW213191   1.700   4.101   5.915
 4098SOL     OW13192   1.554   5.614   2.005
 4098SOL    HW113193   1.591   5.580   2.092
 4098SOL    HW213194   1.454   5.622   2.012
 4099SOL     OW13195   0.141   2.743   5.888
 4099SOL    HW113196   0.151   2.662   5.830
 4099SOL    HW213197   0.223   2.755   5.943
 4100SOL     OW13198   1.809   1.182   2.935
 4100SOL    HW113199   1.715   1.148   2.941
 4100SOL    HW213200   1.859   1.155   3.018
 4101SOL     OW13201   5.698   5.829   5.949
 4101SOL    HW113202   5.618   5.779   5.984
 4101SOL    HW213203   5.738   5.883   6.023
 4102SOL     OW13204   2.807   5.300   0.786
 4102SOL    HW113205   2.717   5.318   0.826
 4102SOL    HW213206   2.870   5.272   0.858
 4103SOL     OW13207   2.210   5.297   2.558
 4103SOL    HW113208   2.222   5.360   2.482
 4103SOL    HW213209   2.113   5.284   2.576
 4104SOL     OW13210   2.521   5.679   5.204
 4104SOL    HW113211   2.445   5.730   5.166
 4104SOL    HW213212   2.582   5.649   5.131
 4105SOL     OW13213   4.021   0.419   1.611
 4105SOL    HW113214   4.119   0.424   1.589
 4105SOL    HW213215   4.004   0.468   1.697
 4106SOL     OW13216   1.781   6.767   3.098
 4106SOL    HW113217   1.739   6.851   3.129
 4106SOL    HW213218   1.836   6.785   3.017
 4107SOL     OW13219   2.767   2.155   1.333
 4107SOL    HW113220   2.838   2.208   1.379
 4107SOL    HW213221   2.794   2.139   1.238
 4108SOL     OW13222   0.616   5.437   5.586
 4108SOL    HW113223   0.535   5.475   5.541
 4108SOL    HW213224   0.639   5.493   5.665
 4109SOL     OW13225   5.975   0.182   4.751
 4109SOL    HW113226   6.037   0.242   4.700
 4109SOL    HW213227   5.938   0.232   4.830
 4110SOL     OW13228   5.035   2.583   0.383
 4110SOL    HW113229   4.957   2.577   0.321
 4110SOL    HW213230   5.008   2.553   0.474
 4111SOL     OW13231   6.156   4.632   4.394
 4111SOL    HW113232   6.165   4.568   4.318
 4111SOL    HW213233   6.062   4.630   4.428
 4112SOL     OW13234   3.512   4.597   5.331
 4112SOL    HW113235   3.597   4.649   5.340
 4112SOL    HW213236   3.485   4.560   5.420
 4113SOL     OW13237   5.357   6.099   5.746
 4113SOL    HW113238   5.283   6.124   5.810
 4113SOL    HW213239   5.374   6.001   5.752
 4114SOL     OW13240   5.584   1.788   3.468
 4114SOL    HW113241   5.504   1.833   3.429
 4114SOL    HW213242   5.667   1.823   3.424
 4115SOL     OW13243   4.743   0.602   4.786
 4115SOL    HW113244   4.717   0.642   4.698
 4115SOL    HW213245   4.786   0.673   4.843
 4116SOL     OW13246   5.516   3.659   3.029
 4116SOL    HW113247   5.520   3.569   3.072
 4116SOL    HW213248   5.465   3.653   2.943
 4117SOL     OW13249   0.604   2.614   2.788
 4117SOL    HW113250   0.545   2.692   2.807
 4117SOL    HW213251   0.618   2.606   2.689
 4118SOL     OW13252   1.226   1.136   1.616
 4118SOL    HW113253   1.318   1.173   1.601
 4118SOL    HW213254   1.158   1.205   1.591
 4119SOL     OW13255   6.136   0.814   4.509
 4119SOL    HW113256   6.077   0.893   4.519
 4119SOL    HW213257   6.092   0.746   4.449
 4120SOL     OW13258   1.840   0.231   0.311
 4120SOL    HW113259   1.904   0.227   0.233
 4120SOL    HW213260   1.851   0.319   0.357
 4121SOL     OW13261   6.686   0.248   1.236
 4121SOL    HW113262   6.608   0.186   1.226
 4121SOL    HW213263   6.757   0.225   1.169
 4122SOL     OW13264   1.086   4.394   3.357
 4122SOL    HW113265   1.156   4.382   3.286
 4122SOL    HW213266   0.997   4.368   3.319
 4123SOL     OW13267   5.726   4.611   2.077
 4123SOL    HW113268   5.698   4.543   2.144
 4123SOL    HW213269   5.734   4.568   1.987
 4124SOL     OW13270   5.594   5.960   0.286
 4124SOL    HW113271   5.606   6.053   0.252
 4124SOL    HW213272   5.568   5.963   0.382
 4125SOL     OW13273   1.439   3.123   0.399
 4125SOL    HW113274   1.358   3.120   0.340
 4125SOL    HW213275   1.514   3.168   0.350
 4126SOL     OW13276   2.042   4.483   3.041
 4126SOL    HW113277   2.075   4.499   2.948
 4126SOL    HW213278   1.995   4.394   3.044
 4127SOL     OW13279   4.627   2.562   4.571
 4127SOL    HW113280   4.678   2.510   4.640
 4127SOL    HW213281   4.539   2.518   4.554
 4128SOL     OW13282   6.445   3.032   6.772
 4128SOL    HW113283   6.534   3.025   6.815
 4128SOL    HW213284   6.426   2.948   6.721
 4129SOL     OW13285   2.763   6.721   1.889
 4129SOL    HW113286   2.696   6.762   1.826
 4129SOL    HW213287   2.763   6.621   1.877
 4130SOL     OW13288   4.734   1.241   6.837
 4130SOL    HW113289   4.708   1.228   6.741
 4130SOL    HW213290   4.790   1.163   6.866
 4131SOL     OW13291   5.743   5.839   4.428
 4131SOL    HW113292   5.707   5.865   4.338
 4131SOL    HW213293   5.738   5.739   4.438
 4132SOL     OW13294   0.213   3.087   2.345
 4132SOL    HW113295   0.299   3.138   2.359
 4132SOL    HW213296   0.191   3.036   2.428
 4133SOL     OW13297   5.101   6.415   4.005
 4133SOL    HW113298   5.128   6.402   3.909
 4133SOL    HW213299   5.108   6.511   4.029
 4134SOL     OW13300   1.873   3.048   1.426
 4134SOL    HW113301   1.883   3.105   1.345
 4134SOL    HW213302   1.804   2.977   1.409
 4135SOL     OW13303   5.863   0.585   0.641
 4135SOL    HW113304   5.929   0.659   0.654
 4135SOL    HW213305   5.838   0.546   0.729
 4136SOL     OW13306   0.820   5.243   0.157
 4136SOL    HW113307   0.838   5.192   0.073
 4136SOL    HW213308   0.891   5.312   0.169
 4137SOL     OW13309   0.464   2.181   5.264
 4137SOL    HW113310   0.441   2.095   5.218
 4137SOL    HW213311   0.380   2.227   5.293
 4138SOL     OW13312   5.606   6.523   6.470
 4138SOL    HW113313   5.569   6.611   6.499
 4138SOL    HW213314   5.696   6.537   6.429
 4139SOL     OW13315   1.342   4.087   2.059
 4139SOL    HW113316   1.440   4.068   2.059
 4139SOL    HW213317   1.310   4.096   1.965
 4140SOL     OW13318   2.232   6.774   0.656
 4140SOL    HW113319   2.307   6.829   0.692
 4140SOL    HW213320   2.188   6.725   0.731
 4141SOL     OW13321   5.224   6.908   5.697
 4141SOL    HW113322   5.141   6.939   5.651
 4141SOL    HW213323   5.227   6.808   5.696
 4142SOL     OW13324   0.262   7.019   2.115
 4142SOL    HW113325   0.245   6.920   2.107
 4142SOL    HW213326   0.350   0.011   2.074
 4143SOL     OW13327   6.235   3.849   6.879
 4143SOL    HW113328   6.141   3.823   6.854
 4143SOL    HW213329   6.265   3.795   6.958
 4144SOL     OW13330   5.160   0.722   1.625
 4144SOL    HW113331   5.068   0.747   1.595
 4144SOL    HW213332   5.155   0.678   1.714
 4145SOL     OW13333   4.301   0.736   0.950
 4145SOL    HW113334   4.282   0.800   0.876
 4145SOL    HW213335   4.323   0.646   0.911
 4146SOL     OW13336   2.972   1.356   1.728
 4146SOL    HW113337   2.885   1.323   1.766
 4146SOL    HW213338   2.957   1.390   1.635
 4147SOL     OW13339   5.510   4.032   0.187
 4147SOL    HW113340   5.553   4.017   0.098
 4147SOL    HW213341   5.415   4.001   0.183
 4148SOL     OW13342   3.227   0.416   6.347
 4148SOL    HW113343   3.275   0.351   6.288
 4148SOL    HW213344   3.129   0.397   6.345
 4149SOL     OW13345   1.804   2.548   6.260
 4149SOL    HW113346   1.774   2.549   6.164
 4149SOL    HW213347   1.838   2.457   6.283
 4150SOL     OW13348   6.644   1.276   1.400
 4150SOL    HW113349   6.691   1.237   1.321
 4150SOL    HW213350   6.708   1.332   1.453
 4151SOL     OW13351   3.099   5.983   4.482
 4151SOL    HW113352   3.133   5.890   4.466
 4151SOL    HW213353   3.085   5.997   4.580
 4152SOL     OW13354   2.865   3.740   1.275
 4152SOL    HW113355   2.965   3.740   1.277
 4152SOL    HW213356   2.831   3.828   1.307
 4153SOL     OW13357   5.872   6.664   6.998
 4153SOL    HW113358   5.833   6.702   6.914
 4153SOL    HW213359   5.810   6.594   0.005
 4154SOL     OW13360   0.911   6.916   3.536
 4154SOL    HW113361   0.995   6.964   3.512
 4154SOL    HW213362   0.849   6.979   3.583
 4155SOL     OW13363   5.460   1.472   2.445
 4155SOL    HW113364   5.450   1.557   2.497
 4155SOL    HW213365   5.399   1.403   2.483
 4156SOL     OW13366   0.377   5.660   6.226
 4156SOL    HW113367   0.405   5.715   6.148
 4156SOL    HW213368   0.433   5.576   6.229
 4157SOL     OW13369   4.250   6.067   0.838
 4157SOL    HW113370   4.214   6.106   0.753
 4157SOL    HW213371   4.210   5.976   0.852
 4158SOL     OW13372   6.608   0.883   6.405
 4158SOL    HW113373   6.681   0.837   6.455
 4158SOL    HW213374   6.637   0.898   6.310
 4159SOL     OW13375   3.545   0.958   4.065
 4159SOL    HW113376   3.537   1.042   4.119
 4159SOL    HW213377   3.523   0.879   4.123
 4160SOL     OW13378   0.961   0.729   5.973
 4160SOL    HW113379   0.896   0.803   5.959
 4160SOL    HW213380   1.054   0.765   5.967
 4161SOL     OW13381   3.116   3.712   5.097
 4161SOL    HW113382   3.159   3.636   5.144
 4161SOL    HW213383   3.019   3.717   5.123
 4162SOL     OW13384   4.728   6.956   0.807
 4162SOL    HW113385   4.809   6.934   0.861
 4162SOL    HW213386   4.682   6.871   0.780
 4163SOL     OW13387   4.115   6.440   1.375
 4163SOL    HW113388   4.043   6.474   1.314
 4163SOL    HW213389   4.092   6.348   1.407
 4164SOL     OW13390   5.789   1.548   0.147
 4164SOL    HW113391   5.758   1.454   0.135
 4164SOL    HW213392   5.726   1.597   0.208
 4165SOL     OW13393   3.486   1.219   4.962
 4165SOL    HW113394   3.586   1.214   4.962
 4165SOL    HW213395   3.449   1.126   4.966
 4166SOL     OW13396   5.611   2.357   2.550
 4166SOL    HW113397   5.559   2.288   2.601
 4166SOL    HW213398   5.566   2.445   2.557
 4167SOL     OW13399   3.816   6.236   4.758
 4167SOL    HW113400   3.891   6.198   4.703
 4167SOL    HW213401   3.793   6.327   4.722
 4168SOL     OW13402   5.748   3.274   6.909
 4168SOL    HW113403   5.841   3.237   6.897
 4168SOL    HW213404   5.754   3.369   6.938
 4169SOL     OW13405   5.158   4.386   0.076
 4169SOL    HW113406   5.230   4.408   0.141
 4169SOL    HW213407   5.149   4.287   0.067
 4170SOL     OW13408   0.677   3.076   5.293
 4170SOL    HW113409   0.688   3.026   5.379
 4170SOL    HW213410   0.721   3.165   5.300
 4171SOL     OW13411   6.875   6.854   5.756
 4171SOL    HW113412   6.915   6.866   5.665
 4171SOL    HW213413   6.825   6.938   5.781
 4172SOL     OW13414   3.522   3.322   0.157
 4172SOL    HW113415   3.507   3.261   0.234
 4172SOL    HW213416   3.434   3.344   0.114
 4173SOL     OW13417   5.582   1.593   5.800
 4173SOL    HW113418   5.534   1.673   5.764
 4173SOL    HW213419   5.672   1.621   5.834
 4174SOL     OW13420   2.427   6.755   3.900
 4174SOL    HW113421   2.416   6.847   3.862
 4174SOL    HW213422   2.472   6.762   3.989
 4175SOL     OW13423   1.859   3.192   6.447
 4175SOL    HW113424   1.956   3.185   6.470
 4175SOL    HW213425   1.850   3.202   6.348
 4176SOL     OW13426   4.590   0.064   5.229
 4176SOL    HW113427   4.649   7.023   5.191
 4176SOL    HW213428   4.519   0.088   5.162
 4177SOL     OW13429   5.312   6.183   4.005
 4177SOL    HW113430   5.277   6.113   3.942
 4177SOL    HW213431   5.249   6.260   4.008
 4178SOL     OW13432   2.601   6.286   0.915
 4178SOL    HW113433   2.687   6.266   0.868
 4178SOL    HW213434   2.612   6.270   1.013
 4179SOL     OW13435   3.901   1.521   0.292
 4179SOL    HW113436   3.857   1.484   0.374
 4179SOL    HW213437   3.831   1.544   0.224
 4180SOL     OW13438   3.940   4.410   7.016
 4180SOL    HW113439   3.920   4.322   0.028
 4180SOL    HW213440   3.856   4.449   6.978
 4181SOL     OW13441   5.223   6.333   6.428
 4181SOL    HW113442   5.164   6.290   6.497
 4181SOL    HW213443   5.204   6.294   6.338
 4182SOL     OW13444   6.090   5.217   5.570
 4182SOL    HW113445   6.183   5.241   5.542
 4182SOL    HW213446   6.088   5.121   5.600
 4183SOL     OW13447   5.305   2.561   6.922
 4183SOL    HW113448   5.222   2.609   6.897
 4183SOL    HW213449   5.378   2.628   6.938
 4184SOL     OW13450   3.321   5.559   4.095
 4184SOL    HW113451   3.393   5.551   4.027
 4184SOL    HW213452   3.360   5.550   4.187
 4185SOL     OW13453   4.320   4.675   3.210
 4185SOL    HW113454   4.351   4.615   3.137
 4185SOL    HW213455   4.368   4.763   3.204
 4186SOL     OW13456   1.964   4.762   0.947
 4186SOL    HW113457   2.012   4.817   0.878
 4186SOL    HW213458   1.911   4.822   1.006
 4187SOL     OW13459   1.379   3.469   5.810
 4187SOL    HW113460   1.462   3.416   5.826
 4187SOL    HW213461   1.327   3.476   5.895
 4188SOL     OW13462   5.188   0.387   6.003
 4188SOL    HW113463   5.155   0.394   6.097
 4188SOL    HW213464   5.288   0.377   6.004
 4189SOL     OW13465   3.699   5.291   3.783
 4189SOL    HW113466   3.646   5.208   3.766
 4189SOL    HW213467   3.788   5.284   3.737
 4190SOL     OW13468   6.768   5.660   1.738
 4190SOL    HW113469   6.814   5.707   1.663
 4190SOL    HW213470   6.681   5.623   1.705
 4191SOL     OW13471   4.879   2.884   6.008
 4191SOL    HW113472   4.958   2.856   6.063
 4191SOL    HW213473   4.879   2.832   5.922
 4192SOL     OW13474   1.899   3.482   6.533
 4192SOL    HW113475   1.859   3.570   6.558
 4192SOL    HW213476   1.831   3.410   6.543
 4193SOL     OW13477   4.902   6.575   1.727
 4193SOL    HW113478   4.976   6.522   1.769
 4193SOL    HW213479   4.893   6.550   1.631
 4194SOL     OW13480   5.734   0.059   6.829
 4194SOL    HW113481   5.636   0.046   6.812
 4194SOL    HW213482   5.784   7.011   6.792
 4195SOL     OW13483   1.803   6.055   0.467
 4195SOL    HW113484   1.738   6.094   0.533
 4195SOL    HW213485   1.889   6.104   0.471
 4196SOL     OW13486   6.169   3.172   3.030
 4196SOL    HW113487   6.159   3.151   2.933
 4196SOL    HW213488   6.202   3.266   3.041
 4197SOL     OW13489   4.240   0.810   6.767
 4197SOL    HW113490   4.206   0.888   6.821
 4197SOL    HW213491   4.299   0.753   6.825
 4198SOL     OW13492   6.245   2.096   1.769
 4198SOL    HW113493   6.260   2.090   1.670
 4198SOL    HW213494   6.173   2.031   1.796
 4199SOL     OW13495   1.232   3.561   0.071
 4199SOL    HW113496   1.263   3.587   7.010
 4199SOL    HW213497   1.202   3.643   0.120
 4200SOL     OW13498   5.197   1.946   2.657
 4200SOL    HW113499   5.239   1.891   2.729
 4200SOL    HW213500   5.219   1.906   2.567
 4201SOL     OW13501   4.717   0.243   5.683
 4201SOL    HW113502   4.721   0.218   5.586
 4201SOL    HW213503   4.723   0.343   5.692
 4202SOL     OW13504   4.635   3.988   1.339
 4202SOL    HW113505   4.675   3.929   1.410
 4202SOL    HW213506   4.703   4.053   1.307
 4203SOL     OW13507   6.366   3.940   4.541
 4203SOL    HW113508   6.358   4.021   4.484
 4203SOL    HW213509   6.446   3.887   4.512
 4204SOL     OW13510   2.594   4.121   6.085
 4204SOL    HW113511   2.651   4.157   6.011
 4204SOL    HW213512   2.624   4.028   6.107
 4205SOL     OW13513   5.612   5.259   6.297
 4205SOL    HW113514   5.686   5.314   6.259
 4205SOL    HW213515   5.537   5.255   6.231
 4206SOL     OW13516   2.584   2.515   5.065
 4206SOL    HW113517   2.668   2.465   5.045
 4206SOL    HW213518   2.607   2.609   5.092
 4207SOL     OW13519   2.979   2.283   1.419
 4207SOL    HW113520   2.964   2.379   1.394
 4207SOL    HW213521   3.035   2.279   1.502
 4208SOL     OW13522   1.429   2.447   3.192
 4208SOL    HW113523   1.356   2.463   3.126
 4208SOL    HW213524   1.396   2.385   3.264
 4209SOL     OW13525   6.704   5.161   2.948
 4209SOL    HW113526   6.654   5.151   2.862
 4209SOL    HW213527   6.702   5.075   2.999
 4210SOL     OW13528   3.487   5.492   5.516
 4210SOL    HW113529   3.416   5.492   5.586
 4210SOL    HW213530   3.558   5.426   5.541
 4211SOL     OW13531   4.881   3.211   6.447
 4211SOL    HW113532   4.912   3.213   6.542
 4211SOL    HW213533   4.876   3.116   6.415
 4212SOL     OW13534   0.198   2.972   2.597
 4212SOL    HW113535   0.101   2.953   2.609
 4212SOL    HW213536   0.244   2.969   2.686
 4213SOL     OW13537   2.991   1.035   3.989
 4213SOL    HW113538   2.978   1.118   3.935
 4213SOL    HW213539   2.903   1.009   4.030
 4214SOL     OW13540   6.707   5.898   4.113
 4214SOL    HW113541   6.617   5.941   4.107
 4214SOL    HW213542   6.716   5.852   4.202
 4215SOL     OW13543   6.156   6.877   4.849
 4215SOL    HW113544   6.172   6.938   4.926
 4215SOL    HW213545   6.076   6.908   4.798
 4216SOL     OW13546   1.640   5.588   2.690
 4216SOL    HW113547   1.636   5.558   2.785
 4216SOL    HW213548   1.657   5.509   2.631
 4217SOL     OW13549   0.607   0.543   2.831
 4217SOL    HW113550   0.526   0.487   2.815
 4217SOL    HW213551   0.596   0.631   2.784
 4218SOL     OW13552   2.768   0.416   2.071
 4218SOL    HW113553   2.806   0.329   2.101
 4218SOL    HW213554   2.816   0.448   1.990
 4219SOL     OW13555   2.817   5.175   2.040
 4219SOL    HW113556   2.809   5.269   2.006
 4219SOL    HW213557   2.820   5.112   1.963
 4220SOL     OW13558   5.321   1.819   0.734
 4220SOL    HW113559   5.268   1.743   0.698
 4220SOL    HW213560   5.262   1.900   0.742
 4221SOL     OW13561   0.558   6.568   0.897
 4221SOL    HW113562   0.478   6.600   0.948
 4221SOL    HW213563   0.585   6.478   0.930
 4222SOL     OW13564   5.608   3.856   4.384
 4222SOL    HW113565   5.649   3.948   4.390
 4222SOL    HW213566   5.601   3.829   4.289
 4223SOL     OW13567   3.465   4.174   2.485
 4223SOL    HW113568   3.475   4.075   2.499
 4223SOL    HW213569   3.542   4.208   2.432
 4224SOL     OW13570   4.704   4.174   5.240
 4224SOL    HW113571   4.782   4.218   5.284
 4224SOL    HW213572   4.644   4.135   5.309
 4225SOL     OW13573   0.553   1.581   6.104
 4225SOL    HW113574   0.546   1.483   6.119
 4225SOL    HW213575   0.489   1.609   6.032
 4226SOL     OW13576   4.958   5.312   4.087
 4226SOL    HW113577   4.948   5.220   4.124
 4226SOL    HW213578   5.034   5.314   4.022
 4227SOL     OW13579   6.158   5.946   1.082
 4227SOL    HW113580   6.104   5.882   1.028
 4227SOL    HW213581   6.101   5.984   1.155
 4228SOL     OW13582   1.777   5.306   3.530
 4228SOL    HW113583   1.806   5.282   3.622
 4228SOL    HW213584   1.792   5.404   3.514
 4229SOL     OW13585   6.342   6.330   6.150
 4229SOL    HW113586   6.403   6.401   6.184
 4229SOL    HW213587   6.355   6.246   6.202
 4230SOL     OW13588   0.316   2.141   2.318
 4230SOL    HW113589   0.314   2.060   2.260
 4230SOL    HW213590   0.242   2.203   2.290
 4231SOL     OW13591   7.018   0.363   5.951
 4231SOL    HW113592   0.028   0.368   6.042
 4231SOL    HW213593   6.930   0.315   5.955
 4232SOL     OW13594   2.223   4.527   2.405
 4232SOL    HW113595   2.191   4.486   2.491
 4232SOL    HW213596   2.323   4.524   2.401
 4233SOL     OW13597   4.986   5.307   2.497
 4233SOL    HW113598   5.049   5.230   2.487
 4233SOL    HW213599   4.991   5.365   2.416
 4234SOL     OW13600   2.916   5.283   6.346
 4234SOL    HW113601   2.947   5.351   6.280
 4234SOL    HW213602   2.884   5.328   6.429
 4235SOL     OW13603   6.554   6.056   0.461
 4235SOL    HW113604   6.501   5.985   0.507
 4235SOL    HW213605   6.503   6.142   0.463
 4236SOL     OW13606   0.596   5.551   3.947
 4236SOL    HW113607   0.497   5.559   3.937
 4236SOL    HW213608   0.626   5.607   4.025
 4237SOL     OW13609   0.064   5.177   4.766
 4237SOL    HW113610   0.099   5.192   4.859
 4237SOL    HW213611   0.126   5.115   4.717
 4238SOL     OW13612   1.660   5.884   3.201
 4238SOL    HW113613   1.757   5.889   3.178
 4238SOL    HW213614   1.607   5.865   3.118
 4239SOL     OW13615   3.993   1.130   3.570
 4239SOL    HW113616   4.058   1.206   3.579
 4239SOL    HW213617   3.915   1.159   3.514
 4240SOL     OW13618   4.344   0.164   1.492
 4240SOL    HW113619   4.250   0.192   1.470
 4240SOL    HW213620   4.353   0.157   1.592
 4241SOL     OW13621   0.791   4.333   6.365
 4241SOL    HW113622   0.857   4.269   6.404
 4241SOL    HW213623   0.719   4.351   6.432
 4242SOL     OW13624   3.573   2.121   2.477
 4242SOL    HW113625   3.490   2.166   2.511
 4242SOL    HW213626   3.641   2.118   2.550
 4243SOL     OW13627   2.107   2.276   2.853
 4243SOL    HW113628   2.143   2.238   2.768
 4243SOL    HW213629   2.150   2.231   2.931
 4244SOL     OW13630   2.660   2.685   5.587
 4244SOL    HW113631   2.611   2.754   5.533
 4244SOL    HW213632   2.604   2.658   5.665
 4245SOL     OW13633   6.334   0.622   5.595
 4245SOL    HW113634   6.387   0.593   5.515
 4245SOL    HW213635   6.341   0.722   5.605
 4246SOL     OW13636   0.903   5.355   6.195
 4246SOL    HW113637   0.866   5.406   6.117
 4246SOL    HW213638   0.828   5.319   6.250
 4247SOL     OW13639   0.397   4.752   5.282
 4247SOL    HW113640   0.474   4.807   5.316
 4247SOL    HW213641   0.311   4.796   5.306
 4248SOL     OW13642   1.890   3.467   6.912
 4248SOL    HW113643   1.925   3.477   7.005
 4248SOL    HW213644   1.816   3.533   6.897
 4249SOL     OW13645   4.965   3.358   6.193
 4249SOL    HW113646   4.938   3.267   6.163
 4249SOL    HW213647   4.917   3.382   6.278
 4250SOL     OW13648   0.200   4.195   3.774
 4250SOL    HW113649   0.226   4.229   3.683
 4250SOL    HW213650   0.186   4.096   3.769
 4251SOL     OW13651   5.677   4.817   6.140
 4251SOL    HW113652   5.703   4.913   6.125
 4251SOL    HW213653   5.695   4.792   6.235
 4252SOL     OW13654   6.732   4.818   5.798
 4252SOL    HW113655   6.661   4.848   5.861
 4252SOL    HW213656   6.803   4.769   5.849
 4253SOL     OW13657   3.101   0.118   3.574
 4253SOL    HW113658   3.064   0.119   3.481
 4253SOL    HW213659   3.039   0.164   3.636
 4254SOL     OW13660   3.823   3.671   3.620
 4254SOL    HW113661   3.916   3.642   3.601
 4254SOL    HW213662   3.758   3.608   3.576
 4255SOL     OW13663   0.714   1.941   4.687
 4255SOL    HW113664   0.623   1.900   4.694
 4255SOL    HW213665   0.737   1.952   4.590
 4256SOL     OW13666   1.238   0.701   1.317
 4256SOL    HW113667   1.254   0.738   1.408
 4256SOL    HW213668   1.307   0.631   1.297
 4257SOL     OW13669   4.300   2.378   4.745
 4257SOL    HW113670   4.224   2.331   4.701
 4257SOL    HW213671   4.272   2.408   4.836
 4258SOL     OW13672   5.561   6.258   2.009
 4258SOL    HW113673   5.648   6.214   1.989
 4258SOL    HW213674   5.489   6.214   1.955
 4259SOL     OW13675   3.244   3.005   1.675
 4259SOL    HW113676   3.192   2.924   1.647
 4259SOL    HW213677   3.198   3.049   1.752
 4260SOL     OW13678   4.155   5.583   4.874
 4260SOL    HW113679   4.125   5.499   4.919
 4260SOL    HW213680   4.241   5.613   4.914
 4261SOL     OW13681   0.984   1.290   2.670
 4261SOL    HW113682   1.007   1.221   2.601
 4261SOL    HW213683   0.890   1.276   2.701
 4262SOL     OW13684   1.239   6.909   5.130
 4262SOL    HW113685   1.333   6.894   5.160
 4262SOL    HW213686   1.237   6.922   5.031
 4263SOL     OW13687   4.623   5.897   0.036
 4263SOL    HW113688   4.579   5.926   0.121
 4263SOL    HW213689   4.557   5.906   6.991
 4264SOL     OW13690   1.951   0.939   1.173
 4264SOL    HW113691   1.925   1.003   1.101
 4264SOL    HW213692   2.032   0.972   1.220
 4265SOL     OW13693   2.406   1.633   1.202
 4265SOL    HW113694   2.401   1.732   1.189
 4265SOL    HW213695   2.386   1.588   1.115
 4266SOL     OW13696   2.442   4.951   0.303
 4266SOL    HW113697   2.386   4.972   0.222
 4266SOL    HW213698   2.535   4.984   0.288
 4267SOL     OW13699   1.509   3.313   5.065
 4267SOL    HW113700   1.541   3.393   5.014
 4267SOL    HW213701   1.584   3.275   5.118
 4268SOL     OW13702   0.578   1.918   0.932
 4268SOL    HW113703   0.588   1.836   0.876
 4268SOL    HW213704   0.570   1.999   0.873
 4269SOL     OW13705   3.120   3.966   1.170
 4269SOL    HW113706   3.023   3.988   1.160
 4269SOL    HW213707   3.174   4.022   1.108
 4270SOL     OW13708   3.780   2.948   0.106
 4270SOL    HW113709   3.823   2.917   0.021
 4270SOL    HW213710   3.772   3.047   0.105
 4271SOL     OW13711   1.897   0.565   0.837
 4271SOL    HW113712   1.857   0.654   0.861
 4271SOL    HW213713   1.978   0.549   0.892
 4272SOL     OW13714   1.293   4.821   3.663
 4272SOL    HW113715   1.277   4.795   3.758
 4272SOL    HW213716   1.249   4.756   3.602
 4273SOL     OW13717   0.166   6.336   3.395
 4273SOL    HW113718   0.121   6.392   3.325
 4273SOL    HW213719   0.136   6.241   3.387
 4274SOL     OW13720   1.359   0.352   3.428
 4274SOL    HW113721   1.275   0.297   3.432
 4274SOL    HW213722   1.363   0.401   3.341
 4275SOL     OW13723   0.295   0.487   6.018
 4275SOL    HW113724   0.225   0.513   5.951
 4275SOL    HW213725   0.251   0.459   6.103
 4276SOL     OW13726   2.069   3.217   3.193
 4276SOL    HW113727   2.080   3.311   3.161
 4276SOL    HW213728   2.122   3.203   3.277
 4277SOL     OW13729   0.673   6.337   5.934
 4277SOL    HW113730   0.585   6.345   5.982
 4277SOL    HW213731   0.741   6.394   5.980
 4278SOL     OW13732   1.430   6.498   6.382
 4278SOL    HW113733   1.422   6.460   6.290
 4278SOL    HW213734   1.511   6.460   6.427
 4279SOL     OW13735   3.982   5.838   3.805
 4279SOL    HW113736   4.032   5.923   3.790
 4279SOL    HW213737   4.046   5.766   3.830
 4280SOL     OW13738   4.913   3.157   4.302
 4280SOL    HW113739   4.852   3.161   4.382
 4280SOL    HW213740   4.866   3.108   4.229
 4281SOL     OW13741   2.179   4.121   4.532
 4281SOL    HW113742   2.207   4.089   4.623
 4281SOL    HW213743   2.248   4.183   4.496
 4282SOL     OW13744   1.223   0.880   6.972
 4282SOL    HW113745   1.317   0.850   6.989
 4282SOL    HW213746   1.192   0.935   0.019
 4283SOL     OW13747   2.785   1.616   3.768
 4283SOL    HW113748   2.708   1.651   3.820
 4283SOL    HW213749   2.864   1.675   3.781
 4284SOL     OW13750   6.765   2.836   2.869
 4284SOL    HW113751   6.788   2.790   2.784
 4284SOL    HW213752   6.759   2.935   2.853
 4285SOL     OW13753   0.888   6.559   4.069
 4285SOL    HW113754   0.983   6.589   4.075
 4285SOL    HW213755   0.885   6.460   4.061
 4286SOL     OW13756   5.147   5.466   0.596
 4286SOL    HW113757   5.110   5.440   0.685
 4286SOL    HW213758   5.209   5.395   0.564
 4287SOL     OW13759   3.976   5.758   6.092
 4287SOL    HW113760   4.005   5.673   6.047
 4287SOL    HW213761   3.889   5.788   6.053
 4288SOL     OW13762   0.545   6.406   4.542
 4288SOL    HW113763   0.612   6.361   4.482
 4288SOL    HW213764   0.467   6.436   4.487
 4289SOL     OW13765   0.946   4.427   6.689
 4289SOL    HW113766   0.892   4.363   6.744
 4289SOL    HW213767   0.980   4.501   6.747
 4290SOL     OW13768   1.385   1.490   2.494
 4290SOL    HW113769   1.307   1.550   2.475
 4290SOL    HW213770   1.426   1.459   2.408
 4291SOL     OW13771   6.714   3.354   1.720
 4291SOL    HW113772   6.779   3.430   1.720
 4291SOL    HW213773   6.631   3.381   1.670
 4292SOL     OW13774   5.722   6.129   5.312
 4292SOL    HW113775   5.704   6.183   5.394
 4292SOL    HW213776   5.760   6.189   5.241
 4293SOL     OW13777   0.774   1.919   0.393
 4293SOL    HW113778   0.845   1.986   0.372
 4293SOL    HW213779   0.717   1.905   0.312
 4294SOL     OW13780   4.798   2.325   5.412
 4294SOL    HW113781   4.780   2.236   5.369
 4294SOL    HW213782   4.733   2.339   5.487
 4295SOL     OW13783   3.111   4.907   5.694
 4295SOL    HW113784   3.101   4.936   5.789
 4295SOL    HW213785   3.022   4.880   5.658
 4296SOL     OW13786   2.080   1.721   2.537
 4296SOL    HW113787   2.019   1.642   2.529
 4296SOL    HW213788   2.162   1.705   2.482
 4297SOL     OW13789   5.766   0.200   0.049
 4297SOL    HW113790   5.766   0.113   7.029
 4297SOL    HW213791   5.831   0.263   0.007
 4298SOL     OW13792   1.478   4.661   1.826
 4298SOL    HW113793   1.422   4.592   1.873
 4298SOL    HW213794   1.429   4.695   1.746
 4299SOL     OW13795   1.226   5.475   4.871
 4299SOL    HW113796   1.147   5.419   4.897
 4299SOL    HW213797   1.258   5.447   4.780
 4300SOL     OW13798   6.182   0.075   5.843
 4300SOL    HW113799   6.113   0.146   5.857
 4300SOL    HW213800   6.153   7.020   5.887
 4301SOL     OW13801   2.744   0.486   0.676
 4301SOL    HW113802   2.696   0.573   0.689
 4301SOL    HW213803   2.692   0.428   0.614
 4302SOL     OW13804   0.667   0.422   0.380
 4302SOL    HW113805   0.735   0.462   0.319
 4302SOL    HW213806   0.605   0.493   0.412
 4303SOL     OW13807   0.451   4.381   2.283
 4303SOL    HW113808   0.541   4.360   2.244
 4303SOL    HW213809   0.436   4.480   2.281
 4304SOL     OW13810   2.320   3.412   6.194
 4304SOL    HW113811   2.298   3.370   6.282
 4304SOL    HW213812   2.263   3.492   6.180
 4305SOL     OW13813   0.705   1.314   5.067
 4305SOL    HW113814   0.614   1.276   5.046
 4305SOL    HW213815   0.757   1.246   5.119
 4306SOL     OW13816   5.947   5.230   5.816
 4306SOL    HW113817   6.021   5.236   5.883
 4306SOL    HW213818   5.986   5.227   5.724
 4307SOL     OW13819   6.321   3.618   1.155
 4307SOL    HW113820   6.351   3.684   1.224
 4307SOL    HW213821   6.343   3.652   1.064
 4308SOL     OW13822   3.312   0.306   5.400
 4308SOL    HW113823   3.342   0.366   5.326
 4308SOL    HW213824   3.281   0.219   5.362
 4309SOL     OW13825   1.007   0.684   1.181
 4309SOL    HW113826   1.012   0.598   1.130
 4309SOL    HW213827   1.088   0.693   1.239
 4310SOL     OW13828   1.634   6.956   2.661
 4310SOL    HW113829   1.629   6.886   2.732
 4310SOL    HW213830   1.553   7.015   2.666
 4311SOL     OW13831   1.149   5.041   5.130
 4311SOL    HW113832   1.079   4.982   5.090
 4311SOL    HW213833   1.237   4.995   5.126
 4312SOL     OW13834   1.716   5.797   2.197
 4312SOL    HW113835   1.623   5.821   2.171
 4312SOL    HW213836   1.739   5.843   2.283
 4313SOL     OW13837   4.898   1.265   1.023
 4313SOL    HW113838   4.869   1.255   1.119
 4313SOL    HW213839   4.980   1.210   1.008
 4314SOL     OW13840   6.920   2.748   1.395
 4314SOL    HW113841   6.853   2.818   1.369
 4314SOL    HW213842   6.995   2.791   1.446
 4315SOL     OW13843   1.028   1.064   1.826
 4315SOL    HW113844   0.989   0.972   1.822
 4315SOL    HW213845   1.098   1.074   1.755
 4316SOL     OW13846   6.648   1.476   2.276
 4316SOL    HW113847   6.633   1.569   2.308
 4316SOL    HW213848   6.570   1.419   2.304
 4317SOL     OW13849   3.829   1.149   3.127
 4317SOL    HW113850   3.903   1.087   3.154
 4317SOL    HW213851   3.742   1.100   3.130
 4318SOL     OW13852   0.187   2.318   4.924
 4318SOL    HW113853   0.120   2.288   4.992
 4318SOL    HW213854   0.195   2.418   4.926
 4319SOL     OW13855   4.423   3.067   6.281
 4319SOL    HW113856   4.480   2.993   6.316
 4319SOL    HW213857   4.464   3.155   6.307
 4320SOL     OW13858   0.191   6.825   3.600
 4320SOL    HW113859   0.258   6.824   3.675
 4320SOL    HW213860   0.099   6.829   3.639
 4321SOL     OW13861   0.246   0.129   4.219
 4321SOL    HW113862   0.186   0.166   4.149
 4321SOL    HW213863   0.245   0.189   4.299
 4322SOL     OW13864   6.640   1.110   0.025
 4322SOL    HW113865   6.646   1.031   0.086
 4322SOL    HW213866   6.705   1.098   6.979
 4323SOL     OW13867   0.081   2.639   4.336
 4323SOL    HW113868   0.096   2.736   4.322
 4323SOL    HW213869   0.066   2.594   4.248
 4324SOL     OW13870   5.987   2.674   5.530
 4324SOL    HW113871   6.047   2.604   5.570
 4324SOL    HW213872   5.895   2.663   5.568
 4325SOL     OW13873   2.572   2.237   6.426
 4325SOL    HW113874   2.664   2.277   6.423
 4325SOL    HW213875   2.580   2.137   6.422
 4326SOL     OW13876   0.218   2.265   5.323
 4326SOL    HW113877   0.141   2.203   5.308
 4326SOL    HW213878   0.185   2.348   5.369
 4327SOL     OW13879   4.740   0.481   3.196
 4327SOL    HW113880   4.687   0.552   3.244
 4327SOL    HW213881   4.769   0.411   3.261
 4328SOL     OW13882   6.237   5.081   0.929
 4328SOL    HW113883   6.325   5.066   0.884
 4328SOL    HW213884   6.248   5.072   1.028
 4329SOL     OW13885   5.162   1.385   6.091
 4329SOL    HW113886   5.252   1.349   6.116
 4329SOL    HW213887   5.122   1.431   6.171
 4330SOL     OW13888   0.876   0.294   6.453
 4330SOL    HW113889   0.810   0.238   6.501
 4330SOL    HW213890   0.865   0.390   6.480
 4331SOL     OW13891   5.490   2.960   6.188
 4331SOL    HW113892   5.437   2.923   6.264
 4331SOL    HW213893   5.459   3.054   6.169
 4332SOL     OW13894   5.993   4.716   2.040
 4332SOL    HW113895   5.913   4.656   2.039
 4332SOL    HW213896   6.047   4.700   1.957
 4333SOL     OW13897   6.586   1.869   4.989
 4333SOL    HW113898   6.684   1.855   4.973
 4333SOL    HW213899   6.534   1.827   4.914
 4334SOL     OW13900   3.999   6.810   1.631
 4334SOL    HW113901   4.095   6.821   1.657
 4334SOL    HW213902   3.954   6.748   1.694
 4335SOL     OW13903   3.831   4.331   6.356
 4335SOL    HW113904   3.789   4.395   6.293
 4335SOL    HW213905   3.866   4.252   6.305
 4336SOL     OW13906   1.014   0.670   5.661
 4336SOL    HW113907   0.988   0.765   5.644
 4336SOL    HW213908   0.936   0.621   5.699
 4337SOL     OW13909   1.035   5.818   6.171
 4337SOL    HW113910   0.955   5.878   6.172
 4337SOL    HW213911   1.005   5.723   6.184
 4338SOL     OW13912   5.375   6.341   2.920
 4338SOL    HW113913   5.327   6.408   2.976
 4338SOL    HW213914   5.357   6.358   2.824
 4339SOL     OW13915   6.761   1.078   0.429
 4339SOL    HW113916   6.704   1.160   0.422
 4339SOL    HW213917   6.756   1.026   0.344
 4340SOL     OW13918   4.932   3.574   1.488
 4340SOL    HW113919   4.929   3.626   1.574
 4340SOL    HW213920   4.856   3.510   1.485
 4341SOL     OW13921   1.523   3.522   0.729
 4341SOL    HW113922   1.549   3.570   0.812
 4341SOL    HW213923   1.444   3.567   0.687
 4342SOL     OW13924   6.994   2.628   3.022
 4342SOL    HW113925   0.050   2.665   2.988
 4342SOL    HW213926   6.943   2.587   2.945
 4343SOL     OW13927   3.438   3.827   1.559
 4343SOL    HW113928   3.397   3.887   1.490
 4343SOL    HW213929   3.437   3.874   1.648
 4344SOL     OW13930   2.465   3.298   1.686
 4344SOL    HW113931   2.497   3.214   1.729
 4344SOL    HW213932   2.419   3.355   1.755
 4345SOL     OW13933   2.852   0.433   5.819
 4345SOL    HW113934   2.857   0.528   5.847
 4345SOL    HW213935   2.756   0.406   5.808
 4346SOL     OW13936   6.977   3.492   1.922
 4346SOL    HW113937   7.007   3.397   1.930
 4346SOL    HW213938   6.988   3.523   1.827
 4347SOL     OW13939   5.017   6.261   2.696
 4347SOL    HW113940   5.078   6.194   2.652
 4347SOL    HW213941   4.927   6.220   2.710
 4348SOL     OW13942   1.062   3.179   0.373
 4348SOL    HW113943   1.092   3.237   0.298
 4348SOL    HW213944   1.057   3.084   0.343
 4349SOL     OW13945   5.800   1.215   0.949
 4349SOL    HW113946   5.885   1.261   0.920
 4349SOL    HW213947   5.808   1.189   1.046
 4350SOL     OW13948   3.343   0.446   3.723
 4350SOL    HW113949   3.249   0.474   3.741
 4350SOL    HW213950   3.402   0.476   3.798
 4351SOL     OW13951   3.636   0.128   0.151
 4351SOL    HW113952   3.668   0.102   0.059
 4351SOL    HW213953   3.545   0.090   0.166
 4352SOL     OW13954   6.099   1.702   1.476
 4352SOL    HW113955   6.049   1.738   1.397
 4352SOL    HW213956   6.033   1.676   1.548
 4353SOL     OW13957   3.124   5.835   0.690
 4353SOL    HW113958   3.028   5.855   0.668
 4353SOL    HW213959   3.130   5.800   0.783
 4354SOL     OW13960   2.716   1.714   1.464
 4354SOL    HW113961   2.744   1.771   1.542
 4354SOL    HW213962   2.719   1.769   1.380
 4355SOL     OW13963   4.685   0.042   6.298
 4355SOL    HW113964   4.698   0.139   6.319
 4355SOL    HW213965   4.703   7.018   6.380
 4356SOL     OW13966   3.582   3.775   1.115
 4356SOL    HW113967   3.593   3.677   1.130
 4356SOL    HW213968   3.575   3.793   1.016
 4357SOL     OW13969   5.376   0.667   0.524
 4357SOL    HW113970   5.279   0.658   0.548
 4357SOL    HW213971   5.412   0.577   0.498
 4358SOL     OW13972   6.311   0.436   0.688
 4358SOL    HW113973   6.375   0.365   0.715
 4358SOL    HW213974   6.219   0.397   0.679
 4359SOL     OW13975   0.161   3.877   4.446
 4359SOL    HW113976   0.079   3.832   4.482
 4359SOL    HW213977   0.204   3.817   4.378
 4360SOL     OW13978   3.046   3.185   1.455
 4360SOL    HW113979   2.951   3.162   1.475
 4360SOL    HW213980   3.086   3.232   1.534
 4361SOL     OW13981   5.197   2.068   2.938
 4361SOL    HW113982   5.186   2.130   2.861
 4361SOL    HW213983   5.240   1.983   2.906
 4362SOL     OW13984   4.850   3.968   2.798
 4362SOL    HW113985   4.868   4.015   2.712
 4362SOL    HW213986   4.761   3.921   2.793
 4363SOL     OW13987   5.220   0.107   6.614
 4363SOL    HW113988   5.249   0.027   6.561
 4363SOL    HW213989   5.139   0.147   6.571
 4364SOL     OW13990   4.462   4.040   5.419
 4364SOL    HW113991   4.442   3.943   5.405
 4364SOL    HW213992   4.398   4.095   5.365
 4365SOL     OW13993   4.766   2.746   0.231
 4365SOL    HW113994   4.764   2.696   0.145
 4365SOL    HW213995   4.768   2.844   0.213
 4366SOL     OW13996   4.784   4.967   0.550
 4366SOL    HW113997   4.786   4.868   0.532
 4366SOL    HW213998   4.829   4.985   0.637
 4367SOL     OW13999   5.859   6.390   1.240
 4367SOL    HW114000   5.771   6.427   1.208
 4367SOL    HW214001   5.849   6.292   1.255
 4368SOL     OW14002   4.240   5.813   2.166
 4368SOL    HW114003   4.275   5.805   2.072
 4368SOL    HW214004   4.233   5.721   2.206
 4369SOL     OW14005   3.016   5.553   1.337
 4369SOL    HW114006   2.970   5.478   1.385
 4369SOL    HW214007   3.102   5.520   1.298
 4370SOL     OW14008   5.303   3.871   1.380
 4370SOL    HW114009   5.210   3.872   1.418
 4370SOL    HW214010   5.323   3.959   1.338
 4371SOL     OW14011   1.380   1.719   1.832
 4371SOL    HW114012   1.387   1.636   1.776
 4371SOL    HW214013   1.303   1.773   1.800
 4372SOL     OW14014   4.439   0.029   3.830
 4372SOL    HW114015   4.435   7.021   3.922
 4372SOL    HW214016   4.484   0.118   3.832
 4373SOL     OW14017   1.004   1.876   5.300
 4373SOL    HW114018   1.041   1.950   5.356
 4373SOL    HW214019   0.904   1.876   5.306
 4374SOL     OW14020   3.948   1.280   0.037
 4374SOL    HW114021   3.905   1.366   0.010
 4374SOL    HW214022   4.048   1.289   0.031
 4375SOL     OW14023   3.451   5.267   4.670
 4375SOL    HW114024   3.388   5.222   4.608
 4375SOL    HW214025   3.402   5.297   4.752
 4376SOL     OW14026   0.367   2.367   2.837
 4376SOL    HW114027   0.388   2.465   2.843
 4376SOL    HW214028   0.323   2.348   2.749
 4377SOL     OW14029   0.288   4.817   5.741
 4377SOL    HW114030   0.368   4.801   5.683
 4377SOL    HW214031   0.205   4.788   5.692
 4378SOL     OW14032   3.177   1.417   4.250
 4378SOL    HW114033   3.110   1.343   4.244
 4378SOL    HW214034   3.129   1.504   4.260
 4379SOL     OW14035   3.498   1.545   5.938
 4379SOL    HW114036   3.579   1.523   5.884
 4379SOL    HW214037   3.525   1.591   6.022
 4380SOL     OW14038   6.670   2.101   3.302
 4380SOL    HW114039   6.727   2.181   3.321
 4380SOL    HW214040   6.588   2.130   3.252
 4381SOL     OW14041   1.269   4.651   6.596
 4381SOL    HW114042   1.252   4.593   6.675
 4381SOL    HW214043   1.193   4.714   6.583
 4382SOL     OW14044   1.369   4.855   5.055
 4382SOL    HW114045   1.431   4.830   4.981
 4382SOL    HW214046   1.328   4.772   5.093
 4383SOL     OW14047   0.370   4.178   0.168
 4383SOL    HW114048   0.453   4.146   0.213
 4383SOL    HW214049   0.297   4.189   0.236
 4384SOL     OW14050   4.384   6.963   4.622
 4384SOL    HW114051   4.336   6.989   4.538
 4384SOL    HW214052   4.478   6.996   4.619
 4385SOL     OW14053   5.015   0.334   5.811
 4385SOL    HW114054   5.086   0.373   5.870
 4385SOL    HW214055   4.933   0.317   5.865
 4386SOL     OW14056   1.785   3.245   3.843
 4386SOL    HW114057   1.803   3.313   3.772
 4386SOL    HW214058   1.792   3.153   3.804
 4387SOL     OW14059   4.316   2.184   1.013
 4387SOL    HW114060   4.247   2.191   1.085
 4387SOL    HW214061   4.311   2.265   0.954
 4388SOL     OW14062   6.109   2.877   0.463
 4388SOL    HW114063   6.143   2.966   0.493
 4388SOL    HW214064   6.009   2.876   0.469
 4389SOL     OW14065   2.484   1.500   6.453
 4389SOL    HW114066   2.440   1.422   6.498
 4389SOL    HW214067   2.569   1.470   6.410
 4390SOL     OW14068   0.209   1.006   1.750
 4390SOL    HW114069   0.248   0.946   1.680
 4390SOL    HW214070   0.132   0.960   1.794
 4391SOL     OW14071   6.938   6.622   2.332
 4391SOL    HW114072   6.940   6.576   2.421
 4391SOL    HW214073   6.883   6.567   2.268
 4392SOL     OW14074   2.176   2.631   6.306
 4392SOL    HW114075   2.104   2.629   6.375
 4392SOL    HW214076   2.248   2.567   6.332
 4393SOL     OW14077   5.954   0.092   1.578
 4393SOL    HW114078   5.858   0.080   1.605
 4393SOL    HW214079   6.010   0.104   1.660
 4394SOL     OW14080   6.572   1.555   2.980
 4394SOL    HW114081   6.550   1.639   3.028
 4394SOL    HW214082   6.666   1.527   3.003
 4395SOL     OW14083   2.184   3.152   1.044
 4395SOL    HW114084   2.136   3.197   0.969
 4395SOL    HW214085   2.282   3.170   1.037
 4396SOL     OW14086   2.473   1.536   2.526
 4396SOL    HW114087   2.527   1.460   2.564
 4396SOL    HW214088   2.402   1.499   2.466
 4397SOL     OW14089   3.779   1.147   4.880
 4397SOL    HW114090   3.793   1.057   4.922
 4397SOL    HW214091   3.793   1.141   4.782
 4398SOL     OW14092   2.510   2.700   5.838
 4398SOL    HW114093   2.528   2.670   5.932
 4398SOL    HW214094   2.429   2.654   5.804
 4399SOL     OW14095   2.990   5.951   1.691
 4399SOL    HW114096   3.066   5.889   1.708
 4399SOL    HW214097   2.929   5.912   1.621
 4400SOL     OW14098   1.280   6.001   5.293
 4400SOL    HW114099   1.330   6.064   5.233
 4400SOL    HW214100   1.283   6.036   5.387
 4401SOL     OW14101   3.059   0.368   5.700
 4401SOL    HW114102   2.976   0.403   5.743
 4401SOL    HW214103   3.085   0.429   5.624
 4402SOL     OW14104   0.506   0.941   2.186
 4402SOL    HW114105   0.565   1.006   2.236
 4402SOL    HW214106   0.412   0.952   2.216
 4403SOL     OW14107   6.386   6.642   2.735
 4403SOL    HW114108   6.458   6.661   2.668
 4403SOL    HW214109   6.415   6.567   2.794
 4404SOL     OW14110   0.852   5.726   5.095
 4404SOL    HW114111   0.849   5.688   5.003
 4404SOL    HW214112   0.916   5.802   5.099
 4405SOL     OW14113   0.979   5.233   3.106
 4405SOL    HW114114   0.982   5.324   3.148
 4405SOL    HW214115   1.047   5.227   3.034
 4406SOL     OW14116   5.809   4.314   2.723
 4406SOL    HW114117   5.908   4.311   2.739
 4406SOL    HW214118   5.762   4.327   2.810
 4407SOL     OW14119   5.036   0.649   1.288
 4407SOL    HW114120   5.095   0.634   1.210
 4407SOL    HW214121   4.956   0.702   1.260
 4408SOL     OW14122   4.892   0.494   0.196
 4408SOL    HW114123   4.875   0.584   0.236
 4408SOL    HW214124   4.820   0.473   0.130
 4409SOL     OW14125   3.974   0.689   3.633
 4409SOL    HW114126   3.940   0.732   3.549
 4409SOL    HW214127   3.925   0.604   3.650
 4410SOL     OW14128   1.504   0.266   0.757
 4410SOL    HW114129   1.551   0.243   0.843
 4410SOL    HW214130   1.529   0.199   0.687
 4411SOL     OW14131   4.659   4.278   4.834
 4411SOL    HW114132   4.680   4.198   4.779
 4411SOL    HW214133   4.742   4.310   4.880
 4412SOL     OW14134   4.992   6.381   0.826
 4412SOL    HW114135   5.022   6.475   0.815
 4412SOL    HW214136   5.018   6.328   0.746
 4413SOL     OW14137   5.080   6.405   4.783
 4413SOL    HW114138   5.063   6.380   4.688
 4413SOL    HW214139   4.997   6.444   4.823
 4414SOL     OW14140   6.079   3.976   1.273
 4414SOL    HW114141   5.997   3.997   1.326
 4414SOL    HW214142   6.098   4.052   1.210
 4415SOL     OW14143   0.971   4.038   1.422
 4415SOL    HW114144   1.034   4.000   1.354
 4415SOL    HW214145   0.911   4.105   1.377
 4416SOL     OW14146   5.084   3.394   4.175
 4416SOL    HW114147   5.045   3.304   4.193
 4416SOL    HW214148   5.080   3.413   4.077
 4417SOL     OW14149   0.136   3.900   1.859
 4417SOL    HW114150   0.209   3.969   1.865
 4417SOL    HW214151   0.067   3.931   1.794
 4418SOL     OW14152   6.582   2.418   5.065
 4418SOL    HW114153   6.483   2.425   5.076
 4418SOL    HW214154   6.615   2.496   5.011
 4419SOL     OW14155   6.229   6.161   6.358
 4419SOL    HW114156   6.225   6.097   6.282
 4419SOL    HW214157   6.159   6.232   6.345
 4420SOL     OW14158   3.976   0.461   0.418
 4420SOL    HW114159   3.959   0.439   0.514
 4420SOL    HW214160   3.898   0.431   0.363
 4421SOL     OW14161   2.840   2.156   0.318
 4421SOL    HW114162   2.743   2.173   0.334
 4421SOL    HW214163   2.864   2.064   0.350
 4422SOL     OW14164   0.614   2.952   6.688
 4422SOL    HW114165   0.545   2.983   6.755
 4422SOL    HW214166   0.705   2.981   6.718
 4423SOL     OW14167   6.158   4.456   4.159
 4423SOL    HW114168   6.120   4.512   4.086
 4423SOL    HW214169   6.253   4.434   4.138
 4424SOL     OW14170   3.662   5.185   2.591
 4424SOL    HW114171   3.748   5.235   2.583
 4424SOL    HW214172   3.596   5.219   2.524
 4425SOL     OW14173   0.610   6.046   0.574
 4425SOL    HW114174   0.695   6.061   0.524
 4425SOL    HW214175   0.534   6.088   0.525
 4426SOL     OW14176   0.913   0.734   4.280
 4426SOL    HW114177   0.910   0.804   4.351
 4426SOL    HW214178   0.956   0.651   4.315
 4427SOL     OW14179   3.793   6.106   0.018
 4427SOL    HW114180   3.876   6.135   7.001
 4427SOL    HW214181   3.714   6.150   7.005
 4428SOL     OW14182   6.275   5.791   2.804
 4428SOL    HW114183   6.316   5.721   2.746
 4428SOL    HW214184   6.249   5.751   2.892
 4429SOL     OW14185   1.910   5.361   2.645
 4429SOL    HW114186   1.900   5.447   2.595
 4429SOL    HW214187   1.937   5.380   2.739
 4430SOL     OW14188   5.441   3.997   4.057
 4430SOL    HW114189   5.363   3.988   3.995
 4430SOL    HW214190   5.485   3.907   4.068
 4431SOL     OW14191   4.932   0.262   4.695
 4431SOL    HW114192   4.988   0.331   4.740
 4431SOL    HW214193   4.849   0.304   4.661
 4432SOL     OW14194   2.182   3.396   6.432
 4432SOL    HW114195   2.092   3.434   6.456
 4432SOL    HW214196   2.172   3.300   6.407
 4433SOL     OW14197   0.286   0.473   4.947
 4433SOL    HW114198   0.273   0.410   5.023
 4433SOL    HW214199   0.347   0.432   4.879
 4434SOL     OW14200   6.721   0.406   2.313
 4434SOL    HW114201   6.773   0.489   2.332
 4434SOL    HW214202   6.665   0.384   2.393
 4435SOL     OW14203   1.991   4.266   1.838
 4435SOL    HW114204   1.943   4.313   1.763
 4435SOL    HW214205   2.082   4.239   1.807
 4436SOL     OW14206   5.056   2.171   1.809
 4436SOL    HW114207   5.030   2.170   1.713
 4436SOL    HW214208   5.097   2.083   1.834
 4437SOL     OW14209   0.291   5.712   0.004
 4437SOL    HW114210   0.280   5.657   0.087
 4437SOL    HW214211   0.267   5.658   6.954
 4438SOL     OW14212   3.550   1.869   4.576
 4438SOL    HW114213   3.588   1.846   4.486
 4438SOL    HW214214   3.537   1.968   4.582
 4439SOL     OW14215   3.082   5.311   2.101
 4439SOL    HW114216   3.068   5.290   2.004
 4439SOL    HW214217   3.035   5.243   2.157
 4440SOL     OW14218   2.233   5.432   6.019
 4440SOL    HW114219   2.185   5.502   5.966
 4440SOL    HW214220   2.298   5.385   5.960
 4441SOL     OW14221   6.343   1.003   1.020
 4441SOL    HW114222   6.274   0.958   0.962
 4441SOL    HW214223   6.375   1.086   0.974
 4442SOL     OW14224   1.728   4.610   1.000
 4442SOL    HW114225   1.683   4.673   1.063
 4442SOL    HW214226   1.818   4.647   0.976
 4443SOL     OW14227   1.021   5.919   5.257
 4443SOL    HW114228   1.118   5.943   5.256
 4443SOL    HW214229   0.973   5.979   5.321
 4444SOL     OW14230   4.355   6.298   0.450
 4444SOL    HW114231   4.305   6.333   0.371
 4444SOL    HW214232   4.392   6.375   0.503
 4445SOL     OW14233   1.912   3.402   0.878
 4445SOL    HW114234   1.893   3.468   0.950
 4445SOL    HW214235   1.883   3.311   0.907
 4446SOL     OW14236   5.982   2.164   1.487
 4446SOL    HW114237   5.938   2.105   1.419
 4446SOL    HW214238   5.928   2.247   1.500
 4447SOL     OW14239   5.113   5.421   6.087
 4447SOL    HW114240   5.017   5.432   6.062
 4447SOL    HW214241   5.137   5.323   6.083
 4448SOL     OW14242   2.259   6.545   2.775
 4448SOL    HW114243   2.229   6.608   2.846
 4448SOL    HW214244   2.349   6.574   2.742
 4449SOL     OW14245   3.995   2.045   5.350
 4449SOL    HW114246   4.057   1.986   5.298
 4449SOL    HW214247   3.919   2.074   5.292
 4450SOL     OW14248   2.512   5.382   0.846
 4450SOL    HW114249   2.512   5.282   0.851
 4450SOL    HW214250   2.449   5.412   0.775
 4451SOL     OW14251   4.991   6.421   2.945
 4451SOL    HW114252   5.043   6.474   2.877
 4451SOL    HW214253   5.007   6.323   2.931
 4452SOL     OW14254   5.252   4.644   3.650
 4452SOL    HW114255   5.284   4.737   3.629
 4452SOL    HW214256   5.267   4.625   3.747
 4453SOL     OW14257   0.148   5.652   1.184
 4453SOL    HW114258   0.062   5.653   1.133
 4453SOL    HW214259   0.132   5.615   1.276
 4454SOL     OW14260   0.001   0.846   7.021
 4454SOL    HW114261   0.097   0.822   0.009
 4454SOL    HW214262   7.005   0.924   0.049
 4455SOL     OW14263   0.893   0.542   3.997
 4455SOL    HW114264   0.840   0.478   4.053
 4455SOL    HW214265   0.989   0.540   4.025
 4456SOL     OW14266   1.571   5.656   4.160
 4456SOL    HW114267   1.554   5.745   4.201
 4456SOL    HW214268   1.663   5.654   4.120
 4457SOL     OW14269   1.417   2.175   4.813
 4457SOL    HW114270   1.492   2.225   4.771
 4457SOL    HW214271   1.417   2.081   4.780
 4458SOL     OW14272   1.993   2.166   5.541
 4458SOL    HW114273   2.013   2.076   5.579
 4458SOL    HW214274   1.901   2.167   5.503
 4459SOL     OW14275   1.970   4.944   3.250
 4459SOL    HW114276   1.882   4.981   3.281
 4459SOL    HW214277   2.007   4.884   3.320
 4460SOL     OW14278   6.984   3.419   5.200
 4460SOL    HW114279   6.886   3.422   5.186
 4460SOL    HW214280   7.004   3.416   5.298
 4461SOL     OW14281   2.596   0.329   0.509
 4461SOL    HW114282   2.508   0.376   0.509
 4461SOL    HW214283   2.622   0.306   0.416
 4462SOL     OW14284   0.532   4.465   2.568
 4462SOL    HW114285   0.502   4.435   2.477
 4462SOL    HW214286   0.616   4.520   2.558
 4463SOL     OW14287   5.649   2.113   6.878
 4463SOL    HW114288   5.643   2.209   6.852
 4463SOL    HW214289   5.704   2.104   6.961
 4464SOL     OW14290   1.098   3.325   1.027
 4464SOL    HW114291   1.025   3.333   0.959
 4464SOL    HW214292   1.061   3.339   1.119
 4465SOL     OW14293   4.712   4.710   1.011
 4465SOL    HW114294   4.800   4.690   1.055
 4465SOL    HW214295   4.645   4.734   1.081
 4466SOL     OW14296   0.797   3.036   2.304
 4466SOL    HW114297   0.876   3.058   2.360
 4466SOL    HW214298   0.722   3.004   2.362
 4467SOL     OW14299   5.268   4.625   1.978
 4467SOL    HW114300   5.340   4.635   1.910
 4467SOL    HW214301   5.179   4.629   1.934
 4468SOL     OW14302   1.786   3.622   0.325
 4468SOL    HW114303   1.768   3.553   0.396
 4468SOL    HW214304   1.788   3.713   0.366
 4469SOL     OW14305   1.127   6.494   2.154
 4469SOL    HW114306   1.173   6.526   2.236
 4469SOL    HW214307   1.070   6.414   2.177
 4470SOL     OW14308   0.928   0.197   3.225
 4470SOL    HW114309   0.891   0.256   3.153
 4470SOL    HW214310   0.872   0.115   3.234
 4471SOL     OW14311   1.541   0.520   6.435
 4471SOL    HW114312   1.511   0.567   6.518
 4471SOL    HW214313   1.566   0.426   6.456
 4472SOL     OW14314   2.575   3.202   1.234
 4472SOL    HW114315   2.547   3.255   1.154
 4472SOL    HW214316   2.514   3.220   1.310
 4473SOL     OW14317   0.774   2.958   5.523
 4473SOL    HW114318   0.870   2.982   5.513
 4473SOL    HW214319   0.766   2.864   5.558
 4474SOL     OW14320   1.452   6.310   1.608
 4474SOL    HW114321   1.484   6.295   1.515
 4474SOL    HW214322   1.389   6.388   1.610
 4475SOL     OW14323   1.351   3.440   1.121
 4475SOL    HW114324   1.260   3.403   1.101
 4475SOL    HW214325   1.411   3.365   1.148
 4476SOL     OW14326   4.636   0.539   3.657
 4476SOL    HW114327   4.687   0.615   3.616
 4476SOL    HW214328   4.694   0.493   3.725
 4477SOL     OW14329   6.456   1.273   4.901
 4477SOL    HW114330   6.468   1.334   4.979
 4477SOL    HW214331   6.498   1.313   4.820
 4478SOL     OW14332   0.983   0.341   2.206
 4478SOL    HW114333   1.012   0.437   2.202
 4478SOL    HW214334   0.980   0.303   2.113
 4479SOL     OW14335   2.985   3.341   0.107
 4479SOL    HW114336   3.073   3.299   0.130
 4479SOL    HW214337   2.912   3.274   0.122
 4480SOL     OW14338   6.758   1.208   3.296
 4480SOL    HW114339   6.786   1.123   3.251
 4480SOL    HW214340   6.822   1.229   3.370
 4481SOL     OW14341   2.130   4.235   6.283
 4481SOL    HW114342   2.048   4.212   6.336
 4481SOL    HW214343   2.147   4.333   6.288
 4482SOL     OW14344   2.859   6.914   1.233
 4482SOL    HW114345   2.947   6.935   1.278
 4482SOL    HW214346   2.793   6.884   1.302
 4483SOL     OW14347   1.602   2.551   1.751
 4483SOL    HW114348   1.692   2.543   1.707
 4483SOL    HW214349   1.568   2.644   1.741
 4484SOL     OW14350   4.409   0.174   0.480
 4484SOL    HW114351   4.460   0.194   0.397
 4484SOL    HW214352   4.470   0.179   0.559
 4485SOL     OW14353   0.437   2.027   5.558
 4485SOL    HW114354   0.345   2.004   5.526
 4485SOL    HW214355   0.444   2.126   5.571
 4486SOL     OW14356   5.400   5.158   3.687
 4486SOL    HW114357   5.374   5.232   3.749
 4486SOL    HW214358   5.494   5.129   3.706
 4487SOL     OW14359   0.139   3.594   6.996
 4487SOL    HW114360   0.173   3.553   6.912
 4487SOL    HW214361   0.075   3.668   6.975
 4488SOL     OW14362   5.646   4.917   3.546
 4488SOL    HW114363   5.624   4.858   3.623
 4488SOL    HW214364   5.647   4.863   3.462
 4489SOL     OW14365   3.365   6.041   5.761
 4489SOL    HW114366   3.347   6.025   5.858
 4489SOL    HW214367   3.425   6.120   5.751
 4490SOL     OW14368   4.899   1.815   1.814
 4490SOL    HW114369   4.963   1.883   1.849
 4490SOL    HW214370   4.812   1.822   1.863
 4491SOL     OW14371   0.273   4.822   3.091
 4491SOL    HW114372   0.186   4.777   3.114
 4491SOL    HW214373   0.326   4.762   3.031
 4492SOL     OW14374   6.606   0.872   1.934
 4492SOL    HW114375   6.506   0.864   1.934
 4492SOL    HW214376   6.633   0.945   1.871
 4493SOL     OW14377   5.379   0.953   5.961
 4493SOL    HW114378   5.352   0.860   5.988
 4493SOL    HW214379   5.427   0.950   5.873
 4494SOL     OW14380   0.585   1.675   2.374
 4494SOL    HW114381   0.571   1.744   2.445
 4494SOL    HW214382   0.649   1.710   2.305
 4495SOL     OW14383   3.766   6.144   1.671
 4495SOL    HW114384   3.714   6.161   1.755
 4495SOL    HW214385   3.712   6.174   1.592
 4496SOL     OW14386   2.204   5.181   5.551
 4496SOL    HW114387   2.176   5.132   5.634
 4496SOL    HW214388   2.281   5.133   5.508
 4497SOL     OW14389   5.332   6.503   4.877
 4497SOL    HW114390   5.256   6.461   4.828
 4497SOL    HW214391   5.417   6.482   4.830
 4498SOL     OW14392   1.984   5.730   3.463
 4498SOL    HW114393   1.910   5.697   3.521
 4498SOL    HW214394   1.982   5.830   3.460
 4499SOL     OW14395   5.141   1.927   2.146
 4499SOL    HW114396   5.162   1.831   2.127
 4499SOL    HW214397   5.224   1.981   2.135
 4500SOL     OW14398   3.509   6.235   0.226
 4500SOL    HW114399   3.518   6.312   0.289
 4500SOL    HW214400   3.430   6.179   0.251
 4501SOL     OW14401   5.235   1.025   3.111
 4501SOL    HW114402   5.246   0.952   3.044
 4501SOL    HW214403   5.276   1.109   3.076
 4502SOL     OW14404   0.822   3.471   0.213
 4502SOL    HW114405   0.741   3.464   0.155
 4502SOL    HW214406   0.797   3.517   0.299
 4503SOL     OW14407   3.155   1.506   3.269
 4503SOL    HW114408   3.194   1.589   3.309
 4503SOL    HW214409   3.058   1.521   3.249
 4504SOL     OW14410   0.682   3.533   3.948
 4504SOL    HW114411   0.758   3.567   4.004
 4504SOL    HW214412   0.711   3.451   3.899
 4505SOL     OW14413   6.365   3.720   3.847
 4505SOL    HW114414   6.301   3.702   3.772
 4505SOL    HW214415   6.313   3.734   3.932
 4506SOL     OW14416   4.013   4.238   6.727
 4506SOL    HW114417   3.949   4.176   6.771
 4506SOL    HW214418   3.964   4.298   6.664
 4507SOL     OW14419   5.468   2.265   2.926
 4507SOL    HW114420   5.425   2.355   2.931
 4507SOL    HW214421   5.458   2.218   3.014
 4508SOL     OW14422   0.046   4.258   0.873
 4508SOL    HW114423   0.041   4.216   0.782
 4508SOL    HW214424   0.098   4.343   0.867
 4509SOL     OW14425   4.659   1.304   2.578
 4509SOL    HW114426   4.573   1.253   2.577
 4509SOL    HW214427   4.664   1.362   2.497
 4510SOL     OW14428   5.048   1.720   3.610
 4510SOL    HW114429   5.033   1.727   3.512
 4510SOL    HW214430   5.110   1.792   3.640
 4511SOL     OW14431   0.800   3.877   0.135
 4511SOL    HW114432   0.787   3.967   0.093
 4511SOL    HW214433   0.713   3.828   0.135
 4512SOL     OW14434   2.767   3.885   6.384
 4512SOL    HW114435   2.831   3.824   6.431
 4512SOL    HW214436   2.684   3.895   6.440
 4513SOL     OW14437   0.343   1.926   0.683
 4513SOL    HW114438   0.265   1.973   0.725
 4513SOL    HW214439   0.324   1.828   0.677
 4514SOL     OW14440   4.249   5.615   7.029
 4514SOL    HW114441   4.159   5.652   7.008
 4514SOL    HW214442   4.253   5.519   7.003
 4515SOL     OW14443   4.738   6.573   5.908
 4515SOL    HW114444   4.749   6.644   5.839
 4515SOL    HW214445   4.655   6.521   5.889
 4516SOL     OW14446   3.559   1.819   4.867
 4516SOL    HW114447   3.532   1.723   4.856
 4516SOL    HW214448   3.530   1.871   4.787
 4517SOL     OW14449   3.803   0.231   4.111
 4517SOL    HW114450   3.835   0.325   4.121
 4517SOL    HW214451   3.810   0.203   4.015
 4518SOL     OW14452   6.644   6.171   0.714
 4518SOL    HW114453   6.633   6.099   0.647
 4518SOL    HW214454   6.703   6.139   0.788
 4519SOL     OW14455   5.491   6.332   6.329
 4519SOL    HW114456   5.394   6.340   6.355
 4519SOL    HW214457   5.544   6.404   6.373
 4520SOL     OW14458   4.971   4.972   5.180
 4520SOL    HW114459   4.920   4.943   5.261
 4520SOL    HW214460   5.038   4.903   5.156
 4521SOL     OW14461   5.388   2.677   4.057
 4521SOL    HW114462   5.448   2.598   4.071
 4521SOL    HW214463   5.351   2.706   4.146
 4522SOL     OW14464   5.657   4.193   4.034
 4522SOL    HW114465   5.588   4.263   4.014
 4522SOL    HW214466   5.615   4.103   4.031
 4523SOL     OW14467   1.024   2.439   0.416
 4523SOL    HW114468   0.960   2.390   0.356
 4523SOL    HW214469   1.098   2.477   0.361
 4524SOL     OW14470   2.007   3.702   1.635
 4524SOL    HW114471   1.958   3.784   1.606
 4524SOL    HW214472   2.061   3.723   1.717
 4525SOL     OW14473   3.287   1.957   6.015
 4525SOL    HW114474   3.355   2.017   5.973
 4525SOL    HW214475   3.201   2.007   6.027
 4526SOL     OW14476   0.907   6.943   5.301
 4526SOL    HW114477   0.933   6.850   5.274
 4526SOL    HW214478   0.936   7.007   5.230
 4527SOL     OW14479   1.161   2.760   2.753
 4527SOL    HW114480   1.222   2.688   2.722
 4527SOL    HW214481   1.093   2.722   2.816
 4528SOL     OW14482   5.086   1.936   4.090
 4528SOL    HW114483   5.046   1.897   4.007
 4528SOL    HW214484   5.013   1.973   4.147
 4529SOL     OW14485   1.348   2.923   3.116
 4529SOL    HW114486   1.370   2.878   3.203
 4529SOL    HW214487   1.269   2.878   3.075
 4530SOL     OW14488   4.277   4.556   6.344
 4530SOL    HW114489   4.215   4.547   6.422
 4530SOL    HW214490   4.292   4.466   6.303
 4531SOL     OW14491   1.271   6.420   5.006
 4531SOL    HW114492   1.220   6.474   4.940
 4531SOL    HW214493   1.293   6.475   5.086
 4532SOL     OW14494   5.996   0.488   2.042
 4532SOL    HW114495   5.951   0.475   1.953
 4532SOL    HW214496   5.932   0.464   2.115
 4533SOL     OW14497   2.849   6.217   0.809
 4533SOL    HW114498   2.811   6.163   0.733
 4533SOL    HW214499   2.835   6.168   0.895
 4534SOL     OW14500   6.304   1.658   5.036
 4534SOL    HW114501   6.349   1.576   5.070
 4534SOL    HW214502   6.208   1.638   5.015
 4535SOL     OW14503   1.899   6.847   0.546
 4535SOL    HW114504   1.916   6.945   0.558
 4535SOL    HW214505   1.927   6.797   0.628
 4536SOL     OW14506   4.001   0.413   5.526
 4536SOL    HW114507   3.922   0.401   5.586
 4536SOL    HW214508   3.977   0.474   5.451
 4537SOL     OW14509   3.556   3.683   3.203
 4537SOL    HW114510   3.507   3.760   3.245
 4537SOL    HW214511   3.527   3.674   3.108
 4538SOL     OW14512   1.745   2.887   0.406
 4538SOL    HW114513   1.826   2.828   0.407
 4538SOL    HW214514   1.708   2.893   0.499
 4539SOL     OW14515   0.660   4.771   5.005
 4539SOL    HW114516   0.602   4.694   4.979
 4539SOL    HW214517   0.642   4.849   4.945
 4540SOL     OW14518   1.569   1.339   7.012
 4540SOL    HW114519   1.473   1.339   0.011
 4540SOL    HW214520   1.596   1.247   6.986
 4541SOL     OW14521   4.028   2.801   0.407
 4541SOL    HW114522   4.029   2.896   0.375
 4541SOL    HW214523   3.998   2.741   0.334
 4542SOL     OW14524   6.578   2.366   0.009
 4542SOL    HW114525   6.567   2.267   0.022
 4542SOL    HW214526   6.660   2.397   0.058
 4543SOL     OW14527   4.375   1.229   0.214
 4543SOL    HW114528   4.434   1.185   0.283
 4543SOL    HW214529   4.420   1.311   0.180
 4544SOL     OW14530   4.696   6.073   6.798
 4544SOL    HW114531   4.726   6.056   6.893
 4544SOL    HW214532   4.687   5.985   6.751
 4545SOL     OW14533   2.817   3.008   6.146
 4545SOL    HW114534   2.723   3.022   6.178
 4545SOL    HW214535   2.817   2.955   6.061
 4546SOL     OW14536   4.902   6.436   5.012
 4546SOL    HW114537   4.965   6.359   5.021
 4546SOL    HW214538   4.911   6.497   5.090
 4547SOL     OW14539   6.909   6.752   1.215
 4547SOL    HW114540   6.888   6.833   1.160
 4547SOL    HW214541   6.913   6.672   1.155
 4548SOL     OW14542   3.925   1.103   1.440
 4548SOL    HW114543   3.840   1.136   1.399
 4548SOL    HW214544   3.982   1.062   1.369
 4549SOL     OW14545   6.946   5.549   3.783
 4549SOL    HW114546   7.010   5.526   3.710
 4549SOL    HW214547   6.897   5.466   3.811
 4550SOL     OW14548   2.318   5.812   6.963
 4550SOL    HW114549   2.364   5.791   0.019
 4550SOL    HW214550   2.321   5.732   6.903
 4551SOL     OW14551   3.636   3.265   6.354
 4551SOL    HW114552   3.546   3.305   6.372
 4551SOL    HW214553   3.628   3.165   6.352
 4552SOL     OW14554   5.665   0.552   6.062
 4552SOL    HW114555   5.680   0.649   6.085
 4552SOL    HW214556   5.729   0.496   6.115
 4553SOL     OW14557   0.188   6.909   0.862
 4553SOL    HW114558   0.188   6.813   0.889
 4553SOL    HW214559   0.211   6.917   0.765
 4554SOL     OW14560   5.460   6.017   2.770
 4554SOL    HW114561   5.378   6.056   2.729
 4554SOL    HW214562   5.456   6.028   2.870
 4555SOL     OW14563   0.678   0.785   3.686
 4555SOL    HW114564   0.773   0.756   3.693
 4555SOL    HW214565   0.644   0.811   3.776
 4556SOL     OW14566   5.383   5.128   4.447
 4556SOL    HW114567   5.465   5.164   4.490
 4556SOL    HW214568   5.309   5.125   4.515
 4557SOL     OW14569   0.466   6.377   5.339
 4557SOL    HW114570   0.491   6.466   5.376
 4557SOL    HW214571   0.471   6.308   5.411
 4558SOL     OW14572   0.732   4.195   3.823
 4558SOL    HW114573   0.767   4.180   3.730
 4558SOL    HW214574   0.752   4.289   3.851
 4559SOL     OW14575   0.430   3.526   4.068
 4559SOL    HW114576   0.522   3.504   4.035
 4559SOL    HW214577   0.385   3.442   4.098
 4560SOL     OW14578   6.349   3.017   4.567
 4560SOL    HW114579   6.390   3.038   4.656
 4560SOL    HW214580   6.388   3.078   4.497
 4561SOL     OW14581   5.295   3.686   4.985
 4561SOL    HW114582   5.253   3.721   4.901
 4561SOL    HW214583   5.342   3.760   5.032
 4562SOL     OW14584   4.814   0.880   0.699
 4562SOL    HW114585   4.859   0.961   0.737
 4562SOL    HW214586   4.858   0.797   0.734
 4563SOL     OW14587   1.138   3.432   2.821
 4563SOL    HW114588   1.186   3.375   2.754
 4563SOL    HW214589   1.202   3.458   2.894
 4564SOL     OW14590   2.109   3.918   2.436
 4564SOL    HW114591   2.177   3.854   2.401
 4564SOL    HW214592   2.089   3.897   2.531
 4565SOL     OW14593   2.300   6.351   4.890
 4565SOL    HW114594   2.203   6.366   4.875
 4565SOL    HW214595   2.314   6.298   4.973
 4566SOL     OW14596   6.581   5.162   2.715
 4566SOL    HW114597   6.486   5.157   2.746
 4566SOL    HW214598   6.595   5.100   2.638
 4567SOL     OW14599   1.460   0.521   0.497
 4567SOL    HW114600   1.377   0.490   0.542
 4567SOL    HW214601   1.522   0.560   0.565
 4568SOL     OW14602   0.189   4.584   4.579
 4568SOL    HW114603   0.205   4.488   4.602
 4568SOL    HW214604   0.206   4.598   4.481
 4569SOL     OW14605   6.808   2.639   3.728
 4569SOL    HW114606   6.748   2.574   3.681
 4569SOL    HW214607   6.804   2.622   3.827
 4570SOL     OW14608   4.696   5.734   1.765
 4570SOL    HW114609   4.791   5.706   1.772
 4570SOL    HW214610   4.640   5.654   1.742
 4571SOL     OW14611   2.075   2.393   4.852
 4571SOL    HW114612   2.001   2.453   4.879
 4571SOL    HW214613   2.071   2.308   4.906
 4572SOL     OW14614   5.168   3.234   1.265
 4572SOL    HW114615   5.151   3.170   1.340
 4572SOL    HW214616   5.147   3.327   1.295
 4573SOL     OW14617   3.108   4.662   1.231
 4573SOL    HW114618   3.079   4.738   1.172
 4573SOL    HW214619   3.028   4.616   1.268
 4574SOL     OW14620   4.774   0.237   1.980
 4574SOL    HW114621   4.736   0.146   1.993
 4574SOL    HW214622   4.714   0.305   2.021
 4575SOL     OW14623   7.023   1.481   5.470
 4575SOL    HW114624   7.003   1.410   5.538
 4575SOL    HW214625   6.971   1.464   5.387
 4576SOL     OW14626   3.100   3.965   6.690
 4576SOL    HW114627   3.118   3.918   6.776
 4576SOL    HW214628   3.186   3.991   6.647
 4577SOL     OW14629   0.042   1.639   2.386
 4577SOL    HW114630   0.025   1.559   2.329
 4577SOL    HW214631   0.141   1.656   2.391
 4578SOL     OW14632   2.162   0.594   2.435
 4578SOL    HW114633   2.232   0.622   2.501
 4578SOL    HW214634   2.086   0.659   2.439
 4579SOL     OW14635   3.585   0.893   2.232
 4579SOL    HW114636   3.556   0.965   2.170
 4579SOL    HW214637   3.506   0.837   2.258
 4580SOL     OW14638   0.841   0.035   1.662
 4580SOL    HW114639   0.850   7.029   1.569
 4580SOL    HW214640   0.813   6.991   1.724
 4581SOL     OW14641   3.635   7.015   1.013
 4581SOL    HW114642   3.614   0.044   1.091
 4581SOL    HW214643   3.716   0.020   0.966
 4582SOL     OW14644   6.085   1.068   4.677
 4582SOL    HW114645   6.118   1.159   4.703
 4582SOL    HW214646   6.154   0.999   4.700
 4583SOL     OW14647   1.678   6.130   6.597
 4583SOL    HW114648   1.753   6.138   6.663
 4583SOL    HW214649   1.656   6.220   6.560
 4584SOL     OW14650   6.236   0.597   4.115
 4584SOL    HW114651   6.305   0.624   4.182
 4584SOL    HW214652   6.257   0.639   4.027
 4585SOL     OW14653   1.367   3.470   2.248
 4585SOL    HW114654   1.378   3.374   2.221
 4585SOL    HW214655   1.453   3.503   2.288
 4586SOL     OW14656   0.376   4.487   6.320
 4586SOL    HW114657   0.370   4.410   6.383
 4586SOL    HW214658   0.457   4.541   6.341
 4587SOL     OW14659   3.869   3.413   5.943
 4587SOL    HW114660   3.896   3.505   5.914
 4587SOL    HW214661   3.868   3.409   6.042
 4588SOL     OW14662   2.002   5.036   6.647
 4588SOL    HW114663   1.969   5.129   6.638
 4588SOL    HW214664   1.947   4.987   6.715
 4589SOL     OW14665   4.385   6.208   2.212
 4589SOL    HW114666   4.473   6.245   2.242
 4589SOL    HW214667   4.346   6.269   2.142
 4590SOL     OW14668   1.795   4.982   1.619
 4590SOL    HW114669   1.769   4.926   1.698
 4590SOL    HW214670   1.892   5.005   1.625
 4591SOL     OW14671   2.111   1.945   5.674
 4591SOL    HW114672   2.106   1.847   5.697
 4591SOL    HW214673   2.199   1.981   5.703
 4592SOL     OW14674   2.411   2.580   2.699
 4592SOL    HW114675   2.397   2.530   2.614
 4592SOL    HW214676   2.448   2.519   2.768
 4593SOL     OW14677   1.909   5.533   5.466
 4593SOL    HW114678   1.933   5.466   5.537
 4593SOL    HW214679   1.904   5.624   5.507
 4594SOL     OW14680   0.895   6.939   3.220
 4594SOL    HW114681   0.929   6.905   3.308
 4594SOL    HW214682   0.970   6.939   3.153
 4595SOL     OW14683   5.474   1.550   6.690
 4595SOL    HW114684   5.558   1.604   6.695
 4595SOL    HW214685   5.396   1.606   6.719
 4596SOL     OW14686   0.235   1.923   2.170
 4596SOL    HW114687   0.254   1.831   2.136
 4596SOL    HW214688   0.159   1.963   2.118
 4597SOL     OW14689   2.232   5.190   0.988
 4597SOL    HW114690   2.227   5.183   0.889
 4597SOL    HW214691   2.159   5.135   1.029
 4598SOL     OW14692   0.322   2.818   0.693
 4598SOL    HW114693   0.232   2.855   0.667
 4598SOL    HW214694   0.383   2.894   0.717
 4599SOL     OW14695   3.082   6.212   3.284
 4599SOL    HW114696   2.985   6.191   3.270
 4599SOL    HW214697   3.097   6.310   3.273
 4600SOL     OW14698   0.238   6.658   5.913
 4600SOL    HW114699   0.249   6.623   6.006
 4600SOL    HW214700   0.179   6.738   5.914
 4601SOL     OW14701   1.750   1.467   5.152
 4601SOL    HW114702   1.675   1.422   5.200
 4601SOL    HW214703   1.749   1.441   5.056
 4602SOL     OW14704   4.507   6.885   5.767
 4602SOL    HW114705   4.458   6.938   5.698
 4602SOL    HW214706   4.531   6.945   5.844
 4603SOL     OW14707   4.528   6.908   0.094
 4603SOL    HW114708   4.581   6.824   0.089
 4603SOL    HW214709   4.460   6.901   0.167
 4604SOL     OW14710   0.132   0.235   3.810
 4604SOL    HW114711   0.064   0.194   3.750
 4604SOL    HW214712   0.222   0.196   3.791
 4605SOL     OW14713   4.020   1.493   2.428
 4605SOL    HW114714   4.015   1.396   2.402
 4605SOL    HW214715   4.111   1.512   2.465
 4606SOL     OW14716   6.661   0.103   4.166
 4606SOL    HW114717   6.614   0.158   4.234
 4606SOL    HW214718   6.635   0.007   4.176
 4607SOL     OW14719   2.424   1.812   1.545
 4607SOL    HW114720   2.506   1.781   1.497
 4607SOL    HW214721   2.410   1.910   1.529
 4608SOL     OW14722   0.200   3.061   5.945
 4608SOL    HW114723   0.233   3.094   5.857
 4608SOL    HW214724   0.103   3.084   5.956
 4609SOL     OW14725   5.504   4.293   6.341
 4609SOL    HW114726   5.406   4.286   6.321
 4609SOL    HW214727   5.546   4.203   6.329
 4610SOL     OW14728   4.686   4.222   6.282
 4610SOL    HW114729   4.644   4.143   6.327
 4610SOL    HW214730   4.695   4.204   6.184
 4611SOL     OW14731   0.416   0.501   6.584
 4611SOL    HW114732   0.412   0.516   6.485
 4611SOL    HW214733   0.470   0.574   6.626
 4612SOL     OW14734   1.307   0.822   2.311
 4612SOL    HW114735   1.239   0.873   2.258
 4612SOL    HW214736   1.270   0.732   2.335
 4613SOL     OW14737   1.379   4.995   3.916
 4613SOL    HW114738   1.317   4.988   3.839
 4613SOL    HW214739   1.473   4.979   3.885
 4614SOL     OW14740   6.516   5.010   2.500
 4614SOL    HW114741   6.421   4.983   2.481
 4614SOL    HW214742   6.575   4.930   2.496
 4615SOL     OW14743   0.626   4.764   6.699
 4615SOL    HW114744   0.531   4.734   6.713
 4615SOL    HW214745   0.627   4.859   6.669
 4616SOL     OW14746   1.523   5.045   5.801
 4616SOL    HW114747   1.536   4.946   5.795
 4616SOL    HW214748   1.602   5.091   5.759
 4617SOL     OW14749   0.961   4.255   4.682
 4617SOL    HW114750   0.932   4.269   4.777
 4617SOL    HW214751   0.993   4.161   4.671
 4618SOL     OW14752   2.202   4.215   5.147
 4618SOL    HW114753   2.247   4.254   5.228
 4618SOL    HW214754   2.239   4.124   5.128
 4619SOL     OW14755   5.282   5.755   6.299
 4619SOL    HW114756   5.249   5.716   6.385
 4619SOL    HW214757   5.306   5.852   6.314
 4620SOL     OW14758   0.490   5.016   2.339
 4620SOL    HW114759   0.496   5.107   2.382
 4620SOL    HW214760   0.489   4.946   2.410
 4621SOL     OW14761   2.875   0.188   2.123
 4621SOL    HW114762   2.971   0.212   2.109
 4621SOL    HW214763   2.866   0.129   2.204
 4622SOL     OW14764   6.264   6.744   0.546
 4622SOL    HW114765   6.222   6.819   0.596
 4622SOL    HW214766   6.316   6.686   0.609
 4623SOL     OW14767   3.133   4.890   2.174
 4623SOL    HW114768   3.117   4.978   2.220
 4623SOL    HW214769   3.231   4.879   2.158
 4624SOL     OW14770   5.560   1.687   0.238
 4624SOL    HW114771   5.549   1.743   0.156
 4624SOL    HW214772   5.472   1.646   0.262
 4625SOL     OW14773   0.963   0.228   1.951
 4625SOL    HW114774   0.959   0.146   2.008
 4625SOL    HW214775   0.989   0.203   1.858
 4626SOL     OW14776   4.154   3.839   1.956
 4626SOL    HW114777   4.228   3.806   1.898
 4626SOL    HW214778   4.121   3.927   1.922
 4627SOL     OW14779   5.854   6.333   5.158
 4627SOL    HW114780   5.845   6.367   5.065
 4627SOL    HW214781   5.923   6.387   5.207
 4628SOL     OW14782   6.440   3.044   2.097
 4628SOL    HW114783   6.393   3.132   2.106
 4628SOL    HW214784   6.381   2.980   2.046
 4629SOL     OW14785   1.109   5.191   0.894
 4629SOL    HW114786   1.108   5.289   0.874
 4629SOL    HW214787   1.203   5.162   0.913
 4630SOL     OW14788   1.725   3.298   1.431
 4630SOL    HW114789   1.652   3.321   1.366
 4630SOL    HW214790   1.722   3.200   1.450
 4631SOL     OW14791   5.718   1.476   1.154
 4631SOL    HW114792   5.690   1.450   1.061
 4631SOL    HW214793   5.724   1.575   1.160
 4632SOL     OW14794   2.190   5.269   3.688
 4632SOL    HW114795   2.261   5.272   3.759
 4632SOL    HW214796   2.152   5.361   3.675
 4633SOL     OW14797   4.869   3.631   4.046
 4633SOL    HW114798   4.947   3.576   4.015
 4633SOL    HW214799   4.785   3.578   4.035
 4634SOL     OW14800   3.752   2.936   4.797
 4634SOL    HW114801   3.676   2.875   4.818
 4634SOL    HW214802   3.832   2.909   4.850
 4635SOL     OW14803   3.708   0.403   2.051
 4635SOL    HW114804   3.677   0.494   2.024
 4635SOL    HW214805   3.711   0.343   1.972
 4636SOL     OW14806   1.689   5.870   6.531
 4636SOL    HW114807   1.686   5.961   6.572
 4636SOL    HW214808   1.600   5.847   6.492
 4637SOL     OW14809   1.816   2.785   3.557
 4637SOL    HW114810   1.773   2.700   3.526
 4637SOL    HW214811   1.767   2.819   3.638
 4638SOL     OW14812   3.968   4.578   6.726
 4638SOL    HW114813   3.996   4.562   6.632
 4638SOL    HW214814   4.020   4.518   6.787
 4639SOL     OW14815   3.911   2.612   1.302
 4639SOL    HW114816   3.868   2.631   1.390
 4639SOL    HW214817   4.009   2.629   1.308
 4640SOL     OW14818   0.495   2.172   0.437
 4640SOL    HW114819   0.504   2.270   0.418
 4640SOL    HW214820   0.568   2.143   0.499
 4641SOL     OW14821   1.179   6.162   4.924
 4641SOL    HW114822   1.154   6.182   4.829
 4641SOL    HW214823   1.207   6.247   4.968
 4642SOL     OW14824   5.909   1.169   6.042
 4642SOL    HW114825   5.977   1.234   6.077
 4642SOL    HW214826   5.936   1.138   5.951
 4643SOL     OW14827   1.021   2.212   0.007
 4643SOL    HW114828   0.998   2.183   6.944
 4643SOL    HW214829   1.007   2.135   0.070
 4644SOL     OW14830   1.417   1.683   1.055
 4644SOL    HW114831   1.477   1.718   0.984
 4644SOL    HW214832   1.348   1.752   1.076
 4645SOL     OW14833   5.376   2.908   5.419
 4645SOL    HW114834   5.460   2.904   5.474
 4645SOL    HW214835   5.320   2.984   5.451
 4646SOL     OW14836   1.346   3.954   2.409
 4646SOL    HW114837   1.271   3.990   2.353
 4646SOL    HW214838   1.425   4.015   2.402
 4647SOL     OW14839   1.477   6.329   2.014
 4647SOL    HW114840   1.432   6.259   2.070
 4647SOL    HW214841   1.490   6.412   2.069
 4648SOL     OW14842   2.535   1.516   4.224
 4648SOL    HW114843   2.536   1.558   4.315
 4648SOL    HW214844   2.587   1.430   4.227
 4649SOL     OW14845   5.099   3.885   1.141
 4649SOL    HW114846   5.119   3.863   1.237
 4649SOL    HW214847   5.049   3.972   1.137
 4650SOL     OW14848   3.631   4.533   0.729
 4650SOL    HW114849   3.625   4.620   0.680
 4650SOL    HW214850   3.584   4.541   0.817
 4651SOL     OW14851   1.659   3.168   0.167
 4651SOL    HW114852   1.624   3.078   0.144
 4651SOL    HW214853   1.595   3.238   0.136
 4652SOL     OW14854   6.137   6.832   5.699
 4652SOL    HW114855   6.221   6.791   5.734
 4652SOL    HW214856   6.080   6.862   5.775
 4653SOL     OW14857   0.934   6.502   0.653
 4653SOL    HW114858   0.840   6.536   0.656
 4653SOL    HW214859   0.941   6.419   0.708
 4654SOL     OW14860   0.593   0.943   5.448
 4654SOL    HW114861   0.495   0.928   5.460
 4654SOL    HW214862   0.618   0.926   5.353
 4655SOL     OW14863   5.484   5.464   3.372
 4655SOL    HW114864   5.447   5.549   3.411
 4655SOL    HW214865   5.411   5.396   3.365
 4656SOL     OW14866   6.439   0.568   1.366
 4656SOL    HW114867   6.529   0.612   1.368
 4656SOL    HW214868   6.422   0.530   1.275
 4657SOL     OW14869   3.673   2.010   2.237
 4657SOL    HW114870   3.659   2.076   2.164
 4657SOL    HW214871   3.645   2.051   2.324
 4658SOL     OW14872   1.690   1.009   6.774
 4658SOL    HW114873   1.605   1.061   6.786
 4658SOL    HW214874   1.768   1.071   6.784
 4659SOL     OW14875   2.438   5.179   1.182
 4659SOL    HW114876   2.397   5.096   1.219
 4659SOL    HW214877   2.388   5.208   1.101
 4660SOL     OW14878   0.283   4.952   4.987
 4660SOL    HW114879   0.300   4.854   4.981
 4660SOL    HW214880   0.299   4.995   4.898
 4661SOL     OW14881   0.251   0.999   5.073
 4661SOL    HW114882   0.160   1.033   5.096
 4661SOL    HW214883   0.243   0.929   5.003
 4662SOL     OW14884   2.565   0.307   6.546
 4662SOL    HW114885   2.480   0.265   6.578
 4662SOL    HW214886   2.617   0.341   6.625
 4663SOL     OW14887   0.565   6.975   1.260
 4663SOL    HW114888   0.637   6.906   1.270
 4663SOL    HW214889   0.504   6.949   1.185
 4664SOL     OW14890   6.705   6.064   5.546
 4664SOL    HW114891   6.754   5.991   5.500
 4664SOL    HW214892   6.767   6.139   5.567
 4665SOL     OW14893   7.016   1.810   2.594
 4665SOL    HW114894   0.027   1.899   2.572
 4665SOL    HW214895   0.015   1.742   2.526
 4666SOL     OW14896   1.952   2.586   5.553
 4666SOL    HW114897   1.965   2.592   5.652
 4666SOL    HW214898   2.038   2.561   5.510
 4667SOL     OW14899   6.067   2.011   1.106
 4667SOL    HW114900   6.013   2.001   1.022
 4667SOL    HW214901   6.063   1.926   1.158
 4668SOL     OW14902   4.778   2.119   5.228
 4668SOL    HW114903   4.716   2.105   5.151
 4668SOL    HW214904   4.747   2.065   5.307
 4669SOL     OW14905   5.999   6.321   6.237
 4669SOL    HW114906   5.902   6.302   6.250
 4669SOL    HW214907   6.011   6.386   6.162
 4670SOL     OW14908   1.051   3.326   0.129
 4670SOL    HW114909   1.118   3.371   0.070
 4670SOL    HW214910   0.971   3.385   0.140
 4671SOL     OW14911   6.633   2.092   1.754
 4671SOL    HW114912   6.550   2.046   1.724
 4671SOL    HW214913   6.648   2.174   1.698
 4672SOL     OW14914   4.202   3.003   0.781
 4672SOL    HW114915   4.180   2.906   0.777
 4672SOL    HW214916   4.131   3.056   0.734
 4673SOL     OW14917   4.872   1.603   0.507
 4673SOL    HW114918   4.920   1.686   0.481
 4673SOL    HW214919   4.840   1.556   0.424
 4674SOL     OW14920   0.843   2.778   0.555
 4674SOL    HW114921   0.929   2.770   0.605
 4674SOL    HW214922   0.783   2.702   0.581
 4675SOL     OW14923   1.693   6.834   0.381
 4675SOL    HW114924   1.775   6.813   0.433
 4675SOL    HW214925   1.635   6.752   0.376
 4676SOL     OW14926   0.113   5.700   4.421
 4676SOL    HW114927   0.087   5.721   4.326
 4676SOL    HW214928   0.112   5.601   4.435
 4677SOL     OW14929   5.187   6.815   6.965
 4677SOL    HW114930   5.196   6.791   6.868
 4677SOL    HW214931   5.209   6.736   7.021
 4678SOL     OW14932   2.368   5.080   0.605
 4678SOL    HW114933   2.284   5.107   0.652
 4678SOL    HW214934   2.346   5.015   0.532
 4679SOL     OW14935   1.940   6.532   5.582
 4679SOL    HW114936   1.986   6.610   5.624
 4679SOL    HW214937   1.987   6.448   5.607
 4680SOL     OW14938   1.129   5.391   5.843
 4680SOL    HW114939   1.066   5.387   5.766
 4680SOL    HW214940   1.108   5.318   5.908
 4681SOL     OW14941   6.840   6.089   5.996
 4681SOL    HW114942   6.883   6.041   6.073
 4681SOL    HW214943   6.885   6.177   5.982
 4682SOL     OW14944   3.083   6.745   0.602
 4682SOL    HW114945   3.062   6.789   0.514
 4682SOL    HW214946   3.113   6.651   0.587
 4683SOL     OW14947   0.717   5.291   3.892
 4683SOL    HW114948   0.671   5.221   3.947
 4683SOL    HW214949   0.683   5.381   3.918
 4684SOL     OW14950   1.914   0.750   4.367
 4684SOL    HW114951   1.845   0.706   4.425
 4684SOL    HW214952   1.973   0.680   4.327
 4685SOL     OW14953   5.303   4.887   3.961
 4685SOL    HW114954   5.242   4.931   3.896
 4685SOL    HW214955   5.384   4.944   3.976
 4686SOL     OW14956   4.453   5.397   5.787
 4686SOL    HW114957   4.415   5.410   5.695
 4686SOL    HW214958   4.424   5.473   5.845
 4687SOL     OW14959   4.540   1.099   4.856
 4687SOL    HW114960   4.625   1.063   4.816
 4687SOL    HW214961   4.563   1.172   4.921
 4688SOL     OW14962   0.430   0.275   1.128
 4688SOL    HW114963   0.398   0.184   1.152
 4688SOL    HW214964   0.387   0.305   1.043
 4689SOL     OW14965   1.864   6.164   4.602
 4689SOL    HW114966   1.869   6.216   4.516
 4689SOL    HW214967   1.776   6.118   4.608
 4690SOL     OW14968   3.222   2.195   6.879
 4690SOL    HW114969   3.277   2.116   6.909
 4690SOL    HW214970   3.258   2.228   6.791
 4691SOL     OW14971   2.758   4.553   0.130
 4691SOL    HW114972   2.664   4.519   0.139
 4691SOL    HW214973   2.822   4.479   0.153
 4692SOL     OW14974   1.038   4.858   3.342
 4692SOL    HW114975   1.072   4.940   3.387
 4692SOL    HW214976   1.063   4.860   3.246
 4693SOL     OW14977   0.573   2.077   2.576
 4693SOL    HW114978   0.578   2.163   2.626
 4693SOL    HW214979   0.595   2.093   2.479
 4694SOL     OW14980   1.674   0.796   5.007
 4694SOL    HW114981   1.598   0.856   5.034
 4694SOL    HW214982   1.688   0.803   4.908
 4695SOL     OW14983   3.437   3.607   2.965
 4695SOL    HW114984   3.477   3.534   2.908
 4695SOL    HW214985   3.371   3.658   2.911
 4696SOL     OW14986   0.667   2.204   6.620
 4696SOL    HW114987   0.643   2.176   6.712
 4696SOL    HW214988   0.604   2.162   6.554
 4697SOL     OW14989   0.870   5.082   6.725
 4697SOL    HW114990   0.782   5.098   6.771
 4697SOL    HW214991   0.889   5.158   6.663
 4698SOL     OW14992   5.798   3.236   1.924
 4698SOL    HW114993   5.719   3.181   1.897
 4698SOL    HW214994   5.845   3.269   1.843
 4699SOL     OW14995   6.688   0.640   2.908
 4699SOL    HW114996   6.721   0.733   2.919
 4699SOL    HW214997   6.623   0.636   2.832
 4700SOL     OW14998   5.250   7.019   4.931
 4700SOL    HW114999   5.212   6.945   4.877
 4700SOL    HW215000   5.240   6.998   5.028
 4701SOL     OW15001   2.514   1.275   5.984
 4701SOL    HW115002   2.557   1.212   6.049
 4701SOL    HW215003   2.567   1.279   5.900
 4702SOL     OW15004   3.438   2.954   0.808
 4702SOL    HW115005   3.435   3.050   0.837
 4702SOL    HW215006   3.345   2.917   0.807
 4703SOL     OW15007   0.956   6.408   1.928
 4703SOL    HW115008   0.948   6.319   1.882
 4703SOL    HW215009   1.040   6.411   1.982
 4704SOL     OW15010   4.655   6.933   6.073
 4704SOL    HW115011   4.663   6.999   5.999
 4704SOL    HW215012   4.698   6.970   6.156
 4705SOL     OW15013   3.405   2.955   4.952
 4705SOL    HW115014   3.376   2.939   4.858
 4705SOL    HW215015   3.340   2.912   5.015
 4706SOL     OW15016   5.701   2.923   0.218
 4706SOL    HW115017   5.784   2.872   0.194
 4706SOL    HW215018   5.704   3.013   0.175
 4707SOL     OW15019   2.849   4.068   1.149
 4707SOL    HW115020   2.774   4.133   1.137
 4707SOL    HW215021   2.822   3.979   1.111
 4708SOL     OW15022   2.247   2.848   2.418
 4708SOL    HW115023   2.148   2.837   2.421
 4708SOL    HW215024   2.274   2.882   2.327
 4709SOL     OW15025   3.007   3.811   0.610
 4709SOL    HW115026   2.961   3.879   0.552
 4709SOL    HW215027   2.938   3.750   0.650
 4710SOL     OW15028   4.483   2.290   1.267
 4710SOL    HW115029   4.385   2.273   1.251
 4710SOL    HW215030   4.511   2.244   1.351
 4711SOL     OW15031   2.708   0.320   3.714
 4711SOL    HW115032   2.635   0.300   3.780
 4711SOL    HW215033   2.707   0.251   3.641
 4712SOL     OW15034   1.366   3.329   6.897
 4712SOL    HW115035   1.426   3.255   6.867
 4712SOL    HW215036   1.289   3.337   6.833
 4713SOL     OW15037   0.623   6.046   0.859
 4713SOL    HW115038   0.636   6.040   0.760
 4713SOL    HW215039   0.693   5.992   0.905
 4714SOL     OW15040   4.291   1.932   1.227
 4714SOL    HW115041   4.282   2.029   1.202
 4714SOL    HW215042   4.387   1.906   1.226
 4715SOL     OW15043   5.211   4.097   4.828
 4715SOL    HW115044   5.211   3.998   4.837
 4715SOL    HW215045   5.124   4.134   4.860
 4716SOL     OW15046   1.925   5.276   6.698
 4716SOL    HW115047   1.833   5.291   6.734
 4716SOL    HW215048   1.993   5.298   6.769
 4717SOL     OW15049   1.932   4.908   4.849
 4717SOL    HW115050   1.941   4.997   4.893
 4717SOL    HW215051   1.861   4.854   4.894
 4718SOL     OW15052   4.915   6.864   6.974
 4718SOL    HW115053   4.880   6.787   7.028
 4718SOL    HW215054   5.015   6.867   6.982
 4719SOL     OW15055   4.524   2.792   1.360
 4719SOL    HW115056   4.497   2.700   1.387
 4719SOL    HW215057   4.455   2.857   1.392
 4720SOL     OW15058   1.966   1.760   3.518
 4720SOL    HW115059   1.871   1.759   3.548
 4720SOL    HW215060   1.974   1.714   3.430
 4721SOL     OW15061   1.908   1.705   2.019
 4721SOL    HW115062   1.918   1.627   1.957
 4721SOL    HW215063   1.994   1.757   2.022
 4722SOL     OW15064   2.290   1.070   2.395
 4722SOL    HW115065   2.381   1.049   2.431
 4722SOL    HW215066   2.267   1.005   2.323
 4723SOL     OW15067   3.381   0.655   5.671
 4723SOL    HW115068   3.320   0.673   5.594
 4723SOL    HW215069   3.372   0.560   5.700
 4724SOL     OW15070   4.296   5.504   1.196
 4724SOL    HW115071   4.377   5.452   1.224
 4724SOL    HW215072   4.223   5.440   1.171
 4725SOL     OW15073   6.045   5.005   2.869
 4725SOL    HW115074   5.959   5.003   2.819
 4725SOL    HW215075   6.118   4.967   2.812
 4726SOL     OW15076   6.380   0.120   3.924
 4726SOL    HW115077   6.394   0.178   4.004
 4726SOL    HW215078   6.283   0.118   3.901
 4727SOL     OW15079   4.647   6.681   1.681
 4727SOL    HW115080   4.591   6.600   1.666
 4727SOL    HW215081   4.740   6.654   1.707
 4728SOL     OW15082   6.743   6.161   6.599
 4728SOL    HW115083   6.715   6.075   6.643
 4728SOL    HW215084   6.713   6.160   6.503
 4729SOL     OW15085   3.603   0.534   1.295
 4729SOL    HW115086   3.654   0.620   1.305
 4729SOL    HW215087   3.528   0.547   1.230
 4730SOL     OW15088   1.209   0.538   6.508
 4730SOL    HW115089   1.270   0.595   6.562
 4730SOL    HW215090   1.123   0.587   6.491
 4731SOL     OW15091   5.020   1.476   5.664
 4731SOL    HW115092   5.033   1.401   5.600
 4731SOL    HW215093   4.932   1.521   5.646
 4732SOL     OW15094   1.026   6.900   6.457
 4732SOL    HW115095   0.995   6.804   6.462
 4732SOL    HW215096   0.972   6.955   6.521
 4733SOL     OW15097   5.510   4.152   3.113
 4733SOL    HW115098   5.452   4.139   3.032
 4733SOL    HW215099   5.527   4.063   3.156
 4734SOL     OW15100   6.404   3.651   6.005
 4734SOL    HW115101   6.460   3.733   5.989
 4734SOL    HW215102   6.327   3.675   6.064
 4735SOL     OW15103   0.721   3.854   3.553
 4735SOL    HW115104   0.819   3.833   3.546
 4735SOL    HW215105   0.685   3.819   3.639
 4736SOL     OW15106   1.399   0.144   2.367
 4736SOL    HW115107   1.491   0.135   2.329
 4736SOL    HW215108   1.372   0.240   2.368
 4737SOL     OW15109   3.220   5.279   2.422
 4737SOL    HW115110   3.313   5.312   2.401
 4737SOL    HW215111   3.192   5.316   2.511
 4738SOL     OW15112   1.078   0.580   3.628
 4738SOL    HW115113   1.176   0.600   3.626
 4738SOL    HW215114   1.061   0.493   3.582
 4739SOL     OW15115   3.472   6.918   1.612
 4739SOL    HW115116   3.443   6.846   1.549
 4739SOL    HW215117   3.572   6.917   1.619
 4740SOL     OW15118   1.032   2.065   5.008
 4740SOL    HW115119   1.043   2.081   5.107
 4740SOL    HW215120   1.059   2.147   4.958
 4741SOL     OW15121   4.055   3.785   4.179
 4741SOL    HW115122   4.068   3.689   4.154
 4741SOL    HW215123   4.141   3.835   4.167
 4742SOL     OW15124   4.295   0.758   3.359
 4742SOL    HW115125   4.241   0.691   3.306
 4742SOL    HW215126   4.233   0.817   3.411
 4743SOL     OW15127   0.359   5.216   0.872
 4743SOL    HW115128   0.454   5.243   0.891
 4743SOL    HW215129   0.349   5.197   0.774
 4744SOL     OW15130   1.046   4.903   1.880
 4744SOL    HW115131   0.960   4.906   1.930
 4744SOL    HW215132   1.046   4.824   1.819
 4745SOL     OW15133   1.931   3.239   0.094
 4745SOL    HW115134   1.836   3.227   0.126
 4745SOL    HW215135   1.955   3.336   0.099
 4746SOL     OW15136   5.994   6.026   4.361
 4746SOL    HW115137   5.970   5.959   4.291
 4746SOL    HW215138   5.991   5.983   4.451
 4747SOL     OW15139   4.047   0.670   0.739
 4747SOL    HW115140   4.004   0.760   0.742
 4747SOL    HW215141   3.981   0.602   0.709
 4748SOL     OW15142   2.131   7.010   3.820
 4748SOL    HW115143   2.047   6.957   3.823
 4748SOL    HW215144   2.110   0.078   3.818
 4749SOL     OW15145   2.550   1.318   1.230
 4749SOL    HW115146   2.487   1.273   1.166
 4749SOL    HW215147   2.572   1.256   1.305
 4750SOL     OW15148   5.601   2.869   5.953
 4750SOL    HW115149   5.682   2.823   5.989
 4750SOL    HW215150   5.546   2.904   6.028
 4751SOL     OW15151   3.618   1.701   2.585
 4751SOL    HW115152   3.577   1.784   2.623
 4751SOL    HW215153   3.567   1.621   2.615
 4752SOL     OW15154   6.051   6.363   6.700
 4752SOL    HW115155   5.986   6.366   6.776
 4752SOL    HW215156   6.103   6.448   6.697
 4753SOL     OW15157   3.310   5.686   5.107
 4753SOL    HW115158   3.338   5.773   5.147
 4753SOL    HW215159   3.216   5.666   5.133
 4754SOL     OW15160   5.892   4.705   0.510
 4754SOL    HW115161   5.819   4.643   0.483
 4754SOL    HW215162   5.867   4.799   0.483
 4755SOL     OW15163   6.843   1.055   2.275
 4755SOL    HW115164   6.899   0.974   2.289
 4755SOL    HW215165   6.861   1.121   2.349
 4756SOL     OW15166   0.174   4.025   4.779
 4756SOL    HW115167   0.243   3.952   4.777
 4756SOL    HW215168   0.151   4.053   4.686
 4757SOL     OW15169   2.404   3.541   1.439
 4757SOL    HW115170   2.393   3.442   1.439
 4757SOL    HW215171   2.372   3.578   1.527
 4758SOL     OW15172   1.880   5.339   1.862
 4758SOL    HW115173   1.853   5.330   1.767
 4758SOL    HW215174   1.900   5.249   1.900
 4759SOL     OW15175   0.678   6.557   3.263
 4759SOL    HW115176   0.757   6.500   3.238
 4759SOL    HW215177   0.595   6.500   3.264
 4760SOL     OW15178   1.102   0.639   2.349
 4760SOL    HW115179   1.066   0.641   2.256
 4760SOL    HW215180   1.030   0.663   2.414
 4761SOL     OW15181   4.267   5.975   2.490
 4761SOL    HW115182   4.288   6.068   2.518
 4761SOL    HW215183   4.227   5.975   2.398
 4762SOL     OW15184   0.886   0.813   2.512
 4762SOL    HW115185   0.925   0.800   2.603
 4762SOL    HW215186   0.850   0.726   2.479
 4763SOL     OW15187   5.129   3.914   1.782
 4763SOL    HW115188   5.146   3.986   1.714
 4763SOL    HW215189   5.210   3.906   1.841
 4764SOL     OW15190   4.421   2.858   6.693
 4764SOL    HW115191   4.447   2.824   6.784
 4764SOL    HW215192   4.484   2.931   6.667
 4765SOL     OW15193   3.558   1.435   5.546
 4765SOL    HW115194   3.479   1.399   5.497
 4765SOL    HW215195   3.552   1.535   5.550
 4766SOL     OW15196   1.326   0.957   3.307
 4766SOL    HW115197   1.240   1.005   3.322
 4766SOL    HW215198   1.321   0.905   3.222
 4767SOL     OW15199   2.621   4.972   2.728
 4767SOL    HW115200   2.628   5.052   2.787
 4767SOL    HW215201   2.709   4.926   2.723
 4768SOL     OW15202   4.547   2.600   6.311
 4768SOL    HW115203   4.588   2.523   6.262
 4768SOL    HW215204   4.459   2.572   6.349
 4769SOL     OW15205   3.185   2.963   0.343
 4769SOL    HW115206   3.109   2.997   0.398
 4769SOL    HW215207   3.233   2.891   0.393
 4770SOL     OW15208   6.925   1.616   3.733
 4770SOL    HW115209   6.955   1.602   3.827
 4770SOL    HW215210   6.917   1.714   3.715
 4771SOL     OW15211   2.926   1.286   4.259
 4771SOL    HW115212   2.876   1.336   4.189
 4771SOL    HW215213   2.908   1.326   4.348
 4772SOL     OW15214   2.890   5.429   2.418
 4772SOL    HW115215   2.972   5.454   2.366
 4772SOL    HW215216   2.810   5.471   2.376
 4773SOL     OW15217   3.064   5.537   4.036
 4773SOL    HW115218   3.163   5.548   4.043
 4773SOL    HW215219   3.019   5.622   4.064
 4774SOL     OW15220   0.275   4.164   0.496
 4774SOL    HW115221   0.344   4.232   0.520
 4774SOL    HW215222   0.203   4.207   0.442
 4775SOL     OW15223   5.402   5.208   4.195
 4775SOL    HW115224   5.431   5.118   4.160
 4775SOL    HW215225   5.383   5.200   4.293
 4776SOL     OW15226   7.002   1.779   5.472
 4776SOL    HW115227   0.002   1.684   5.485
 4776SOL    HW215228   6.907   1.789   5.502
 4777SOL     OW15229   1.014   6.607   3.446
 4777SOL    HW115230   1.019   6.530   3.509
 4777SOL    HW215231   0.984   6.689   3.494
 4778SOL     OW15232   1.414   0.499   1.276
 4778SOL    HW115233   1.357   0.471   1.354
 4778SOL    HW215234   1.384   0.450   1.194
 4779SOL     OW15235   4.769   1.713   4.467
 4779SOL    HW115236   4.686   1.680   4.423
 4779SOL    HW215237   4.745   1.764   4.550
 4780SOL     OW15238   4.947   2.778   4.548
 4780SOL    HW115239   4.979   2.689   4.581
 4780SOL    HW215240   4.857   2.797   4.589
 4781SOL     OW15241   3.193   5.074   1.467
 4781SOL    HW115242   3.191   4.975   1.482
 4781SOL    HW215243   3.102   5.105   1.440
 4782SOL     OW15244   0.987   0.226   2.908
 4782SOL    HW115245   1.077   0.245   2.947
 4782SOL    HW215246   0.950   0.310   2.867
 4783SOL     OW15247   1.096   4.286   6.961
 4783SOL    HW115248   1.034   4.302   0.008
 4783SOL    HW215249   1.075   4.198   6.919
 4784SOL     OW15250   6.151   2.640   6.809
 4784SOL    HW115251   6.236   2.651   6.860
 4784SOL    HW215252   6.170   2.595   6.721
 4785SOL     OW15253   0.540   1.622   4.503
 4785SOL    HW115254   0.504   1.532   4.529
 4785SOL    HW215255   0.639   1.621   4.510
 4786SOL     OW15256   1.512   6.504   0.607
 4786SOL    HW115257   1.581   6.470   0.671
 4786SOL    HW215258   1.534   6.472   0.515
 4787SOL     OW15259   4.538   1.706   5.464
 4787SOL    HW115260   4.554   1.624   5.520
 4787SOL    HW215261   4.466   1.687   5.398
 4788SOL     OW15262   6.692   5.798   0.757
 4788SOL    HW115263   6.749   5.853   0.818
 4788SOL    HW215264   6.725   5.703   0.759
 4789SOL     OW15265   5.589   0.950   1.448
 4789SOL    HW115266   5.587   1.047   1.423
 4789SOL    HW215267   5.515   0.930   1.512
 4790SOL     OW15268   0.677   2.488   6.585
 4790SOL    HW115269   0.699   2.393   6.606
 4790SOL    HW215270   0.684   2.504   6.486
 4791SOL     OW15271   0.949   0.689   6.763
 4791SOL    HW115272   0.914   0.599   6.791
 4791SOL    HW215273   0.987   0.736   6.842
 4792SOL     OW15274   0.845   4.139   1.725
 4792SOL    HW115275   0.892   4.112   1.810
 4792SOL    HW215276   0.906   4.125   1.647
 4793SOL     OW15277   1.339   2.880   4.941
 4793SOL    HW115278   1.417   2.927   4.984
 4793SOL    HW215279   1.298   2.816   5.006
 4794SOL     OW15280   5.671   1.395   6.386
 4794SOL    HW115281   5.680   1.318   6.323
 4794SOL    HW215282   5.760   1.441   6.395
 4795SOL     OW15283   6.982   6.507   6.913
 4795SOL    HW115284   6.940   6.546   6.832
 4795SOL    HW215285   6.984   6.575   6.986
 4796SOL     OW15286   5.699   1.956   5.802
 4796SOL    HW115287   5.654   2.044   5.810
 4796SOL    HW215288   5.642   1.885   5.842
 4797SOL     OW15289   2.879   5.317   5.259
 4797SOL    HW115290   2.906   5.409   5.289
 4797SOL    HW215291   2.814   5.278   5.323
 4798SOL     OW15292   3.652   5.886   6.626
 4798SOL    HW115293   3.585   5.926   6.688
 4798SOL    HW215294   3.744   5.898   6.663
 4799SOL     OW15295   4.444   3.635   1.260
 4799SOL    HW115296   4.376   3.569   1.293
 4799SOL    HW215297   4.404   3.690   1.187
 4800SOL     OW15298   0.790   4.636   6.981
 4800SOL    HW115299   0.885   4.642   6.950
 4800SOL    HW215300   0.785   4.579   0.034
 4801SOL     OW15301   4.903   3.281   3.350
 4801SOL    HW115302   4.837   3.342   3.393
 4801SOL    HW215303   4.994   3.323   3.354
 4802SOL     OW15304   6.757   0.592   4.685
 4802SOL    HW115305   6.823   0.633   4.621
 4802SOL    HW215306   6.668   0.634   4.673
 4803SOL     OW15307   5.232   3.584   5.929
 4803SOL    HW115308   5.155   3.542   5.880
 4803SOL    HW215309   5.315   3.573   5.875
 4804SOL     OW15310   5.794   2.695   0.714
 4804SOL    HW115311   5.813   2.748   0.632
 4804SOL    HW215312   5.807   2.754   0.795
 4805SOL     OW15313   5.921   0.523   5.367
 4805SOL    HW115314   5.865   0.454   5.319
 4805SOL    HW215315   5.862   0.598   5.396
 4806SOL     OW15316   1.686   3.091   3.208
 4806SOL    HW115317   1.754   3.021   3.187
 4806SOL    HW215318   1.621   3.098   3.132
 4807SOL     OW15319   1.028   3.621   0.812
 4807SOL    HW115320   0.969   3.692   0.772
 4807SOL    HW215321   0.981   3.533   0.806
 4808SOL     OW15322   2.646   6.620   3.484
 4808SOL    HW115323   2.735   6.579   3.504
 4808SOL    HW215324   2.593   6.628   3.568
 4809SOL     OW15325   2.858   3.836   0.928
 4809SOL    HW115326   2.952   3.801   0.924
 4809SOL    HW215327   2.796   3.767   0.891
 4810SOL     OW15328   1.744   5.629   4.397
 4810SOL    HW115329   1.681   5.568   4.350
 4810SOL    HW215330   1.694   5.688   4.460
 4811SOL     OW15331   3.155   3.108   4.894
 4811SOL    HW115332   3.146   3.109   4.994
 4811SOL    HW215333   3.225   3.042   4.868
 4812SOL     OW15334   1.761   6.157   1.191
 4812SOL    HW115335   1.765   6.083   1.258
 4812SOL    HW215336   1.755   6.117   1.099
 4813SOL     OW15337   0.899   2.452   5.173
 4813SOL    HW115338   0.834   2.379   5.196
 4813SOL    HW215339   0.867   2.538   5.212
 4814SOL     OW15340   4.759   1.550   0.263
 4814SOL    HW115341   4.683   1.507   0.310
 4814SOL    HW215342   4.744   1.546   0.164
 4815SOL     OW15343   6.808   4.080   3.012
 4815SOL    HW115344   6.903   4.095   2.983
 4815SOL    HW215345   6.786   4.142   3.086
 4816SOL     OW15346   2.530   0.540   2.854
 4816SOL    HW115347   2.609   0.574   2.906
 4816SOL    HW215348   2.562   0.482   2.779
 4817SOL     OW15349   4.374   3.389   6.829
 4817SOL    HW115350   4.454   3.448   6.828
 4817SOL    HW215351   4.401   3.297   6.857
 4818SOL     OW15352   4.762   6.342   5.677
 4818SOL    HW115353   4.839   6.317   5.619
 4818SOL    HW215354   4.711   6.417   5.634
 4819SOL     OW15355   3.788   7.002   0.602
 4819SOL    HW115356   3.732   6.920   0.590
 4819SOL    HW215357   3.872   6.994   0.549
 4820SOL     OW15358   0.686   5.339   1.221
 4820SOL    HW115359   0.688   5.389   1.308
 4820SOL    HW215360   0.716   5.400   1.147
 4821SOL     OW15361   6.830   5.716   1.175
 4821SOL    HW115362   6.743   5.680   1.139
 4821SOL    HW215363   6.823   5.725   1.274
 4822SOL     OW15364   0.465   3.579   2.082
 4822SOL    HW115365   0.378   3.532   2.065
 4822SOL    HW215366   0.513   3.592   1.996
 4823SOL     OW15367   6.757   1.925   2.568
 4823SOL    HW115368   6.834   1.861   2.565
 4823SOL    HW215369   6.755   1.979   2.484
 4824SOL     OW15370   4.976   1.095   3.089
 4824SOL    HW115371   4.957   1.049   3.002
 4824SOL    HW215372   5.066   1.068   3.123
 4825SOL     OW15373   2.370   4.300   4.454
 4825SOL    HW115374   2.334   4.392   4.439
 4825SOL    HW215375   2.389   4.257   4.366
 4826SOL     OW15376   0.833   5.923   6.670
 4826SOL    HW115377   0.847   5.968   6.759
 4826SOL    HW215378   0.812   5.827   6.685
 4827SOL     OW15379   5.090   0.611   6.444
 4827SOL    HW115380   5.084   0.533   6.505
 4827SOL    HW215381   5.084   0.696   6.497
 4828SOL     OW15382   6.640   2.475   6.800
 4828SOL    HW115383   6.715   2.448   6.740
 4828SOL    HW215384   6.644   2.422   6.884
 4829SOL     OW15385   2.318   1.362   5.622
 4829SOL    HW115386   2.287   1.279   5.577
 4829SOL    HW215387   2.394   1.401   5.570
 4830SOL     OW15388   6.033   4.549   4.771
 4830SOL    HW115389   6.075   4.636   4.744
 4830SOL    HW215390   6.018   4.548   4.869
 4831SOL     OW15391   0.145   1.618   6.539
 4831SOL    HW115392   0.158   1.674   6.457
 4831SOL    HW215393   0.223   1.556   6.549
 4832SOL     OW15394   1.743   2.538   6.549
 4832SOL    HW115395   1.762   2.534   6.451
 4832SOL    HW215396   1.825   2.566   6.598
 4833SOL     OW15397   6.592   2.341   2.060
 4833SOL    HW115398   6.658   2.324   1.986
 4833SOL    HW215399   6.558   2.254   2.096
 4834SOL     OW15400   5.628   0.687   3.304
 4834SOL    HW115401   5.614   0.588   3.300
 4834SOL    HW215402   5.694   0.709   3.376
 4835SOL     OW15403   2.300   2.395   5.891
 4835SOL    HW115404   2.214   2.357   5.857
 4835SOL    HW215405   2.375   2.368   5.829
 4836SOL     OW15406   5.922   4.847   3.500
 4836SOL    HW115407   5.894   4.805   3.586
 4836SOL    HW215408   5.859   4.921   3.476
 4837SOL     OW15409   0.045   5.305   1.793
 4837SOL    HW115410   0.076   5.336   1.703
 4837SOL    HW215411   6.993   5.356   1.819
 4838SOL     OW15412   2.967   6.520   2.748
 4838SOL    HW115413   2.877   6.549   2.782
 4838SOL    HW215414   2.992   6.576   2.669
 4839SOL     OW15415   0.582   0.196   5.935
 4839SOL    HW115416   0.645   0.153   5.999
 4839SOL    HW215417   0.622   0.280   5.900
 4840SOL     OW15418   6.262   5.488   5.849
 4840SOL    HW115419   6.277   5.394   5.877
 4840SOL    HW215420   6.285   5.498   5.752
 4841SOL     OW15421   1.116   5.458   2.291
 4841SOL    HW115422   1.191   5.515   2.323
 4841SOL    HW215423   1.037   5.515   2.269
 4842SOL     OW15424   3.687   6.668   0.487
 4842SOL    HW115425   3.609   6.719   0.522
 4842SOL    HW215426   3.696   6.684   0.388
 4843SOL     OW15427   2.469   3.866   0.651
 4843SOL    HW115428   2.432   3.779   0.618
 4843SOL    HW215429   2.513   3.852   0.739
 4844SOL     OW15430   0.248   1.111   5.527
 4844SOL    HW115431   0.275   1.016   5.512
 4844SOL    HW215432   0.314   1.171   5.482
 4845SOL     OW15433   5.913   6.777   3.861
 4845SOL    HW115434   5.931   6.713   3.786
 4845SOL    HW215435   5.999   6.820   3.889
 4846SOL     OW15436   0.174   4.417   4.952
 4846SOL    HW115437   0.085   4.396   4.994
 4846SOL    HW215438   0.222   4.484   5.008
 4847SOL     OW15439   5.230   3.762   4.251
 4847SOL    HW115440   5.216   3.759   4.152
 4847SOL    HW215441   5.326   3.745   4.272
 4848SOL     OW15442   3.085   3.518   1.150
 4848SOL    HW115443   3.091   3.499   1.248
 4848SOL    HW215444   3.171   3.493   1.106
 4849SOL     OW15445   2.626   6.509   6.973
 4849SOL    HW115446   2.630   6.441   6.900
 4849SOL    HW215447   2.664   6.470   0.027
 4850SOL     OW15448   3.476   6.686   3.244
 4850SOL    HW115449   3.550   6.639   3.292
 4850SOL    HW215450   3.410   6.721   3.310
 4851SOL     OW15451   5.289   1.839   5.400
 4851SOL    HW115452   5.230   1.916   5.427
 4851SOL    HW215453   5.251   1.754   5.436
 4852SOL     OW15454   0.919   2.038   1.705
 4852SOL    HW115455   1.005   2.089   1.717
 4852SOL    HW215456   0.910   1.971   1.779
 4853SOL     OW15457   3.194   0.601   0.836
 4853SOL    HW115458   3.126   0.578   0.766
 4853SOL    HW215459   3.226   0.517   0.880
 4854SOL     OW15460   4.441   0.032   5.460
 4854SOL    HW115461   4.349   0.001   5.437
 4854SOL    HW215462   4.497   0.037   5.378
 4855SOL     OW15463   0.055   2.744   2.422
 4855SOL    HW115464   7.018   2.685   2.377
 4855SOL    HW215465   0.047   2.837   2.386
 4856SOL     OW15466   7.000   4.836   2.936
 4856SOL    HW115467   7.012   4.934   2.922
 4856SOL    HW215468   6.987   4.817   3.033
 4857SOL     OW15469   6.619   1.215   5.930
 4857SOL    HW115470   6.634   1.313   5.915
 4857SOL    HW215471   6.701   1.164   5.905
 4858SOL     OW15472   1.352   6.900   2.890
 4858SOL    HW115473   1.411   6.963   2.941
 4858SOL    HW215474   1.353   6.924   2.793
 4859SOL     OW15475   3.543   6.889   5.840
 4859SOL    HW115476   3.498   6.810   5.800
 4859SOL    HW215477   3.511   6.972   5.794
 4860SOL     OW15478   2.603   5.316   0.185
 4860SOL    HW115479   2.604   5.255   0.265
 4860SOL    HW215480   2.657   5.275   0.112
 4861SOL     OW15481   4.188   4.065   6.019
 4861SOL    HW115482   4.158   3.994   6.083
 4861SOL    HW215483   4.128   4.145   6.028
 4862SOL     OW15484   1.961   0.600   0.463
 4862SOL    HW115485   1.976   0.697   0.477
 4862SOL    HW215486   1.884   0.586   0.401
 4863SOL     OW15487   4.978   3.932   5.777
 4863SOL    HW115488   5.025   4.017   5.753
 4863SOL    HW215489   4.944   3.888   5.694
 4864SOL     OW15490   3.346   1.470   4.007
 4864SOL    HW115491   3.341   1.451   4.105
 4864SOL    HW215492   3.395   1.395   3.961
 4865SOL     OW15493   1.372   5.664   4.981
 4865SOL    HW115494   1.360   5.659   5.080
 4865SOL    HW215495   1.334   5.582   4.938
 4866SOL     OW15496   0.321   4.189   5.554
 4866SOL    HW115497   0.354   4.166   5.462
 4866SOL    HW215498   0.238   4.137   5.573
 4867SOL     OW15499   3.800   1.237   3.397
 4867SOL    HW115500   3.794   1.174   3.320
 4867SOL    HW215501   3.727   1.305   3.391
 4868SOL     OW15502   0.092   5.959   1.442
 4868SOL    HW115503   0.083   6.042   1.387
 4868SOL    HW215504   0.188   5.929   1.441
 4869SOL     OW15505   0.164   0.734   0.484
 4869SOL    HW115506   0.168   0.829   0.454
 4869SOL    HW215507   0.155   0.674   0.404
 4870SOL     OW15508   1.668   0.580   0.679
 4870SOL    HW115509   1.687   0.537   0.768
 4870SOL    HW215510   1.750   0.627   0.647
 4871SOL     OW15511   0.772   1.860   4.141
 4871SOL    HW115512   0.781   1.916   4.224
 4871SOL    HW215513   0.724   1.912   4.070
 4872SOL     OW15514   5.597   0.467   3.016
 4872SOL    HW115515   5.606   0.559   2.979
 4872SOL    HW215516   5.604   0.469   3.115
 4873SOL     OW15517   6.517   0.035   3.697
 4873SOL    HW115518   6.456   0.078   3.630
 4873SOL    HW215519   6.494   0.068   3.789
 4874SOL     OW15520   5.813   4.556   2.622
 4874SOL    HW115521   5.812   4.459   2.644
 4874SOL    HW215522   5.908   4.587   2.611
 4875SOL     OW15523   6.680   6.865   4.651
 4875SOL    HW115524   6.712   6.950   4.692
 4875SOL    HW215525   6.738   6.789   4.682
 4876SOL     OW15526   6.013   1.782   2.133
 4876SOL    HW115527   6.005   1.862   2.073
 4876SOL    HW215528   6.087   1.723   2.101
 4877SOL     OW15529   0.692   1.431   0.487
 4877SOL    HW115530   0.766   1.498   0.492
 4877SOL    HW215531   0.633   1.452   0.409
 4878SOL     OW15532   6.348   4.165   4.384
 4878SOL    HW115533   6.371   4.154   4.288
 4878SOL    HW215534   6.259   4.210   4.393
 4879SOL     OW15535   5.672   1.118   2.863
 4879SOL    HW115536   5.610   1.150   2.934
 4879SOL    HW215537   5.626   1.121   2.774
 4880SOL     OW15538   0.470   3.448   6.708
 4880SOL    HW115539   0.482   3.546   6.695
 4880SOL    HW215540   0.525   3.418   6.787
 4881SOL     OW15541   6.765   3.697   2.171
 4881SOL    HW115542   6.863   3.709   2.189
 4881SOL    HW215543   6.740   3.602   2.188
 4882SOL     OW15544   5.230   2.288   4.128
 4882SOL    HW115545   5.159   2.256   4.064
 4882SOL    HW215546   5.192   2.362   4.184
 4883SOL     OW15547   0.033   4.369   6.230
 4883SOL    HW115548   0.075   4.296   6.284
 4883SOL    HW215549   0.103   4.437   6.206
 4884SOL     OW15550   1.868   2.495   1.646
 4884SOL    HW115551   1.859   2.463   1.552
 4884SOL    HW215552   1.894   2.592   1.646
 4885SOL     OW15553   1.154   6.208   6.462
 4885SOL    HW115554   1.201   6.262   6.532
 4885SOL    HW215555   1.187   6.236   6.371
 4886SOL     OW15556   3.307   0.768   2.037
 4886SOL    HW115557   3.215   0.729   2.037
 4886SOL    HW215558   3.314   0.838   2.108
 4887SOL     OW15559   5.225   5.785   0.556
 4887SOL    HW115560   5.210   5.686   0.560
 4887SOL    HW215561   5.178   5.829   0.633
 4888SOL     OW15562   3.734   6.598   2.881
 4888SOL    HW115563   3.818   6.612   2.934
 4888SOL    HW215564   3.658   6.646   2.924
 4889SOL     OW15565   5.230   3.213   3.578
 4889SOL    HW115566   5.246   3.284   3.509
 4889SOL    HW215567   5.309   3.206   3.638
 4890SOL     OW15568   6.796   2.179   4.758
 4890SOL    HW115569   6.772   2.110   4.690
 4890SOL    HW215570   6.758   2.267   4.731
 4891SOL     OW15571   3.252   5.728   0.381
 4891SOL    HW115572   3.216   5.635   0.375
 4891SOL    HW215573   3.176   5.793   0.374
 4892SOL     OW15574   5.068   4.890   1.721
 4892SOL    HW115575   5.061   4.943   1.805
 4892SOL    HW215576   5.159   4.849   1.715
 4893SOL     OW15577   2.625   2.586   0.864
 4893SOL    HW115578   2.574   2.668   0.889
 4893SOL    HW215579   2.605   2.513   0.930
 4894SOL     OW15580   4.961   5.793   0.407
 4894SOL    HW115581   4.946   5.695   0.413
 4894SOL    HW215582   5.054   5.815   0.439
 4895SOL     OW15583   6.410   3.614   5.158
 4895SOL    HW115584   6.480   3.674   5.118
 4895SOL    HW215585   6.435   3.519   5.142
 4896SOL     OW15586   2.411   4.819   5.176
 4896SOL    HW115587   2.474   4.783   5.106
 4896SOL    HW215588   2.349   4.747   5.205
 4897SOL     OW15589   2.952   1.867   5.819
 4897SOL    HW115590   2.861   1.872   5.860
 4897SOL    HW215591   3.006   1.946   5.849
 4898SOL     OW15592   4.912   2.467   3.104
 4898SOL    HW115593   4.841   2.507   3.045
 4898SOL    HW215594   4.983   2.535   3.121
 4899SOL     OW15595   6.229   5.344   1.318
 4899SOL    HW115596   6.181   5.262   1.348
 4899SOL    HW215597   6.326   5.324   1.307
 4900SOL     OW15598   3.278   5.463   5.712
 4900SOL    HW115599   3.186   5.455   5.673
 4900SOL    HW215600   3.297   5.383   5.769
 4901SOL     OW15601   2.356   0.748   6.301
 4901SOL    HW115602   2.269   0.700   6.313
 4901SOL    HW215603   2.425   0.709   6.362
 4902SOL     OW15604   2.355   0.091   5.675
 4902SOL    HW115605   2.340   0.186   5.651
 4902SOL    HW215606   2.374   0.038   5.592
 4903SOL     OW15607   5.194   3.748   3.016
 4903SOL    HW115608   5.102   3.711   3.023
 4903SOL    HW215609   5.251   3.685   2.963
 4904SOL     OW15610   2.540   0.299   2.042
 4904SOL    HW115611   2.515   0.270   2.134
 4904SOL    HW215612   2.639   0.305   2.034
 4905SOL     OW15613   2.372   1.469   1.479
 4905SOL    HW115614   2.457   1.458   1.530
 4905SOL    HW215615   2.389   1.519   1.395
 4906SOL     OW15616   5.620   3.642   5.028
 4906SOL    HW115617   5.630   3.596   4.940
 4906SOL    HW215618   5.649   3.580   5.101
 4907SOL     OW15619   4.637   1.946   0.626
 4907SOL    HW115620   4.607   1.862   0.581
 4907SOL    HW215621   4.576   2.021   0.601
 4908SOL     OW15622   2.397   6.648   0.020
 4908SOL    HW115623   2.478   6.597   7.022
 4908SOL    HW215624   2.326   6.584   0.050
 4909SOL     OW15625   4.960   6.752   4.918
 4909SOL    HW115626   4.947   6.844   4.954
 4909SOL    HW215627   4.954   6.686   4.992
 4910SOL     OW15628   4.287   2.129   6.504
 4910SOL    HW115629   4.273   2.162   6.597
 4910SOL    HW215630   4.217   2.061   6.481
 4911SOL     OW15631   6.569   4.753   3.759
 4911SOL    HW115632   6.563   4.680   3.690
 4911SOL    HW215633   6.663   4.787   3.763
 4912SOL     OW15634   5.967   3.614   4.459
 4912SOL    HW115635   5.989   3.530   4.508
 4912SOL    HW215636   5.992   3.693   4.515
 4913SOL     OW15637   1.345   4.078   5.995
 4913SOL    HW115638   1.304   4.161   5.958
 4913SOL    HW215639   1.404   4.036   5.925
 4914SOL     OW15640   2.855   6.971   4.336
 4914SOL    HW115641   2.827   6.910   4.410
 4914SOL    HW215642   2.878   6.916   4.256
 4915SOL     OW15643   4.956   7.030   4.749
 4915SOL    HW115644   4.972   0.085   4.698
 4915SOL    HW215645   5.012   6.956   4.710
 4916SOL     OW15646   6.034   2.999   3.867
 4916SOL    HW115647   6.045   3.047   3.780
 4916SOL    HW215648   6.125   2.978   3.904
 4917SOL     OW15649   5.166   6.085   6.765
 4917SOL    HW115650   5.194   6.007   6.821
 4917SOL    HW215651   5.070   6.075   6.739
 4918SOL     OW15652   4.531   6.240   4.198
 4918SOL    HW115653   4.485   6.152   4.184
 4918SOL    HW215654   4.530   6.291   4.112
 4919SOL     OW15655   4.931   4.058   1.904
 4919SOL    HW115656   5.009   4.014   1.860
 4919SOL    HW215657   4.848   4.040   1.851
 4920SOL     OW15658   6.197   1.050   5.800
 4920SOL    HW115659   6.270   1.118   5.796
 4920SOL    HW215660   6.109   1.096   5.795
 4921SOL     OW15661   6.467   0.575   2.117
 4921SOL    HW115662   6.504   0.505   2.056
 4921SOL    HW215663   6.441   0.655   2.063
 4922SOL     OW15664   3.987   0.062   5.825
 4922SOL    HW115665   4.029   7.002   5.808
 4922SOL    HW215666   4.016   0.126   5.754
 4923SOL     OW15667   4.029   1.225   2.374
 4923SOL    HW115668   3.996   1.160   2.443
 4923SOL    HW215669   4.063   1.174   2.295
 4924SOL     OW15670   2.814   1.822   4.636
 4924SOL    HW115671   2.802   1.905   4.690
 4924SOL    HW215672   2.861   1.845   4.550
 4925SOL     OW15673   5.258   0.185   3.658
 4925SOL    HW115674   5.214   0.204   3.570
 4925SOL    HW215675   5.260   0.269   3.713
 4926SOL     OW15676   4.483   2.436   2.252
 4926SOL    HW115677   4.524   2.432   2.161
 4926SOL    HW215678   4.388   2.403   2.248
 4927SOL     OW15679   2.145   2.079   0.703
 4927SOL    HW115680   2.155   2.006   0.636
 4927SOL    HW215681   2.225   2.081   0.763
 4928SOL     OW15682   1.007   1.584   1.638
 4928SOL    HW115683   0.922   1.532   1.628
 4928SOL    HW215684   1.082   1.533   1.595
 4929SOL     OW15685   6.539   0.303   5.158
 4929SOL    HW115686   6.603   0.340   5.090
 4929SOL    HW215687   6.448   0.295   5.117
 4930SOL     OW15688   4.746   5.795   2.569
 4930SOL    HW115689   4.662   5.780   2.517
 4930SOL    HW215690   4.818   5.736   2.531
 4931SOL     OW15691   4.453   0.316   1.281
 4931SOL    HW115692   4.542   0.307   1.236
 4931SOL    HW215693   4.443   0.245   1.351
 4932SOL     OW15694   3.869   4.021   4.087
 4932SOL    HW115695   3.924   3.941   4.113
 4932SOL    HW215696   3.824   4.058   4.168
 4933SOL     OW15697   1.918   0.953   5.007
 4933SOL    HW115698   1.837   0.898   4.987
 4933SOL    HW215699   1.925   0.968   5.106
 4934SOL     OW15700   1.842   0.168   2.795
 4934SOL    HW115701   1.929   0.217   2.783
 4934SOL    HW215702   1.804   0.144   2.706
 4935SOL     OW15703   6.509   0.214   4.370
 4935SOL    HW115704   6.433   0.242   4.312
 4935SOL    HW215705   6.479   0.141   4.431
 4936SOL     OW15706   4.670   2.536   0.431
 4936SOL    HW115707   4.690   2.624   0.390
 4936SOL    HW215708   4.578   2.538   0.471
 4937SOL     OW15709   3.779   2.898   5.139
 4937SOL    HW115710   3.834   2.900   5.222
 4937SOL    HW215711   3.809   2.970   5.077
 4938SOL     OW15712   2.802   5.041   6.468
 4938SOL    HW115713   2.803   5.115   6.536
 4938SOL    HW215714   2.770   5.077   6.381
 4939SOL     OW15715   5.196   2.876   6.558
 4939SOL    HW115716   5.237   2.966   6.540
 4939SOL    HW215717   5.220   2.847   6.650
 4940SOL     OW15718   0.813   5.832   3.124
 4940SOL    HW115719   0.792   5.876   3.036
 4940SOL    HW215720   0.739   5.850   3.188
 4941SOL     OW15721   6.740   0.417   0.064
 4941SOL    HW115722   6.668   0.356   0.029
 4941SOL    HW215723   6.704   0.510   0.071
 4942SOL     OW15724   5.131   2.835   6.131
 4942SOL    HW115725   5.193   2.758   6.146
 4942SOL    HW215726   5.120   2.886   6.216
 4943SOL     OW15727   6.670   3.196   1.094
 4943SOL    HW115728   6.674   3.183   1.193
 4943SOL    HW215729   6.647   3.291   1.074
 4944SOL     OW15730   1.970   3.600   2.375
 4944SOL    HW115731   1.974   3.521   2.314
 4944SOL    HW215732   1.874   3.619   2.398
 4945SOL     OW15733   6.863   6.037   3.948
 4945SOL    HW115734   6.804   5.985   4.010
 4945SOL    HW215735   6.889   5.979   3.871
 4946SOL     OW15736   6.595   4.469   2.555
 4946SOL    HW115737   6.501   4.467   2.590
 4946SOL    HW215738   6.617   4.380   2.516
 4947SOL     OW15739   5.528   6.980   0.398
 4947SOL    HW115740   5.544   0.028   0.338
 4947SOL    HW215741   5.616   6.943   0.428
 4948SOL     OW15742   2.619   1.079   2.084
 4948SOL    HW115743   2.610   1.103   1.987
 4948SOL    HW215744   2.552   1.131   2.138
 4949SOL     OW15745   5.499   2.137   5.847
 4949SOL    HW115746   5.448   2.082   5.913
 4949SOL    HW215747   5.471   2.113   5.754
 4950SOL     OW15748   3.555   5.498   3.894
 4950SOL    HW115749   3.607   5.583   3.889
 4950SOL    HW215750   3.617   5.420   3.896
 4951SOL     OW15751   4.596   2.598   4.052
 4951SOL    HW115752   4.590   2.502   4.078
 4951SOL    HW215753   4.592   2.656   4.134
 4952SOL     OW15754   5.913   5.466   4.596
 4952SOL    HW115755   5.888   5.435   4.504
 4952SOL    HW215756   5.988   5.531   4.589
 4953SOL     OW15757   1.024   5.355   1.861
 4953SOL    HW115758   1.121   5.360   1.836
 4953SOL    HW215759   0.999   5.435   1.916
 4954SOL     OW15760   0.400   6.853   5.767
 4954SOL    HW115761   0.480   6.900   5.806
 4954SOL    HW215762   0.397   6.759   5.801
 4955SOL     OW15763   1.482   0.395   1.882
 4955SOL    HW115764   1.415   0.323   1.867
 4955SOL    HW215765   1.560   0.381   1.822
 4956SOL     OW15766   6.015   5.623   2.652
 4956SOL    HW115767   5.997   5.601   2.747
 4956SOL    HW215768   5.947   5.690   2.620
 4957SOL     OW15769   1.363   5.397   4.638
 4957SOL    HW115770   1.460   5.391   4.660
 4957SOL    HW215771   1.340   5.325   4.571
 4958SOL     OW15772   6.744   6.422   0.086
 4958SOL    HW115773   6.802   6.398   0.164
 4958SOL    HW215774   6.742   6.345   0.022
 4959SOL     OW15775   0.842   2.410   0.198
 4959SOL    HW115776   0.876   2.503   0.214
 4959SOL    HW215777   0.800   2.405   0.107
 4960SOL     OW15778   4.254   6.310   5.284
 4960SOL    HW115779   4.239   6.291   5.187
 4960SOL    HW215780   4.348   6.287   5.308
 4961SOL     OW15781   5.864   6.702   4.829
 4961SOL    HW115782   5.917   6.785   4.812
 4961SOL    HW215783   5.830   6.702   4.922
 4962SOL     OW15784   6.064   2.375   2.346
 4962SOL    HW115785   6.071   2.471   2.372
 4962SOL    HW215786   6.154   2.342   2.318
 4963SOL     OW15787   0.786   4.879   1.954
 4963SOL    HW115788   0.717   4.924   1.898
 4963SOL    HW215789   0.763   4.782   1.964
 4964SOL     OW15790   3.903   1.074   3.819
 4964SOL    HW115791   3.806   1.077   3.798
 4964SOL    HW215792   3.956   1.076   3.733
 4965SOL     OW15793   0.261   5.405   5.175
 4965SOL    HW115794   0.177   5.418   5.227
 4965SOL    HW215795   0.330   5.362   5.233
 4966SOL     OW15796   5.081   5.667   5.949
 4966SOL    HW115797   5.120   5.577   5.963
 4966SOL    HW215798   5.073   5.715   6.036
 4967SOL     OW15799   5.664   0.791   6.784
 4967SOL    HW115800   5.630   0.838   6.865
 4967SOL    HW215801   5.734   0.848   6.739
 4968SOL     OW15802   5.480   3.224   6.852
 4968SOL    HW115803   5.450   3.319   6.841
 4968SOL    HW215804   5.579   3.221   6.861
 4969SOL     OW15805   0.835   0.415   1.556
 4969SOL    HW115806   0.815   0.453   1.465
 4969SOL    HW215807   0.779   0.334   1.571
 4970SOL     OW15808   2.182   2.065   6.227
 4970SOL    HW115809   2.153   2.087   6.134
 4970SOL    HW215810   2.168   1.968   6.245
 4971SOL     OW15811   6.705   5.907   3.375
 4971SOL    HW115812   6.752   5.969   3.312
 4971SOL    HW215813   6.734   5.813   3.356
 4972SOL     OW15814   2.214   2.258   4.423
 4972SOL    HW115815   2.312   2.236   4.418
 4972SOL    HW215816   2.161   2.182   4.385
 4973SOL     OW15817   4.188   6.012   2.977
 4973SOL    HW115818   4.286   6.003   2.995
 4973SOL    HW215819   4.139   5.939   3.024
 4974SOL     OW15820   3.710   0.018   6.167
 4974SOL    HW115821   3.783   0.068   6.212
 4974SOL    HW215822   3.689   0.061   6.079
 4975SOL     OW15823   4.031   6.167   6.897
 4975SOL    HW115824   4.073   6.255   6.876
 4975SOL    HW215825   4.080   6.125   6.974
 4976SOL     OW15826   2.721   1.106   5.138
 4976SOL    HW115827   2.750   1.133   5.046
 4976SOL    HW215828   2.797   1.121   5.202
 4977SOL     OW15829   3.903   3.095   1.993
 4977SOL    HW115830   3.819   3.093   1.940
 4977SOL    HW215831   3.981   3.106   1.932
 4978SOL     OW15832   5.931   3.697   6.343
 4978SOL    HW115833   5.858   3.695   6.275
 4978SOL    HW215834   5.957   3.604   6.367
 4979SOL     OW15835   1.224   1.706   3.999
 4979SOL    HW115836   1.143   1.697   3.942
 4979SOL    HW215837   1.261   1.799   3.991
 4980SOL     OW15838   2.528   5.020   2.402
 4980SOL    HW115839   2.538   5.106   2.352
 4980SOL    HW215840   2.516   5.040   2.500
 4981SOL     OW15841   5.302   5.946   6.036
 4981SOL    HW115842   5.363   6.020   6.065
 4981SOL    HW215843   5.352   5.860   6.035
 4982SOL     OW15844   3.059   1.635   6.542
 4982SOL    HW115845   2.975   1.610   6.493
 4982SOL    HW215846   3.067   1.579   6.624
 4983SOL     OW15847   6.789   1.716   4.334
 4983SOL    HW115848   6.731   1.679   4.261
 4983SOL    HW215849   6.782   1.656   4.415
 4984SOL     OW15850   5.550   5.678   4.028
 4984SOL    HW115851   5.453   5.680   4.004
 4984SOL    HW215852   5.606   5.684   3.945
 4985SOL     OW15853   6.068   3.686   1.283
 4985SOL    HW115854   6.135   3.640   1.225
 4985SOL    HW215855   6.090   3.784   1.288
 4986SOL     OW15856   3.360   5.306   3.729
 4986SOL    HW115857   3.290   5.375   3.711
 4986SOL    HW215858   3.370   5.293   3.827
 4987SOL     OW15859   1.635   2.907   0.165
 4987SOL    HW115860   1.683   2.914   0.252
 4987SOL    HW215861   1.563   2.838   0.172
 4988SOL     OW15862   2.244   1.901   5.081
 4988SOL    HW115863   2.177   1.845   5.130
 4988SOL    HW215864   2.312   1.841   5.039
 4989SOL     OW15865   6.972   0.693   0.920
 4989SOL    HW115866   6.982   0.780   0.871
 4989SOL    HW215867   0.021   0.680   0.980
 4990SOL     OW15868   2.002   1.961   6.686
 4990SOL    HW115869   1.921   1.967   6.626
 4990SOL    HW215870   2.016   2.048   6.732
 4991SOL     OW15871   2.858   1.899   5.530
 4991SOL    HW115872   2.801   1.817   5.533
 4991SOL    HW215873   2.893   1.919   5.621
 4992SOL     OW15874   4.474   0.225   4.650
 4992SOL    HW115875   4.539   0.153   4.623
 4992SOL    HW215876   4.520   0.291   4.708
 4993SOL     OW15877   1.178   6.426   4.418
 4993SOL    HW115878   1.174   6.522   4.448
 4993SOL    HW215879   1.087   6.396   4.391
 4994SOL     OW15880   0.088   6.583   2.881
 4994SOL    HW115881   0.159   6.595   2.811
 4994SOL    HW215882   0.010   6.641   2.859
 4995SOL     OW15883   6.216   2.963   4.948
 4995SOL    HW115884   6.209   3.042   4.887
 4995SOL    HW215885   6.189   2.990   5.041
 4996SOL     OW15886   0.638   1.537   3.891
 4996SOL    HW115887   0.720   1.573   3.935
 4996SOL    HW215888   0.599   1.465   3.949
 4997SOL     OW15889   6.785   2.376   3.427
 4997SOL    HW115890   6.707   2.363   3.488
 4997SOL    HW215891   6.760   2.436   3.352
 4998SOL     OW15892   1.114   5.643   5.263
 4998SOL    HW115893   1.071   5.733   5.256
 4998SOL    HW215894   1.213   5.655   5.273
 4999SOL     OW15895   6.781   4.574   0.976
 4999SOL    HW115896   6.771   4.533   1.067
 4999SOL    HW215897   6.696   4.564   0.925
 5000SOL     OW15898   6.293   5.737   3.598
 5000SOL    HW115899   6.339   5.809   3.545
 5000SOL    HW215900   6.224   5.693   3.540
 5001SOL     OW15901   4.915   3.733   5.255
 5001SOL    HW115902   4.828   3.705   5.216
 5001SOL    HW215903   4.938   3.826   5.224
 5002SOL     OW15904   1.447   2.265   1.565
 5002SOL    HW115905   1.510   2.220   1.629
 5002SOL    HW215906   1.368   2.299   1.615
 5003SOL     OW15907   5.635   5.981   4.665
 5003SOL    HW115908   5.691   5.925   4.604
 5003SOL    HW215909   5.578   5.922   4.722
 5004SOL     OW15910   2.245   5.028   6.240
 5004SOL    HW115911   2.220   5.125   6.245
 5004SOL    HW215912   2.331   5.014   6.291
 5005SOL     OW15913   5.140   2.082   6.675
 5005SOL    HW115914   5.151   2.131   6.761
 5005SOL    HW215915   5.229   2.063   6.635
 5006SOL     OW15916   4.536   5.519   1.703
 5006SOL    HW115917   4.496   5.514   1.794
 5006SOL    HW215918   4.464   5.511   1.634
 5007SOL     OW15919   3.457   0.816   4.644
 5007SOL    HW115920   3.465   0.909   4.680
 5007SOL    HW215921   3.437   0.820   4.546
 5008SOL     OW15922   6.140   2.092   4.382
 5008SOL    HW115923   6.225   2.107   4.433
 5008SOL    HW215924   6.124   1.993   4.373
 5009SOL     OW15925   3.379   6.877   2.234
 5009SOL    HW115926   3.302   6.920   2.186
 5009SOL    HW215927   3.368   6.778   2.231
 5010SOL     OW15928   3.271   4.066   6.228
 5010SOL    HW115929   3.182   4.031   6.200
 5010SOL    HW215930   3.293   4.148   6.175
 5011SOL     OW15931   0.713   2.226   5.228
 5011SOL    HW115932   0.754   2.139   5.202
 5011SOL    HW215933   0.613   2.217   5.227
 5012SOL     OW15934   6.362   1.868   6.992
 5012SOL    HW115935   6.376   1.772   6.966
 5012SOL    HW215936   6.417   1.889   0.043
 5013SOL     OW15937   4.969   1.754   5.033
 5013SOL    HW115938   5.062   1.784   5.013
 5013SOL    HW215939   4.940   1.688   4.963
 5014SOL     OW15940   1.207   4.541   6.368
 5014SOL    HW115941   1.234   4.575   6.458
 5014SOL    HW215942   1.125   4.589   6.337
 5015SOL     OW15943   4.883   2.527   4.067
 5015SOL    HW115944   4.786   2.553   4.072
 5015SOL    HW215945   4.936   2.584   4.129
 5016SOL     OW15946   1.790   5.657   1.179
 5016SOL    HW115947   1.764   5.563   1.198
 5016SOL    HW215948   1.873   5.681   1.231
 5017SOL     OW15949   6.984   1.272   1.637
 5017SOL    HW115950   6.907   1.333   1.655
 5017SOL    HW215951   6.965   1.218   1.555
 5018SOL     OW15952   6.037   5.504   4.133
 5018SOL    HW115953   5.965   5.435   4.132
 5018SOL    HW215954   6.079   5.510   4.043
 5019SOL     OW15955   2.979   5.743   4.792
 5019SOL    HW115956   2.978   5.665   4.856
 5019SOL    HW215957   2.885   5.772   4.773
 5020SOL     OW15958   5.250   5.237   0.436
 5020SOL    HW115959   5.307   5.295   0.378
 5020SOL    HW215960   5.216   5.160   0.383
 5021SOL     OW15961   2.656   4.916   5.349
 5021SOL    HW115962   2.592   4.840   5.339
 5021SOL    HW215963   2.740   4.895   5.300
 5022SOL     OW15964   1.593   2.731   6.295
 5022SOL    HW115965   1.663   2.669   6.331
 5022SOL    HW215966   1.631   2.783   6.219
 5023SOL     OW15967   6.223   3.720   3.598
 5023SOL    HW115968   6.234   3.621   3.585
 5023SOL    HW215969   6.213   3.764   3.509
 5024SOL     OW15970   4.932   4.284   5.349
 5024SOL    HW115971   4.902   4.306   5.442
 5024SOL    HW215972   5.031   4.292   5.343
 5025SOL     OW15973   6.101   6.673   5.158
 5025SOL    HW115974   6.191   6.663   5.198
 5025SOL    HW215975   6.108   6.720   5.070
 5026SOL     OW15976   1.165   5.855   2.709
 5026SOL    HW115977   1.197   5.804   2.788
 5026SOL    HW215978   1.076   5.896   2.729
 5027SOL     OW15979   1.053   5.772   3.213
 5027SOL    HW115980   0.965   5.805   3.179
 5027SOL    HW215981   1.088   5.702   3.151
 5028SOL     OW15982   0.638   6.847   2.846
 5028SOL    HW115983   0.663   6.820   2.938
 5028SOL    HW215984   0.544   6.881   2.846
 5029SOL     OW15985   5.910   0.934   4.251
 5029SOL    HW115986   5.819   0.928   4.290
 5029SOL    HW215987   5.951   0.843   4.247
 5030SOL     OW15988   1.242   6.086   0.726
 5030SOL    HW115989   1.245   6.183   0.702
 5030SOL    HW215990   1.326   6.042   0.697
 5031SOL     OW15991   5.018   0.316   6.952
 5031SOL    HW115992   4.966   0.236   6.983
 5031SOL    HW215993   5.045   0.371   0.001
 5032SOL     OW15994   1.804   5.605   3.010
 5032SOL    HW115995   1.833   5.575   3.101
 5032SOL    HW215996   1.724   5.551   2.983
 5033SOL     OW15997   1.429   4.405   4.781
 5033SOL    HW115998   1.490   4.328   4.762
 5033SOL    HW215999   1.361   4.413   4.708
 5034SOL     OW16000   1.134   2.610   5.835
 5034SOL    HW116001   1.108   2.598   5.931
 5034SOL    HW216002   1.163   2.522   5.797
 5035SOL     OW16003   6.945   4.541   0.770
 5035SOL    HW116004   6.870   4.541   0.836
 5035SOL    HW216005   7.019   4.599   0.804
 5036SOL     OW16006   0.997   1.405   2.360
 5036SOL    HW116007   0.964   1.389   2.453
 5036SOL    HW216008   0.920   1.428   2.301
 5037SOL     OW16009   5.641   3.745   1.096
 5037SOL    HW116010   5.578   3.682   1.141
 5037SOL    HW216011   5.730   3.702   1.086
 5038SOL     OW16012   3.184   5.738   5.887
 5038SOL    HW116013   3.259   5.677   5.860
 5038SOL    HW216014   3.107   5.726   5.824
 5039SOL     OW16015   0.514   2.040   4.212
 5039SOL    HW116016   0.434   2.016   4.158
 5039SOL    HW216017   0.574   2.100   4.159
 5040SOL     OW16018   1.870   2.870   6.394
 5040SOL    HW116019   1.854   2.840   6.300
 5040SOL    HW216020   1.860   2.969   6.399
 5041SOL     OW16021   0.606   5.632   6.940
 5041SOL    HW116022   0.563   5.609   7.028
 5041SOL    HW216023   0.540   5.680   6.882
 5042SOL     OW16024   5.892   0.909   6.089
 5042SOL    HW116025   5.912   1.007   6.081
 5042SOL    HW216026   5.886   0.869   5.998
 5043SOL     OW16027   5.629   5.903   4.153
 5043SOL    HW116028   5.593   5.827   4.099
 5043SOL    HW216029   5.689   5.958   4.096
 5044SOL     OW16030   0.386   4.127   2.370
 5044SOL    HW116031   0.420   4.215   2.335
 5044SOL    HW216032   0.338   4.142   2.456
 5045SOL     OW16033   5.222   3.256   5.497
 5045SOL    HW116034   5.156   3.206   5.441
 5045SOL    HW216035   5.229   3.350   5.465
 5046SOL     OW16036   3.850   3.136   5.913
 5046SOL    HW116037   3.770   3.103   5.863
 5046SOL    HW216038   3.854   3.236   5.907
 5047SOL     OW16039   6.756   1.405   1.715
 5047SOL    HW116040   6.728   1.413   1.811
 5047SOL    HW216041   6.694   1.459   1.658
 5048SOL     OW16042   5.584   4.328   0.015
 5048SOL    HW116043   5.626   4.414   7.018
 5048SOL    HW216044   5.509   4.346   0.078
 5049SOL     OW16045   0.817   0.537   0.136
 5049SOL    HW116046   0.870   0.587   0.068
 5049SOL    HW216047   0.865   0.454   0.162
 5050SOL     OW16048   1.410   3.972   1.260
 5050SOL    HW116049   1.481   3.905   1.282
 5050SOL    HW216050   1.405   3.984   1.161
 5051SOL     OW16051   2.301   3.825   5.767
 5051SOL    HW116052   2.210   3.819   5.809
 5051SOL    HW216053   2.354   3.897   5.812
 5052SOL     OW16054   6.521   2.687   1.220
 5052SOL    HW116055   6.516   2.769   1.162
 5052SOL    HW216056   6.434   2.638   1.217
 5053SOL     OW16057   0.830   3.970   1.157
 5053SOL    HW116058   0.909   3.909   1.161
 5053SOL    HW216059   0.857   4.063   1.182
 5054SOL     OW16060   4.347   5.401   4.779
 5054SOL    HW116061   4.263   5.407   4.725
 5054SOL    HW216062   4.390   5.491   4.783
 5055SOL     OW16063   0.936   6.899   4.298
 5055SOL    HW116064   0.861   6.834   4.282
 5055SOL    HW216065   1.021   6.849   4.314
 5056SOL     OW16066   2.948   1.173   6.807
 5056SOL    HW116067   3.036   1.196   6.848
 5056SOL    HW216068   2.877   1.173   6.878
 5057SOL     OW16069   0.399   3.744   3.317
 5057SOL    HW116070   0.346   3.695   3.248
 5057SOL    HW216071   0.364   3.721   3.408
 5058SOL     OW16072   3.705   1.786   6.899
 5058SOL    HW116073   3.691   1.796   6.800
 5058SOL    HW216074   3.799   1.811   6.922
 5059SOL     OW16075   5.181   2.510   2.833
 5059SOL    HW116076   5.164   2.416   2.803
 5059SOL    HW216077   5.093   2.555   2.850
 5060SOL     OW16078   0.479   3.321   5.823
 5060SOL    HW116079   0.382   3.344   5.823
 5060SOL    HW216080   0.509   3.297   5.731
 5061SOL     OW16081   4.206   2.783   6.309
 5061SOL    HW116082   4.164   2.846   6.375
 5061SOL    HW216083   4.298   2.814   6.287
 5062SOL     OW16084   5.542   1.467   2.973
 5062SOL    HW116085   5.616   1.422   3.023
 5062SOL    HW216086   5.564   1.468   2.876
 5063SOL     OW16087   0.459   0.678   0.402
 5063SOL    HW116088   0.374   0.637   0.436
 5063SOL    HW216089   0.443   0.721   0.313
 5064SOL     OW16090   6.758   5.203   0.425
 5064SOL    HW116091   6.688   5.139   0.392
 5064SOL    HW216092   6.758   5.202   0.525
 5065SOL     OW16093   0.956   1.781   2.688
 5065SOL    HW116094   0.942   1.879   2.701
 5065SOL    HW216095   0.903   1.730   2.755
 5066SOL     OW16096   0.772   5.316   3.632
 5066SOL    HW116097   0.774   5.310   3.731
 5066SOL    HW216098   0.863   5.339   3.597
 5067SOL     OW16099   4.184   2.726   0.664
 5067SOL    HW116100   4.163   2.775   0.580
 5067SOL    HW216101   4.124   2.646   0.671
 5068SOL     OW16102   1.329   6.296   0.951
 5068SOL    HW116103   1.298   6.327   0.861
 5068SOL    HW216104   1.333   6.375   1.013
 5069SOL     OW16105   3.993   4.863   6.296
 5069SOL    HW116106   3.937   4.880   6.378
 5069SOL    HW216107   3.946   4.800   6.235
 5070SOL     OW16108   1.136   3.681   6.592
 5070SOL    HW116109   1.042   3.659   6.616
 5070SOL    HW216110   1.140   3.714   6.497
 5071SOL     OW16111   1.402   6.515   2.918
 5071SOL    HW116112   1.482   6.456   2.909
 5071SOL    HW216113   1.417   6.598   2.864
 5072SOL     OW16114   0.800   2.489   2.959
 5072SOL    HW116115   0.735   2.535   2.900
 5072SOL    HW216116   0.762   2.402   2.989
 5073SOL     OW16117   1.840   1.518   4.364
 5073SOL    HW116118   1.901   1.491   4.289
 5073SOL    HW216119   1.886   1.585   4.422
 5074SOL     OW16120   3.673   2.019   1.528
 5074SOL    HW116121   3.654   2.111   1.562
 5074SOL    HW216122   3.736   1.973   1.590
 5075SOL     OW16123   6.099   1.999   6.845
 5075SOL    HW116124   6.182   1.979   6.896
 5075SOL    HW216125   6.098   1.944   6.761
 5076SOL     OW16126   6.939   1.580   5.969
 5076SOL    HW116127   6.959   1.595   6.066
 5076SOL    HW216128   7.003   1.634   5.914
 5077SOL     OW16129   0.890   5.318   4.612
 5077SOL    HW116130   0.799   5.296   4.577
 5077SOL    HW216131   0.956   5.250   4.580
 5078SOL     OW16132   5.616   1.752   3.014
 5078SOL    HW116133   5.627   1.654   3.025
 5078SOL    HW216134   5.691   1.789   2.959
 5079SOL     OW16135   1.597   3.664   5.971
 5079SOL    HW116136   1.655   3.687   6.049
 5079SOL    HW216137   1.621   3.573   5.937
 5080SOL     OW16138   6.602   5.955   6.720
 5080SOL    HW116139   6.580   5.923   6.627
 5080SOL    HW216140   6.652   5.883   6.768
 5081SOL     OW16141   3.733   4.258   6.066
 5081SOL    HW116142   3.670   4.257   5.988
 5081SOL    HW216143   3.712   4.181   6.126
 5082SOL     OW16144   5.571   0.101   2.776
 5082SOL    HW116145   5.538   0.007   2.773
 5082SOL    HW216146   5.626   0.115   2.858
 5083SOL     OW16147   0.044   0.951   3.291
 5083SOL    HW116148   0.106   0.888   3.338
 5083SOL    HW216149   6.983   0.910   3.285
 5084SOL     OW16150   3.707   5.100   5.727
 5084SOL    HW116151   3.629   5.084   5.787
 5084SOL    HW216152   3.792   5.092   5.780
 5085SOL     OW16153   1.289   3.440   6.475
 5085SOL    HW116154   1.240   3.527   6.485
 5085SOL    HW216155   1.269   3.381   6.553
 5086SOL     OW16156   0.659   4.612   2.190
 5086SOL    HW116157   0.682   4.699   2.231
 5086SOL    HW216158   0.728   4.587   2.122
 5087SOL     OW16159   6.452   5.263   1.913
 5087SOL    HW116160   6.413   5.178   1.878
 5087SOL    HW216161   6.511   5.242   1.992
 5088SOL     OW16162   4.639   4.746   2.421
 5088SOL    HW116163   4.656   4.687   2.342
 5088SOL    HW216164   4.725   4.783   2.455
 5089SOL     OW16165   4.354   5.875   6.114
 5089SOL    HW116166   4.349   5.960   6.165
 5089SOL    HW216167   4.305   5.886   6.027
 5090SOL     OW16168   2.121   6.433   4.573
 5090SOL    HW116169   2.184   6.494   4.621
 5090SOL    HW216170   2.027   6.459   4.594
 5091SOL     OW16171   5.997   5.769   4.891
 5091SOL    HW116172   6.082   5.718   4.899
 5091SOL    HW216173   5.919   5.707   4.900
 5092SOL     OW16174   3.339   2.990   4.683
 5092SOL    HW116175   3.364   2.934   4.604
 5092SOL    HW216176   3.283   3.067   4.654
 5093SOL     OW16177   3.316   2.031   3.097
 5093SOL    HW116178   3.406   2.076   3.098
 5093SOL    HW216179   3.323   1.942   3.142
 5094SOL     OW16180   2.379   4.746   4.633
 5094SOL    HW116181   2.437   4.702   4.701
 5094SOL    HW216182   2.292   4.772   4.676
 5095SOL     OW16183   5.973   2.588   3.189
 5095SOL    HW116184   5.959   2.505   3.134
 5095SOL    HW216185   5.973   2.563   3.286
 5096SOL     OW16186   6.441   3.339   5.118
 5096SOL    HW116187   6.519   3.291   5.080
 5096SOL    HW216188   6.359   3.316   5.065
 5097SOL     OW16189   0.787   0.397   6.017
 5097SOL    HW116190   0.871   0.420   5.969
 5097SOL    HW216191   0.792   0.303   6.052
 5098SOL     OW16192   2.715   1.806   0.665
 5098SOL    HW116193   2.624   1.813   0.624
 5098SOL    HW216194   2.773   1.750   0.606
 5099SOL     OW16195   1.473   5.623   1.742
 5099SOL    HW116196   1.416   5.704   1.758
 5099SOL    HW216197   1.515   5.594   1.828
 5100SOL     OW16198   0.298   3.516   1.538
 5100SOL    HW116199   0.302   3.593   1.601
 5100SOL    HW216200   0.315   3.431   1.588
 5101SOL     OW16201   4.799   2.001   5.982
 5101SOL    HW116202   4.772   1.943   5.905
 5101SOL    HW216203   4.719   2.054   6.012
 5102SOL     OW16204   5.726   4.875   5.150
 5102SOL    HW116205   5.748   4.913   5.240
 5102SOL    HW216206   5.808   4.878   5.092
 5103SOL     OW16207   0.392   0.257   5.108
 5103SOL    HW116208   0.320   0.220   5.050
 5103SOL    HW216209   0.366   0.247   5.204
 5104SOL     OW16210   3.469   3.077   3.743
 5104SOL    HW116211   3.438   3.034   3.659
 5104SOL    HW216212   3.410   3.048   3.819
 5105SOL     OW16213   4.556   2.216   6.434
 5105SOL    HW116214   4.466   2.182   6.461
 5105SOL    HW216215   4.610   2.236   6.516
 5106SOL     OW16216   4.275   0.556   1.231
 5106SOL    HW116217   4.282   0.560   1.132
 5106SOL    HW216218   4.322   0.474   1.264
 5107SOL     OW16219   6.430   4.157   0.342
 5107SOL    HW116220   6.495   4.081   0.348
 5107SOL    HW216221   6.383   4.167   0.430
 5108SOL     OW16222   4.455   4.070   0.519
 5108SOL    HW116223   4.443   4.101   0.424
 5108SOL    HW216224   4.551   4.043   0.533
 5109SOL     OW16225   1.340   2.580   2.136
 5109SOL    HW116226   1.343   2.566   2.235
 5109SOL    HW216227   1.381   2.502   2.089
 5110SOL     OW16228   3.622   0.013   4.988
 5110SOL    HW116229   3.668   6.957   4.962
 5110SOL    HW216230   3.622   0.076   4.911
 5111SOL     OW16231   2.486   6.427   6.697
 5111SOL    HW116232   2.426   6.360   6.741
 5111SOL    HW216233   2.445   6.518   6.704
 5112SOL     OW16234   0.815   3.884   2.648
 5112SOL    HW116235   0.761   3.895   2.565
 5112SOL    HW216236   0.867   3.799   2.643
 5113SOL     OW16237   3.154   4.797   1.481
 5113SOL    HW116238   3.113   4.739   1.551
 5113SOL    HW216239   3.150   4.751   1.392
 5114SOL     OW16240   5.057   3.682   0.969
 5114SOL    HW116241   5.070   3.759   1.032
 5114SOL    HW216242   5.127   3.613   0.987
 5115SOL     OW16243   1.518   3.824   0.450
 5115SOL    HW116244   1.476   3.906   0.490
 5115SOL    HW216245   1.605   3.805   0.496
 5116SOL     OW16246   0.755   6.025   5.937
 5116SOL    HW116247   0.677   5.963   5.943
 5116SOL    HW216248   0.723   6.120   5.938
 5117SOL     OW16249   0.526   3.847   4.358
 5117SOL    HW116250   0.582   3.897   4.291
 5117SOL    HW216251   0.454   3.798   4.310
 5118SOL     OW16252   5.141   5.282   0.795
 5118SOL    HW116253   5.064   5.295   0.857
 5118SOL    HW216254   5.226   5.311   0.839
 5119SOL     OW16255   5.260   1.257   0.004
 5119SOL    HW116256   5.240   1.230   6.939
 5119SOL    HW216257   5.320   1.189   0.045
 5120SOL     OW16258   5.425   6.143   0.150
 5120SOL    HW116259   5.422   6.208   0.074
 5120SOL    HW216260   5.383   6.057   0.122
 5121SOL     OW16261   2.338   3.663   0.042
 5121SOL    HW116262   2.351   3.587   7.008
 5121SOL    HW216263   2.305   3.627   0.129
 5122SOL     OW16264   5.126   5.613   3.656
 5122SOL    HW116265   5.063   5.574   3.588
 5122SOL    HW216266   5.073   5.655   3.730
 5123SOL     OW16267   4.508   2.378   1.618
 5123SOL    HW116268   4.603   2.382   1.648
 5123SOL    HW216269   4.493   2.293   1.567
 5124SOL     OW16270   0.571   6.147   4.348
 5124SOL    HW116271   0.592   6.077   4.415
 5124SOL    HW216272   0.472   6.159   4.342
 5125SOL     OW16273   5.183   3.094   4.036
 5125SOL    HW116274   5.176   3.089   3.936
 5125SOL    HW216275   5.146   3.010   4.076
 5126SOL     OW16276   2.903   0.642   2.821
 5126SOL    HW116277   2.903   0.695   2.737
 5126SOL    HW216278   2.899   0.544   2.799
 5127SOL     OW16279   2.054   5.980   1.003
 5127SOL    HW116280   2.128   6.010   0.942
 5127SOL    HW216281   1.966   5.998   0.958
 5128SOL     OW16282   3.950   0.445   2.202
 5128SOL    HW116283   3.940   0.540   2.231
 5128SOL    HW216284   3.870   0.418   2.149
 5129SOL     OW16285   6.120   5.560   0.131
 5129SOL    HW116286   6.022   5.540   0.135
 5129SOL    HW216287   6.164   5.496   0.068
 5130SOL     OW16288   5.853   5.121   2.282
 5130SOL    HW116289   5.810   5.076   2.205
 5130SOL    HW216290   5.936   5.071   2.308
 5131SOL     OW16291   2.381   2.204   1.973
 5131SOL    HW116292   2.378   2.158   1.885
 5131SOL    HW216293   2.447   2.279   1.970
 5132SOL     OW16294   2.514   6.450   6.081
 5132SOL    HW116295   2.586   6.442   6.150
 5132SOL    HW216296   2.477   6.359   6.061
 5133SOL     OW16297   4.009   5.338   4.951
 5133SOL    HW116298   3.973   5.287   4.873
 5133SOL    HW216299   3.941   5.342   5.024
 5134SOL     OW16300   0.776   2.877   0.148
 5134SOL    HW116301   0.818   2.851   0.061
 5134SOL    HW216302   0.677   2.888   0.136
 5135SOL     OW16303   6.130   1.771   2.628
 5135SOL    HW116304   6.089   1.746   2.540
 5135SOL    HW216305   6.165   1.690   2.674
 5136SOL     OW16306   3.441   1.722   6.958
 5136SOL    HW116307   3.386   1.728   6.875
 5136SOL    HW216308   3.537   1.733   6.935
 5137SOL     OW16309   4.121   3.748   7.028
 5137SOL    HW116310   4.147   3.687   6.953
 5137SOL    HW216311   4.171   3.834   7.020
 5138SOL     OW16312   2.574   2.624   6.235
 5138SOL    HW116313   2.513   2.581   6.302
 5138SOL    HW216314   2.569   2.723   6.243
 5139SOL     OW16315   0.509   6.734   4.088
 5139SOL    HW116316   0.488   6.772   4.178
 5139SOL    HW216317   0.539   6.808   4.027
 5140SOL     OW16318   3.223   3.429   2.816
 5140SOL    HW116319   3.195   3.434   2.912
 5140SOL    HW216320   3.239   3.522   2.781
 5141SOL     OW16321   1.584   2.974   5.066
 5141SOL    HW116322   1.560   2.998   5.160
 5141SOL    HW216323   1.682   2.954   5.060
 5142SOL     OW16324   5.106   3.082   1.466
 5142SOL    HW116325   5.061   2.998   1.437
 5142SOL    HW216326   5.143   3.070   1.558
 5143SOL     OW16327   6.940   5.115   6.486
 5143SOL    HW116328   6.987   5.182   6.544
 5143SOL    HW216329   6.843   5.113   6.510
 5144SOL     OW16330   2.349   1.413   4.979
 5144SOL    HW116331   2.430   1.471   4.985
 5144SOL    HW216332   2.317   1.391   5.071
 5145SOL     OW16333   3.279   5.088   6.764
 5145SOL    HW116334   3.365   5.138   6.749
 5145SOL    HW216335   3.255   5.092   6.861
 5146SOL     OW16336   3.625   5.370   1.199
 5146SOL    HW116337   3.645   5.467   1.205
 5146SOL    HW216338   3.613   5.333   1.292
 5147SOL     OW16339   0.486   5.781   6.003
 5147SOL    HW116340   0.445   5.771   5.912
 5147SOL    HW216341   0.443   5.858   6.051
 5148SOL     OW16342   6.962   0.863   1.544
 5148SOL    HW116343   6.962   0.870   1.644
 5148SOL    HW216344   6.967   0.955   1.505
 5149SOL     OW16345   6.362   0.444   4.843
 5149SOL    HW116346   6.459   0.423   4.845
 5149SOL    HW216347   6.311   0.374   4.893
 5150SOL     OW16348   2.859   5.186   5.880
 5150SOL    HW116349   2.825   5.273   5.844
 5150SOL    HW216350   2.810   5.164   5.965
 5151SOL     OW16351   5.341   6.801   6.072
 5151SOL    HW116352   5.312   6.737   6.001
 5151SOL    HW216353   5.301   6.891   6.055
 5152SOL     OW16354   0.066   4.880   6.474
 5152SOL    HW116355   0.004   4.958   6.469
 5152SOL    HW216356   0.135   4.888   6.402
 5153SOL     OW16357   2.873   2.948   1.160
 5153SOL    HW116358   2.875   2.853   1.129
 5153SOL    HW216359   2.941   2.960   1.233
 5154SOL     OW16360   1.404   3.868   5.206
 5154SOL    HW116361   1.316   3.915   5.213
 5154SOL    HW216362   1.414   3.803   5.281
 5155SOL     OW16363   4.197   0.635   2.501
 5155SOL    HW116364   4.097   0.636   2.509
 5155SOL    HW216365   4.235   0.709   2.557
 5156SOL     OW16366   5.587   3.503   5.492
 5156SOL    HW116367   5.539   3.505   5.580
 5156SOL    HW216368   5.672   3.555   5.500
 5157SOL     OW16369   0.046   2.780   3.892
 5157SOL    HW116370   0.128   2.826   3.858
 5157SOL    HW216371   7.014   2.847   3.933
 5158SOL     OW16372   4.170   0.904   1.964
 5158SOL    HW116373   4.192   0.818   2.011
 5158SOL    HW216374   4.244   0.929   1.903
 5159SOL     OW16375   1.555   3.931   4.988
 5159SOL    HW116376   1.488   3.910   5.059
 5159SOL    HW216377   1.647   3.916   5.025
 5160SOL     OW16378   2.267   2.205   3.084
 5160SOL    HW116379   2.242   2.192   3.180
 5160SOL    HW216380   2.351   2.153   3.065
 5161SOL     OW16381   1.524   2.383   6.957
 5161SOL    HW116382   1.618   2.405   6.934
 5161SOL    HW216383   1.501   2.421   0.017
 5162SOL     OW16384   6.124   5.766   5.258
 5162SOL    HW116385   6.116   5.679   5.306
 5162SOL    HW216386   6.039   5.783   5.207
 5163SOL     OW16387   6.546   3.469   1.007
 5163SOL    HW116388   6.610   3.520   0.948
 5163SOL    HW216389   6.506   3.532   1.074
 5164SOL     OW16390   6.620   6.654   5.257
 5164SOL    HW116391   6.668   6.623   5.175
 5164SOL    HW216392   6.631   6.586   5.330
 5165SOL     OW16393   5.679   4.602   5.054
 5165SOL    HW116394   5.688   4.661   4.973
 5165SOL    HW216395   5.665   4.659   5.135
 5166SOL     OW16396   0.108   0.662   2.955
 5166SOL    HW116397   0.054   0.583   2.984
 5166SOL    HW216398   0.066   0.745   2.991
 5167SOL     OW16399   2.292   0.221   4.791
 5167SOL    HW116400   2.238   0.205   4.874
 5167SOL    HW216401   2.234   0.208   4.711
 5168SOL     OW16402   3.394   1.378   2.166
 5168SOL    HW116403   3.350   1.390   2.255
 5168SOL    HW216404   3.368   1.453   2.105
 5169SOL     OW16405   3.380   5.804   6.530
 5169SOL    HW116406   3.320   5.861   6.587
 5169SOL    HW216407   3.460   5.858   6.503
 5170SOL     OW16408   4.011   5.006   4.668
 5170SOL    HW116409   4.025   5.104   4.661
 5170SOL    HW216410   3.949   4.986   4.744
 5171SOL     OW16411   2.582   4.335   5.700
 5171SOL    HW116412   2.640   4.286   5.765
 5171SOL    HW216413   2.525   4.270   5.650
 5172SOL     OW16414   1.803   3.168   6.195
 5172SOL    HW116415   1.869   3.183   6.121
 5172SOL    HW216416   1.732   3.238   6.191
 5173SOL     OW16417   0.658   2.218   4.801
 5173SOL    HW116418   0.739   2.266   4.768
 5173SOL    HW216419   0.686   2.142   4.860
 5174SOL     OW16420   2.867   4.881   6.776
 5174SOL    HW116421   2.818   4.871   6.689
 5174SOL    HW216422   2.827   4.820   6.844
 5175SOL     OW16423   1.039   5.385   0.219
 5175SOL    HW116424   1.124   5.333   0.217
 5175SOL    HW216425   1.007   5.393   0.314
 5176SOL     OW16426   5.955   3.441   6.750
 5176SOL    HW116427   5.893   3.441   6.671
 5176SOL    HW216428   5.902   3.455   6.834
 5177SOL     OW16429   4.946   5.258   0.290
 5177SOL    HW116430   5.027   5.201   0.279
 5177SOL    HW216431   4.864   5.201   0.292
 5178SOL     OW16432   3.174   4.683   0.558
 5178SOL    HW116433   3.199   4.666   0.462
 5178SOL    HW216434   3.082   4.721   0.563
 5179SOL     OW16435   2.759   5.955   5.680
 5179SOL    HW116436   2.741   5.905   5.765
 5179SOL    HW216437   2.692   6.028   5.670
 5180SOL     OW16438   4.831   1.498   5.943
 5180SOL    HW116439   4.872   1.409   5.928
 5180SOL    HW216440   4.891   1.554   6.001
 5181SOL     OW16441   2.807   6.158   3.195
 5181SOL    HW116442   2.715   6.196   3.190
 5181SOL    HW216443   2.825   6.102   3.114
 5182SOL     OW16444   4.633   3.976   0.747
 5182SOL    HW116445   4.607   4.013   0.837
 5182SOL    HW216446   4.557   3.921   0.711
 5183SOL     OW16447   3.033   1.084   3.328
 5183SOL    HW116448   3.019   1.011   3.395
 5183SOL    HW216449   2.972   1.161   3.350
 5184SOL     OW16450   0.743   1.794   3.301
 5184SOL    HW116451   0.806   1.828   3.371
 5184SOL    HW216452   0.795   1.772   3.218
 5185SOL     OW16453   4.776   0.678   1.958
 5185SOL    HW116454   4.715   0.692   1.880
 5185SOL    HW216455   4.837   0.601   1.939
 5186SOL     OW16456   5.406   3.514   6.825
 5186SOL    HW116457   5.337   3.475   6.885
 5186SOL    HW216458   5.442   3.598   6.865
 5187SOL     OW16459   4.696   4.372   4.496
 5187SOL    HW116460   4.623   4.409   4.553
 5187SOL    HW216461   4.732   4.289   4.538
 5188SOL     OW16462   0.778   0.838   3.320
 5188SOL    HW116463   0.681   0.843   3.345
 5188SOL    HW216464   0.832   0.824   3.403
 5189SOL     OW16465   4.801   5.441   5.576
 5189SOL    HW116466   4.711   5.471   5.545
 5189SOL    HW216467   4.850   5.518   5.617
 5190SOL     OW16468   1.648   1.857   2.415
 5190SOL    HW116469   1.613   1.810   2.334
 5190SOL    HW216470   1.680   1.791   2.482
 5191SOL     OW16471   5.139   1.418   2.338
 5191SOL    HW116472   5.211   1.486   2.328
 5191SOL    HW216473   5.151   1.346   2.270
 5192SOL     OW16474   6.429   3.834   2.336
 5192SOL    HW116475   6.396   3.911   2.391
 5192SOL    HW216476   6.493   3.779   2.390
 5193SOL     OW16477   3.855   4.893   3.121
 5193SOL    HW116478   3.822   4.851   3.205
 5193SOL    HW216479   3.954   4.885   3.117
 5194SOL     OW16480   5.653   0.488   0.161
 5194SOL    HW116481   5.746   0.490   0.196
 5194SOL    HW216482   5.611   0.400   0.181
 5195SOL     OW16483   0.422   5.031   5.578
 5195SOL    HW116484   0.342   4.981   5.543
 5195SOL    HW216485   0.486   5.049   5.504
 5196SOL     OW16486   1.540   3.438   3.088
 5196SOL    HW116487   1.483   3.435   3.170
 5196SOL    HW216488   1.628   3.480   3.111
 5197SOL     OW16489   3.307   6.386   5.545
 5197SOL    HW116490   3.315   6.469   5.490
 5197SOL    HW216491   3.338   6.404   5.638
 5198SOL     OW16492   4.191   1.466   6.497
 5198SOL    HW116493   4.170   1.369   6.485
 5198SOL    HW216494   4.211   1.507   6.408
 5199SOL     OW16495   0.762   6.204   3.537
 5199SOL    HW116496   0.827   6.251   3.596
 5199SOL    HW216497   0.675   6.252   3.538
 5200SOL     OW16498   5.973   6.506   6.023
 5200SOL    HW116499   6.048   6.547   5.970
 5200SOL    HW216500   5.894   6.492   5.963
 5201SOL     OW16501   6.767   3.791   5.310
 5201SOL    HW116502   6.863   3.763   5.313
 5201SOL    HW216503   6.714   3.739   5.377
 5202SOL     OW16504   3.576   3.015   5.920
 5202SOL    HW116505   3.544   2.923   5.899
 5202SOL    HW216506   3.663   3.010   5.969
 5203SOL     OW16507   0.381   6.834   5.203
 5203SOL    HW116508   0.451   6.825   5.274
 5203SOL    HW216509   0.327   6.916   5.221
 5204SOL     OW16510   1.900   0.360   2.203
 5204SOL    HW116511   1.807   0.394   2.191
 5204SOL    HW216512   1.899   0.261   2.213
 5205SOL     OW16513   6.022   6.837   1.700
 5205SOL    HW116514   6.004   6.914   1.761
 5205SOL    HW216515   5.965   6.759   1.726
 5206SOL     OW16516   1.117   4.654   4.933
 5206SOL    HW116517   1.185   4.661   4.861
 5206SOL    HW216518   1.062   4.738   4.935
 5207SOL     OW16519   4.786   1.850   4.736
 5207SOL    HW116520   4.700   1.902   4.736
 5207SOL    HW216521   4.862   1.912   4.755
 5208SOL     OW16522   6.935   1.440   0.661
 5208SOL    HW116523   6.850   1.470   0.705
 5208SOL    HW216524   6.932   1.341   0.646
 5209SOL     OW16525   4.491   5.824   3.018
 5209SOL    HW116526   4.430   5.744   3.013
 5209SOL    HW216527   4.569   5.809   2.957
 5210SOL     OW16528   6.473   3.846   2.060
 5210SOL    HW116529   6.459   3.838   2.158
 5210SOL    HW216530   6.402   3.905   2.021
 5211SOL     OW16531   4.836   3.013   4.823
 5211SOL    HW116532   4.780   2.969   4.753
 5211SOL    HW216533   4.800   2.992   4.914
 5212SOL     OW16534   6.679   4.005   0.353
 5212SOL    HW116535   6.698   3.916   0.311
 5212SOL    HW216536   6.712   4.078   0.294
 5213SOL     OW16537   3.237   3.233   4.575
 5213SOL    HW116538   3.145   3.265   4.601
 5213SOL    HW216539   3.267   3.282   4.493
 5214SOL     OW16540   6.032   3.171   5.094
 5214SOL    HW116541   6.033   3.147   5.191
 5214SOL    HW216542   5.978   3.104   5.044
 5215SOL     OW16543   0.381   4.593   5.072
 5215SOL    HW116544   0.385   4.649   5.155
 5215SOL    HW216545   0.451   4.522   5.076
 5216SOL     OW16546   0.324   3.991   7.008
 5216SOL    HW116547   0.264   3.926   0.025
 5216SOL    HW216548   0.352   4.062   0.042
 5217SOL     OW16549   3.019   0.845   1.779
 5217SOL    HW116550   3.069   0.863   1.694
 5217SOL    HW216551   3.058   0.900   1.853
 5218SOL     OW16552   6.555   6.533   0.484
 5218SOL    HW116553   6.593   6.564   0.397
 5218SOL    HW216554   6.503   6.606   0.526
 5219SOL     OW16555   4.115   1.951   4.414
 5219SOL    HW116556   4.031   1.904   4.386
 5219SOL    HW216557   4.098   2.050   4.418
 5220SOL     OW16558   2.275   4.569   4.429
 5220SOL    HW116559   2.190   4.598   4.385
 5220SOL    HW216560   2.290   4.622   4.512
 5221SOL     OW16561   4.184   0.092   0.629
 5221SOL    HW116562   4.222   0.000   0.640
 5221SOL    HW216563   4.254   0.152   0.588
 5222SOL     OW16564   5.684   2.218   2.075
 5222SOL    HW116565   5.656   2.163   2.154
 5222SOL    HW216566   5.775   2.257   2.092
 5223SOL     OW16567   0.098   1.323   0.446
 5223SOL    HW116568   0.129   1.413   0.478
 5223SOL    HW216569   0.048   1.277   0.520
 5224SOL     OW16570   1.954   1.691   4.541
 5224SOL    HW116571   1.948   1.671   4.638
 5224SOL    HW216572   1.979   1.787   4.528
 5225SOL     OW16573   6.807   3.737   6.152
 5225SOL    HW116574   6.773   3.679   6.078
 5225SOL    HW216575   6.884   3.792   6.120
 5226SOL     OW16576   0.562   0.370   4.234
 5226SOL    HW116577   0.604   0.340   4.148
 5226SOL    HW216578   0.563   0.470   4.238
 5227SOL     OW16579   3.095   2.509   6.676
 5227SOL    HW116580   3.158   2.489   6.601
 5227SOL    HW216581   3.061   2.602   6.666
 5228SOL     OW16582   0.256   2.368   6.160
 5228SOL    HW116583   0.180   2.348   6.098
 5228SOL    HW216584   0.288   2.462   6.144
 5229SOL     OW16585   3.946   1.747   1.658
 5229SOL    HW116586   3.981   1.751   1.565
 5229SOL    HW216587   3.916   1.654   1.679
 5230SOL     OW16588   6.012   1.055   2.086
 5230SOL    HW116589   5.947   1.130   2.081
 5230SOL    HW216590   6.007   1.000   2.002
 5231SOL     OW16591   6.763   3.886   2.366
 5231SOL    HW116592   6.798   3.967   2.320
 5231SOL    HW216593   6.748   3.813   2.300
 5232SOL     OW16594   2.268   1.373   6.086
 5232SOL    HW116595   2.254   1.442   6.015
 5232SOL    HW216596   2.353   1.323   6.068
 5233SOL     OW16597   2.156   6.834   4.045
 5233SOL    HW116598   2.185   6.922   4.008
 5233SOL    HW216599   2.216   6.808   4.121
 5234SOL     OW16600   3.666   2.701   6.209
 5234SOL    HW116601   3.633   2.617   6.167
 5234SOL    HW216602   3.732   2.679   6.281
 5235SOL     OW16603   2.677   2.780   1.665
 5235SOL    HW116604   2.594   2.753   1.615
 5235SOL    HW216605   2.732   2.699   1.683
 5236SOL     OW16606   2.812   5.418   1.949
 5236SOL    HW116607   2.769   5.474   2.021
 5236SOL    HW216608   2.893   5.465   1.915
 5237SOL     OW16609   0.925   1.235   1.500
 5237SOL    HW116610   0.834   1.273   1.486
 5237SOL    HW216611   0.925   1.138   1.477
 5238SOL     OW16612   6.048   1.258   3.341
 5238SOL    HW116613   5.990   1.315   3.400
 5238SOL    HW216614   6.138   1.302   3.330
 5239SOL     OW16615   2.327   3.430   6.941
 5239SOL    HW116616   2.245   3.401   6.891
 5239SOL    HW216617   2.345   3.366   7.015
 5240SOL     OW16618   1.662   3.520   4.938
 5240SOL    HW116619   1.580   3.577   4.933
 5240SOL    HW216620   1.706   3.533   5.027
 5241SOL     OW16621   2.373   4.916   2.823
 5241SOL    HW116622   2.469   4.925   2.797
 5241SOL    HW216623   2.344   5.000   2.869
 5242SOL     OW16624   4.623   6.104   5.702
 5242SOL    HW116625   4.639   6.199   5.675
 5242SOL    HW216626   4.709   6.055   5.704
 5243SOL     OW16627   2.266   5.450   4.290
 5243SOL    HW116628   2.348   5.447   4.233
 5243SOL    HW216629   2.184   5.442   4.233
 5244SOL     OW16630   5.738   6.801   6.719
 5244SOL    HW116631   5.639   6.818   6.725
 5244SOL    HW216632   5.754   6.711   6.678
 5245SOL     OW16633   3.098   3.838   2.040
 5245SOL    HW116634   3.078   3.928   2.002
 5245SOL    HW216635   3.187   3.807   2.008
 5246SOL     OW16636   6.467   2.983   5.399
 5246SOL    HW116637   6.539   2.987   5.329
 5246SOL    HW216638   6.418   2.896   5.392
 5247SOL     OW16639   4.727   1.369   4.777
 5247SOL    HW116640   4.774   1.457   4.791
 5247SOL    HW216641   4.782   1.312   4.715
 5248SOL     OW16642   4.454   1.155   2.447
 5248SOL    HW116643   4.441   1.231   2.384
 5248SOL    HW216644   4.371   1.099   2.448
 5249SOL     OW16645   0.360   5.533   2.390
 5249SOL    HW116646   0.411   5.616   2.368
 5249SOL    HW216647   0.292   5.516   2.318
 5250SOL     OW16648   1.655   5.027   0.024
 5250SOL    HW116649   1.660   5.122   0.052
 5250SOL    HW216650   1.602   4.975   0.091
 5251SOL     OW16651   2.488   3.998   6.447
 5251SOL    HW116652   2.406   3.981   6.502
 5251SOL    HW216653   2.529   4.085   6.474
 5252SOL     OW16654   3.936   5.557   3.882
 5252SOL    HW116655   3.898   5.471   3.849
 5252SOL    HW216656   3.862   5.614   3.920
 5253SOL     OW16657   0.315   6.538   3.775
 5253SOL    HW116658   0.350   6.500   3.861
 5253SOL    HW216659   0.373   6.615   3.747
 5254SOL     OW16660   4.248   6.379   2.077
 5254SOL    HW116661   4.264   6.478   2.068
 5254SOL    HW216662   4.156   6.357   2.047
 5255SOL     OW16663   0.770   1.657   6.363
 5255SOL    HW116664   0.789   1.567   6.323
 5255SOL    HW216665   0.729   1.644   6.454
 5256SOL     OW16666   3.879   1.659   2.585
 5256SOL    HW116667   3.779   1.665   2.578
 5256SOL    HW216668   3.916   1.616   2.502
 5257SOL     OW16669   5.867   1.027   6.658
 5257SOL    HW116670   5.935   0.959   6.687
 5257SOL    HW216671   5.837   1.080   6.738
 5258SOL     OW16672   6.135   2.181   5.051
 5258SOL    HW116673   6.156   2.231   5.136
 5258SOL    HW216674   6.106   2.088   5.074
 5259SOL     OW16675   4.604   6.526   4.564
 5259SOL    HW116676   4.646   6.560   4.649
 5259SOL    HW216677   4.673   6.476   4.511
 5260SOL     OW16678   1.866   0.063   2.291
 5260SOL    HW116679   1.844   7.021   2.357
 5260SOL    HW216680   1.934   0.030   2.226
 5261SOL     OW16681   0.026   5.000   0.044
 5261SOL    HW116682   0.066   4.934   7.010
 5261SOL    HW216683   0.069   4.988   0.134
 5262SOL     OW16684   1.863   2.011   1.916
 5262SOL    HW116685   1.794   1.938   1.920
 5262SOL    HW216686   1.954   1.971   1.924
 5263SOL     OW16687   0.076   5.948   1.838
 5263SOL    HW116688   0.108   5.964   1.932
 5263SOL    HW216689   0.008   6.017   1.814
 5264SOL     OW16690   5.825   2.557   2.798
 5264SOL    HW116691   5.879   2.504   2.733
 5264SOL    HW216692   5.817   2.507   2.884
 5265SOL     OW16693   1.222   5.774   5.944
 5265SOL    HW116694   1.138   5.822   5.969
 5265SOL    HW216695   1.298   5.806   6.000
 5266SOL     OW16696   0.660   0.237   6.679
 5266SOL    HW116697   0.632   0.164   6.618
 5266SOL    HW216698   0.666   0.202   6.773
 5267SOL     OW16699   6.514   1.406   4.662
 5267SOL    HW116700   6.589   1.462   4.697
 5267SOL    HW216701   6.466   1.456   4.590
 5268SOL     OW16702   5.567   0.471   5.083
 5268SOL    HW116703   5.606   0.559   5.108
 5268SOL    HW216704   5.473   0.465   5.117
 5269SOL     OW16705   1.418   0.506   4.174
 5269SOL    HW116706   1.433   0.580   4.108
 5269SOL    HW216707   1.366   0.542   4.252
 5270SOL     OW16708   1.527   1.677   6.379
 5270SOL    HW116709   1.624   1.665   6.359
 5270SOL    HW216710   1.513   1.683   6.478
 5271SOL     OW16711   1.543   6.710   5.949
 5271SOL    HW116712   1.511   6.729   5.856
 5271SOL    HW216713   1.474   6.741   6.015
 5272SOL     OW16714   4.324   7.024   6.026
 5272SOL    HW116715   4.409   6.983   6.059
 5272SOL    HW216716   4.265   6.952   5.988
 5273SOL     OW16717   1.993   1.604   3.295
 5273SOL    HW116718   1.980   1.519   3.244
 5273SOL    HW216719   2.076   1.649   3.263
 5274SOL     OW16720   6.533   4.437   1.387
 5274SOL    HW116721   6.607   4.436   1.320
 5274SOL    HW216722   6.448   4.468   1.343
 5275SOL     OW16723   5.707   0.019   6.275
 5275SOL    HW116724   5.609   0.041   6.267
 5275SOL    HW216725   5.755   0.096   6.316
 5276SOL     OW16726   2.547   6.359   1.192
 5276SOL    HW116727   2.623   6.418   1.222
 5276SOL    HW216728   2.475   6.359   1.262
 5277SOL     OW16729   1.501   2.792   1.251
 5277SOL    HW116730   1.480   2.716   1.191
 5277SOL    HW216731   1.420   2.816   1.305
 5278SOL     OW16732   4.061   3.424   4.923
 5278SOL    HW116733   4.028   3.488   4.854
 5278SOL    HW216734   4.158   3.407   4.909
 5279SOL     OW16735   1.502   0.073   3.026
 5279SOL    HW116736   1.591   0.038   3.055
 5279SOL    HW216737   1.510   0.170   3.002
 5280SOL     OW16738   3.893   0.882   3.461
 5280SOL    HW116739   3.936   0.839   3.382
 5280SOL    HW216740   3.925   0.976   3.470
 5281SOL     OW16741   6.808   2.837   3.553
 5281SOL    HW116742   6.801   2.774   3.630
 5281SOL    HW216743   6.880   2.805   3.491
 5282SOL     OW16744   4.928   2.143   1.579
 5282SOL    HW116745   4.993   2.200   1.529
 5282SOL    HW216746   4.919   2.055   1.532
 5283SOL     OW16747   5.975   5.115   5.239
 5283SOL    HW116748   5.941   5.060   5.316
 5283SOL    HW216749   5.898   5.145   5.183
 5284SOL     OW16750   5.650   2.726   3.871
 5284SOL    HW116751   5.570   2.670   3.895
 5284SOL    HW216752   5.727   2.699   3.929
 5285SOL     OW16753   4.525   5.043   2.526
 5285SOL    HW116754   4.508   4.994   2.441
 5285SOL    HW216755   4.592   5.115   2.511
 5286SOL     OW16756   1.501   4.883   1.978
 5286SOL    HW116757   1.515   4.926   1.889
 5286SOL    HW216758   1.487   4.784   1.965
 5287SOL     OW16759   6.933   0.872   2.967
 5287SOL    HW116760   6.846   0.918   2.983
 5287SOL    HW216761   6.975   0.907   2.883
 5288SOL     OW16762   4.168   0.638   0.357
 5288SOL    HW116763   4.107   0.560   0.370
 5288SOL    HW216764   4.176   0.688   0.443
 5289SOL     OW16765   1.672   0.264   1.695
 5289SOL    HW116766   1.683   0.174   1.652
 5289SOL    HW216767   1.705   0.335   1.632
 5290SOL     OW16768   5.464   6.711   6.579
 5290SOL    HW116769   5.442   6.692   6.674
 5290SOL    HW216770   5.393   6.672   6.520
 5291SOL     OW16771   0.941   5.000   0.813
 5291SOL    HW116772   0.997   5.070   0.859
 5291SOL    HW216773   0.997   4.919   0.795
 5292SOL     OW16774   5.628   1.254   1.315
 5292SOL    HW116775   5.532   1.249   1.289
 5292SOL    HW216776   5.680   1.302   1.245
 5293SOL     OW16777   1.912   1.080   3.983
 5293SOL    HW116778   1.816   1.106   3.974
 5293SOL    HW216779   1.920   0.980   3.977
 5294SOL     OW16780   3.536   2.115   6.720
 5294SOL    HW116781   3.585   2.168   6.789
 5294SOL    HW216782   3.451   2.162   6.696
 5295SOL     OW16783   6.878   2.257   3.780
 5295SOL    HW116784   6.921   2.272   3.691
 5295SOL    HW216785   6.928   2.186   3.830
 5296SOL     OW16786   0.527   4.107   6.334
 5296SOL    HW116787   0.618   4.068   6.350
 5296SOL    HW216788   0.500   4.162   6.413
 5297SOL     OW16789   1.084   2.215   2.035
 5297SOL    HW116790   1.008   2.271   2.067
 5297SOL    HW216791   1.159   2.221   2.101
 5298SOL     OW16792   1.048   3.327   2.179
 5298SOL    HW116793   1.097   3.240   2.170
 5298SOL    HW216794   0.959   3.311   2.222
 5299SOL     OW16795   3.594   0.273   6.777
 5299SOL    HW116796   3.679   0.246   6.732
 5299SOL    HW216797   3.612   0.350   6.838
 5300SOL     OW16798   0.029   5.172   4.498
 5300SOL    HW116799   0.046   5.076   4.479
 5300SOL    HW216800   0.029   5.187   4.597
 5301SOL     OW16801   5.810   6.760   5.952
 5301SOL    HW116802   5.734   6.787   6.010
 5301SOL    HW216803   5.787   6.676   5.903
 5302SOL     OW16804   0.192   3.837   2.804
 5302SOL    HW116805   0.122   3.871   2.741
 5302SOL    HW216806   0.198   3.737   2.796
 5303SOL     OW16807   2.579   4.998   1.973
 5303SOL    HW116808   2.568   4.945   2.057
 5303SOL    HW216809   2.647   5.070   1.987
 5304SOL     OW16810   5.738   2.021   6.144
 5304SOL    HW116811   5.729   1.963   6.225
 5304SOL    HW216812   5.787   1.971   6.072
 5305SOL     OW16813   4.036   1.799   5.125
 5305SOL    HW116814   3.960   1.820   5.062
 5305SOL    HW216815   4.060   1.703   5.117
 5306SOL     OW16816   2.162   6.597   3.894
 5306SOL    HW116817   2.081   6.561   3.941
 5306SOL    HW216818   2.196   6.677   3.944
 5307SOL     OW16819   4.952   6.710   6.467
 5307SOL    HW116820   4.857   6.698   6.438
 5307SOL    HW216821   5.013   6.672   6.398
 5308SOL     OW16822   6.239   1.348   0.663
 5308SOL    HW116823   6.292   1.284   0.607
 5308SOL    HW216824   6.285   1.360   0.751
 5309SOL     OW16825   3.275   4.406   6.508
 5309SOL    HW116826   3.347   4.364   6.453
 5309SOL    HW216827   3.277   4.505   6.496
 5310SOL     OW16828   5.309   2.582   0.330
 5310SOL    HW116829   5.359   2.629   0.402
 5310SOL    HW216830   5.213   2.573   0.356
 5311SOL     OW16831   6.787   5.330   0.015
 5311SOL    HW116832   6.788   5.396   0.089
 5311SOL    HW216833   6.881   5.302   7.024
 5312SOL     OW16834   0.694   4.297   2.181
 5312SOL    HW116835   0.694   4.365   2.108
 5312SOL    HW216836   0.788   4.271   2.203
 5313SOL     OW16837   1.006   6.364   6.119
 5313SOL    HW116838   1.004   6.400   6.026
 5313SOL    HW216839   1.100   6.344   6.145
 5314SOL     OW16840   4.969   4.143   1.149
 5314SOL    HW116841   4.895   4.188   1.200
 5314SOL    HW216842   4.954   4.157   1.051
 5315SOL     OW16843   5.366   0.280   3.118
 5315SOL    HW116844   5.298   0.227   3.067
 5315SOL    HW216845   5.390   0.361   3.066
 5316SOL     OW16846   5.607   5.432   5.095
 5316SOL    HW116847   5.536   5.437   5.025
 5316SOL    HW216848   5.619   5.522   5.136
 5317SOL     OW16849   0.090   4.663   1.470
 5317SOL    HW116850   0.077   4.728   1.545
 5317SOL    HW216851   0.068   4.708   1.384
 5318SOL     OW16852   6.964   2.758   3.339
 5318SOL    HW116853   6.982   2.703   3.258
 5318SOL    HW216854   6.955   2.854   3.313
 5319SOL     OW16855   2.837   6.222   2.598
 5319SOL    HW116856   2.821   6.124   2.607
 5319SOL    HW216857   2.936   6.240   2.598
 5320SOL     OW16858   6.914   1.767   0.875
 5320SOL    HW116859   6.854   1.781   0.796
 5320SOL    HW216860   6.875   1.811   0.955
 5321SOL     OW16861   2.334   5.362   0.229
 5321SOL    HW116862   2.289   5.293   0.172
 5321SOL    HW216863   2.427   5.332   0.251
 5322SOL     OW16864   2.915   6.284   6.752
 5322SOL    HW116865   2.963   6.305   6.838
 5322SOL    HW216866   2.900   6.185   6.746
 5323SOL     OW16867   6.707   3.783   0.210
 5323SOL    HW116868   6.609   3.772   0.193
 5323SOL    HW216869   6.750   3.694   0.223
 5324SOL     OW16870   4.116   3.175   2.178
 5324SOL    HW116871   4.121   3.245   2.249
 5324SOL    HW216872   4.153   3.211   2.092
 5325SOL     OW16873   3.223   0.030   5.290
 5325SOL    HW116874   3.240   0.046   5.193
 5325SOL    HW216875   3.150   6.992   5.300
 5326SOL     OW16876   5.604   0.402   3.944
 5326SOL    HW116877   5.658   0.377   3.864
 5326SOL    HW216878   5.564   0.319   3.984
 5327SOL     OW16879   6.410   6.677   3.868
 5327SOL    HW116880   6.510   6.680   3.865
 5327SOL    HW216881   6.376   6.632   3.786
 5328SOL     OW16882   2.484   4.892   5.671
 5328SOL    HW116883   2.390   4.861   5.683
 5328SOL    HW216884   2.490   4.951   5.591
 5329SOL     OW16885   0.668   6.980   5.783
 5329SOL    HW116886   0.764   6.955   5.767
 5329SOL    HW216887   0.664   0.043   5.821
 5330SOL     OW16888   4.471   3.642   0.101
 5330SOL    HW116889   4.415   3.560   0.086
 5330SOL    HW216890   4.437   3.690   0.182
 5331SOL     OW16891   6.117   0.562   7.017
 5331SOL    HW116892   6.063   0.480   7.000
 5331SOL    HW216893   6.059   0.643   7.009
 5332SOL     OW16894   0.904   3.383   6.781
 5332SOL    HW116895   0.822   3.340   6.818
 5332SOL    HW216896   0.924   3.466   6.833
 5333SOL     OW16897   0.255   6.895   4.288
 5333SOL    HW116898   0.255   6.985   4.245
 5333SOL    HW216899   0.172   6.846   4.261
 5334SOL     OW16900   3.469   6.092   0.734
 5334SOL    HW116901   3.475   6.043   0.821
 5334SOL    HW216902   3.408   6.043   0.672
 5335SOL     OW16903   6.696   4.894   2.056
 5335SOL    HW116904   6.665   4.859   1.968
 5335SOL    HW216905   6.714   4.818   2.118
 5336SOL     OW16906   1.960   2.909   5.792
 5336SOL    HW116907   1.874   2.918   5.742
 5336SOL    HW216908   1.961   2.973   5.868
 5337SOL     OW16909   6.614   2.108   0.957
 5337SOL    HW116910   6.675   2.040   0.997
 5337SOL    HW216911   6.532   2.117   1.013
 5338SOL     OW16912   6.664   2.306   1.565
 5338SOL    HW116913   6.708   2.291   1.476
 5338SOL    HW216914   6.660   2.404   1.584
 5339SOL     OW16915   4.936   3.757   2.412
 5339SOL    HW116916   4.853   3.812   2.408
 5339SOL    HW216917   4.985   3.765   2.325
 5340SOL     OW16918   5.486   3.361   1.023
 5340SOL    HW116919   5.418   3.295   0.991
 5340SOL    HW216920   5.477   3.373   1.121
 5341SOL     OW16921   4.550   4.895   3.493
 5341SOL    HW116922   4.514   4.985   3.515
 5341SOL    HW216923   4.484   4.825   3.520
 5342SOL     OW16924   5.929   4.894   4.728
 5342SOL    HW116925   5.897   4.964   4.792
 5342SOL    HW216926   6.028   4.890   4.730
 5343SOL     OW16927   4.402   3.746   0.981
 5343SOL    HW116928   4.490   3.725   0.939
 5343SOL    HW216929   4.349   3.804   0.919
 5344SOL     OW16930   6.777   1.771   6.810
 5344SOL    HW116931   6.797   1.846   6.873
 5344SOL    HW216932   6.707   1.712   6.851
 5345SOL     OW16933   3.856   0.788   6.943
 5345SOL    HW116934   3.907   0.767   6.861
 5345SOL    HW216935   3.861   0.886   6.962
 5346SOL     OW16936   2.254   6.002   3.013
 5346SOL    HW116937   2.158   6.028   3.001
 5346SOL    HW216938   2.273   5.987   3.110
 5347SOL     OW16939   6.148   2.932   5.262
 5347SOL    HW116940   6.064   2.922   5.315
 5347SOL    HW216941   6.198   3.013   5.295
 5348SOL     OW16942   5.618   2.742   5.117
 5348SOL    HW116943   5.637   2.819   5.178
 5348SOL    HW216944   5.546   2.768   5.052
 5349SOL     OW16945   1.255   4.069   0.658
 5349SOL    HW116946   1.185   4.139   0.649
 5349SOL    HW216947   1.334   4.094   0.602
 5350SOL     OW16948   1.445   0.142   6.583
 5350SOL    HW116949   1.356   0.132   6.538
 5350SOL    HW216950   1.451   0.079   6.661
 5351SOL     OW16951   0.713   6.153   3.241
 5351SOL    HW116952   0.764   6.133   3.324
 5351SOL    HW216953   0.765   6.218   3.185
 5352SOL     OW16954   0.021   3.186   6.232
 5352SOL    HW116955   0.005   3.281   6.260
 5352SOL    HW216956   0.024   3.127   6.313
 5353SOL     OW16957   2.544   6.653   3.028
 5353SOL    HW116958   2.615   6.684   3.091
 5353SOL    HW216959   2.459   6.703   3.045
 5354SOL     OW16960   2.101   6.487   1.620
 5354SOL    HW116961   2.051   6.504   1.535
 5354SOL    HW216962   2.038   6.450   1.688
 5355SOL     OW16963   4.720   4.247   5.549
 5355SOL    HW116964   4.790   4.260   5.619
 5355SOL    HW216965   4.665   4.166   5.571
 5356SOL     OW16966   6.494   6.888   1.255
 5356SOL    HW116967   6.474   6.966   1.314
 5356SOL    HW216968   6.559   6.916   1.185
 5357SOL     OW16969   6.251   2.933   2.522
 5357SOL    HW116970   6.218   2.851   2.568
 5357SOL    HW216971   6.174   2.981   2.481
 5358SOL     OW16972   5.315   6.528   5.136
 5358SOL    HW116973   5.387   6.479   5.185
 5358SOL    HW216974   5.332   6.524   5.038
 5359SOL     OW16975   3.350   1.772   6.198
 5359SOL    HW116976   3.341   1.831   6.118
 5359SOL    HW216977   3.305   1.815   6.276
 5360SOL     OW16978   5.102   5.857   2.442
 5360SOL    HW116979   5.070   5.910   2.363
 5360SOL    HW216980   5.036   5.785   2.462
 5361SOL     OW16981   1.151   3.881   2.800
 5361SOL    HW116982   1.091   3.960   2.816
 5361SOL    HW216983   1.109   3.799   2.839
 5362SOL     OW16984   6.027   1.840   4.351
 5362SOL    HW116985   5.980   1.829   4.439
 5362SOL    HW216986   5.961   1.837   4.277
 5363SOL     OW16987   6.200   4.025   6.390
 5363SOL    HW116988   6.152   4.113   6.395
 5363SOL    HW216989   6.214   4.000   6.294
 5364SOL     OW16990   4.748   2.103   1.825
 5364SOL    HW116991   4.757   2.182   1.765
 5364SOL    HW216992   4.835   2.085   1.870
 5365SOL     OW16993   3.278   2.578   6.462
 5365SOL    HW116994   3.244   2.670   6.483
 5365SOL    HW216995   3.218   2.535   6.396
 5366SOL     OW16996   0.181   4.379   3.560
 5366SOL    HW116997   0.195   4.469   3.519
 5366SOL    HW216998   0.087   4.372   3.593
 5367SOL     OW16999   6.425   5.126   1.473
 5367SOL    HW117000   6.381   5.178   1.546
 5367SOL    HW217001   6.505   5.078   1.509
 5368SOL     OW17002   6.928   5.910   4.951
 5368SOL    HW117003   6.897   5.996   4.992
 5368SOL    HW217004   6.948   5.924   4.854
 5369SOL     OW17005   3.834   0.758   2.190
 5369SOL    HW117006   3.737   0.784   2.187
 5369SOL    HW217007   3.880   0.789   2.107
 5370SOL     OW17008   2.222   2.380   7.004
 5370SOL    HW117009   2.169   2.411   0.052
 5370SOL    HW217010   2.169   2.393   6.920
 5371SOL     OW17011   6.336   5.095   3.032
 5371SOL    HW117012   6.306   5.000   3.030
 5371SOL    HW217013   6.259   5.156   3.012
 5372SOL     OW17014   1.022   1.186   4.802
 5372SOL    HW117015   1.076   1.175   4.718
 5372SOL    HW217016   1.061   1.128   4.874
 5373SOL     OW17017   4.601   6.509   0.905
 5373SOL    HW117018   4.565   6.491   0.996
 5373SOL    HW217019   4.663   6.435   0.878
 5374SOL     OW17020   2.059   3.453   1.499
 5374SOL    HW117021   2.079   3.542   1.541
 5374SOL    HW217022   2.010   3.468   1.413
 5375SOL     OW17023   2.868   4.876   5.147
 5375SOL    HW117024   2.964   4.878   5.176
 5375SOL    HW217025   2.846   4.785   5.113
 5376SOL     OW17026   6.378   6.723   2.186
 5376SOL    HW117027   6.281   6.700   2.181
 5376SOL    HW217028   6.391   6.803   2.244
 5377SOL     OW17029   0.801   3.390   1.126
 5377SOL    HW117030   0.757   3.386   1.216
 5377SOL    HW217031   0.821   3.485   1.103
 5378SOL     OW17032   4.887   0.754   5.011
 5378SOL    HW117033   4.939   0.832   4.977
 5378SOL    HW217034   4.808   0.786   5.063
 5379SOL     OW17035   3.111   1.751   4.189
 5379SOL    HW117036   3.188   1.756   4.126
 5379SOL    HW217037   3.139   1.786   4.278
 5380SOL     OW17038   4.417   6.930   1.463
 5380SOL    HW117039   4.515   6.929   1.442
 5380SOL    HW217040   4.383   7.024   1.461
 5381SOL     OW17041   2.820   1.734   2.042
 5381SOL    HW117042   2.783   1.820   2.078
 5381SOL    HW217043   2.908   1.715   2.086
 5382SOL     OW17044   3.639   0.396   2.706
 5382SOL    HW117045   3.606   0.306   2.735
 5382SOL    HW217046   3.733   0.408   2.737
 5383SOL     OW17047   2.217   4.353   5.425
 5383SOL    HW117048   2.155   4.294   5.476
 5383SOL    HW217049   2.270   4.409   5.490
 5384SOL     OW17050   5.070   6.017   5.898
 5384SOL    HW117051   5.007   5.942   5.920
 5384SOL    HW217052   5.158   6.000   5.942
 5385SOL     OW17053   4.105   3.921   1.097
 5385SOL    HW117054   4.012   3.919   1.061
 5385SOL    HW217055   4.170   3.917   1.021
 5386SOL     OW17056   3.749   5.639   3.423
 5386SOL    HW117057   3.670   5.655   3.482
 5386SOL    HW217058   3.742   5.548   3.382
 5387SOL     OW17059   1.067   2.651   5.403
 5387SOL    HW117060   1.033   2.561   5.430
 5387SOL    HW217061   1.007   2.722   5.441
 5388SOL     OW17062   6.838   6.661   3.084
 5388SOL    HW117063   6.756   6.644   3.138
 5388SOL    HW217064   6.838   6.604   3.002
 5389SOL     OW17065   6.838   1.805   4.903
 5389SOL    HW117066   6.906   1.863   4.948
 5389SOL    HW217067   6.849   1.711   4.934
 5390SOL     OW17068   5.867   2.439   3.689
 5390SOL    HW117069   5.879   2.506   3.616
 5390SOL    HW217070   5.937   2.368   3.680
 5391SOL     OW17071   4.962   3.070   1.183
 5391SOL    HW117072   4.993   3.038   1.093
 5391SOL    HW217073   5.030   3.132   1.222
 5392SOL     OW17074   5.186   1.096   3.820
 5392SOL    HW117075   5.179   1.106   3.721
 5392SOL    HW217076   5.216   1.182   3.861
 5393SOL     OW17077   4.921   2.817   2.321
 5393SOL    HW117078   4.845   2.801   2.258
 5393SOL    HW217079   4.919   2.912   2.353
 5394SOL     OW17080   0.481   3.441   3.481
 5394SOL    HW117081   0.407   3.506   3.499
 5394SOL    HW217082   0.471   3.404   3.389
 5395SOL     OW17083   0.578   0.457   1.821
 5395SOL    HW117084   0.609   0.378   1.769
 5395SOL    HW217085   0.511   0.509   1.766
 5396SOL     OW17086   3.702   2.255   6.940
 5396SOL    HW117087   3.690   2.171   6.992
 5396SOL    HW217088   3.762   2.317   6.989
 5397SOL     OW17089   6.791   0.181   3.184
 5397SOL    HW117090   6.788   0.085   3.214
 5397SOL    HW217091   6.880   0.200   3.143
 5398SOL     OW17092   6.268   2.330   3.722
 5398SOL    HW117093   6.215   2.255   3.682
 5398SOL    HW217094   6.296   2.393   3.649
 5399SOL     OW17095   3.114   2.228   0.323
 5399SOL    HW117096   3.077   2.197   0.411
 5399SOL    HW217097   3.041   2.235   0.256
 5400SOL     OW17098   4.077   3.119   1.018
 5400SOL    HW117099   4.062   3.043   1.082
 5400SOL    HW217100   4.110   3.083   0.931
 5401SOL     OW17101   4.757   3.184   1.310
 5401SOL    HW117102   4.826   3.146   1.248
 5401SOL    HW217103   4.678   3.214   1.258
 5402SOL     OW17104   2.225   5.479   1.072
 5402SOL    HW117105   2.218   5.383   1.047
 5402SOL    HW217106   2.321   5.507   1.073
 5403SOL     OW17107   6.705   2.937   5.222
 5403SOL    HW117108   6.713   2.907   5.127
 5403SOL    HW217109   6.759   2.876   5.281
 5404SOL     OW17110   4.414   6.668   6.956
 5404SOL    HW117111   4.509   6.680   6.927
 5404SOL    HW217112   4.398   6.717   0.011
 5405SOL     OW17113   5.709   5.232   6.570
 5405SOL    HW117114   5.654   5.221   6.488
 5405SOL    HW217115   5.806   5.223   6.547
 5406SOL     OW17116   2.109   1.707   4.798
 5406SOL    HW117117   2.033   1.728   4.860
 5406SOL    HW217118   2.196   1.730   4.842
 5407SOL     OW17119   2.066   2.216   2.346
 5407SOL    HW117120   2.099   2.247   2.256
 5407SOL    HW217121   2.140   2.170   2.394
 5408SOL     OW17122   2.474   2.273   4.033
 5408SOL    HW117123   2.574   2.280   4.032
 5408SOL    HW217124   2.437   2.322   3.954
 5409SOL     OW17125   6.965   4.359   3.672
 5409SOL    HW117126   6.943   4.430   3.738
 5409SOL    HW217127   6.930   4.271   3.704
 5410SOL     OW17128   6.036   0.973   0.292
 5410SOL    HW117129   5.969   0.908   0.257
 5410SOL    HW217130   6.005   1.008   0.381
 5411SOL     OW17131   2.508   6.390   1.970
 5411SOL    HW117132   2.568   6.460   2.010
 5411SOL    HW217133   2.413   6.421   1.975
 5412SOL     OW17134   2.808   2.274   5.916
 5412SOL    HW117135   2.803   2.318   6.005
 5412SOL    HW217136   2.785   2.340   5.844
 5413SOL     OW17137   6.885   5.043   5.667
 5413SOL    HW117138   6.851   4.954   5.639
 5413SOL    HW217139   6.903   5.042   5.766
 5414SOL     OW17140   5.802   5.660   5.748
 5414SOL    HW117141   5.882   5.630   5.800
 5414SOL    HW217142   5.759   5.738   5.793
 5415SOL     OW17143   2.583   6.826   0.077
 5415SOL    HW117144   2.507   6.761   0.066
 5415SOL    HW217145   2.565   6.906   0.020
 5416SOL     OW17146   4.235   4.861   5.881
 5416SOL    HW117147   4.264   4.905   5.796
 5416SOL    HW217148   4.302   4.790   5.906
 5417SOL     OW17149   4.979   0.457   2.008
 5417SOL    HW117150   4.959   0.480   2.103
 5417SOL    HW217151   4.915   0.387   1.977
 5418SOL     OW17152   6.942   3.510   6.276
 5418SOL    HW117153   6.915   3.600   6.243
 5418SOL    HW217154   6.927   3.505   6.375
 5419SOL     OW17155   4.043   2.849   6.092
 5419SOL    HW117156   4.029   2.948   6.081
 5419SOL    HW217157   4.101   2.833   6.172
 5420SOL     OW17158   0.972   1.625   0.761
 5420SOL    HW117159   0.927   1.642   0.673
 5420SOL    HW217160   0.923   1.552   0.810
 5421SOL     OW17161   3.880   5.184   0.777
 5421SOL    HW117162   3.862   5.271   0.729
 5421SOL    HW217163   3.852   5.192   0.872
 5422SOL     OW17164   2.414   0.024   3.776
 5422SOL    HW117165   2.316   0.040   3.767
 5422SOL    HW217166   2.455   0.099   3.828
 5423SOL     OW17167   4.006   5.451   3.155
 5423SOL    HW117168   4.095   5.437   3.110
 5423SOL    HW217169   4.020   5.492   3.245
 5424SOL     OW17170   4.129   3.097   5.617
 5424SOL    HW117171   4.044   3.050   5.594
 5424SOL    HW217172   4.122   3.136   5.709
 5425SOL     OW17173   2.091   5.873   4.443
 5425SOL    HW117174   2.123   5.789   4.487
 5425SOL    HW217175   2.083   5.945   4.511
 5426SOL     OW17176   1.417   3.301   0.131
 5426SOL    HW117177   1.390   3.385   0.179
 5426SOL    HW217178   1.414   3.317   0.032
 5427SOL     OW17179   4.576   1.860   0.266
 5427SOL    HW117180   4.636   1.843   0.188
 5427SOL    HW217181   4.531   1.775   0.293
 5428SOL     OW17182   5.038   6.092   2.278
 5428SOL    HW117183   4.970   6.094   2.205
 5428SOL    HW217184   5.129   6.082   2.238
 5429SOL     OW17185   2.949   6.376   2.977
 5429SOL    HW117186   2.996   6.431   2.908
 5429SOL    HW217187   2.857   6.352   2.944
 5430SOL     OW17188   0.946   3.521   5.524
 5430SOL    HW117189   1.019   3.456   5.546
 5430SOL    HW217190   0.970   3.569   5.439
 5431SOL     OW17191   5.322   4.091   1.208
 5431SOL    HW117192   5.240   4.144   1.187
 5431SOL    HW217193   5.385   4.097   1.130
 5432SOL     OW17194   1.360   5.428   5.496
 5432SOL    HW117195   1.411   5.348   5.530
 5432SOL    HW217196   1.337   5.487   5.573
 5433SOL     OW17197   3.288   6.627   2.086
 5433SOL    HW117198   3.294   6.531   2.061
 5433SOL    HW217199   3.299   6.684   2.004
 5434SOL     OW17200   4.904   6.608   4.240
 5434SOL    HW117201   4.987   6.609   4.185
 5434SOL    HW217202   4.856   6.696   4.230
 5435SOL     OW17203   0.988   3.068   0.053
 5435SOL    HW117204   0.892   3.046   0.070
 5435SOL    HW217205   1.006   3.163   0.080
 5436SOL     OW17206   1.676   4.299   0.907
 5436SOL    HW117207   1.711   4.388   0.937
 5436SOL    HW217208   1.713   4.228   0.967
 5437SOL     OW17209   3.319   0.358   5.679
 5437SOL    HW117210   3.229   0.345   5.719
 5437SOL    HW217211   3.310   0.375   5.580
 5438SOL     OW17212   4.172   6.728   3.632
 5438SOL    HW117213   4.136   6.724   3.538
 5438SOL    HW217214   4.152   6.642   3.678
 5439SOL     OW17215   1.653   3.679   2.098
 5439SOL    HW117216   1.716   3.753   2.074
 5439SOL    HW217217   1.590   3.710   2.169
 5440SOL     OW17218   4.967   6.128   3.040
 5440SOL    HW117219   5.029   6.127   3.119
 5440SOL    HW217220   4.947   6.034   3.012
 5441SOL     OW17221   5.925   6.948   4.723
 5441SOL    HW117222   5.918   0.016   4.745
 5441SOL    HW217223   5.835   6.915   4.695
 5442SOL     OW17224   2.693   6.140   0.189
 5442SOL    HW117225   2.593   6.140   0.181
 5442SOL    HW217226   2.720   6.091   0.272
 5443SOL     OW17227   5.289   1.609   2.983
 5443SOL    HW117228   5.254   1.608   3.077
 5443SOL    HW217229   5.366   1.545   2.976
 5444SOL     OW17230   2.301   1.602   6.254
 5444SOL    HW117231   2.363   1.584   6.330
 5444SOL    HW217232   2.286   1.517   6.203
 5445SOL     OW17233   0.129   6.121   5.904
 5445SOL    HW117234   0.089   6.208   5.931
 5445SOL    HW217235   0.181   6.132   5.820
 5446SOL     OW17236   2.537   4.117   0.229
 5446SOL    HW117237   2.564   4.024   0.255
 5446SOL    HW217238   2.478   4.113   0.148
 5447SOL     OW17239   5.289   2.557   1.856
 5447SOL    HW117240   5.191   2.537   1.855
 5447SOL    HW217241   5.302   2.655   1.842
 5448SOL     OW17242   5.984   5.587   1.319
 5448SOL    HW117243   6.040   5.542   1.249
 5448SOL    HW217244   5.919   5.649   1.276
 5449SOL     OW17245   2.414   0.230   2.259
 5449SOL    HW117246   2.319   0.259   2.267
 5449SOL    HW217247   2.448   0.203   2.349
 5450SOL     OW17248   4.541   4.603   2.029
 5450SOL    HW117249   4.458   4.648   1.996
 5450SOL    HW217250   4.552   4.515   1.983
 5451SOL     OW17251   0.301   5.325   3.538
 5451SOL    HW117252   0.375   5.329   3.470
 5451SOL    HW217253   0.330   5.271   3.617
 5452SOL     OW17254   2.376   4.366   3.224
 5452SOL    HW117255   2.284   4.403   3.229
 5452SOL    HW217256   2.430   4.399   3.302
 5453SOL     OW17257   5.675   4.879   4.248
 5453SOL    HW117258   5.607   4.880   4.322
 5453SOL    HW217259   5.696   4.784   4.223
 5454SOL     OW17260   6.790   3.623   2.688
 5454SOL    HW117261   6.691   3.611   2.691
 5454SOL    HW217262   6.811   3.716   2.655
 5455SOL     OW17263   1.912   1.930   2.989
 5455SOL    HW117264   1.923   1.919   2.891
 5455SOL    HW217265   1.815   1.919   3.014
 5456SOL     OW17266   5.986   2.785   6.951
 5456SOL    HW117267   5.998   2.751   0.014
 5456SOL    HW217268   6.052   2.740   6.890
 5457SOL     OW17269   5.696   0.745   0.503
 5457SOL    HW117270   5.746   0.669   0.545
 5457SOL    HW217271   5.600   0.741   0.531
 5458SOL     OW17272   5.865   4.254   6.665
 5458SOL    HW117273   5.800   4.329   6.668
 5458SOL    HW217274   5.895   4.232   6.758
 5459SOL     OW17275   2.138   3.447   4.840
 5459SOL    HW117276   2.161   3.388   4.763
 5459SOL    HW217277   2.040   3.442   4.858
 5460SOL     OW17278   6.498   1.664   0.897
 5460SOL    HW117279   6.439   1.706   0.966
 5460SOL    HW217280   6.552   1.735   0.851
 5461SOL     OW17281   5.887   0.399   5.728
 5461SOL    HW117282   5.811   0.459   5.751
 5461SOL    HW217283   5.858   0.333   5.660
 5462SOL     OW17284   5.758   5.066   0.742
 5462SOL    HW117285   5.746   5.064   0.642
 5462SOL    HW217286   5.855   5.073   0.763
 5463SOL     OW17287   3.262   5.098   7.024
 5463SOL    HW117288   3.282   5.187   0.034
 5463SOL    HW217289   3.259   5.029   0.067
 5464SOL     OW17290   2.719   5.654   4.243
 5464SOL    HW117291   2.800   5.629   4.191
 5464SOL    HW217292   2.717   5.604   4.329
 5465SOL     OW17293   0.189   1.678   5.279
 5465SOL    HW117294   0.200   1.625   5.363
 5465SOL    HW217295   0.279   1.701   5.242
 5466SOL     OW17296   5.700   2.290   4.825
 5466SOL    HW117297   5.798   2.278   4.810
 5466SOL    HW217298   5.677   2.387   4.823
 5467SOL     OW17299   4.453   4.546   2.994
 5467SOL    HW117300   4.510   4.532   2.914
 5467SOL    HW217301   4.482   4.484   3.067
 5468SOL     OW17302   0.362   2.330   1.394
 5468SOL    HW117303   0.442   2.277   1.425
 5468SOL    HW217304   0.360   2.418   1.440
 5469SOL     OW17305   4.405   0.667   2.857
 5469SOL    HW117306   4.503   0.683   2.858
 5469SOL    HW217307   4.387   0.572   2.834
 5470SOL     OW17308   3.010   4.997   2.904
 5470SOL    HW117309   2.951   4.927   2.864
 5470SOL    HW217310   3.063   4.957   2.979
 5471SOL     OW17311   5.608   1.353   3.711
 5471SOL    HW117312   5.634   1.428   3.649
 5471SOL    HW217313   5.508   1.350   3.717
 5472SOL     OW17314   2.762   4.981   0.852
 5472SOL    HW117315   2.691   5.049   0.838
 5472SOL    HW217316   2.849   5.014   0.815
 5473SOL     OW17317   3.027   4.859   1.923
 5473SOL    HW117318   2.996   4.765   1.919
 5473SOL    HW217319   3.074   4.875   2.010
 5474SOL     OW17320   1.440   5.205   1.303
 5474SOL    HW117321   1.370   5.229   1.371
 5474SOL    HW217322   1.503   5.281   1.291
 5475SOL     OW17323   6.929   1.367   5.227
 5475SOL    HW117324   6.949   1.273   5.197
 5475SOL    HW217325   6.940   1.429   5.149
 5476SOL     OW17326   2.939   1.424   4.519
 5476SOL    HW117327   2.927   1.465   4.609
 5476SOL    HW217328   2.966   1.329   4.529
 5477SOL     OW17329   2.202   4.184   2.771
 5477SOL    HW117330   2.111   4.217   2.796
 5477SOL    HW217331   2.270   4.218   2.836
 5478SOL     OW17332   6.461   3.242   5.387
 5478SOL    HW117333   6.462   3.276   5.293
 5478SOL    HW217334   6.439   3.144   5.386
 5479SOL     OW17335   5.606   4.184   4.648
 5479SOL    HW117336   5.584   4.162   4.743
 5479SOL    HW217337   5.679   4.252   4.645
 5480SOL     OW17338   2.820   2.499   6.722
 5480SOL    HW117339   2.917   2.484   6.740
 5480SOL    HW217340   2.767   2.423   6.760
 5481SOL     OW17341   3.403   0.060   0.864
 5481SOL    HW117342   3.473   0.017   0.921
 5481SOL    HW217343   3.434   0.062   0.769
 5482SOL     OW17344   5.578   4.697   2.507
 5482SOL    HW117345   5.648   4.632   2.537
 5482SOL    HW217346   5.555   4.758   2.583
 5483SOL     OW17347   6.046   1.419   0.886
 5483SOL    HW117348   6.031   1.517   0.875
 5483SOL    HW217349   6.142   1.398   0.868
 5484SOL     OW17350   6.047   6.960   5.466
 5484SOL    HW117351   6.061   6.957   5.565
 5484SOL    HW217352   6.080   0.017   5.430
 5485SOL     OW17353   2.302   1.615   3.796
 5485SOL    HW117354   2.234   1.546   3.772
 5485SOL    HW217355   2.323   1.671   3.716
 5486SOL     OW17356   5.875   1.657   3.784
 5486SOL    HW117357   5.950   1.696   3.837
 5486SOL    HW217358   5.815   1.605   3.845
 5487SOL     OW17359   4.521   6.010   1.344
 5487SOL    HW117360   4.445   6.075   1.345
 5487SOL    HW217361   4.488   5.921   1.312
 5488SOL     OW17362   4.827   6.937   6.523
 5488SOL    HW117363   4.881   6.858   6.497
 5488SOL    HW217364   4.820   6.942   6.623
 5489SOL     OW17365   6.928   3.015   2.575
 5489SOL    HW117366   6.884   3.039   2.489
 5489SOL    HW217367   6.898   3.077   2.647
 5490SOL     OW17368   2.865   1.174   6.533
 5490SOL    HW117369   2.922   1.189   6.452
 5490SOL    HW217370   2.921   1.140   6.608
 5491SOL     OW17371   6.038   6.393   1.421
 5491SOL    HW117372   6.120   6.365   1.371
 5491SOL    HW217373   5.970   6.427   1.356
 5492SOL     OW17374   1.260   1.047   6.138
 5492SOL    HW117375   1.253   1.144   6.116
 5492SOL    HW217376   1.352   1.026   6.170
 5493SOL     OW17377   4.115   0.807   6.290
 5493SOL    HW117378   4.125   0.835   6.386
 5493SOL    HW217379   4.128   0.708   6.284
 5494SOL     OW17380   5.532   3.062   1.969
 5494SOL    HW117381   5.510   2.992   2.038
 5494SOL    HW217382   5.455   3.072   1.906
 5495SOL     OW17383   3.503   3.145   5.124
 5495SOL    HW117384   3.411   3.163   5.158
 5495SOL    HW217385   3.499   3.075   5.052
 5496SOL     OW17386   4.672   5.085   1.978
 5496SOL    HW117387   4.733   5.122   2.048
 5496SOL    HW217388   4.668   5.148   1.901
 5497SOL     OW17389   5.546   6.580   0.313
 5497SOL    HW117390   5.613   6.555   0.242
 5497SOL    HW217391   5.481   6.505   0.324
 5498SOL     OW17392   4.039   1.004   3.191
 5498SOL    HW117393   4.060   0.906   3.196
 5498SOL    HW217394   4.122   1.055   3.169
 5499SOL     OW17395   0.580   0.691   4.963
 5499SOL    HW117396   0.531   0.762   4.914
 5499SOL    HW217397   0.543   0.683   5.056
 5500SOL     OW17398   1.490   6.325   0.393
 5500SOL    HW117399   1.393   6.347   0.382
 5500SOL    HW217400   1.512   6.243   0.339
 5501SOL     OW17401   2.181   1.509   2.340
 5501SOL    HW117402   2.229   1.565   2.273
 5501SOL    HW217403   2.132   1.436   2.294
 5502SOL     OW17404   5.657   4.744   0.764
 5502SOL    HW117405   5.717   4.823   0.775
 5502SOL    HW217406   5.702   4.663   0.800
 5503SOL     OW17407   6.555   0.897   3.842
 5503SOL    HW117408   6.620   0.876   3.915
 5503SOL    HW217409   6.543   0.996   3.836
 5504SOL     OW17410   2.541   2.253   4.773
 5504SOL    HW117411   2.452   2.297   4.762
 5504SOL    HW217412   2.555   2.230   4.869
 5505SOL     OW17413   3.528   5.384   0.825
 5505SOL    HW117414   3.463   5.346   0.891
 5505SOL    HW217415   3.569   5.467   0.864
 5506SOL     OW17416   1.355   6.561   5.230
 5506SOL    HW117417   1.364   6.655   5.263
 5506SOL    HW217418   1.445   6.523   5.211
 5507SOL     OW17419   2.432   5.333   5.193
 5507SOL    HW117420   2.497   5.392   5.147
 5507SOL    HW217421   2.395   5.379   5.273
 5508SOL     OW17422   2.771   1.755   5.237
 5508SOL    HW117423   2.758   1.847   5.273
 5508SOL    HW217424   2.782   1.759   5.138
 5509SOL     OW17425   0.140   6.965   5.656
 5509SOL    HW117426   0.119   0.025   5.695
 5509SOL    HW217427   0.222   6.928   5.699
 5510SOL     OW17428   0.323   0.455   5.409
 5510SOL    HW117429   0.417   0.487   5.405
 5510SOL    HW217430   0.322   0.355   5.418
 5511SOL     OW17431   0.463   2.420   0.801
 5511SOL    HW117432   0.457   2.419   0.901
 5511SOL    HW217433   0.477   2.327   0.768
 5512SOL     OW17434   6.656   6.649   7.021
 5512SOL    HW117435   6.613   6.626   6.934
 5512SOL    HW217436   6.689   6.566   0.035
 5513SOL     OW17437   2.403   6.610   4.969
 5513SOL    HW117438   2.456   6.588   5.050
 5513SOL    HW217439   2.376   6.526   4.922
 5514SOL     OW17440   5.978   5.579   3.644
 5514SOL    HW117441   6.066   5.566   3.690
 5514SOL    HW217442   5.906   5.532   3.696
 5515SOL     OW17443   1.632   3.897   3.905
 5515SOL    HW117444   1.601   3.975   3.850
 5515SOL    HW217445   1.730   3.883   3.890
 5516SOL     OW17446   2.128   2.767   0.213
 5516SOL    HW117447   2.193   2.840   0.237
 5516SOL    HW217448   2.098   2.780   0.118
 5517SOL     OW17449   3.387   0.667   2.348
 5517SOL    HW117450   3.426   0.576   2.338
 5517SOL    HW217451   3.298   0.661   2.393
 5518SOL     OW17452   4.695   3.713   6.360
 5518SOL    HW117453   4.753   3.631   6.365
 5518SOL    HW217454   4.752   3.794   6.352
 5519SOL     OW17455   5.407   3.845   2.199
 5519SOL    HW117456   5.476   3.774   2.216
 5519SOL    HW217457   5.351   3.819   2.121
 5520SOL     OW17458   1.380   2.559   1.141
 5520SOL    HW117459   1.416   2.504   1.066
 5520SOL    HW217460   1.402   2.515   1.228
 5521SOL     OW17461   5.599   4.032   6.282
 5521SOL    HW117462   5.594   3.948   6.336
 5521SOL    HW217463   5.530   4.029   6.210
 5522SOL     OW17464   1.909   2.758   1.643
 5522SOL    HW117465   1.938   2.842   1.690
 5522SOL    HW217466   1.831   2.779   1.584
 5523SOL     OW17467   2.341   6.633   1.683
 5523SOL    HW117468   2.254   6.591   1.658
 5523SOL    HW217469   2.386   6.669   1.601
 5524SOL     OW17470   6.635   6.540   5.936
 5524SOL    HW117471   6.672   6.475   6.003
 5524SOL    HW217472   6.597   6.489   5.858
 5525SOL     OW17473   6.707   0.020   2.921
 5525SOL    HW117474   6.754   0.023   3.009
 5525SOL    HW217475   6.672   6.957   2.905
 5526SOL     OW17476   5.471   3.940   4.593
 5526SOL    HW117477   5.501   3.914   4.501
 5526SOL    HW217478   5.479   4.039   4.604
 5527SOL     OW17479   3.461   2.599   0.281
 5527SOL    HW117480   3.505   2.514   0.250
 5527SOL    HW217481   3.390   2.625   0.215
 5528SOL     OW17482   6.032   3.064   2.407
 5528SOL    HW117483   6.015   3.060   2.309
 5528SOL    HW217484   5.945   3.076   2.456
 5529SOL     OW17485   1.200   1.090   4.610
 5529SOL    HW117486   1.256   1.152   4.556
 5529SOL    HW217487   1.258   1.020   4.653
 5530SOL     OW17488   0.229   2.832   6.913
 5530SOL    HW117489   0.271   2.742   6.911
 5530SOL    HW217490   0.282   2.893   6.972
 5531SOL     OW17491   3.019   2.674   0.614
 5531SOL    HW117492   2.953   2.610   0.652
 5531SOL    HW217493   3.064   2.632   0.535
 5532SOL     OW17494   2.145   2.950   1.889
 5532SOL    HW117495   2.050   2.939   1.858
 5532SOL    HW217496   2.202   2.979   1.812
 5533SOL     OW17497   3.072   0.217   0.696
 5533SOL    HW117498   3.124   0.291   0.653
 5533SOL    HW217499   2.981   0.211   0.654
 5534SOL     OW17500   0.518   3.752   5.311
 5534SOL    HW117501   0.485   3.810   5.385
 5534SOL    HW217502   0.506   3.799   5.223
 5535SOL     OW17503   4.911   5.530   3.519
 5535SOL    HW117504   4.853   5.599   3.562
 5535SOL    HW217505   4.877   5.510   3.427
 5536SOL     OW17506   2.117   1.177   4.395
 5536SOL    HW117507   2.121   1.080   4.370
 5536SOL    HW217508   2.115   1.233   4.311
 5537SOL     OW17509   3.626   1.682   3.588
 5537SOL    HW117510   3.685   1.745   3.638
 5537SOL    HW217511   3.614   1.598   3.642
 5538SOL     OW17512   4.569   2.267   2.827
 5538SOL    HW117513   4.667   2.256   2.811
 5538SOL    HW217514   4.530   2.179   2.854
 5539SOL     OW17515   1.015   0.290   6.206
 5539SOL    HW117516   1.025   0.389   6.202
 5539SOL    HW217517   0.987   0.263   6.298
 5540SOL     OW17518   4.739   6.911   5.119
 5540SOL    HW117519   4.821   6.958   5.087
 5540SOL    HW217520   4.715   6.838   5.054
 5541SOL     OW17521   4.564   2.792   5.109
 5541SOL    HW117522   4.628   2.868   5.118
 5541SOL    HW217523   4.590   2.737   5.029
 5542SOL     OW17524   5.021   4.609   0.057
 5542SOL    HW117525   5.070   4.522   0.062
 5542SOL    HW217526   4.948   4.602   7.019
 5543SOL     OW17527   0.484   0.500   5.782
 5543SOL    HW117528   0.431   0.549   5.712
 5543SOL    HW217529   0.423   0.475   5.857
 5544SOL     OW17530   3.965   5.294   6.843
 5544SOL    HW117531   4.022   5.376   6.834
 5544SOL    HW217532   4.023   5.216   6.868
 5545SOL     OW17533   4.997   2.620   3.447
 5545SOL    HW117534   4.938   2.677   3.390
 5545SOL    HW217535   5.050   2.559   3.389
 5546SOL     OW17536   0.911   6.246   4.034
 5546SOL    HW117537   0.818   6.282   4.038
 5546SOL    HW217538   0.936   6.205   4.122
 5547SOL     OW17539   5.156   1.706   4.269
 5547SOL    HW117540   5.100   1.780   4.304
 5547SOL    HW217541   5.225   1.743   4.207
 5548SOL     OW17542   1.283   3.801   4.692
 5548SOL    HW117543   1.251   3.709   4.669
 5548SOL    HW217544   1.285   3.857   4.609
 5549SOL     OW17545   4.129   3.687   0.261
 5549SOL    HW117546   4.119   3.724   0.168
 5549SOL    HW217547   4.071   3.607   0.271
 5550SOL     OW17548   3.215   4.287   1.279
 5550SOL    HW117549   3.153   4.265   1.204
 5550SOL    HW217550   3.212   4.214   1.347
 5551SOL     OW17551   1.122   4.028   2.236
 5551SOL    HW117552   1.204   4.036   2.179
 5551SOL    HW217553   1.059   4.103   2.215
 5552SOL     OW17554   0.261   1.003   0.833
 5552SOL    HW117555   0.256   1.087   0.780
 5552SOL    HW217556   0.343   1.005   0.891
 5553SOL     OW17557   6.100   6.167   1.844
 5553SOL    HW117558   6.046   6.196   1.924
 5553SOL    HW217559   6.051   6.192   1.761
 5554SOL     OW17560   0.255   2.545   1.549
 5554SOL    HW117561   0.221   2.500   1.632
 5554SOL    HW217562   0.291   2.635   1.574
 5555SOL     OW17563   0.735   4.838   2.304
 5555SOL    HW117564   0.654   4.896   2.299
 5555SOL    HW217565   0.817   4.893   2.286
 5556SOL     OW17566   6.612   1.634   5.260
 5556SOL    HW117567   6.558   1.633   5.176
 5556SOL    HW217568   6.551   1.635   5.339
 5557SOL     OW17569   3.075   6.965   2.702
 5557SOL    HW117570   2.995   6.920   2.741
 5557SOL    HW217571   3.068   6.966   2.602
 5558SOL     OW17572   3.958   4.060   6.357
 5558SOL    HW117573   4.051   4.084   6.385
 5558SOL    HW217574   3.962   4.000   6.277
 5559SOL     OW17575   3.551   0.511   3.429
 5559SOL    HW117576   3.548   0.565   3.513
 5559SOL    HW217577   3.457   0.496   3.397
 5560SOL     OW17578   0.241   5.011   3.379
 5560SOL    HW117579   0.169   4.971   3.434
 5560SOL    HW217580   0.201   5.075   3.313
 5561SOL     OW17581   2.677   0.817   3.679
 5561SOL    HW117582   2.660   0.908   3.640
 5561SOL    HW217583   2.678   0.749   3.606
 5562SOL     OW17584   4.645   2.843   1.124
 5562SOL    HW117585   4.589   2.836   1.207
 5562SOL    HW217586   4.680   2.937   1.116
 5563SOL     OW17587   1.398   4.307   2.612
 5563SOL    HW117588   1.396   4.407   2.609
 5563SOL    HW217589   1.453   4.272   2.536
 5564SOL     OW17590   4.338   0.116   6.827
 5564SOL    HW117591   4.380   0.051   6.764
 5564SOL    HW217592   4.334   0.206   6.783
 5565SOL     OW17593   2.866   2.187   6.239
 5565SOL    HW117594   2.874   2.285   6.257
 5565SOL    HW217595   2.771   2.165   6.216
 5566SOL     OW17596   1.399   5.256   5.016
 5566SOL    HW117597   1.341   5.323   4.971
 5566SOL    HW217598   1.355   5.226   5.101
 5567SOL     OW17599   1.461   5.082   6.694
 5567SOL    HW117600   1.399   5.153   6.658
 5567SOL    HW217601   1.539   5.126   6.737
 5568SOL     OW17602   5.078   5.534   2.316
 5568SOL    HW117603   5.027   5.584   2.246
 5568SOL    HW217604   5.123   5.455   2.274
 5569SOL     OW17605   1.666   2.318   2.934
 5569SOL    HW117606   1.701   2.294   3.025
 5569SOL    HW217607   1.739   2.308   2.867
 5570SOL     OW17608   0.270   3.652   0.934
 5570SOL    HW117609   0.209   3.732   0.935
 5570SOL    HW217610   0.282   3.622   0.839
 5571SOL     OW17611   6.639   4.524   6.913
 5571SOL    HW117612   6.696   4.598   6.879
 5571SOL    HW217613   6.612   4.465   6.837
 5572SOL     OW17614   1.113   4.482   5.714
 5572SOL    HW117615   1.160   4.567   5.691
 5572SOL    HW217616   1.038   4.501   5.776
 5573SOL     OW17617   3.122   4.913   3.166
 5573SOL    HW117618   3.126   4.826   3.215
 5573SOL    HW217619   3.214   4.948   3.153
 5574SOL     OW17620   1.200   1.322   6.058
 5574SOL    HW117621   1.129   1.299   6.125
 5574SOL    HW217622   1.265   1.386   6.098
 5575SOL     OW17623   0.543   0.079   2.083
 5575SOL    HW117624   0.575   0.095   1.990
 5575SOL    HW217625   0.585   0.146   2.144
 5576SOL     OW17626   1.931   5.534   3.271
 5576SOL    HW117627   1.978   5.455   3.309
 5576SOL    HW217628   1.931   5.609   3.338
 5577SOL     OW17629   3.590   1.631   6.182
 5577SOL    HW117630   3.613   1.570   6.258
 5577SOL    HW217631   3.524   1.699   6.214
 5578SOL     OW17632   4.120   3.704   3.464
 5578SOL    HW117633   4.030   3.745   3.448
 5578SOL    HW217634   4.141   3.705   3.562
 5579SOL     OW17635   6.203   3.241   2.010
 5579SOL    HW117636   6.196   3.183   1.928
 5579SOL    HW217637   6.243   3.329   1.984
 5580SOL     OW17638   6.001   2.246   5.855
 5580SOL    HW117639   5.913   2.251   5.903
 5580SOL    HW217640   6.007   2.322   5.790
 5581SOL     OW17641   1.279   0.827   5.668
 5581SOL    HW117642   1.257   0.862   5.759
 5581SOL    HW217643   1.214   0.756   5.642
 5582SOL     OW17644   2.881   2.698   6.293
 5582SOL    HW117645   2.944   2.654   6.229
 5582SOL    HW217646   2.837   2.776   6.248
 5583SOL     OW17647   5.352   7.014   1.416
 5583SOL    HW117648   5.407   0.018   1.340
 5583SOL    HW217649   5.299   0.060   1.454
 5584SOL     OW17650   0.550   3.809   5.039
 5584SOL    HW117651   0.642   3.844   5.021
 5584SOL    HW217652   0.487   3.847   4.971
 5585SOL     OW17653   6.170   4.780   1.587
 5585SOL    HW117654   6.183   4.877   1.611
 5585SOL    HW217655   6.091   4.771   1.527
 5586SOL     OW17656   1.266   6.563   1.923
 5586SOL    HW117657   1.297   6.477   1.883
 5586SOL    HW217658   1.255   6.552   2.022
 5587SOL     OW17659   5.646   1.414   4.664
 5587SOL    HW117660   5.564   1.420   4.607
 5587SOL    HW217661   5.727   1.410   4.606
 5588SOL     OW17662   3.258   6.420   0.935
 5588SOL    HW117663   3.238   6.337   0.987
 5588SOL    HW217664   3.315   6.481   0.990
 5589SOL     OW17665   0.676   4.945   5.683
 5589SOL    HW117666   0.709   5.035   5.655
 5589SOL    HW217667   0.576   4.941   5.674
 5590SOL     OW17668   5.369   5.689   3.490
 5590SOL    HW117669   5.397   5.690   3.586
 5590SOL    HW217670   5.271   5.668   3.485
 5591SOL     OW17671   4.876   1.131   2.599
 5591SOL    HW117672   4.829   1.219   2.602
 5591SOL    HW217673   4.818   1.063   2.554
 5592SOL     OW17674   6.911   5.460   4.668
 5592SOL    HW117675   6.910   5.526   4.742
 5592SOL    HW217676   6.861   5.378   4.696
 5593SOL     OW17677   2.300   4.455   1.467
 5593SOL    HW117678   2.284   4.493   1.558
 5593SOL    HW217679   2.371   4.385   1.473
 5594SOL     OW17680   6.316   6.795   5.468
 5594SOL    HW117681   6.229   6.840   5.487
 5594SOL    HW217682   6.391   6.858   5.488
 5595SOL     OW17683   6.921   1.367   1.206
 5595SOL    HW117684   6.944   1.416   1.122
 5595SOL    HW217685   6.989   1.296   1.223
 5596SOL     OW17686   4.076   6.503   3.043
 5596SOL    HW117687   4.167   6.522   3.006
 5596SOL    HW217688   4.070   6.408   3.071
 5597SOL     OW17689   4.935   3.096   2.199
 5597SOL    HW117690   4.866   3.053   2.141
 5597SOL    HW217691   5.022   3.101   2.148
 5598SOL     OW17692   2.891   0.677   4.080
 5598SOL    HW117693   2.818   0.686   4.147
 5598SOL    HW217694   2.851   0.661   3.989
 5599SOL     OW17695   1.037   1.625   3.842
 5599SOL    HW117696   0.997   1.599   3.754
 5599SOL    HW217697   0.968   1.618   3.914
 5600SOL     OW17698   2.783   2.295   5.325
 5600SOL    HW117699   2.754   2.348   5.245
 5600SOL    HW217700   2.883   2.294   5.329
 5601SOL     OW17701   1.717   0.176   0.000
 5601SOL    HW117702   1.787   0.199   6.963
 5601SOL    HW217703   1.640   0.131   6.983
 5602SOL     OW17704   2.030   1.168   0.200
 5602SOL    HW117705   2.061   1.216   0.282
 5602SOL    HW217706   1.936   1.137   0.214
 5603SOL     OW17707   6.780   3.279   4.924
 5603SOL    HW117708   6.838   3.284   4.843
 5603SOL    HW217709   6.726   3.363   4.932
 5604SOL     OW17710   5.301   0.946   6.635
 5604SOL    HW117711   5.331   0.851   6.630
 5604SOL    HW217712   5.362   0.997   6.695
 5605SOL     OW17713   1.289   1.510   6.417
 5605SOL    HW117714   1.317   1.415   6.404
 5605SOL    HW217715   1.361   1.571   6.385
 5606SOL     OW17716   5.971   6.261   3.239
 5606SOL    HW117717   5.925   6.326   3.299
 5606SOL    HW217718   6.066   6.289   3.227
 5607SOL     OW17719   5.314   6.661   0.623
 5607SOL    HW117720   5.297   6.722   0.545
 5607SOL    HW217721   5.354   6.714   0.698
 5608SOL     OW17722   3.918   6.652   5.237
 5608SOL    HW117723   3.834   6.641   5.289
 5608SOL    HW217724   3.996   6.656   5.299
 5609SOL     OW17725   1.590   6.108   4.826
 5609SOL    HW117726   1.538   6.024   4.813
 5609SOL    HW217727   1.643   6.102   4.910
 5610SOL     OW17728   5.259   6.955   6.435
 5610SOL    HW117729   5.322   7.017   6.387
 5610SOL    HW217730   5.268   6.863   6.396
 5611SOL     OW17731   1.656   4.629   3.972
 5611SOL    HW117732   1.637   4.681   3.888
 5611SOL    HW217733   1.571   4.612   4.021
 5612SOL     OW17734   3.820   6.401   4.385
 5612SOL    HW117735   3.728   6.389   4.422
 5612SOL    HW217736   3.815   6.462   4.305
 5613SOL     OW17737   2.487   5.270   2.669
 5613SOL    HW117738   2.425   5.242   2.595
 5613SOL    HW217739   2.442   5.257   2.757
 5614SOL     OW17740   5.155   2.325   4.505
 5614SOL    HW117741   5.091   2.247   4.507
 5614SOL    HW217742   5.248   2.291   4.515
 5615SOL     OW17743   0.983   1.340   1.881
 5615SOL    HW117744   0.981   1.240   1.880
 5615SOL    HW217745   1.077   1.371   1.891
 5616SOL     OW17746   3.120   6.765   4.933
 5616SOL    HW117747   3.158   6.676   4.908
 5616SOL    HW217748   3.195   6.830   4.946
 5617SOL     OW17749   0.236   0.996   6.099
 5617SOL    HW117750   0.225   0.927   6.028
 5617SOL    HW217751   0.259   1.084   6.058
 5618SOL     OW17752   6.519   5.003   4.017
 5618SOL    HW117753   6.515   4.950   3.932
 5618SOL    HW217754   6.583   5.079   4.006
 5619SOL     OW17755   2.178   3.065   4.121
 5619SOL    HW117756   2.091   3.020   4.103
 5619SOL    HW217757   2.245   3.037   4.052
 5620SOL     OW17758   5.338   2.071   6.064
 5620SOL    HW117759   5.390   2.123   6.131
 5620SOL    HW217760   5.305   1.987   6.107
 5621SOL     OW17761   2.718   1.821   4.978
 5621SOL    HW117762   2.636   1.877   4.986
 5621SOL    HW217763   2.790   1.873   4.932
 5622SOL     OW17764   5.774   1.757   4.799
 5622SOL    HW117765   5.760   1.659   4.784
 5622SOL    HW217766   5.697   1.795   4.850
 5623SOL     OW17767   0.365   6.202   6.276
 5623SOL    HW117768   0.297   6.167   6.341
 5623SOL    HW217769   0.346   6.299   6.257
 5624SOL     OW17770   1.374   4.008   2.947
 5624SOL    HW117771   1.407   4.096   2.914
 5624SOL    HW217772   1.322   3.963   2.875
 5625SOL     OW17773   6.184   1.865   6.088
 5625SOL    HW117774   6.246   1.868   6.167
 5625SOL    HW217775   6.238   1.866   6.004
 5626SOL     OW17776   6.013   6.358   5.420
 5626SOL    HW117777   6.064   6.422   5.478
 5626SOL    HW217778   6.069   6.277   5.403
 5627SOL     OW17779   1.329   0.591   1.682
 5627SOL    HW117780   1.256   0.649   1.647
 5627SOL    HW217781   1.418   0.630   1.656
 5628SOL     OW17782   1.041   1.714   4.262
 5628SOL    HW117783   1.139   1.697   4.251
 5628SOL    HW217784   0.989   1.647   4.209
 5629SOL     OW17785   3.513   3.663   3.506
 5629SOL    HW117786   3.511   3.703   3.597
 5629SOL    HW217787   3.420   3.633   3.480
 5630SOL     OW17788   6.425   3.757   0.956
 5630SOL    HW117789   6.506   3.815   0.960
 5630SOL    HW217790   6.379   3.771   0.868
 5631SOL     OW17791   6.309   0.971   6.373
 5631SOL    HW117792   6.220   0.932   6.393
 5631SOL    HW217793   6.381   0.911   6.408
 5632SOL     OW17794   3.586   2.304   1.159
 5632SOL    HW117795   3.672   2.335   1.200
 5632SOL    HW217796   3.514   2.304   1.229
 5633SOL     OW17797   6.948   3.044   6.018
 5633SOL    HW117798   6.983   3.080   6.104
 5633SOL    HW217799   6.884   3.111   5.978
 5634SOL     OW17800   4.726   5.866   5.412
 5634SOL    HW117801   4.751   5.912   5.497
 5634SOL    HW217802   4.690   5.933   5.347
 5635SOL     OW17803   2.699   1.455   0.036
 5635SOL    HW117804   2.794   1.475   0.060
 5635SOL    HW217805   2.671   1.514   6.989
 5636SOL     OW17806   4.743   0.891   4.307
 5636SOL    HW117807   4.646   0.899   4.331
 5636SOL    HW217808   4.757   0.918   4.212
 5637SOL     OW17809   5.921   0.085   2.708
 5637SOL    HW117810   5.929   0.123   2.801
 5637SOL    HW217811   5.923   0.159   2.642
 5638SOL     OW17812   0.084   3.412   0.514
 5638SOL    HW117813   0.111   3.443   0.605
 5638SOL    HW217814   7.024   3.369   0.518
 5639SOL     OW17815   4.307   0.381   6.495
 5639SOL    HW117816   4.235   0.370   6.564
 5639SOL    HW217817   4.395   0.395   6.541
 5640SOL     OW17818   1.145   0.015   3.481
 5640SOL    HW117819   1.179   0.086   3.419
 5640SOL    HW217820   1.177   6.955   3.450
 5641SOL     OW17821   6.634   6.058   4.818
 5641SOL    HW117822   6.630   6.003   4.735
 5641SOL    HW217823   6.608   6.001   4.896
 5642SOL     OW17824   1.385   0.574   0.209
 5642SOL    HW117825   1.389   0.557   0.308
 5642SOL    HW217826   1.445   0.510   0.162
 5643SOL     OW17827   4.991   2.224   0.373
 5643SOL    HW117828   5.068   2.223   0.436
 5643SOL    HW217829   4.905   2.216   0.424
 5644SOL     OW17830   2.595   0.340   5.824
 5644SOL    HW117831   2.535   0.402   5.774
 5644SOL    HW217832   2.540   0.281   5.884
 5645SOL     OW17833   4.889   3.888   3.986
 5645SOL    HW117834   4.890   3.909   3.888
 5645SOL    HW217835   4.881   3.789   3.999
 5646SOL     OW17836   1.417   4.842   2.809
 5646SOL    HW117837   1.454   4.894   2.732
 5646SOL    HW217838   1.320   4.862   2.820
 5647SOL     OW17839   4.127   5.522   2.608
 5647SOL    HW117840   4.127   5.449   2.677
 5647SOL    HW217841   4.164   5.487   2.522
 5648SOL     OW17842   5.798   6.786   3.548
 5648SOL    HW117843   5.800   6.708   3.611
 5648SOL    HW217844   5.802   6.753   3.454
 5649SOL     OW17845   0.801   0.815   4.631
 5649SOL    HW117846   0.799   0.882   4.705
 5649SOL    HW217847   0.769   0.859   4.547
 5650SOL     OW17848   0.817   3.893   6.306
 5650SOL    HW117849   0.841   3.918   6.212
 5650SOL    HW217850   0.850   3.801   6.325
 5651SOL     OW17851   3.193   0.986   1.233
 5651SOL    HW117852   3.149   1.075   1.219
 5651SOL    HW217853   3.135   0.929   1.292
 5652SOL     OW17854   0.267   5.957   2.070
 5652SOL    HW117855   0.356   5.921   2.041
 5652SOL    HW217856   0.277   5.999   2.161
 5653SOL     OW17857   0.291   0.534   2.607
 5653SOL    HW117858   0.334   0.486   2.684
 5653SOL    HW217859   0.204   0.489   2.585
 5654SOL     OW17860   3.335   6.042   6.070
 5654SOL    HW117861   3.401   6.006   6.136
 5654SOL    HW217862   3.325   6.141   6.084
 5655SOL     OW17863   6.450   3.369   4.208
 5655SOL    HW117864   6.498   3.348   4.293
 5655SOL    HW217865   6.351   3.371   4.225
 5656SOL     OW17866   0.336   4.945   1.743
 5656SOL    HW117867   0.394   4.891   1.805
 5656SOL    HW217868   0.347   5.042   1.763
 5657SOL     OW17869   6.072   6.118   5.700
 5657SOL    HW117870   6.061   6.056   5.622
 5657SOL    HW217871   6.147   6.182   5.681
 5658SOL     OW17872   3.053   2.261   5.367
 5658SOL    HW117873   3.100   2.307   5.292
 5658SOL    HW217874   3.097   2.173   5.386
 5659SOL     OW17875   2.493   3.719   5.555
 5659SOL    HW117876   2.429   3.767   5.613
 5659SOL    HW217877   2.574   3.692   5.608
 5660SOL     OW17878   4.241   0.820   4.278
 5660SOL    HW117879   4.277   0.727   4.278
 5660SOL    HW217880   4.184   0.834   4.197
 5661SOL     OW17881   0.566   6.206   5.551
 5661SOL    HW117882   0.631   6.273   5.586
 5661SOL    HW217883   0.492   6.193   5.617
 5662SOL     OW17884   2.473   5.681   0.537
 5662SOL    HW117885   2.403   5.637   0.593
 5662SOL    HW217886   2.443   5.684   0.442
 5663SOL     OW17887   3.561   1.215   6.174
 5663SOL    HW117888   3.583   1.217   6.076
 5663SOL    HW217889   3.613   1.286   6.221
 5664SOL     OW17890   4.887   6.162   5.193
 5664SOL    HW117891   4.976   6.135   5.157
 5664SOL    HW217892   4.821   6.170   5.118
 5665SOL     OW17893   2.470   1.138   0.871
 5665SOL    HW117894   2.498   1.232   0.857
 5665SOL    HW217895   2.414   1.131   0.954
 5666SOL     OW17896   6.105   3.665   4.845
 5666SOL    HW117897   6.028   3.631   4.791
 5666SOL    HW217898   6.081   3.663   4.942
 5667SOL     OW17899   2.576   4.551   4.019
 5667SOL    HW117900   2.598   4.568   3.923
 5667SOL    HW217901   2.654   4.505   4.063
 5668SOL     OW17902   4.471   4.717   4.119
 5668SOL    HW117903   4.491   4.652   4.192
 5668SOL    HW217904   4.390   4.771   4.143
 5669SOL     OW17905   5.535   3.299   6.001
 5669SOL    HW117906   5.627   3.333   5.982
 5669SOL    HW217907   5.504   3.241   5.926
 5670SOL     OW17908   0.837   3.441   4.271
 5670SOL    HW117909   0.745   3.474   4.293
 5670SOL    HW217910   0.865   3.373   4.339
 5671SOL     OW17911   5.796   5.953   2.862
 5671SOL    HW117912   5.752   5.864   2.850
 5671SOL    HW217913   5.832   5.960   2.955
 5672SOL     OW17914   5.986   3.418   4.703
 5672SOL    HW117915   5.925   3.353   4.749
 5672SOL    HW217916   6.077   3.376   4.694
 5673SOL     OW17917   0.920   2.291   0.660
 5673SOL    HW117918   0.991   2.323   0.596
 5673SOL    HW217919   0.954   2.300   0.753
 5674SOL     OW17920   3.150   5.223   5.532
 5674SOL    HW117921   3.185   5.223   5.438
 5674SOL    HW217922   3.208   5.166   5.590
 5675SOL     OW17923   3.795   2.100   0.729
 5675SOL    HW117924   3.705   2.112   0.771
 5675SOL    HW217925   3.848   2.035   0.783
 5676SOL     OW17926   3.604   1.517   1.883
 5676SOL    HW117927   3.646   1.603   1.857
 5676SOL    HW217928   3.667   1.442   1.863
 5677SOL     OW17929   1.027   1.022   6.429
 5677SOL    HW117930   0.974   1.008   6.346
 5677SOL    HW217931   1.095   0.949   6.438
 5678SOL     OW17932   3.964   2.136   2.056
 5678SOL    HW117933   3.943   2.045   2.092
 5678SOL    HW217934   3.893   2.163   1.991
 5679SOL     OW17935   1.290   3.712   5.650
 5679SOL    HW117936   1.298   3.781   5.722
 5679SOL    HW217937   1.326   3.625   5.683
 5680SOL     OW17938   1.057   6.048   3.856
 5680SOL    HW117939   0.981   5.990   3.828
 5680SOL    HW217940   1.023   6.120   3.916
 5681SOL     OW17941   1.744   3.699   3.080
 5681SOL    HW117942   1.704   3.704   2.988
 5681SOL    HW217943   1.672   3.709   3.149
 5682SOL     OW17944   2.087   4.609   0.219
 5682SOL    HW117945   2.076   4.561   0.131
 5682SOL    HW217946   2.174   4.582   0.260
 5683SOL     OW17947   6.971   5.975   6.201
 5683SOL    HW117948   6.891   5.939   6.249
 5683SOL    HW217949   7.022   5.899   6.161
 5684SOL     OW17950   2.132   3.745   4.160
 5684SOL    HW117951   2.111   3.839   4.185
 5684SOL    HW217952   2.141   3.690   4.244
 5685SOL     OW17953   1.871   2.000   1.483
 5685SOL    HW117954   1.774   1.987   1.503
 5685SOL    HW217955   1.919   2.028   1.566
 5686SOL     OW17956   5.822   5.271   5.479
 5686SOL    HW117957   5.805   5.240   5.385
 5686SOL    HW217958   5.907   5.229   5.512
 5687SOL     OW17959   1.040   0.153   6.964
 5687SOL    HW117960   1.109   0.222   6.946
 5687SOL    HW217961   1.054   0.075   6.902
 5688SOL     OW17962   1.350   2.843   2.493
 5688SOL    HW117963   1.432   2.820   2.545
 5688SOL    HW217964   1.271   2.795   2.532
 5689SOL     OW17965   0.107   1.600   0.529
 5689SOL    HW117966   0.029   1.556   0.573
 5689SOL    HW217967   0.173   1.628   0.599
 5690SOL     OW17968   3.439   5.528   6.907
 5690SOL    HW117969   3.463   5.524   6.810
 5690SOL    HW217970   3.522   5.520   6.963
 5691SOL     OW17971   4.898   3.019   3.433
 5691SOL    HW117972   4.897   3.119   3.423
 5691SOL    HW217973   4.871   2.995   3.527
 5692SOL     OW17974   6.402   4.650   2.404
 5692SOL    HW117975   6.438   4.646   2.310
 5692SOL    HW217976   6.474   4.678   2.466
 5693SOL     OW17977   2.949   0.829   2.232
 5693SOL    HW117978   2.878   0.848   2.164
 5693SOL    HW217979   2.986   0.737   2.218
 5694SOL     OW17980   6.948   6.539   1.035
 5694SOL    HW117981   0.017   6.553   1.031
 5694SOL    HW217982   6.904   6.596   0.966
 5695SOL     OW17983   1.798   0.988   2.237
 5695SOL    HW117984   1.711   0.954   2.272
 5695SOL    HW217985   1.825   1.070   2.289
 5696SOL     OW17986   6.552   1.340   3.350
 5696SOL    HW117987   6.575   1.432   3.380
 5696SOL    HW217988   6.636   1.290   3.329
 5697SOL     OW17989   5.972   1.623   0.379
 5697SOL    HW117990   5.970   1.688   0.454
 5697SOL    HW217991   6.002   1.669   0.295
 5698SOL     OW17992   2.768   2.032   3.176
 5698SOL    HW117993   2.832   1.960   3.149
 5698SOL    HW217994   2.816   2.120   3.179
 5699SOL     OW17995   2.374   2.604   2.360
 5699SOL    HW117996   2.307   2.558   2.418
 5699SOL    HW217997   2.380   2.701   2.385
 5700SOL     OW17998   5.680   0.606   2.129
 5700SOL    HW117999   5.720   0.517   2.152
 5700SOL    HW218000   5.653   0.653   2.214
 5701SOL     OW18001   2.011   1.481   0.736
 5701SOL    HW118002   2.023   1.571   0.777
 5701SOL    HW218003   2.091   1.424   0.756
 5702SOL     OW18004   1.398   6.305   4.762
 5702SOL    HW118005   1.490   6.270   4.779
 5702SOL    HW218006   1.339   6.284   4.840
 5703SOL     OW18007   0.762   3.122   5.857
 5703SOL    HW118008   0.809   3.165   5.780
 5703SOL    HW218009   0.718   3.192   5.913
 5704SOL     OW18010   4.552   5.983   4.468
 5704SOL    HW118011   4.591   6.010   4.556
 5704SOL    HW218012   4.468   5.931   4.484
 5705SOL     OW18013   6.145   1.563   4.809
 5705SOL    HW118014   6.048   1.566   4.785
 5705SOL    HW218015   6.180   1.470   4.799
 5706SOL     OW18016   5.571   0.697   1.349
 5706SOL    HW118017   5.578   0.794   1.375
 5706SOL    HW218018   5.495   0.656   1.399
 5707SOL     OW18019   5.729   6.146   1.344
 5707SOL    HW118020   5.730   6.046   1.342
 5707SOL    HW218021   5.682   6.178   1.426
 5708SOL     OW18022   4.480   6.847   1.810
 5708SOL    HW118023   4.392   6.801   1.800
 5708SOL    HW218024   4.552   6.791   1.770
 5709SOL     OW18025   6.526   2.458   2.434
 5709SOL    HW118026   6.462   2.466   2.511
 5709SOL    HW218027   6.573   2.546   2.421
 5710SOL     OW18028   5.183   1.369   0.433
 5710SOL    HW118029   5.091   1.349   0.399
 5710SOL    HW218030   5.187   1.349   0.531
 5711SOL     OW18031   4.344   1.326   2.912
 5711SOL    HW118032   4.430   1.371   2.888
 5711SOL    HW218033   4.268   1.388   2.894
 5712SOL     OW18034   6.608   5.630   6.783
 5712SOL    HW118035   6.614   5.632   6.883
 5712SOL    HW218036   6.540   5.563   6.755
 5713SOL     OW18037   1.438   1.130   6.849
 5713SOL    HW118038   1.401   1.070   6.920
 5713SOL    HW218039   1.366   1.149   6.782
 5714SOL     OW18040   4.858   0.196   0.922
 5714SOL    HW118041   4.892   0.254   0.848
 5714SOL    HW218042   4.873   0.100   0.899
 5715SOL     OW18043   0.398   5.878   0.887
 5715SOL    HW118044   0.479   5.934   0.903
 5715SOL    HW218045   0.338   5.925   0.822
 5716SOL     OW18046   6.817   4.660   5.554
 5716SOL    HW118047   6.775   4.660   5.645
 5716SOL    HW218048   6.748   4.687   5.486
 5717SOL     OW18049   0.028   6.189   2.192
 5717SOL    HW118050   7.004   6.173   2.275
 5717SOL    HW218051   0.124   6.169   2.210
 5718SOL     OW18052   1.758   4.548   6.042
 5718SOL    HW118053   1.728   4.526   5.949
 5718SOL    HW218054   1.809   4.470   6.079
 5719SOL     OW18055   3.702   3.987   1.756
 5719SOL    HW118056   3.722   3.907   1.813
 5719SOL    HW218057   3.685   4.066   1.814
 5720SOL     OW18058   2.313   3.768   6.811
 5720SOL    HW118059   2.292   3.689   6.754
 5720SOL    HW218060   2.344   3.736   6.901
 5721SOL     OW18061   1.046   2.886   0.690
 5721SOL    HW118062   1.042   2.861   0.787
 5721SOL    HW218063   1.036   2.985   0.680
 5722SOL     OW18064   1.484   0.732   5.952
 5722SOL    HW118065   1.454   0.657   6.011
 5722SOL    HW218066   1.550   0.789   6.001
 5723SOL     OW18067   4.451   3.822   6.912
 5723SOL    HW118068   4.398   3.901   6.944
 5723SOL    HW218069   4.448   3.750   6.981
 5724SOL     OW18070   6.722   2.304   6.331
 5724SOL    HW118071   6.769   2.332   6.414
 5724SOL    HW218072   6.780   2.240   6.280
 5725SOL     OW18073   6.762   4.240   4.918
 5725SOL    HW118074   6.714   4.273   4.837
 5725SOL    HW218075   6.859   4.267   4.912
 5726SOL     OW18076   4.342   4.780   1.968
 5726SOL    HW118077   4.307   4.841   2.040
 5726SOL    HW218078   4.399   4.832   1.905
 5727SOL     OW18079   0.993   3.284   6.078
 5727SOL    HW118080   0.919   3.219   6.093
 5727SOL    HW218081   1.071   3.261   6.136
 5728SOL     OW18082   2.169   5.657   4.030
 5728SOL    HW118083   2.216   5.744   4.010
 5728SOL    HW218084   2.098   5.673   4.098
 5729SOL     OW18085   2.538   1.967   4.081
 5729SOL    HW118086   2.479   1.962   4.161
 5729SOL    HW218087   2.557   2.063   4.059
 5730SOL     OW18088   6.450   4.649   4.354
 5730SOL    HW118089   6.357   4.624   4.383
 5730SOL    HW218090   6.458   4.748   4.349
 5731SOL     OW18091   6.710   6.906   2.398
 5731SOL    HW118092   6.753   6.985   2.442
 5731SOL    HW218093   6.734   6.905   2.301
 5732SOL     OW18094   5.199   0.156   3.387
 5732SOL    HW118095   5.125   0.099   3.354
 5732SOL    HW218096   5.251   0.193   3.310
 5733SOL     OW18097   2.983   0.712   5.309
 5733SOL    HW118098   2.919   0.751   5.243
 5733SOL    HW218099   3.039   0.786   5.348
 5734SOL     OW18100   2.311   5.905   4.033
 5734SOL    HW118101   2.350   5.990   3.998
 5734SOL    HW218102   2.385   5.846   4.067
 5735SOL     OW18103   2.602   1.001   1.408
 5735SOL    HW118104   2.515   1.048   1.422
 5735SOL    HW218105   2.591   0.933   1.335
 5736SOL     OW18106   1.822   4.468   1.587
 5736SOL    HW118107   1.729   4.478   1.551
 5736SOL    HW218108   1.886   4.454   1.512
 5737SOL     OW18109   5.745   3.723   0.238
 5737SOL    HW118110   5.821   3.694   0.179
 5737SOL    HW218111   5.754   3.820   0.259
 5738SOL     OW18112   1.039   5.765   4.290
 5738SOL    HW118113   0.940   5.775   4.285
 5738SOL    HW218114   1.083   5.855   4.280
 5739SOL     OW18115   0.663   2.363   1.302
 5739SOL    HW118116   0.715   2.425   1.360
 5739SOL    HW218117   0.724   2.322   1.234
 5740SOL     OW18118   4.480   5.102   0.215
 5740SOL    HW118119   4.513   5.080   0.123
 5740SOL    HW218120   4.391   5.147   0.209
 5741SOL     OW18121   0.147   2.365   1.721
 5741SOL    HW118122   0.059   2.350   1.676
 5741SOL    HW218123   0.168   2.287   1.780
 5742SOL     OW18124   0.092   5.091   3.760
 5742SOL    HW118125   0.011   5.097   3.818
 5742SOL    HW218126   0.165   5.149   3.797
 5743SOL     OW18127   0.599   0.597   4.701
 5743SOL    HW118128   0.603   0.639   4.792
 5743SOL    HW218129   0.675   0.631   4.646
 5744SOL     OW18130   6.208   0.856   2.207
 5744SOL    HW118131   6.228   0.782   2.142
 5744SOL    HW218132   6.158   0.928   2.160
 5745SOL     OW18133   6.859   3.421   2.502
 5745SOL    HW118134   6.802   3.415   2.421
 5745SOL    HW218135   6.813   3.476   2.572
 5746SOL     OW18136   0.783   3.601   6.326
 5746SOL    HW118137   0.839   3.636   6.251
 5746SOL    HW218138   0.690   3.584   6.294
 5747SOL     OW18139   6.946   6.832   3.702
 5747SOL    HW118140   6.947   6.819   3.802
 5747SOL    HW218141   6.866   6.785   3.663
 5748SOL     OW18142   0.988   1.336   3.951
 5748SOL    HW118143   1.083   1.366   3.963
 5748SOL    HW218144   0.942   1.337   4.040
 5749SOL     OW18145   0.296   1.382   3.220
 5749SOL    HW118146   0.276   1.290   3.185
 5749SOL    HW218147   0.387   1.383   3.262
 5750SOL     OW18148   4.348   5.874   2.751
 5750SOL    HW118149   4.310   5.899   2.662
 5750SOL    HW218150   4.409   5.946   2.782
 5751SOL     OW18151   1.156   1.742   6.782
 5751SOL    HW118152   1.203   1.784   6.860
 5751SOL    HW218153   1.173   1.797   6.700
 5752SOL     OW18154   2.366   0.759   6.750
 5752SOL    HW118155   2.422   0.714   6.680
 5752SOL    HW218156   2.414   0.757   6.838
 5753SOL     OW18157   3.885   1.190   6.081
 5753SOL    HW118158   3.886   1.098   6.121
 5753SOL    HW218159   3.813   1.195   6.012
 5754SOL     OW18160   5.975   6.095   0.756
 5754SOL    HW118161   6.008   6.047   0.674
 5754SOL    HW218162   5.878   6.116   0.745
 5755SOL     OW18163   3.104   3.696   2.291
 5755SOL    HW118164   3.150   3.608   2.275
 5755SOL    HW218165   3.085   3.740   2.204
 5756SOL     OW18166   6.195   0.663   3.686
 5756SOL    HW118167   6.250   0.718   3.748
 5756SOL    HW218168   6.109   0.711   3.665
 5757SOL     OW18169   6.900   6.898   1.902
 5757SOL    HW118170   6.849   6.868   1.983
 5757SOL    HW218171   6.903   6.998   1.900
 5758SOL     OW18172   2.665   1.267   5.766
 5758SOL    HW118173   2.668   1.189   5.705
 5758SOL    HW218174   2.757   1.302   5.782
 5759SOL     OW18175   0.426   1.340   5.778
 5759SOL    HW118176   0.373   1.274   5.725
 5759SOL    HW218177   0.522   1.335   5.749
 5760SOL     OW18178   6.655   5.993   1.540
 5760SOL    HW118179   6.662   6.092   1.552
 5760SOL    HW218180   6.585   5.956   1.601
 5761SOL     OW18181   3.558   0.669   4.158
 5761SOL    HW118182   3.514   0.624   4.235
 5761SOL    HW218183   3.657   0.671   4.173
 5762SOL     OW18184   4.676   0.419   1.465
 5762SOL    HW118185   4.580   0.446   1.455
 5762SOL    HW218186   4.691   0.330   1.422
 5763SOL     OW18187   3.757   0.886   1.027
 5763SOL    HW118188   3.701   0.804   1.024
 5763SOL    HW218189   3.851   0.862   1.049
 5764SOL     OW18190   3.389   2.911   6.712
 5764SOL    HW118191   3.388   2.978   6.638
 5764SOL    HW218192   3.295   2.896   6.744
 5765SOL     OW18193   6.832   5.135   6.175
 5765SOL    HW118194   6.831   5.226   6.133
 5765SOL    HW218195   6.917   5.124   6.227
 5766SOL     OW18196   2.543   1.646   3.235
 5766SOL    HW118197   2.624   1.688   3.276
 5766SOL    HW218198   2.512   1.571   3.293
 5767SOL     OW18199   4.597   6.318   0.253
 5767SOL    HW118200   4.663   6.256   0.211
 5767SOL    HW218201   4.506   6.299   0.216
 5768SOL     OW18202   5.223   0.306   2.423
 5768SOL    HW118203   5.159   0.254   2.480
 5768SOL    HW218204   5.185   0.316   2.331
 5769SOL     OW18205   0.034   4.928   3.520
 5769SOL    HW118206   0.043   4.987   3.600
 5769SOL    HW218207   6.971   4.935   3.483
 5770SOL     OW18208   4.903   2.704   0.730
 5770SOL    HW118209   4.816   2.753   0.718
 5770SOL    HW218210   4.974   2.769   0.757
 5771SOL     OW18211   0.650   0.240   1.682
 5771SOL    HW118212   0.714   0.175   1.722
 5771SOL    HW218213   0.604   0.197   1.604
 5772SOL     OW18214   6.083   4.961   5.674
 5772SOL    HW118215   6.074   4.893   5.601
 5772SOL    HW218216   6.024   4.935   5.750
 5773SOL     OW18217   5.004   6.494   5.902
 5773SOL    HW118218   5.008   6.435   5.822
 5773SOL    HW218219   4.909   6.504   5.931
 5774SOL     OW18220   1.518   4.305   1.818
 5774SOL    HW118221   1.593   4.317   1.883
 5774SOL    HW218222   1.506   4.388   1.765
 5775SOL     OW18223   1.517   1.243   0.381
 5775SOL    HW118224   1.472   1.226   0.293
 5775SOL    HW218225   1.449   1.243   0.454
 5776SOL     OW18226   5.104   0.377   5.564
 5776SOL    HW118227   5.052   0.453   5.525
 5776SOL    HW218228   5.066   0.353   5.654
 5777SOL     OW18229   4.651   6.485   5.129
 5777SOL    HW118230   4.737   6.438   5.106
 5777SOL    HW218231   4.597   6.498   5.046
 5778SOL     OW18232   2.422   6.662   3.664
 5778SOL    HW118233   2.354   6.615   3.608
 5778SOL    HW218234   2.384   6.680   3.755
 5779SOL     OW18235   2.828   6.486   2.239
 5779SOL    HW118236   2.921   6.484   2.275
 5779SOL    HW218237   2.821   6.556   2.168
 5780SOL     OW18238   0.053   4.424   0.021
 5780SOL    HW118239   0.081   4.333   7.021
 5780SOL    HW218240   0.090   4.442   0.113
 5781SOL     OW18241   4.896   4.921   5.791
 5781SOL    HW118242   4.832   4.976   5.845
 5781SOL    HW218243   4.877   4.934   5.694
 5782SOL     OW18244   4.638   1.694   2.867
 5782SOL    HW118245   4.643   1.597   2.841
 5782SOL    HW218246   4.635   1.750   2.785
 5783SOL     OW18247   2.764   6.183   3.554
 5783SOL    HW118248   2.782   6.116   3.482
 5783SOL    HW218249   2.683   6.156   3.606
 5784SOL     OW18250   0.003   0.079   2.161
 5784SOL    HW118251   0.098   0.046   2.158
 5784SOL    HW218252   7.011   0.126   2.076
 5785SOL     OW18253   2.753   0.997   5.586
 5785SOL    HW118254   2.664   1.011   5.543
 5785SOL    HW218255   2.777   0.900   5.584
 5786SOL     OW18256   2.097   1.162   5.815
 5786SOL    HW118257   2.087   1.063   5.821
 5786SOL    HW218258   2.181   1.191   5.862
 5787SOL     OW18259   0.695   2.492   6.293
 5787SOL    HW118260   0.778   2.516   6.242
 5787SOL    HW218261   0.666   2.400   6.267
 5788SOL     OW18262   0.498   2.323   1.995
 5788SOL    HW118263   0.458   2.234   1.973
 5788SOL    HW218264   0.447   2.365   2.069
 5789SOL     OW18265   3.366   1.494   6.684
 5789SOL    HW118266   3.442   1.434   6.710
 5789SOL    HW218267   3.281   1.456   6.719
 5790SOL     OW18268   6.184   6.310   2.629
 5790SOL    HW118269   6.143   6.400   2.610
 5790SOL    HW218270   6.115   6.251   2.672
 5791SOL     OW18271   3.780   0.971   1.631
 5791SOL    HW118272   3.839   1.010   1.561
 5791SOL    HW218273   3.830   0.967   1.718
 5792SOL     OW18274   4.787   1.628   2.484
 5792SOL    HW118275   4.853   1.700   2.507
 5792SOL    HW218276   4.730   1.608   2.563
 5793SOL     OW18277   4.205   1.615   0.539
 5793SOL    HW118278   4.165   1.529   0.569
 5793SOL    HW218279   4.189   1.686   0.608
 5794SOL     OW18280   3.700   6.578   0.030
 5794SOL    HW118281   3.719   6.676   0.025
 5794SOL    HW218282   3.759   6.535   0.099
 5795SOL     OW18283   0.727   6.713   2.237
 5795SOL    HW118284   0.738   6.680   2.331
 5795SOL    HW218285   0.692   6.807   2.238
 5796SOL     OW18286   4.761   0.938   5.558
 5796SOL    HW118287   4.694   0.996   5.604
 5796SOL    HW218288   4.846   0.936   5.611
 5797SOL     OW18289   6.114   1.395   6.068
 5797SOL    HW118290   6.126   1.332   6.145
 5797SOL    HW218291   6.046   1.464   6.092
 5798SOL     OW18292   2.173   2.762   4.493
 5798SOL    HW118293   2.085   2.799   4.523
 5798SOL    HW218294   2.246   2.799   4.550
 5799SOL     OW18295   2.670   1.102   3.673
 5799SOL    HW118296   2.696   1.182   3.726
 5799SOL    HW218297   2.592   1.124   3.614
 5800SOL     OW18298   1.566   5.588   1.499
 5800SOL    HW118299   1.518   5.664   1.457
 5800SOL    HW218300   1.532   5.574   1.593
 5801SOL     OW18301   1.620   2.193   3.389
 5801SOL    HW118302   1.521   2.194   3.373
 5801SOL    HW218303   1.646   2.271   3.446
 5802SOL     OW18304   0.202   6.648   2.309
 5802SOL    HW118305   0.214   6.582   2.383
 5802SOL    HW218306   0.105   6.654   2.284
 5803SOL     OW18307   0.020   0.032   4.539
 5803SOL    HW118308   6.971   0.032   4.600
 5803SOL    HW218309   7.019   0.035   4.444
 5804SOL     OW18310   6.451   2.872   3.282
 5804SOL    HW118311   6.474   2.934   3.357
 5804SOL    HW218312   6.535   2.831   3.245
 5805SOL     OW18313   0.556   1.329   1.670
 5805SOL    HW118314   0.476   1.315   1.729
 5805SOL    HW218315   0.611   1.404   1.706
 5806SOL     OW18316   6.736   3.760   1.870
 5806SOL    HW118317   6.719   3.758   1.968
 5806SOL    HW218318   6.832   3.740   1.852
 5807SOL     OW18319   0.952   0.971   2.743
 5807SOL    HW118320   0.923   0.903   2.811
 5807SOL    HW218321   0.880   1.040   2.732
 5808SOL     OW18322   5.958   5.611   6.185
 5808SOL    HW118323   6.045   5.595   6.231
 5808SOL    HW218324   5.895   5.658   6.248
 5809SOL     OW18325   6.427   4.152   5.135
 5809SOL    HW118326   6.375   4.068   5.122
 5809SOL    HW218327   6.518   4.130   5.171
 5810SOL     OW18328   0.937   6.458   4.709
 5810SOL    HW118329   0.949   6.523   4.633
 5810SOL    HW218330   0.843   6.465   4.743
 5811SOL     OW18331   3.066   5.358   0.208
 5811SOL    HW118332   3.070   5.354   0.308
 5811SOL    HW218333   3.027   5.446   0.179
 5812SOL     OW18334   6.069   2.493   5.735
 5812SOL    HW118335   6.147   2.524   5.790
 5812SOL    HW218336   5.988   2.545   5.761
 5813SOL     OW18337   6.782   5.075   0.963
 5813SOL    HW118338   6.785   5.078   0.863
 5813SOL    HW218339   6.857   5.130   1.000
 5814SOL     OW18340   4.976   1.815   2.559
 5814SOL    HW118341   4.975   1.850   2.652
 5814SOL    HW218342   4.989   1.890   2.495
 5815SOL     OW18343   0.586   4.972   4.855
 5815SOL    HW118344   0.585   5.070   4.836
 5815SOL    HW218345   0.542   4.923   4.779
 5816SOL     OW18346   6.776   3.646   1.133
 5816SOL    HW118347   6.866   3.634   1.176
 5816SOL    HW218348   6.759   3.570   1.070
 5817SOL     OW18349   6.947   1.915   3.743
 5817SOL    HW118350   6.874   1.942   3.681
 5817SOL    HW218351   7.019   1.867   3.692
 5818SOL     OW18352   2.735   1.725   3.430
 5818SOL    HW118353   2.660   1.721   3.496
 5818SOL    HW218354   2.816   1.764   3.474
 5819SOL     OW18355   4.190   4.393   1.695
 5819SOL    HW118356   4.249   4.313   1.682
 5819SOL    HW218357   4.095   4.366   1.682
 5820SOL     OW18358   1.001   6.224   2.182
 5820SOL    HW118359   1.022   6.128   2.196
 5820SOL    HW218360   0.915   6.233   2.131
 5821SOL     OW18361   5.038   5.989   1.788
 5821SOL    HW118362   5.097   6.046   1.845
 5821SOL    HW218363   5.049   6.014   1.692
 5822SOL     OW18364   0.983   3.862   3.213
 5822SOL    HW118365   1.065   3.917   3.196
 5822SOL    HW218366   0.902   3.911   3.180
 5823SOL     OW18367   2.117   6.632   5.026
 5823SOL    HW118368   2.214   6.628   5.001
 5823SOL    HW218369   2.095   6.723   5.061
 5824SOL     OW18370   1.505   5.717   2.462
 5824SOL    HW118371   1.549   5.671   2.386
 5824SOL    HW218372   1.543   5.683   2.548
 5825SOL     OW18373   3.296   2.149   4.426
 5825SOL    HW118374   3.219   2.212   4.419
 5825SOL    HW218375   3.357   2.161   4.348
 5826SOL     OW18376   1.252   5.984   5.739
 5826SOL    HW118377   1.277   5.891   5.768
 5826SOL    HW218378   1.158   6.004   5.766
 5827SOL     OW18379   1.062   5.028   4.072
 5827SOL    HW118380   1.030   5.112   4.028
 5827SOL    HW218381   1.128   4.982   4.012
 5828SOL     OW18382   5.183   0.255   4.928
 5828SOL    HW118383   5.208   0.160   4.911
 5828SOL    HW218384   5.252   0.316   4.888
 5829SOL     OW18385   1.836   1.084   2.498
 5829SOL    HW118386   1.911   1.150   2.503
 5829SOL    HW218387   1.862   1.000   2.546
 5830SOL     OW18388   4.704   4.735   3.890
 5830SOL    HW118389   4.695   4.667   3.963
 5830SOL    HW218390   4.648   4.815   3.913
 5831SOL     OW18391   2.046   1.528   3.719
 5831SOL    HW118392   1.972   1.581   3.679
 5831SOL    HW218393   2.013   1.435   3.740
 5832SOL     OW18394   2.869   5.405   3.756
 5832SOL    HW118395   2.882   5.329   3.820
 5832SOL    HW218396   2.958   5.445   3.734
 5833SOL     OW18397   2.653   4.551   1.460
 5833SOL    HW118398   2.601   4.573   1.542
 5833SOL    HW218399   2.640   4.623   1.392
 5834SOL     OW18400   6.716   0.431   6.592
 5834SOL    HW118401   6.749   0.363   6.528
 5834SOL    HW218402   6.638   0.394   6.643
 5835SOL     OW18403   3.373   0.826   3.406
 5835SOL    HW118404   3.304   0.778   3.460
 5835SOL    HW218405   3.458   0.830   3.457
 5836SOL     OW18406   5.754   4.717   1.255
 5836SOL    HW118407   5.828   4.749   1.314
 5836SOL    HW218408   5.777   4.735   1.159
 5837SOL     OW18409   2.219   3.898   0.143
 5837SOL    HW118410   2.306   3.876   0.099
 5837SOL    HW218411   2.212   3.998   0.152
 5838SOL     OW18412   3.291   3.523   0.428
 5838SOL    HW118413   3.259   3.580   0.503
 5838SOL    HW218414   3.236   3.540   0.347
 5839SOL     OW18415   2.377   2.083   0.839
 5839SOL    HW118416   2.400   2.097   0.935
 5839SOL    HW218417   2.447   2.127   0.782
 5840SOL     OW18418   6.330   3.295   2.701
 5840SOL    HW118419   6.321   3.298   2.602
 5840SOL    HW218420   6.272   3.223   2.739
 5841SOL     OW18421   4.786   1.498   7.001
 5841SOL    HW118422   4.885   1.493   7.001
 5841SOL    HW218423   4.748   1.415   6.960
 5842SOL     OW18424   3.274   1.820   2.306
 5842SOL    HW118425   3.289   1.863   2.395
 5842SOL    HW218426   3.209   1.874   2.253
 5843SOL     OW18427   2.698   2.713   1.290
 5843SOL    HW118428   2.741   2.723   1.200
 5843SOL    HW218429   2.699   2.801   1.338
 5844SOL     OW18430   6.241   5.595   4.966
 5844SOL    HW118431   6.322   5.584   5.023
 5844SOL    HW218432   6.166   5.540   5.003
 5845SOL     OW18433   1.916   5.906   3.160
 5845SOL    HW118434   1.960   5.942   3.078
 5845SOL    HW218435   1.978   5.842   3.206
 5846SOL     OW18436   0.587   4.440   5.399
 5846SOL    HW118437   0.520   4.402   5.464
 5846SOL    HW218438   0.676   4.447   5.444
 5847SOL     OW18439   1.950   3.596   5.878
 5847SOL    HW118440   1.991   3.679   5.841
 5847SOL    HW218441   1.980   3.517   5.824
 5848SOL     OW18442   2.571   6.615   2.107
 5848SOL    HW118443   2.640   6.685   2.087
 5848SOL    HW218444   2.494   6.657   2.155
 5849SOL     OW18445   3.162   6.565   6.297
 5849SOL    HW118446   3.102   6.637   6.262
 5849SOL    HW218447   3.113   6.513   6.367
 5850SOL     OW18448   5.643   2.467   0.693
 5850SOL    HW118449   5.705   2.544   0.707
 5850SOL    HW218450   5.696   2.383   0.680
 5851SOL     OW18451   1.155   3.013   5.952
 5851SOL    HW118452   1.162   2.959   6.036
 5851SOL    HW218453   1.073   2.986   5.901
 5852SOL     OW18454   4.083   4.755   3.353
 5852SOL    HW118455   4.108   4.664   3.320
 5852SOL    HW218456   4.108   4.823   3.283
 5853SOL     OW18457   4.615   5.135   6.965
 5853SOL    HW118458   4.661   5.211   7.009
 5853SOL    HW218459   4.682   5.073   6.925
 5854SOL     OW18460   2.486   4.206   5.327
 5854SOL    HW118461   2.485   4.135   5.257
 5854SOL    HW218462   2.492   4.164   5.417
 5855SOL     OW18463   1.081   2.137   4.515
 5855SOL    HW118464   1.089   2.171   4.609
 5855SOL    HW218465   1.029   2.052   4.514
 5856SOL     OW18466   0.162   0.976   2.483
 5856SOL    HW118467   0.221   1.009   2.556
 5856SOL    HW218468   0.206   0.991   2.394
 5857SOL     OW18469   6.325   5.649   6.919
 5857SOL    HW118470   6.247   5.630   6.980
 5857SOL    HW218471   6.338   5.747   6.912
 5858SOL     OW18472   3.308   1.978   0.596
 5858SOL    HW118473   3.262   2.006   0.680
 5858SOL    HW218474   3.256   1.904   0.553
 5859SOL     OW18475   6.486   4.644   1.643
 5859SOL    HW118476   6.469   4.547   1.658
 5859SOL    HW218477   6.469   4.666   1.547
 5860SOL     OW18478   1.471   3.208   1.662
 5860SOL    HW118479   1.544   3.169   1.718
 5860SOL    HW218480   1.385   3.207   1.713
 5861SOL     OW18481   5.079   6.200   4.981
 5861SOL    HW118482   5.142   6.260   4.931
 5861SOL    HW218483   5.027   6.144   4.916
 5862SOL     OW18484   0.299   5.243   1.395
 5862SOL    HW118485   0.296   5.256   1.296
 5862SOL    HW218486   0.351   5.318   1.436
 5863SOL     OW18487   3.654   0.018   5.511
 5863SOL    HW118488   3.664   0.110   5.474
 5863SOL    HW218489   3.673   6.981   5.439
 5864SOL     OW18490   4.070   3.834   3.179
 5864SOL    HW118491   4.144   3.780   3.220
 5864SOL    HW218492   3.990   3.831   3.239
 5865SOL     OW18493   6.571   6.283   1.103
 5865SOL    HW118494   6.505   6.210   1.081
 5865SOL    HW218495   6.635   6.250   1.172
 5866SOL     OW18496   3.398   3.990   3.551
 5866SOL    HW118497   3.405   3.908   3.607
 5866SOL    HW218498   3.458   4.061   3.587
 5867SOL     OW18499   5.202   0.598   0.222
 5867SOL    HW118500   5.121   0.628   0.272
 5867SOL    HW218501   5.224   0.664   0.151
 5868SOL     OW18502   1.631   0.858   0.450
 5868SOL    HW118503   1.617   0.945   0.498
 5868SOL    HW218504   1.569   0.789   0.490
 5869SOL     OW18505   2.280   5.676   3.438
 5869SOL    HW118506   2.333   5.605   3.486
 5869SOL    HW218507   2.184   5.670   3.467
 5870SOL     OW18508   3.801   6.672   3.748
 5870SOL    HW118509   3.733   6.601   3.733
 5870SOL    HW218510   3.893   6.632   3.751
 5871SOL     OW18511   4.072   3.488   3.273
 5871SOL    HW118512   4.117   3.527   3.353
 5871SOL    HW218513   4.088   3.389   3.272
 5872SOL     OW18514   3.887   5.062   1.714
 5872SOL    HW118515   3.970   5.116   1.710
 5872SOL    HW218516   3.894   4.995   1.789
 5873SOL     OW18517   3.678   6.917   1.978
 5873SOL    HW118518   3.664   7.000   1.924
 5873SOL    HW218519   3.612   6.915   2.052
 5874SOL     OW18520   0.735   3.175   4.017
 5874SOL    HW118521   0.782   3.239   3.955
 5874SOL    HW218522   0.799   3.144   4.087
 5875SOL     OW18523   3.877   2.523   1.013
 5875SOL    HW118524   3.880   2.579   1.096
 5875SOL    HW218525   3.880   2.583   0.932
 5876SOL     OW18526   4.070   3.629   2.486
 5876SOL    HW118527   4.062   3.690   2.565
 5876SOL    HW218528   4.104   3.681   2.407
 5877SOL     OW18529   4.510   4.907   1.797
 5877SOL    HW118530   4.528   4.930   1.701
 5877SOL    HW218531   4.564   4.967   1.856
 5878SOL     OW18532   0.707   3.699   2.345
 5878SOL    HW118533   0.662   3.788   2.350
 5878SOL    HW218534   0.784   3.705   2.281
 5879SOL     OW18535   1.955   4.114   5.082
 5879SOL    HW118536   1.951   4.108   4.982
 5879SOL    HW218537   2.042   4.156   5.109
 5880SOL     OW18538   2.081   5.650   0.213
 5880SOL    HW118539   2.054   5.598   0.131
 5880SOL    HW218540   2.006   5.710   0.240
 5881SOL     OW18541   1.511   6.137   4.522
 5881SOL    HW118542   1.527   6.093   4.610
 5881SOL    HW218543   1.473   6.070   4.458
 5882SOL     OW18544   5.244   0.793   2.902
 5882SOL    HW118545   5.304   0.809   2.823
 5882SOL    HW218546   5.149   0.788   2.872
 5883SOL     OW18547   0.690   3.454   5.598
 5883SOL    HW118548   0.626   3.492   5.530
 5883SOL    HW218549   0.774   3.508   5.597
 5884SOL     OW18550   6.933   1.272   3.531
 5884SOL    HW118551   6.865   1.307   3.595
 5884SOL    HW218552   7.013   1.332   3.530
 5885SOL     OW18553   6.375   5.091   0.448
 5885SOL    HW118554   6.403   5.085   0.543
 5885SOL    HW218555   6.323   5.175   0.433
 5886SOL     OW18556   6.255   2.206   5.945
 5886SOL    HW118557   6.163   2.245   5.953
 5886SOL    HW218558   6.299   2.205   6.035
 5887SOL     OW18559   3.630   6.847   2.362
 5887SOL    HW118560   3.550   6.879   2.311
 5887SOL    HW218561   3.642   6.904   2.444
 5888SOL     OW18562   6.993   6.039   2.577
 5888SOL    HW118563   6.937   6.098   2.520
 5888SOL    HW218564   7.018   5.957   2.525
 5889SOL     OW18565   3.339   6.620   0.676
 5889SOL    HW118566   3.268   6.644   0.743
 5889SOL    HW218567   3.361   6.523   0.683
 5890SOL     OW18568   4.127   5.412   6.093
 5890SOL    HW118569   4.202   5.357   6.130
 5890SOL    HW218570   4.041   5.362   6.102
 5891SOL     OW18571   2.520   3.201   6.708
 5891SOL    HW118572   2.533   3.299   6.720
 5891SOL    HW218573   2.548   3.174   6.616
 5892SOL     OW18574   3.362   5.081   1.207
 5892SOL    HW118575   3.301   5.064   1.284
 5892SOL    HW218576   3.348   5.011   1.137
 5893SOL     OW18577   0.273   3.109   1.900
 5893SOL    HW118578   0.345   3.138   1.963
 5893SOL    HW218579   0.245   3.015   1.921
 5894SOL     OW18580   2.230   4.546   3.597
 5894SOL    HW118581   2.305   4.584   3.544
 5894SOL    HW218582   2.252   4.452   3.624
 5895SOL     OW18583   4.544   4.856   3.195
 5895SOL    HW118584   4.532   4.883   3.291
 5895SOL    HW218585   4.576   4.761   3.191
 5896SOL     OW18586   5.692   2.426   5.454
 5896SOL    HW118587   5.614   2.379   5.495
 5896SOL    HW218588   5.677   2.434   5.355
 5897SOL     OW18589   4.667   4.762   7.029
 5897SOL    HW118590   4.675   4.805   0.089
 5897SOL    HW218591   4.592   4.806   6.978
 5898SOL     OW18592   1.814   5.849   2.620
 5898SOL    HW118593   1.781   5.833   2.714
 5898SOL    HW218594   1.802   5.765   2.567
 5899SOL     OW18595   4.937   0.466   3.700
 5899SOL    HW118596   4.881   0.383   3.701
 5899SOL    HW218597   4.949   0.496   3.605
 5900SOL     OW18598   3.957   5.094   2.071
 5900SOL    HW118599   3.999   5.136   2.151
 5900SOL    HW218600   3.918   5.165   2.012
 5901SOL     OW18601   2.928   6.500   3.222
 5901SOL    HW118602   2.902   6.445   3.142
 5901SOL    HW218603   3.027   6.503   3.229
 5902SOL     OW18604   0.018   1.845   0.352
 5902SOL    HW118605   6.962   1.815   0.311
 5902SOL    HW218606   0.081   1.768   0.359
 5903SOL     OW18607   1.031   2.223   6.257
 5903SOL    HW118608   0.978   2.262   6.333
 5903SOL    HW218609   0.973   2.158   6.207
 5904SOL     OW18610   7.024   2.960   2.237
 5904SOL    HW118611   6.939   3.006   2.261
 5904SOL    HW218612   0.072   3.020   2.255
 5905SOL     OW18613   0.092   3.386   2.579
 5905SOL    HW118614   7.027   3.397   2.549
 5905SOL    HW218615   0.119   3.291   2.571
 5906SOL     OW18616   5.861   1.837   3.390
 5906SOL    HW118617   5.917   1.906   3.437
 5906SOL    HW218618   5.919   1.759   3.365
 5907SOL     OW18619   1.680   0.794   1.855
 5907SOL    HW118620   1.636   0.845   1.780
 5907SOL    HW218621   1.611   0.749   1.910
 5908SOL     OW18622   0.497   2.844   4.818
 5908SOL    HW118623   0.573   2.780   4.811
 5908SOL    HW218624   0.417   2.797   4.856
 5909SOL     OW18625   6.828   4.428   6.112
 5909SOL    HW118626   6.907   4.454   6.168
 5909SOL    HW218627   6.856   4.362   6.043
 5910SOL     OW18628   1.325   1.729   3.505
 5910SOL    HW118629   1.228   1.753   3.496
 5910SOL    HW218630   1.362   1.703   3.415
 5911SOL     OW18631   5.563   4.542   6.461
 5911SOL    HW118632   5.631   4.598   6.414
 5911SOL    HW218633   5.548   4.457   6.410
 5912SOL     OW18634   0.676   1.279   2.045
 5912SOL    HW118635   0.728   1.305   1.964
 5912SOL    HW218636   0.578   1.281   2.024
 5913SOL     OW18637   0.415   3.543   1.256
 5913SOL    HW118638   0.413   3.443   1.249
 5913SOL    HW218639   0.399   3.569   1.351
 5914SOL     OW18640   1.278   6.382   0.673
 5914SOL    HW118641   1.352   6.396   0.608
 5914SOL    HW218642   1.190   6.382   0.624
 5915SOL     OW18643   5.431   0.818   5.231
 5915SOL    HW118644   5.393   0.749   5.292
 5915SOL    HW218645   5.396   0.805   5.138
 5916SOL     OW18646   0.898   0.615   3.197
 5916SOL    HW118647   0.845   0.684   3.245
 5916SOL    HW218648   0.850   0.588   3.114
 5917SOL     OW18649   3.885   3.584   1.309
 5917SOL    HW118650   3.802   3.640   1.312
 5917SOL    HW218651   3.872   3.510   1.243
 5918SOL     OW18652   3.360   6.665   5.670
 5918SOL    HW118653   3.301   6.741   5.698
 5918SOL    HW218654   3.365   6.662   5.570
 5919SOL     OW18655   2.978   3.663   4.420
 5919SOL    HW118656   2.983   3.762   4.410
 5919SOL    HW218657   2.952   3.641   4.514
 5920SOL     OW18658   1.843   0.593   5.150
 5920SOL    HW118659   1.857   0.658   5.224
 5920SOL    HW218660   1.779   0.631   5.083
 5921SOL     OW18661   3.477   4.842   1.494
 5921SOL    HW118662   3.472   4.813   1.398
 5921SOL    HW218663   3.393   4.816   1.541
 5922SOL     OW18664   5.287   2.329   2.514
 5922SOL    HW118665   5.265   2.353   2.419
 5922SOL    HW218666   5.340   2.403   2.555
 5923SOL     OW18667   5.731   1.102   2.235
 5923SOL    HW118668   5.676   1.043   2.294
 5923SOL    HW218669   5.809   1.137   2.286
 5924SOL     OW18670   0.466   6.084   3.235
 5924SOL    HW118671   0.557   6.124   3.226
 5924SOL    HW218672   0.406   6.150   3.280
 5925SOL     OW18673   4.085   0.504   0.956
 5925SOL    HW118674   4.094   0.410   0.923
 5925SOL    HW218675   4.092   0.567   0.879
 5926SOL     OW18676   4.987   3.334   3.082
 5926SOL    HW118677   4.976   3.431   3.060
 5926SOL    HW218678   4.950   3.317   3.173
 5927SOL     OW18679   1.024   0.359   1.366
 5927SOL    HW118680   0.983   0.387   1.452
 5927SOL    HW218681   1.120   0.334   1.381
 5928SOL     OW18682   3.150   0.039   5.896
 5928SOL    HW118683   3.127   6.981   5.853
 5928SOL    HW218684   3.188   0.022   5.987
 5929SOL     OW18685   1.772   0.804   0.906
 5929SOL    HW118686   1.683   0.763   0.925
 5929SOL    HW218687   1.788   0.881   0.968
 5930SOL     OW18688   6.804   4.704   2.243
 5930SOL    HW118689   6.757   4.741   2.323
 5930SOL    HW218690   6.897   4.743   2.238
 5931SOL     OW18691   5.289   0.739   5.001
 5931SOL    HW118692   5.198   0.779   4.986
 5931SOL    HW218693   5.279   0.650   5.045
 5932SOL     OW18694   2.518   5.496   1.101
 5932SOL    HW118695   2.538   5.438   1.022
 5932SOL    HW218696   2.511   5.591   1.071
 5933SOL     OW18697   6.149   5.481   4.427
 5933SOL    HW118698   6.102   5.492   4.339
 5933SOL    HW218699   6.167   5.570   4.467
 5934SOL     OW18700   2.503   4.406   0.155
 5934SOL    HW118701   2.492   4.330   0.219
 5934SOL    HW218702   2.510   4.370   0.062
 5935SOL     OW18703   1.895   0.307   5.115
 5935SOL    HW118704   1.865   0.401   5.099
 5935SOL    HW218705   1.959   0.305   5.192
 5936SOL     OW18706   3.371   2.788   1.909
 5936SOL    HW118707   3.336   2.704   1.869
 5936SOL    HW218708   3.348   2.791   2.006
 5937SOL     OW18709   0.710   3.171   0.854
 5937SOL    HW118710   0.629   3.228   0.841
 5937SOL    HW218711   0.692   3.080   0.817
 5938SOL     OW18712   1.067   3.295   3.831
 5938SOL    HW118713   1.085   3.197   3.835
 5938SOL    HW218714   1.041   3.328   3.922
 5939SOL     OW18715   5.261   2.390   5.918
 5939SOL    HW118716   5.211   2.420   6.000
 5939SOL    HW218717   5.329   2.322   5.945
 5940SOL     OW18718   4.424   4.773   1.190
 5940SOL    HW118719   4.433   4.760   1.289
 5940SOL    HW218720   4.391   4.865   1.171
 5941SOL     OW18721   1.701   1.792   3.577
 5941SOL    HW118722   1.683   1.749   3.665
 5941SOL    HW218723   1.757   1.874   3.591
 5942SOL     OW18724   4.550   2.464   5.943
 5942SOL    HW118725   4.611   2.540   5.918
 5942SOL    HW218726   4.594   2.409   6.015
 5943SOL     OW18727   2.331   4.951   2.219
 5943SOL    HW118728   2.410   4.953   2.280
 5943SOL    HW218729   2.269   4.877   2.246
 5944SOL     OW18730   0.179   3.510   5.834
 5944SOL    HW118731   0.153   3.597   5.791
 5944SOL    HW218732   0.100   3.449   5.835
 5945SOL     OW18733   0.411   6.477   4.026
 5945SOL    HW118734   0.459   6.411   4.083
 5945SOL    HW218735   0.455   6.566   4.034
 5946SOL     OW18736   2.959   2.326   0.062
 5946SOL    HW118737   3.053   2.349   0.037
 5946SOL    HW218738   2.897   2.394   0.024
 5947SOL     OW18739   3.179   3.650   5.758
 5947SOL    HW118740   3.083   3.622   5.754
 5947SOL    HW218741   3.208   3.655   5.854
 5948SOL     OW18742   5.205   2.897   1.079
 5948SOL    HW118743   5.273   2.834   1.042
 5948SOL    HW218744   5.143   2.848   1.141
 5949SOL     OW18745   1.084   4.940   4.322
 5949SOL    HW118746   1.082   4.978   4.230
 5949SOL    HW218747   1.179   4.933   4.353
 5950SOL     OW18748   2.070   6.078   4.749
 5950SOL    HW118749   2.128   6.160   4.752
 5950SOL    HW218750   1.986   6.100   4.700
 5951SOL     OW18751   6.817   3.753   6.635
 5951SOL    HW118752   6.907   3.708   6.639
 5951SOL    HW218753   6.785   3.754   6.540
 5952SOL     OW18754   3.788   3.782   1.994
 5952SOL    HW118755   3.701   3.736   2.014
 5952SOL    HW218756   3.837   3.731   1.923
 5953SOL     OW18757   0.286   3.154   6.473
 5953SOL    HW118758   0.336   3.098   6.407
 5953SOL    HW218759   0.190   3.124   6.476
 5954SOL     OW18760   2.679   5.646   3.633
 5954SOL    HW118761   2.706   5.566   3.579
 5954SOL    HW218762   2.683   5.623   3.730
 5955SOL     OW18763   4.249   2.667   6.781
 5955SOL    HW118764   4.154   2.662   6.749
 5955SOL    HW218765   4.295   2.744   6.736
 5956SOL     OW18766   3.598   1.674   6.646
 5956SOL    HW118767   3.541   1.596   6.673
 5956SOL    HW218768   3.555   1.721   6.568
 5957SOL     OW18769   6.948   3.167   3.716
 5957SOL    HW118770   6.852   3.183   3.694
 5957SOL    HW218771   7.000   3.253   3.707
 5958SOL     OW18772   1.953   6.150   2.221
 5958SOL    HW118773   1.944   6.117   2.127
 5958SOL    HW218774   2.025   6.100   2.268
 5959SOL     OW18775   4.874   4.337   3.206
 5959SOL    HW118776   4.956   4.339   3.264
 5959SOL    HW218777   4.795   4.369   3.258
 5960SOL     OW18778   6.893   6.620   6.689
 5960SOL    HW118779   6.834   6.544   6.660
 5960SOL    HW218780   6.919   6.674   6.610
 5961SOL     OW18781   1.485   1.997   3.605
 5961SOL    HW118782   1.460   1.907   3.568
 5961SOL    HW218783   1.583   2.011   3.595
 5962SOL     OW18784   5.487   5.545   0.761
 5962SOL    HW118785   5.486   5.445   0.762
 5962SOL    HW218786   5.415   5.579   0.822
 5963SOL     OW18787   2.294   3.763   1.335
 5963SOL    HW118788   2.316   3.836   1.399
 5963SOL    HW218789   2.347   3.681   1.358
 5964SOL     OW18790   1.456   6.403   4.450
 5964SOL    HW118791   1.361   6.403   4.419
 5964SOL    HW218792   1.474   6.320   4.502
 5965SOL     OW18793   2.121   0.345   1.482
 5965SOL    HW118794   2.120   0.347   1.382
 5965SOL    HW218795   2.211   0.373   1.515
 5966SOL     OW18796   2.605   1.569   5.007
 5966SOL    HW118797   2.634   1.555   5.102
 5966SOL    HW218798   2.647   1.652   4.971
 5967SOL     OW18799   5.017   2.373   5.752
 5967SOL    HW118800   4.956   2.367   5.830
 5967SOL    HW218801   5.096   2.313   5.767
 5968SOL     OW18802   6.076   1.655   3.308
 5968SOL    HW118803   6.165   1.661   3.264
 5968SOL    HW218804   6.088   1.641   3.406
 5969SOL     OW18805   5.414   6.311   1.354
 5969SOL    HW118806   5.375   6.219   1.363
 5969SOL    HW218807   5.350   6.378   1.392
 5970SOL     OW18808   6.611   1.295   0.318
 5970SOL    HW118809   6.553   1.357   0.264
 5970SOL    HW218810   6.692   1.272   0.265
 5971SOL     OW18811   6.856   5.194   3.912
 5971SOL    HW118812   6.798   5.217   3.990
 5971SOL    HW218813   6.849   5.096   3.892
 5972SOL     OW18814   6.768   5.048   0.038
 5972SOL    HW118815   6.756   5.147   0.037
 5972SOL    HW218816   6.865   5.027   0.048
 5973SOL     OW18817   3.569   0.524   1.673
 5973SOL    HW118818   3.491   0.495   1.728
 5973SOL    HW218819   3.584   0.459   1.599
 5974SOL     OW18820   5.847   0.765   4.657
 5974SOL    HW118821   5.883   0.676   4.684
 5974SOL    HW218822   5.774   0.754   4.591
 5975SOL     OW18823   3.736   4.354   0.448
 5975SOL    HW118824   3.644   4.317   0.460
 5975SOL    HW218825   3.776   4.373   0.537
 5976SOL     OW18826   0.671   2.238   6.164
 5976SOL    HW118827   0.753   2.180   6.162
 5976SOL    HW218828   0.643   2.259   6.071
 5977SOL     OW18829   0.393   5.809   1.678
 5977SOL    HW118830   0.332   5.732   1.702
 5977SOL    HW218831   0.375   5.836   1.583
 5978SOL     OW18832   3.210   3.595   6.332
 5978SOL    HW118833   3.276   3.664   6.305
 5978SOL    HW218834   3.119   3.622   6.302
 5979SOL     OW18835   5.879   0.929   1.404
 5979SOL    HW118836   5.810   0.913   1.474
 5979SOL    HW218837   5.910   0.842   1.367
 5980SOL     OW18838   3.683   2.930   0.353
 5980SOL    HW118839   3.723   2.841   0.373
 5980SOL    HW218840   3.690   2.949   0.255
 5981SOL     OW18841   4.399   2.106   0.569
 5981SOL    HW118842   4.381   2.190   0.620
 5981SOL    HW218843   4.313   2.067   0.536
 5982SOL     OW18844   5.907   2.379   1.258
 5982SOL    HW118845   5.970   2.451   1.227
 5982SOL    HW218846   5.826   2.379   1.200
 5983SOL     OW18847   0.555   1.303   4.142
 5983SOL    HW118848   0.520   1.303   4.236
 5983SOL    HW218849   0.507   1.234   4.088
 5984SOL     OW18850   6.591   6.100   2.037
 5984SOL    HW118851   6.551   6.031   2.098
 5984SOL    HW218852   6.551   6.189   2.056
 5985SOL     OW18853   0.103   4.416   2.358
 5985SOL    HW118854   0.048   4.361   2.295
 5985SOL    HW218855   0.184   4.450   2.311
 5986SOL     OW18856   3.871   3.392   3.536
 5986SOL    HW118857   3.882   3.420   3.440
 5986SOL    HW218858   3.791   3.332   3.544
 5987SOL     OW18859   0.396   6.134   3.686
 5987SOL    HW118860   0.337   6.089   3.620
 5987SOL    HW218861   0.368   6.109   3.779
 5988SOL     OW18862   1.771   2.175   0.033
 5988SOL    HW118863   1.758   2.157   6.965
 5988SOL    HW218864   1.808   2.093   0.077
 5989SOL     OW18865   2.881   6.551   5.774
 5989SOL    HW118866   2.954   6.526   5.838
 5989SOL    HW218867   2.840   6.637   5.803
 5990SOL     OW18868   2.372   3.974   1.784
 5990SOL    HW118869   2.414   4.065   1.785
 5990SOL    HW218870   2.316   3.962   1.866
 5991SOL     OW18871   4.950   1.053   6.860
 5991SOL    HW118872   4.959   0.957   6.831
 5991SOL    HW218873   5.025   1.106   6.820
 5992SOL     OW18874   2.495   4.529   2.412
 5992SOL    HW118875   2.568   4.589   2.443
 5992SOL    HW218876   2.515   4.497   2.320
 5993SOL     OW18877   5.934   0.812   6.989
 5993SOL    HW118878   5.961   0.853   6.902
 5993SOL    HW218879   5.950   0.877   0.033
 5994SOL     OW18880   0.545   5.105   1.124
 5994SOL    HW118881   0.586   5.181   1.176
 5994SOL    HW218882   0.450   5.094   1.151
 5995SOL     OW18883   5.642   4.587   1.492
 5995SOL    HW118884   5.660   4.640   1.409
 5995SOL    HW218885   5.577   4.514   1.470
 5996SOL     OW18886   2.859   0.993   1.415
 5996SOL    HW118887   2.912   1.047   1.349
 5996SOL    HW218888   2.761   1.006   1.398
 5997SOL     OW18889   6.572   0.966   4.566
 5997SOL    HW118890   6.559   0.962   4.665
 5997SOL    HW218891   6.494   1.014   4.525
 5998SOL     OW18892   5.620   6.137   6.940
 5998SOL    HW118893   5.671   6.117   7.024
 5998SOL    HW218894   5.649   6.226   6.904
 5999SOL     OW18895   6.251   2.747   0.946
 5999SOL    HW118896   6.262   2.731   1.044
 5999SOL    HW218897   6.202   2.670   0.905
 6000SOL     OW18898   0.360   5.585   1.999
 6000SOL    HW118899   0.382   5.676   2.036
 6000SOL    HW218900   0.304   5.535   2.065
 6001SOL     OW18901   0.021   6.463   6.433
 6001SOL    HW118902   0.117   6.470   6.408
 6001SOL    HW218903   7.011   6.555   6.438
 6002SOL     OW18904   5.541   4.531   4.378
 6002SOL    HW118905   5.515   4.627   4.369
 6002SOL    HW218906   5.516   4.498   4.470
 6003SOL     OW18907   2.345   0.613   4.665
 6003SOL    HW118908   2.424   0.554   4.684
 6003SOL    HW218909   2.370   0.680   4.595
 6004SOL     OW18910   5.623   3.432   4.842
 6004SOL    HW118911   5.591   3.421   4.748
 6004SOL    HW218912   5.691   3.362   4.862
 6005SOL     OW18913   3.736   3.981   0.447
 6005SOL    HW118914   3.770   3.914   0.383
 6005SOL    HW218915   3.688   4.053   0.398
 6006SOL     OW18916   3.180   6.757   5.921
 6006SOL    HW118917   3.191   6.784   5.825
 6006SOL    HW218918   3.174   6.658   5.927
 6007SOL     OW18919   2.718   0.094   4.097
 6007SOL    HW118920   2.644   0.073   4.160
 6007SOL    HW218921   2.791   0.143   4.145
 6008SOL     OW18922   2.514   3.476   6.719
 6008SOL    HW118923   2.426   3.494   6.762
 6008SOL    HW218924   2.536   3.550   6.655
 6009SOL     OW18925   2.119   5.491   2.278
 6009SOL    HW118926   2.044   5.438   2.238
 6009SOL    HW218927   2.200   5.483   2.220
 6010SOL     OW18928   0.405   5.419   6.472
 6010SOL    HW118929   0.459   5.474   6.535
 6010SOL    HW218930   0.427   5.443   6.378
 6011SOL     OW18931   5.140   1.963   3.365
 6011SOL    HW118932   5.109   1.897   3.296
 6011SOL    HW218933   5.115   2.055   3.337
 6012SOL     OW18934   6.132   1.417   5.639
 6012SOL    HW118935   6.042   1.377   5.660
 6012SOL    HW218936   6.164   1.384   5.551
 6013SOL     OW18937   6.055   2.148   3.293
 6013SOL    HW118938   5.995   2.099   3.230
 6013SOL    HW218939   6.114   2.210   3.241
 6014SOL     OW18940   3.959   3.303   3.942
 6014SOL    HW118941   3.969   3.270   4.036
 6014SOL    HW218942   3.938   3.227   3.881
 6015SOL     OW18943   6.532   0.174   3.235
 6015SOL    HW118944   6.631   0.179   3.236
 6015SOL    HW218945   6.499   0.174   3.141
 6016SOL     OW18946   4.490   2.098   4.283
 6016SOL    HW118947   4.493   2.051   4.195
 6016SOL    HW218948   4.465   2.033   4.354
 6017SOL     OW18949   1.158   2.742   5.117
 6017SOL    HW118950   1.149   2.659   5.062
 6017SOL    HW218951   1.085   2.744   5.186
 6018SOL     OW18952   2.172   1.191   4.108
 6018SOL    HW118953   2.254   1.134   4.094
 6018SOL    HW218954   2.098   1.157   4.049
 6019SOL     OW18955   6.727   3.284   6.272
 6019SOL    HW118956   6.636   3.308   6.306
 6019SOL    HW218957   6.772   3.366   6.238
 6020SOL     OW18958   0.458   5.693   4.815
 6020SOL    HW118959   0.509   5.679   4.730
 6020SOL    HW218960   0.511   5.751   4.877
 6021SOL     OW18961   5.736   0.008   4.139
 6021SOL    HW118962   5.828   7.019   4.173
 6021SOL    HW218963   5.727   7.000   4.046
 6022SOL     OW18964   6.641   3.369   1.306
 6022SOL    HW118965   6.576   3.372   1.382
 6022SOL    HW218966   6.701   3.449   1.310
 6023SOL     OW18967   3.910   0.262   2.973
 6023SOL    HW118968   3.920   0.344   2.917
 6023SOL    HW218969   3.827   0.213   2.945
 6024SOL     OW18970   0.267   6.459   6.924
 6024SOL    HW118971   0.288   6.556   6.938
 6024SOL    HW218972   0.172   6.449   6.895
 6025SOL     OW18973   3.743   0.766   5.554
 6025SOL    HW118974   3.781   0.707   5.484
 6025SOL    HW218975   3.743   0.718   5.642
 6026SOL     OW18976   5.188   6.418   3.760
 6026SOL    HW118977   5.172   6.367   3.675
 6026SOL    HW218978   5.160   6.513   3.747
 6027SOL     OW18979   6.017   4.017   6.071
 6027SOL    HW118980   6.075   3.938   6.051
 6027SOL    HW218981   6.075   4.096   6.090
 6028SOL     OW18982   6.591   5.419   6.520
 6028SOL    HW118983   6.511   5.450   6.572
 6028SOL    HW218984   6.673   5.427   6.577
 6029SOL     OW18985   2.613   1.394   2.220
 6029SOL    HW118986   2.602   1.446   2.136
 6029SOL    HW218987   2.683   1.436   2.277
 6030SOL     OW18988   6.460   2.878   5.024
 6030SOL    HW118989   6.525   2.948   4.994
 6030SOL    HW218990   6.367   2.907   5.004
 6031SOL     OW18991   0.047   0.409   4.000
 6031SOL    HW118992   6.992   0.361   4.021
 6031SOL    HW218993   0.098   0.358   3.931
 6032SOL     OW18994   3.117   0.262   3.208
 6032SOL    HW118995   3.075   0.179   3.243
 6032SOL    HW218996   3.055   0.307   3.144
 6033SOL     OW18997   0.763   1.668   2.869
 6033SOL    HW118998   0.681   1.725   2.874
 6033SOL    HW218999   0.746   1.580   2.914
 6034SOL     OW19000   0.731   0.532   1.292
 6034SOL    HW119001   0.781   0.610   1.253
 6034SOL    HW219002   0.721   0.461   1.222
 6035SOL     OW19003   2.239   1.426   2.769
 6035SOL    HW119004   2.180   1.462   2.697
 6035SOL    HW219005   2.195   1.347   2.812
 6036SOL     OW19006   6.865   3.517   6.992
 6036SOL    HW119007   6.826   3.605   6.965
 6036SOL    HW219008   6.816   3.443   6.945
 6037SOL     OW19009   4.691   0.501   0.024
 6037SOL    HW119010   4.747   0.516   6.972
 6037SOL    HW219011   4.603   0.462   7.027
 6038SOL     OW19012   2.386   2.091   0.210
 6038SOL    HW119013   2.323   2.084   0.133
 6038SOL    HW219014   2.370   2.015   0.273
 6039SOL     OW19015   2.978   3.810   3.563
 6039SOL    HW119016   2.954   3.758   3.644
 6039SOL    HW219017   2.939   3.766   3.482
 6040SOL     OW19018   6.877   0.301   0.907
 6040SOL    HW119019   6.915   0.213   0.877
 6040SOL    HW219020   6.869   0.362   0.828
 6041SOL     OW19021   0.539   3.254   4.413
 6041SOL    HW119022   0.516   3.351   4.402
 6041SOL    HW219023   0.534   3.209   4.324
 6042SOL     OW19024   2.939   5.738   2.402
 6042SOL    HW119025   2.917   5.688   2.486
 6042SOL    HW219026   2.961   5.673   2.329
 6043SOL     OW19027   2.141   4.571   1.003
 6043SOL    HW119028   2.070   4.640   0.991
 6043SOL    HW219029   2.106   4.482   0.977
 6044SOL     OW19030   6.500   3.926   6.987
 6044SOL    HW119031   6.500   3.866   0.037
 6044SOL    HW219032   6.429   3.896   6.923
 6045SOL     OW19033   4.524   1.239   4.091
 6045SOL    HW119034   4.505   1.268   4.184
 6045SOL    HW219035   4.439   1.214   4.046
 6046SOL     OW19036   3.492   3.933   2.663
 6046SOL    HW119037   3.538   3.874   2.730
 6046SOL    HW219038   3.440   3.877   2.599
 6047SOL     OW19039   6.955   1.169   0.626
 6047SOL    HW119040   6.888   1.135   0.559
 6047SOL    HW219041   6.983   1.094   0.685
 6048SOL     OW19042   6.436   5.941   3.312
 6048SOL    HW119043   6.530   5.939   3.346
 6048SOL    HW219044   6.435   5.927   3.213
 6049SOL     OW19045   6.046   5.020   0.285
 6049SOL    HW119046   5.998   4.980   0.207
 6049SOL    HW219047   6.134   4.975   0.297
 6050SOL     OW19048   2.208   5.709   3.167
 6050SOL    HW119049   2.255   5.733   3.252
 6050SOL    HW219050   2.252   5.629   3.127
 6051SOL     OW19051   0.307   2.100   2.959
 6051SOL    HW119052   0.296   2.196   2.933
 6051SOL    HW219053   0.279   2.041   2.883
 6052SOL     OW19054   5.269   5.435   6.708
 6052SOL    HW119055   5.305   5.369   6.643
 6052SOL    HW219056   5.343   5.465   6.769
 6053SOL     OW19057   3.774   1.850   6.120
 6053SOL    HW119058   3.786   1.858   6.021
 6053SOL    HW219059   3.704   1.781   6.139
 6054SOL     OW19060   4.386   3.813   6.055
 6054SOL    HW119061   4.455   3.886   6.061
 6054SOL    HW219062   4.428   3.730   6.019
 6055SOL     OW19063   3.293   4.904   1.773
 6055SOL    HW119064   3.198   4.900   1.803
 6055SOL    HW219065   3.333   4.991   1.801
 6056SOL     OW19066   5.338   6.750   3.059
 6056SOL    HW119067   5.289   6.673   3.100
 6056SOL    HW219068   5.436   6.743   3.081
 6057SOL     OW19069   5.445   1.581   4.308
 6057SOL    HW119070   5.374   1.648   4.287
 6057SOL    HW219071   5.411   1.516   4.377
 6058SOL     OW19072   6.958   4.000   6.493
 6058SOL    HW119073   0.028   3.994   6.488
 6058SOL    HW219074   6.928   4.000   6.588
 6059SOL     OW19075   4.110   1.934   6.452
 6059SOL    HW119076   4.093   1.862   6.385
 6059SOL    HW219077   4.128   1.893   6.542
 6060SOL     OW19078   2.542   2.045   1.402
 6060SOL    HW119079   2.468   2.110   1.418
 6060SOL    HW219080   2.628   2.095   1.386
 6061SOL     OW19081   2.316   4.721   6.327
 6061SOL    HW119082   2.392   4.786   6.323
 6061SOL    HW219083   2.237   4.764   6.370
 6062SOL     OW19084   1.754   1.858   4.785
 6062SOL    HW119085   1.779   1.945   4.743
 6062SOL    HW219086   1.665   1.867   4.830
 6063SOL     OW19087   4.020   3.792   5.588
 6063SOL    HW119088   4.038   3.890   5.587
 6063SOL    HW219089   4.107   3.743   5.597
 6064SOL     OW19090   5.790   5.586   0.086
 6064SOL    HW119091   5.701   5.631   0.099
 6064SOL    HW219092   5.779   5.487   0.094
 6065SOL     OW19093   1.667   5.409   1.286
 6065SOL    HW119094   1.646   5.470   1.362
 6065SOL    HW219095   1.747   5.353   1.309
 6066SOL     OW19096   4.902   5.856   2.992
 6066SOL    HW119097   4.828   5.804   2.950
 6066SOL    HW219098   4.965   5.793   3.037
 6067SOL     OW19099   6.520   5.092   5.417
 6067SOL    HW119100   6.547   5.151   5.341
 6067SOL    HW219101   6.455   5.023   5.385
 6068SOL     OW19102   4.660   2.362   3.535
 6068SOL    HW119103   4.582   2.379   3.475
 6068SOL    HW219104   4.645   2.278   3.586
 6069SOL     OW19105   0.977   5.174   5.298
 6069SOL    HW119106   0.994   5.273   5.304
 6069SOL    HW219107   1.054   5.131   5.250
 6070SOL     OW19108   2.540   0.497   1.407
 6070SOL    HW119109   2.636   0.505   1.436
 6070SOL    HW219110   2.533   0.434   1.330
 6071SOL     OW19111   6.515   6.655   6.526
 6071SOL    HW119112   6.581   6.581   6.537
 6071SOL    HW219113   6.429   6.629   6.570
 6072SOL     OW19114   0.271   2.570   6.826
 6072SOL    HW119115   0.302   2.534   6.738
 6072SOL    HW219116   0.207   2.506   6.867
 6073SOL     OW19117   4.391   4.490   6.652
 6073SOL    HW119118   4.364   4.528   6.741
 6073SOL    HW219119   4.324   4.421   6.624
 6074SOL     OW19120   1.422   5.957   2.581
 6074SOL    HW119121   1.343   5.940   2.641
 6074SOL    HW219122   1.448   5.872   2.536
 6075SOL     OW19123   6.901   6.328   0.294
 6075SOL    HW119124   6.935   6.269   0.221
 6075SOL    HW219125   6.905   6.279   0.381
 6076SOL     OW19126   0.075   6.159   3.175
 6076SOL    HW119127   0.044   6.217   3.099
 6076SOL    HW219128   0.079   6.064   3.144
 6077SOL     OW19129   4.648   5.686   3.196
 6077SOL    HW119130   4.731   5.699   3.142
 6077SOL    HW219131   4.584   5.761   3.179
 6078SOL     OW19132   5.525   4.184   0.419
 6078SOL    HW119133   5.532   4.136   0.331
 6078SOL    HW219134   5.511   4.117   0.492
 6079SOL     OW19135   3.341   1.986   7.010
 6079SOL    HW119136   3.382   1.909   6.959
 6079SOL    HW219137   3.322   1.958   0.074
 6080SOL     OW19138   5.918   3.328   5.609
 6080SOL    HW119139   5.844   3.284   5.559
 6080SOL    HW219140   5.970   3.259   5.659
 6081SOL     OW19141   2.052   4.674   3.799
 6081SOL    HW119142   2.085   4.641   3.711
 6081SOL    HW219143   2.127   4.720   3.847
 6082SOL     OW19144   4.173   1.402   1.241
 6082SOL    HW119145   4.235   1.445   1.306
 6082SOL    HW219146   4.084   1.448   1.244
 6083SOL     OW19147   5.362   0.977   5.566
 6083SOL    HW119148   5.443   0.976   5.625
 6083SOL    HW219149   5.296   1.044   5.600
 6084SOL     OW19150   6.413   5.208   3.672
 6084SOL    HW119151   6.409   5.280   3.742
 6084SOL    HW219152   6.320   5.187   3.641
 6085SOL     OW19153   0.686   6.309   0.937
 6085SOL    HW119154   0.768   6.289   0.884
 6085SOL    HW219155   0.617   6.239   0.920
 6086SOL     OW19156   4.746   2.953   0.539
 6086SOL    HW119157   4.782   2.871   0.495
 6086SOL    HW219158   4.799   3.032   0.509
 6087SOL     OW19159   3.897   0.946   6.222
 6087SOL    HW119160   3.974   0.901   6.267
 6087SOL    HW219161   3.886   0.910   6.130
 6088SOL     OW19162   3.827   6.158   2.819
 6088SOL    HW119163   3.890   6.219   2.770
 6088SOL    HW219164   3.748   6.210   2.851
 6089SOL     OW19165   6.380   5.475   2.602
 6089SOL    HW119166   6.326   5.434   2.676
 6089SOL    HW219167   6.327   5.546   2.557
 6090SOL     OW19168   4.076   6.112   4.678
 6090SOL    HW119169   4.168   6.150   4.692
 6090SOL    HW219170   4.064   6.091   4.581
 6091SOL     OW19171   0.213   2.887   2.019
 6091SOL    HW119172   0.226   2.791   1.992
 6091SOL    HW219173   0.137   2.892   2.084
 6092SOL     OW19174   1.666   0.050   1.278
 6092SOL    HW119175   1.715   7.002   1.239
 6092SOL    HW219176   1.683   0.054   1.376
 6093SOL     OW19177   3.734   3.257   2.570
 6093SOL    HW119178   3.667   3.213   2.511
 6093SOL    HW219179   3.826   3.227   2.545
 6094SOL     OW19180   0.293   6.626   5.396
 6094SOL    HW119181   0.370   6.657   5.452
 6094SOL    HW219182   0.292   6.677   5.310
 6095SOL     OW19183   5.417   5.265   2.508
 6095SOL    HW119184   5.340   5.203   2.521
 6095SOL    HW219185   5.397   5.352   2.553
 6096SOL     OW19186   4.745   6.510   2.750
 6096SOL    HW119187   4.732   6.607   2.732
 6096SOL    HW219188   4.837   6.494   2.786
 6097SOL     OW19189   2.151   5.010   1.163
 6097SOL    HW119190   2.210   4.970   1.233
 6097SOL    HW219191   2.068   4.955   1.154
 6098SOL     OW19192   6.213   1.623   5.396
 6098SOL    HW119193   6.185   1.666   5.482
 6098SOL    HW219194   6.222   1.693   5.325
 6099SOL     OW19195   3.388   6.931   5.474
 6099SOL    HW119196   3.349   6.972   5.391
 6099SOL    HW219197   3.480   6.968   5.489
 6100SOL     OW19198   6.454   5.324   6.297
 6100SOL    HW119199   6.517   5.350   6.370
 6100SOL    HW219200   6.503   5.269   6.229
 6101SOL     OW19201   1.036   2.852   0.969
 6101SOL    HW119202   0.946   2.809   0.972
 6101SOL    HW219203   1.050   2.907   1.052
 6102SOL     OW19204   2.541   0.390   2.603
 6102SOL    HW119205   2.494   0.440   2.531
 6102SOL    HW219206   2.531   0.292   2.587
 6103SOL     OW19207   5.510   0.367   2.785
 6103SOL    HW119208   5.499   0.268   2.777
 6103SOL    HW219209   5.567   0.387   2.865
 6104SOL     OW19210   0.103   0.271   5.161
 6104SOL    HW119211   0.014   0.229   5.178
 6104SOL    HW219212   0.099   0.368   5.185
 6105SOL     OW19213   3.658   5.416   6.319
 6105SOL    HW119214   3.736   5.479   6.314
 6105SOL    HW219215   3.585   5.458   6.373
 6106SOL     OW19216   6.078   3.576   5.950
 6106SOL    HW119217   6.084   3.478   5.968
 6106SOL    HW219218   6.108   3.595   5.857
 6107SOL     OW19219   6.928   5.014   4.957
 6107SOL    HW119220   6.854   4.951   4.935
 6107SOL    HW219221   6.949   5.071   4.878
 6108SOL     OW19222   3.163   0.579   5.946
 6108SOL    HW119223   3.069   0.571   5.914
 6108SOL    HW219224   3.181   0.673   5.974
 6109SOL     OW19225   6.603   6.426   3.738
 6109SOL    HW119226   6.649   6.507   3.774
 6109SOL    HW219227   6.660   6.383   3.668
 6110SOL     OW19228   1.000   1.824   4.500
 6110SOL    HW119229   0.907   1.812   4.533
 6110SOL    HW219230   1.011   1.779   4.411
 6111SOL     OW19231   3.167   3.311   1.663
 6111SOL    HW119232   3.150   3.257   1.746
 6111SOL    HW219233   3.257   3.286   1.626
 6112SOL     OW19234   4.874   6.229   3.995
 6112SOL    HW119235   4.821   6.146   4.014
 6112SOL    HW219236   4.951   6.235   4.058
 6113SOL     OW19237   3.604   5.264   1.476
 6113SOL    HW119238   3.599   5.171   1.513
 6113SOL    HW219239   3.525   5.317   1.507
 6114SOL     OW19240   5.638   3.878   1.371
 6114SOL    HW119241   5.661   3.798   1.426
 6114SOL    HW219242   5.644   3.855   1.274
 6115SOL     OW19243   5.612   1.235   4.248
 6115SOL    HW119244   5.542   1.266   4.183
 6115SOL    HW219245   5.627   1.137   4.235
 6116SOL     OW19246   6.260   2.246   0.327
 6116SOL    HW119247   6.354   2.279   0.327
 6116SOL    HW219248   6.207   2.299   0.394
 6117SOL     OW19249   3.124   2.087   1.158
 6117SOL    HW119250   3.201   2.135   1.116
 6117SOL    HW219251   3.138   2.082   1.257
 6118SOL     OW19252   6.188   0.215   1.383
 6118SOL    HW119253   6.245   0.282   1.429
 6118SOL    HW219254   6.127   0.171   1.450
 6119SOL     OW19255   0.355   1.209   6.336
 6119SOL    HW119256   0.404   1.145   6.397
 6119SOL    HW219257   0.261   1.178   6.324
 6120SOL     OW19258   3.153   1.405   3.612
 6120SOL    HW119259   3.132   1.431   3.518
 6120SOL    HW219260   3.238   1.353   3.613
 6121SOL     OW19261   4.064   1.262   5.886
 6121SOL    HW119262   4.147   1.300   5.928
 6121SOL    HW219263   3.994   1.248   5.956
 6122SOL     OW19264   4.927   4.333   4.923
 6122SOL    HW119265   4.907   4.414   4.978
 6122SOL    HW219266   5.011   4.346   4.872
 6123SOL     OW19267   5.946   1.785   5.008
 6123SOL    HW119268   5.963   1.687   5.015
 6123SOL    HW219269   5.900   1.805   4.922
 6124SOL     OW19270   1.988   6.036   3.852
 6124SOL    HW119271   2.052   5.965   3.824
 6124SOL    HW219272   2.037   6.122   3.865
 6125SOL     OW19273   3.000   0.944   5.899
 6125SOL    HW119274   3.005   0.988   5.809
 6125SOL    HW219275   3.092   0.940   5.939
 6126SOL     OW19276   6.481   3.130   6.507
 6126SOL    HW119277   6.464   3.060   6.438
 6126SOL    HW219278   6.474   3.089   6.598
 6127SOL     OW19279   4.840   2.320   3.319
 6127SOL    HW119280   4.773   2.364   3.378
 6127SOL    HW219281   4.871   2.385   3.250
 6128SOL     OW19282   6.233   4.908   4.454
 6128SOL    HW119283   6.226   4.816   4.417
 6128SOL    HW219284   6.317   4.951   4.421
 6129SOL     OW19285   2.229   6.237   3.292
 6129SOL    HW119286   2.306   6.245   3.228
 6129SOL    HW219287   2.242   6.157   3.350
 6130SOL     OW19288   6.794   2.177   6.788
 6130SOL    HW119289   6.703   2.158   6.825
 6130SOL    HW219290   6.861   2.121   6.836
 6131SOL     OW19291   6.190   3.280   2.466
 6131SOL    HW119292   6.147   3.356   2.417
 6131SOL    HW219293   6.135   3.198   2.457
 6132SOL     OW19294   4.697   5.791   6.694
 6132SOL    HW119295   4.728   5.713   6.748
 6132SOL    HW219296   4.621   5.762   6.635
 6133SOL     OW19297   7.008   2.236   3.536
 6133SOL    HW119298   6.939   2.287   3.484
 6133SOL    HW219299   7.022   2.146   3.494
 6134SOL     OW19300   0.917   0.105   5.091
 6134SOL    HW119301   0.916   0.175   5.162
 6134SOL    HW219302   0.832   0.108   5.039
 6135SOL     OW19303   6.196   6.193   6.906
 6135SOL    HW119304   6.229   6.270   6.961
 6135SOL    HW219305   6.102   6.209   6.878
 6136SOL     OW19306   1.014   2.468   2.767
 6136SOL    HW119307   1.080   2.417   2.821
 6136SOL    HW219308   0.926   2.468   2.813
 6137SOL     OW19309   6.893   4.468   1.442
 6137SOL    HW119310   6.888   4.413   1.525
 6137SOL    HW219311   6.914   4.563   1.465
 6138SOL     OW19312   5.000   0.763   2.800
 6138SOL    HW119313   5.011   0.699   2.724
 6138SOL    HW219314   4.939   0.723   2.868
 6139SOL     OW19315   1.586   1.802   5.796
 6139SOL    HW119316   1.637   1.746   5.862
 6139SOL    HW219317   1.524   1.744   5.744
 6140SOL     OW19318   2.465   0.594   4.317
 6140SOL    HW119319   2.450   0.677   4.371
 6140SOL    HW219320   2.426   0.515   4.365
 6141SOL     OW19321   0.544   0.637   0.790
 6141SOL    HW119322   0.599   0.594   0.719
 6141SOL    HW219323   0.476   0.696   0.749
 6142SOL     OW19324   0.445   7.028   1.761
 6142SOL    HW119325   0.428   6.930   1.777
 6142SOL    HW219326   0.478   0.011   1.668
 6143SOL     OW19327   2.079   2.994   5.414
 6143SOL    HW119328   2.046   2.905   5.382
 6143SOL    HW219329   2.179   2.992   5.421
 6144SOL     OW19330   3.126   6.057   2.729
 6144SOL    HW119331   3.124   6.059   2.829
 6144SOL    HW219332   3.090   6.144   2.694
 6145SOL     OW19333   5.603   3.495   4.225
 6145SOL    HW119334   5.630   3.499   4.321
 6145SOL    HW219335   5.517   3.444   4.216
 6146SOL     OW19336   6.342   1.729   5.686
 6146SOL    HW119337   6.286   1.658   5.729
 6146SOL    HW219338   6.286   1.810   5.668
 6147SOL     OW19339   1.523   1.907   4.946
 6147SOL    HW119340   1.424   1.898   4.950
 6147SOL    HW219341   1.564   1.857   5.023
 6148SOL     OW19342   4.114   5.539   6.464
 6148SOL    HW119343   4.137   5.443   6.480
 6148SOL    HW219344   4.181   5.579   6.401
 6149SOL     OW19345   4.165   1.740   1.866
 6149SOL    HW119346   4.098   1.757   1.793
 6149SOL    HW219347   4.144   1.798   1.944
 6150SOL     OW19348   0.367   5.248   3.929
 6150SOL    HW119349   0.427   5.182   3.884
 6150SOL    HW219350   0.386   5.249   4.027
 6151SOL     OW19351   3.756   5.361   2.315
 6151SOL    HW119352   3.809   5.296   2.260
 6151SOL    HW219353   3.800   5.451   2.312
 6152SOL     OW19354   0.764   4.057   3.133
 6152SOL    HW119355   0.712   3.982   3.172
 6152SOL    HW219356   0.708   4.105   3.065
 6153SOL     OW19357   5.938   6.243   1.637
 6153SOL    HW119358   5.961   6.270   1.544
 6153SOL    HW219359   5.898   6.321   1.686
 6154SOL     OW19360   3.749   5.386   3.362
 6154SOL    HW119361   3.673   5.331   3.329
 6154SOL    HW219362   3.835   5.341   3.337
 6155SOL     OW19363   1.578   1.610   4.309
 6155SOL    HW119364   1.663   1.567   4.340
 6155SOL    HW219365   1.587   1.709   4.312
 6156SOL     OW19366   4.732   4.288   2.947
 6156SOL    HW119367   4.751   4.226   2.870
 6156SOL    HW219368   4.797   4.363   2.946
 6157SOL     OW19369   0.448   2.500   1.802
 6157SOL    HW119370   0.482   2.434   1.869
 6157SOL    HW219371   0.421   2.453   1.718
 6158SOL     OW19372   3.039   0.758   6.450
 6158SOL    HW119373   3.020   0.669   6.493
 6158SOL    HW219374   3.135   0.783   6.469
 6159SOL     OW19375   6.431   1.131   0.625
 6159SOL    HW119376   6.466   1.048   0.668
 6159SOL    HW219377   6.492   1.208   0.647
 6160SOL     OW19378   1.399   6.997   0.825
 6160SOL    HW119379   1.477   6.954   0.780
 6160SOL    HW219380   1.382   0.057   0.784
 6161SOL     OW19381   6.197   4.168   0.156
 6161SOL    HW119382   6.193   4.135   0.062
 6161SOL    HW219383   6.279   4.224   0.169
 6162SOL     OW19384   5.956   5.824   0.913
 6162SOL    HW119385   5.938   5.768   0.832
 6162SOL    HW219386   5.958   5.921   0.886
 6163SOL     OW19387   4.963   5.458   2.744
 6163SOL    HW119388   4.982   5.372   2.697
 6163SOL    HW219389   4.939   5.440   2.839
 6164SOL     OW19390   3.690   3.673   4.575
 6164SOL    HW119391   3.665   3.732   4.499
 6164SOL    HW219392   3.717   3.729   4.653
 6165SOL     OW19393   3.717   0.566   6.496
 6165SOL    HW119394   3.701   0.602   6.588
 6165SOL    HW219395   3.743   0.641   6.435
 6166SOL     OW19396   3.198   1.316   5.795
 6166SOL    HW119397   3.205   1.406   5.839
 6166SOL    HW219398   3.269   1.255   5.831
 6167SOL     OW19399   1.425   3.756   2.251
 6167SOL    HW119400   1.411   3.830   2.317
 6167SOL    HW219401   1.383   3.672   2.286
 6168SOL     OW19402   1.146   3.932   3.665
 6168SOL    HW119403   1.139   3.971   3.757
 6168SOL    HW219404   1.228   3.875   3.659
 6169SOL     OW19405   2.643   0.718   0.944
 6169SOL    HW119406   2.641   0.791   0.877
 6169SOL    HW219407   2.735   0.679   0.950
 6170SOL     OW19408   2.765   4.730   0.967
 6170SOL    HW119409   2.731   4.755   1.057
 6170SOL    HW219410   2.772   4.813   0.910
 6171SOL     OW19411   2.266   4.186   2.432
 6171SOL    HW119412   2.301   4.254   2.497
 6171SOL    HW219413   2.234   4.105   2.483
 6172SOL     OW19414   2.316   4.992   1.912
 6172SOL    HW119415   2.415   4.990   1.925
 6172SOL    HW219416   2.270   5.018   1.997
 6173SOL     OW19417   0.801   5.532   2.957
 6173SOL    HW119418   0.869   5.567   3.021
 6173SOL    HW219419   0.711   5.568   2.981
 6174SOL     OW19420   5.888   4.473   1.599
 6174SOL    HW119421   5.812   4.504   1.542
 6174SOL    HW219422   5.942   4.405   1.548
 6175SOL     OW19423   5.465   0.176   4.048
 6175SOL    HW119424   5.518   0.097   4.079
 6175SOL    HW219425   5.432   0.228   4.127
 6176SOL     OW19426   6.687   3.318   0.340
 6176SOL    HW119427   6.672   3.233   0.290
 6176SOL    HW219428   6.601   3.348   0.382
 6177SOL     OW19429   5.932   2.795   2.798
 6177SOL    HW119430   5.905   2.842   2.882
 6177SOL    HW219431   5.889   2.705   2.794
 6178SOL     OW19432   0.176   3.942   1.116
 6178SOL    HW119433   0.122   4.025   1.116
 6178SOL    HW219434   0.122   3.866   1.153
 6179SOL     OW19435   0.136   1.465   5.751
 6179SOL    HW119436   0.069   1.395   5.725
 6179SOL    HW219437   0.197   1.428   5.820
 6180SOL     OW19438   2.840   0.781   6.771
 6180SOL    HW119439   2.876   0.840   6.844
 6180SOL    HW219440   2.782   0.835   6.710
 6181SOL     OW19441   4.515   6.694   6.146
 6181SOL    HW119442   4.527   6.788   6.115
 6181SOL    HW219443   4.417   6.675   6.157
 6182SOL     OW19444   4.719   6.953   5.521
 6182SOL    HW119445   4.683   6.881   5.461
 6182SOL    HW219446   4.647   6.982   5.585
 6183SOL     OW19447   2.168   6.603   2.520
 6183SOL    HW119448   2.176   6.553   2.606
 6183SOL    HW219449   2.254   6.649   2.499
 6184SOL     OW19450   6.660   0.083   5.256
 6184SOL    HW119451   6.603   0.147   5.206
 6184SOL    HW219452   6.603   0.030   5.319
 6185SOL     OW19453   2.711   2.427   0.225
 6185SOL    HW119454   2.794   2.374   0.210
 6185SOL    HW219455   2.658   2.430   0.140
 6186SOL     OW19456   4.277   1.156   4.019
 6186SOL    HW119457   4.184   1.177   4.050
 6186SOL    HW219458   4.279   1.154   3.919
 6187SOL     OW19459   3.217   5.098   4.647
 6187SOL    HW119460   3.229   5.050   4.734
 6187SOL    HW219461   3.178   5.188   4.665
 6188SOL     OW19462   2.473   0.127   2.536
 6188SOL    HW119463   2.389   0.133   2.591
 6188SOL    HW219464   2.509   0.033   2.541
 6189SOL     OW19465   5.611   5.140   3.362
 6189SOL    HW119466   5.620   5.206   3.437
 6189SOL    HW219467   5.619   5.047   3.398
 6190SOL     OW19468   5.023   3.382   5.857
 6190SOL    HW119469   5.004   3.321   5.780
 6190SOL    HW219470   4.957   3.366   5.930
 6191SOL     OW19471   0.062   1.173   6.325
 6191SOL    HW119472   0.042   1.079   6.296
 6191SOL    HW219473   0.024   1.237   6.258
 6192SOL     OW19474   3.315   1.549   0.141
 6192SOL    HW119475   3.382   1.597   0.085
 6192SOL    HW219476   3.232   1.604   0.147
 6193SOL     OW19477   0.190   6.505   1.451
 6193SOL    HW119478   0.189   6.453   1.535
 6193SOL    HW219479   0.102   6.552   1.440
 6194SOL     OW19480   3.176   0.449   1.132
 6194SOL    HW119481   3.192   0.363   1.083
 6194SOL    HW219482   3.260   0.503   1.134
 6195SOL     OW19483   2.453   0.557   5.694
 6195SOL    HW119484   2.422   0.637   5.745
 6195SOL    HW219485   2.522   0.584   5.628
 6196SOL     OW19486   1.495   2.064   5.617
 6196SOL    HW119487   1.485   2.016   5.530
 6196SOL    HW219488   1.576   2.122   5.614
 6197SOL     OW19489   2.575   2.604   1.883
 6197SOL    HW119490   2.488   2.622   1.838
 6197SOL    HW219491   2.646   2.661   1.843
 6198SOL     OW19492   2.940   5.793   1.981
 6198SOL    HW119493   3.030   5.771   2.017
 6198SOL    HW219494   2.948   5.819   1.884
 6199SOL     OW19495   0.349   0.288   6.731
 6199SOL    HW119496   0.251   0.272   6.722
 6199SOL    HW219497   0.378   0.359   6.668
 6200SOL     OW19498   4.201   0.508   5.686
 6200SOL    HW119499   4.136   0.473   5.619
 6200SOL    HW219500   4.285   0.453   5.684
 6201SOL     OW19501   2.578   5.462   5.015
 6201SOL    HW119502   2.509   5.461   4.942
 6201SOL    HW219503   2.648   5.394   4.995
 6202SOL     OW19504   1.840   2.482   1.363
 6202SOL    HW119505   1.821   2.543   1.286
 6202SOL    HW219506   1.921   2.427   1.343
 6203SOL     OW19507   5.663   2.628   4.338
 6203SOL    HW119508   5.577   2.577   4.332
 6203SOL    HW219509   5.740   2.564   4.335
 6204SOL     OW19510   1.042   6.928   5.550
 6204SOL    HW119511   1.139   6.947   5.540
 6204SOL    HW219512   0.998   6.927   5.460
 6205SOL     OW19513   4.371   6.970   6.618
 6205SOL    HW119514   4.373   6.988   6.519
 6205SOL    HW219515   4.448   6.913   6.643
 6206SOL     OW19516   4.425   6.977   4.114
 6206SOL    HW119517   4.433   0.032   4.166
 6206SOL    HW219518   4.331   6.943   4.121
 6207SOL     OW19519   2.590   4.620   4.302
 6207SOL    HW119520   2.530   4.672   4.242
 6207SOL    HW219521   2.552   4.618   4.394
 6208SOL     OW19522   5.478   4.504   5.289
 6208SOL    HW119523   5.550   4.440   5.315
 6208SOL    HW219524   5.444   4.482   5.198
 6209SOL     OW19525   1.193   5.784   0.602
 6209SOL    HW119526   1.238   5.812   0.686
 6209SOL    HW219527   1.149   5.863   0.559
 6210SOL     OW19528   0.376   4.186   3.301
 6210SOL    HW119529   0.286   4.141   3.300
 6210SOL    HW219530   0.364   4.285   3.290
 6211SOL     OW19531   2.525   0.390   4.803
 6211SOL    HW119532   2.472   0.305   4.803
 6211SOL    HW219533   2.533   0.425   4.896
 6212SOL     OW19534   6.613   0.795   4.375
 6212SOL    HW119535   6.531   0.740   4.359
 6212SOL    HW219536   6.592   0.867   4.440
 6213SOL     OW19537   6.458   6.854   0.395
 6213SOL    HW119538   6.446   6.945   0.354
 6213SOL    HW219539   6.371   6.824   0.433
 6214SOL     OW19540   5.055   4.316   1.968
 6214SOL    HW119541   5.010   4.405   1.964
 6214SOL    HW219542   4.991   4.245   1.937
 6215SOL     OW19543   3.769   4.340   1.466
 6215SOL    HW119544   3.708   4.273   1.423
 6215SOL    HW219545   3.735   4.432   1.449
 6216SOL     OW19546   5.999   1.634   2.373
 6216SOL    HW119547   5.997   1.704   2.301
 6216SOL    HW219548   5.909   1.628   2.417
 6217SOL     OW19549   4.615   1.185   1.353
 6217SOL    HW119550   4.589   1.279   1.377
 6217SOL    HW219551   4.604   1.172   1.254
 6218SOL     OW19552   4.448   6.299   4.456
 6218SOL    HW119553   4.500   6.376   4.492
 6218SOL    HW219554   4.485   6.272   4.367
 6219SOL     OW19555   0.303   0.730   4.910
 6219SOL    HW119556   0.318   0.634   4.930
 6219SOL    HW219557   0.265   0.740   4.818
 6220SOL     OW19558   1.190   3.458   5.014
 6220SOL    HW119559   1.196   3.390   4.941
 6220SOL    HW219560   1.216   3.416   5.101
 6221SOL     OW19561   4.755   4.551   4.294
 6221SOL    HW119562   4.748   4.487   4.370
 6221SOL    HW219563   4.667   4.595   4.279
 6222SOL     OW19564   6.974   1.759   1.590
 6222SOL    HW119565   0.025   1.804   1.551
 6222SOL    HW219566   6.925   1.711   1.518
 6223SOL     OW19567   5.263   4.914   3.583
 6223SOL    HW119568   5.316   4.985   3.629
 6223SOL    HW219569   5.176   4.952   3.551
 6224SOL     OW19570   2.909   0.325   4.542
 6224SOL    HW119571   2.906   0.286   4.634
 6224SOL    HW219572   2.950   0.259   4.479
 6225SOL     OW19573   3.839   1.483   6.613
 6225SOL    HW119574   3.753   1.504   6.660
 6225SOL    HW219575   3.821   1.419   6.538
 6226SOL     OW19576   0.261   6.164   4.434
 6226SOL    HW119577   0.275   6.065   4.431
 6226SOL    HW219578   0.230   6.191   4.525
 6227SOL     OW19579   2.749   4.220   0.049
 6227SOL    HW119580   2.681   4.184   0.113
 6227SOL    HW219581   2.816   4.150   0.028
 6228SOL     OW19582   6.948   2.098   3.081
 6228SOL    HW119583   6.983   2.042   3.005
 6228SOL    HW219584   6.972   2.053   3.167
 6229SOL     OW19585   1.374   2.489   2.388
 6229SOL    HW119586   1.456   2.489   2.445
 6229SOL    HW219587   1.293   2.503   2.446
 6230SOL     OW19588   1.792   2.758   4.100
 6230SOL    HW119589   1.763   2.726   4.190
 6230SOL    HW219590   1.891   2.764   4.097
 6231SOL     OW19591   6.592   4.183   2.615
 6231SOL    HW119592   6.579   4.137   2.702
 6231SOL    HW219593   6.690   4.190   2.594
 6232SOL     OW19594   0.600   0.896   6.927
 6232SOL    HW119595   0.527   0.948   6.884
 6232SOL    HW219596   0.661   0.859   6.856
 6233SOL     OW19597   4.273   0.970   6.140
 6233SOL    HW119598   4.238   0.918   6.218
 6233SOL    HW219599   4.298   1.062   6.170
 6234SOL     OW19600   2.221   2.103   4.004
 6234SOL    HW119601   2.186   2.196   4.018
 6234SOL    HW219602   2.311   2.095   4.048
 6235SOL     OW19603   1.577   5.253   1.633
 6235SOL    HW119604   1.587   5.155   1.647
 6235SOL    HW219605   1.668   5.294   1.620
 6236SOL     OW19606   0.180   3.865   0.161
 6236SOL    HW119607   0.223   3.776   0.150
 6236SOL    HW219608   0.190   3.896   0.256
 6237SOL     OW19609   3.703   6.248   6.028
 6237SOL    HW119610   3.657   6.311   6.091
 6237SOL    HW219611   3.638   6.218   5.958
 6238SOL     OW19612   5.287   3.170   1.036
 6238SOL    HW119613   5.243   3.219   1.111
 6238SOL    HW219614   5.281   3.071   1.052
 6239SOL     OW19615   3.290   6.282   4.293
 6239SOL    HW119616   3.256   6.196   4.254
 6239SOL    HW219617   3.226   6.356   4.272
 6240SOL     OW19618   2.482   3.833   0.287
 6240SOL    HW119619   2.387   3.863   0.291
 6240SOL    HW219620   2.488   3.737   0.315
 6241SOL     OW19621   3.802   6.584   2.620
 6241SOL    HW119622   3.774   6.595   2.715
 6241SOL    HW219623   3.897   6.614   2.609
 6242SOL     OW19624   3.417   2.052   2.772
 6242SOL    HW119625   3.415   1.982   2.843
 6242SOL    HW219626   3.504   2.102   2.776
 6243SOL     OW19627   6.010   6.089   2.740
 6243SOL    HW119628   5.933   6.032   2.771
 6243SOL    HW219629   6.071   6.106   2.817
 6244SOL     OW19630   1.327   1.877   1.565
 6244SOL    HW119631   1.375   1.933   1.498
 6244SOL    HW219632   1.228   1.884   1.550
 6245SOL     OW19633   2.423   3.280   0.273
 6245SOL    HW119634   2.372   3.196   0.255
 6245SOL    HW219635   2.497   3.260   0.338
 6246SOL     OW19636   4.240   6.989   0.003
 6246SOL    HW119637   4.261   7.029   0.092
 6246SOL    HW219638   4.287   0.010   6.961
 6247SOL     OW19639   6.282   0.153   2.822
 6247SOL    HW119640   6.281   0.087   2.896
 6247SOL    HW219641   6.218   0.125   2.751
 6248SOL     OW19642   1.143   5.448   0.787
 6248SOL    HW119643   1.098   5.536   0.802
 6248SOL    HW219644   1.193   5.422   0.870
 6249SOL     OW19645   6.459   3.138   6.009
 6249SOL    HW119646   6.373   3.089   5.995
 6249SOL    HW219647   6.440   3.235   6.026
 6250SOL     OW19648   6.854   4.101   6.266
 6250SOL    HW119649   6.888   4.075   6.356
 6250SOL    HW219650   6.878   4.197   6.248
 6251SOL     OW19651   4.949   1.041   0.118
 6251SOL    HW119652   4.852   1.060   0.106
 6251SOL    HW219653   4.991   1.023   0.029
 6252SOL     OW19654   2.350   6.420   5.378
 6252SOL    HW119655   2.358   6.350   5.450
 6252SOL    HW219656   2.306   6.501   5.416
 6253SOL     OW19657   2.454   3.265   0.763
 6253SOL    HW119658   2.354   3.269   0.757
 6253SOL    HW219659   2.483   3.305   0.850
 6254SOL     OW19660   5.552   0.333   6.827
 6254SOL    HW119661   5.583   0.283   6.908
 6254SOL    HW219662   5.604   0.418   6.818
 6255SOL     OW19663   0.925   3.381   2.978
 6255SOL    HW119664   1.001   3.393   2.914
 6255SOL    HW219665   0.904   3.469   3.021
 6256SOL     OW19666   4.668   5.343   4.416
 6256SOL    HW119667   4.602   5.380   4.350
 6256SOL    HW219668   4.685   5.411   4.488
 6257SOL     OW19669   3.826   2.686   6.795
 6257SOL    HW119670   3.886   2.754   6.752
 6257SOL    HW219671   3.787   2.725   6.878
 6258SOL     OW19672   4.606   2.165   3.108
 6258SOL    HW119673   4.700   2.198   3.100
 6258SOL    HW219674   4.600   2.099   3.183
 6259SOL     OW19675   3.338   2.432   1.710
 6259SOL    HW119676   3.330   2.472   1.619
 6259SOL    HW219677   3.431   2.397   1.723
 6260SOL     OW19678   4.058   4.010   1.755
 6260SOL    HW119679   4.026   4.102   1.773
 6260SOL    HW219680   3.992   3.963   1.695
 6261SOL     OW19681   4.723   6.426   6.448
 6261SOL    HW119682   4.767   6.425   6.357
 6261SOL    HW219683   4.673   6.511   6.459
 6262SOL     OW19684   0.449   5.988   5.413
 6262SOL    HW119685   0.476   6.050   5.339
 6262SOL    HW219686   0.482   6.024   5.500
 6263SOL     OW19687   6.956   0.421   1.343
 6263SOL    HW119688   6.950   0.484   1.420
 6263SOL    HW219689   6.876   0.432   1.284
 6264SOL     OW19690   2.757   1.121   0.208
 6264SOL    HW119691   2.752   1.215   0.241
 6264SOL    HW219692   2.710   1.060   0.273
 6265SOL     OW19693   6.739   3.565   0.540
 6265SOL    HW119694   6.775   3.489   0.594
 6265SOL    HW219695   6.814   3.607   0.488
 6266SOL     OW19696   2.426   6.935   2.900
 6266SOL    HW119697   2.473   6.996   2.837
 6266SOL    HW219698   2.471   6.936   2.989
 6267SOL     OW19699   3.029   6.368   6.503
 6267SOL    HW119700   2.976   6.326   6.577
 6267SOL    HW219701   3.083   6.443   6.541
 6268SOL     OW19702   2.020   6.376   2.399
 6268SOL    HW119703   2.035   6.345   2.493
 6268SOL    HW219704   2.016   6.476   2.397
 6269SOL     OW19705   6.951   4.712   6.272
 6269SOL    HW119706   6.989   4.783   6.331
 6269SOL    HW219707   7.026   4.661   6.229
 6270SOL     OW19708   0.827   1.361   4.201
 6270SOL    HW119709   0.831   1.321   4.292
 6270SOL    HW219710   0.741   1.335   4.157
 6271SOL     OW19711   5.582   2.055   1.099
 6271SOL    HW119712   5.554   2.093   1.010
 6271SOL    HW219713   5.510   2.072   1.166
 6272SOL     OW19714   2.705   2.387   3.757
 6272SOL    HW119715   2.789   2.345   3.792
 6272SOL    HW219716   2.642   2.315   3.726
 6273SOL     OW19717   3.556   1.281   2.764
 6273SOL    HW119718   3.502   1.363   2.748
 6273SOL    HW219719   3.500   1.212   2.809
 6274SOL     OW19720   2.774   5.737   6.780
 6274SOL    HW119721   2.849   5.713   6.718
 6274SOL    HW219722   2.747   5.832   6.764
 6275SOL     OW19723   3.286   0.847   4.343
 6275SOL    HW119724   3.336   0.930   4.318
 6275SOL    HW219725   3.207   0.837   4.284
 6276SOL     OW19726   0.686   5.652   3.695
 6276SOL    HW119727   0.631   5.595   3.757
 6276SOL    HW219728   0.729   5.593   3.626
 6277SOL     OW19729   6.661   3.568   4.170
 6277SOL    HW119730   6.580   3.579   4.226
 6277SOL    HW219731   6.715   3.491   4.204
 6278SOL     OW19732   4.450   1.274   3.381
 6278SOL    HW119733   4.533   1.326   3.360
 6278SOL    HW219734   4.473   1.176   3.385
 6279SOL     OW19735   4.004   2.336   5.624
 6279SOL    HW119736   3.953   2.343   5.709
 6279SOL    HW219737   3.941   2.346   5.547
 6280SOL     OW19738   1.915   5.362   5.271
 6280SOL    HW119739   1.944   5.272   5.302
 6280SOL    HW219740   1.920   5.427   5.347
 6281SOL     OW19741   3.338   6.239   4.931
 6281SOL    HW119742   3.285   6.171   4.981
 6281SOL    HW219743   3.423   6.199   4.898
 6282SOL     OW19744   0.876   6.294   4.407
 6282SOL    HW119745   0.872   6.222   4.338
 6282SOL    HW219746   0.866   6.254   4.498
 6283SOL     OW19747   1.053   2.986   4.818
 6283SOL    HW119748   1.024   2.946   4.732
 6283SOL    HW219749   1.130   2.934   4.856
 6284SOL     OW19750   2.769   4.829   0.248
 6284SOL    HW119751   2.786   4.736   0.216
 6284SOL    HW219752   2.737   4.826   0.342
 6285SOL     OW19753   2.091   3.886   2.722
 6285SOL    HW119754   2.127   3.796   2.749
 6285SOL    HW219755   2.150   3.957   2.760
 6286SOL     OW19756   0.082   6.438   3.661
 6286SOL    HW119757   0.102   6.414   3.566
 6286SOL    HW219758   0.165   6.475   3.704
 6287SOL     OW19759   3.584   4.970   3.323
 6287SOL    HW119760   3.519   4.973   3.399
 6287SOL    HW219761   3.656   4.903   3.344
 6288SOL     OW19762   6.893   3.848   1.331
 6288SOL    HW119763   6.837   3.799   1.264
 6288SOL    HW219764   6.913   3.939   1.297
 6289SOL     OW19765   0.392   6.961   2.880
 6289SOL    HW119766   0.387   6.893   2.953
 6289SOL    HW219767   0.302   6.974   2.839
 6290SOL     OW19768   5.799   3.427   3.964
 6290SOL    HW119769   5.833   3.483   3.888
 6290SOL    HW219770   5.841   3.459   4.049
 6291SOL     OW19771   3.641   4.125   3.978
 6291SOL    HW119772   3.734   4.145   4.009
 6291SOL    HW219773   3.626   4.026   3.979
 6292SOL     OW19774   6.457   1.390   1.167
 6292SOL    HW119775   6.367   1.347   1.169
 6292SOL    HW219776   6.492   1.399   1.261
 6293SOL     OW19777   5.621   4.208   5.676
 6293SOL    HW119778   5.624   4.118   5.633
 6293SOL    HW219779   5.681   4.209   5.756
 6294SOL     OW19780   2.942   6.496   0.487
 6294SOL    HW119781   3.035   6.485   0.452
 6294SOL    HW219782   2.942   6.479   0.585
 6295SOL     OW19783   6.384   5.596   6.357
 6295SOL    HW119784   6.395   5.513   6.303
 6295SOL    HW219785   6.333   5.576   6.440
 6296SOL     OW19786   6.016   2.215   3.601
 6296SOL    HW119787   6.016   2.222   3.502
 6296SOL    HW219788   5.972   2.129   3.628
 6297SOL     OW19789   5.517   2.554   5.809
 6297SOL    HW119790   5.508   2.464   5.768
 6297SOL    HW219791   5.431   2.604   5.798
 6298SOL     OW19792   6.119   2.812   4.555
 6298SOL    HW119793   6.132   2.716   4.577
 6298SOL    HW219794   6.199   2.865   4.585
 6299SOL     OW19795   0.186   2.045   6.751
 6299SOL    HW119796   0.250   1.988   6.803
 6299SOL    HW219797   0.201   2.032   6.653
 6300SOL     OW19798   5.141   1.212   3.566
 6300SOL    HW119799   5.148   1.141   3.496
 6300SOL    HW219800   5.046   1.221   3.595
 6301SOL     OW19801   3.056   6.968   0.748
 6301SOL    HW119802   3.101   6.904   0.685
 6301SOL    HW219803   3.093   0.030   0.734
 6302SOL     OW19804   6.548   0.758   3.184
 6302SOL    HW119805   6.500   0.774   3.270
 6302SOL    HW219806   6.504   0.683   3.134
 6303SOL     OW19807   2.192   5.351   4.970
 6303SOL    HW119808   2.240   5.277   5.018
 6303SOL    HW219809   2.094   5.346   4.991
 6304SOL     OW19810   4.444   0.865   5.010
 6304SOL    HW119811   4.505   0.934   4.970
 6304SOL    HW219812   4.410   0.805   4.938
 6305SOL     OW19813   4.947   6.814   2.911
 6305SOL    HW119814   4.859   6.860   2.905
 6305SOL    HW219815   4.962   6.759   2.828
 6306SOL     OW19816   6.184   2.577   4.693
 6306SOL    HW119817   6.087   2.569   4.717
 6306SOL    HW219818   6.237   2.518   4.753
 6307SOL     OW19819   2.390   4.222   0.952
 6307SOL    HW119820   2.421   4.284   0.880
 6307SOL    HW219821   2.386   4.271   1.039
 6308SOL     OW19822   3.731   2.498   6.512
 6308SOL    HW119823   3.696   2.431   6.446
 6308SOL    HW219824   3.796   2.454   6.574
 6309SOL     OW19825   6.485   2.235   5.296
 6309SOL    HW119826   6.394   2.273   5.313
 6309SOL    HW219827   6.477   2.140   5.266
 6310SOL     OW19828   0.196   5.802   5.358
 6310SOL    HW119829   0.209   5.874   5.426
 6310SOL    HW219830   0.119   5.826   5.299
 6311SOL     OW19831   6.419   7.007   4.825
 6311SOL    HW119832   6.341   6.946   4.840
 6311SOL    HW219833   6.492   6.985   4.890
 6312SOL     OW19834   5.858   3.962   5.680
 6312SOL    HW119835   5.943   3.915   5.655
 6312SOL    HW219836   5.871   4.061   5.671
 6313SOL     OW19837   2.696   5.628   3.914
 6313SOL    HW119838   2.597   5.619   3.904
 6313SOL    HW219839   2.732   5.551   3.967
 6314SOL     OW19840   1.182   0.215   3.276
 6314SOL    HW119841   1.088   0.222   3.244
 6314SOL    HW219842   1.241   0.191   3.199
 6315SOL     OW19843   1.586   3.882   0.856
 6315SOL    HW119844   1.547   3.802   0.902
 6315SOL    HW219845   1.517   3.924   0.797
 6316SOL     OW19846   4.187   1.137   4.470
 6316SOL    HW119847   4.250   1.129   4.548
 6316SOL    HW219848   4.123   1.060   4.470
 6317SOL     OW19849   6.765   6.293   3.999
 6317SOL    HW119850   6.819   6.213   3.972
 6317SOL    HW219851   6.719   6.332   3.919
 6318SOL     OW19852   1.445   2.875   3.665
 6318SOL    HW119853   1.456   2.902   3.570
 6318SOL    HW219854   1.421   2.955   3.720
 6319SOL     OW19855   1.229   2.126   3.030
 6319SOL    HW119856   1.183   2.206   3.070
 6319SOL    HW219857   1.237   2.139   2.931
 6320SOL     OW19858   0.393   2.086   1.913
 6320SOL    HW119859   0.305   2.098   1.868
 6320SOL    HW219860   0.395   1.998   1.959
 6321SOL     OW19861   2.452   4.107   5.593
 6321SOL    HW119862   2.511   4.065   5.661
 6321SOL    HW219863   2.402   4.036   5.543
 6322SOL     OW19864   2.138   6.677   0.411
 6322SOL    HW119865   2.147   6.735   0.493
 6322SOL    HW219866   2.147   6.734   0.330
 6323SOL     OW19867   4.615   1.589   1.857
 6323SOL    HW119868   4.675   1.576   1.936
 6323SOL    HW219869   4.615   1.506   1.800
 6324SOL     OW19870   3.171   1.455   1.893
 6324SOL    HW119871   3.249   1.399   1.865
 6324SOL    HW219872   3.102   1.456   1.821
 6325SOL     OW19873   2.117   3.194   2.893
 6325SOL    HW119874   2.128   3.169   2.990
 6325SOL    HW219875   2.081   3.288   2.887
 6326SOL     OW19876   4.368   6.259   1.840
 6326SOL    HW119877   4.332   6.311   1.917
 6326SOL    HW219878   4.295   6.206   1.797
 6327SOL     OW19879   4.363   5.484   5.185
 6327SOL    HW119880   4.336   5.391   5.159
 6327SOL    HW219881   4.285   5.531   5.226
 6328SOL     OW19882   2.960   4.596   0.825
 6328SOL    HW119883   2.889   4.651   0.868
 6328SOL    HW219884   3.039   4.588   0.887
 6329SOL     OW19885   0.861   2.392   3.336
 6329SOL    HW119886   0.825   2.475   3.379
 6329SOL    HW219887   0.789   2.350   3.281
 6330SOL     OW19888   3.302   0.210   6.708
 6330SOL    HW119889   3.255   0.148   6.771
 6330SOL    HW219890   3.396   0.223   6.739
 6331SOL     OW19891   5.744   2.374   1.504
 6331SOL    HW119892   5.817   2.387   1.436
 6331SOL    HW219893   5.743   2.452   1.567
 6332SOL     OW19894   3.308   6.351   2.024
 6332SOL    HW119895   3.318   6.276   1.959
 6332SOL    HW219896   3.357   6.328   2.109
 6333SOL     OW19897   1.964   5.611   2.504
 6333SOL    HW119898   1.981   5.566   2.416
 6333SOL    HW219899   2.049   5.654   2.537
 6334SOL     OW19900   2.508   0.031   1.389
 6334SOL    HW119901   2.447   6.985   1.368
 6334SOL    HW219902   2.562   0.009   1.470
 6335SOL     OW19903   6.400   0.789   0.171
 6335SOL    HW119904   6.363   0.717   0.230
 6335SOL    HW219905   6.330   0.860   0.157
 6336SOL     OW19906   1.622   2.572   5.084
 6336SOL    HW119907   1.523   2.556   5.091
 6336SOL    HW219908   1.652   2.626   5.163
 6337SOL     OW19909   1.003   4.460   5.316
 6337SOL    HW119910   0.937   4.519   5.269
 6337SOL    HW219911   1.073   4.431   5.251
 6338SOL     OW19912   3.646   1.059   3.772
 6338SOL    HW119913   3.611   1.147   3.804
 6338SOL    HW219914   3.586   0.985   3.803
 6339SOL     OW19915   6.876   2.952   4.701
 6339SOL    HW119916   6.950   2.944   4.769
 6339SOL    HW219917   6.895   3.029   4.640
 6340SOL     OW19918   3.028   5.177   3.847
 6340SOL    HW119919   3.084   5.201   3.768
 6340SOL    HW219920   3.079   5.116   3.907
 6341SOL     OW19921   5.709   4.717   1.742
 6341SOL    HW119922   5.709   4.699   1.644
 6341SOL    HW219923   5.739   4.635   1.791
 6342SOL     OW19924   0.858   3.690   0.390
 6342SOL    HW119925   0.809   3.726   0.469
 6342SOL    HW219926   0.813   3.721   0.306
 6343SOL     OW19927   3.651   1.408   6.987
 6343SOL    HW119928   3.602   1.430   0.042
 6343SOL    HW219929   3.736   1.462   6.983
 6344SOL     OW19930   5.835   5.093   4.244
 6344SOL    HW119931   5.922   5.072   4.290
 6344SOL    HW219932   5.770   5.019   4.261
 6345SOL     OW19933   2.014   2.244   1.358
 6345SOL    HW119934   2.072   2.292   1.293
 6345SOL    HW219935   1.986   2.156   1.320
 6346SOL     OW19936   0.880   4.780   4.404
 6346SOL    HW119937   0.922   4.744   4.488
 6346SOL    HW219938   0.938   4.852   4.367
 6347SOL     OW19939   3.208   0.206   0.098
 6347SOL    HW119940   3.167   0.288   0.057
 6347SOL    HW219941   3.264   0.160   0.029
 6348SOL     OW19942   0.116   2.176   4.692
 6348SOL    HW119943   0.042   2.200   4.629
 6348SOL    HW219944   0.108   2.231   4.776
 6349SOL     OW19945   0.381   0.763   0.165
 6349SOL    HW119946   0.434   0.707   0.100
 6349SOL    HW219947   0.418   0.855   0.166
 6350SOL     OW19948   0.051   5.237   3.489
 6350SOL    HW119949   0.020   5.189   3.571
 6350SOL    HW219950   0.146   5.267   3.502
 6351SOL     OW19951   0.224   2.307   2.572
 6351SOL    HW119952   0.245   2.275   2.480
 6351SOL    HW219953   0.138   2.358   2.571
 6352SOL     OW19954   6.069   4.300   2.835
 6352SOL    HW119955   6.017   4.260   2.911
 6352SOL    HW219956   6.135   4.367   2.871
 6353SOL     OW19957   6.187   0.149   2.289
 6353SOL    HW119958   6.179   0.203   2.205
 6353SOL    HW219959   6.214   0.208   2.365
 6354SOL     OW19960   6.380   6.766   5.215
 6354SOL    HW119961   6.358   6.747   5.311
 6354SOL    HW219962   6.479   6.769   5.203
 6355SOL     OW19963   0.801   1.450   0.867
 6355SOL    HW119964   0.831   1.355   0.871
 6355SOL    HW219965   0.709   1.458   0.906
 6356SOL     OW19966   3.330   3.905   1.336
 6356SOL    HW119967   3.349   3.831   1.271
 6356SOL    HW219968   3.240   3.945   1.315
 6357SOL     OW19969   4.632   1.672   0.935
 6357SOL    HW119970   4.583   1.680   0.848
 6357SOL    HW219971   4.670   1.761   0.961
 6358SOL     OW19972   1.082   2.934   5.455
 6358SOL    HW119973   1.108   2.861   5.392
 6358SOL    HW219974   1.128   2.919   5.543
 6359SOL     OW19975   0.287   6.899   6.103
 6359SOL    HW119976   0.200   6.908   6.054
 6359SOL    HW219977   0.336   6.987   6.100
 6360SOL     OW19978   2.085   5.048   4.081
 6360SOL    HW119979   2.129   5.137   4.090
 6360SOL    HW219980   2.062   5.012   4.171
 6361SOL     OW19981   2.784   5.778   5.477
 6361SOL    HW119982   2.749   5.795   5.385
 6361SOL    HW219983   2.772   5.860   5.533
 6362SOL     OW19984   6.627   4.630   5.980
 6362SOL    HW119985   6.593   4.718   6.012
 6362SOL    HW219986   6.666   4.579   6.057
 6363SOL     OW19987   0.638   5.575   3.273
 6363SOL    HW119988   0.656   5.664   3.314
 6363SOL    HW219989   0.601   5.588   3.181
 6364SOL     OW19990   2.579   1.585   6.860
 6364SOL    HW119991   2.639   1.618   6.787
 6364SOL    HW219992   2.512   1.657   6.882
 6365SOL     OW19993   3.757   5.947   2.360
 6365SOL    HW119994   3.705   5.923   2.278
 6365SOL    HW219995   3.744   5.876   2.429
 6366SOL     OW19996   0.843   4.303   5.069
 6366SOL    HW119997   0.861   4.256   5.156
 6366SOL    HW219998   0.929   4.336   5.031
 6367SOL     OW19999   5.207   5.277   2.196
 6367SOL    HW120000   5.181   5.211   2.267
 6367SOL    HW220001   5.301   5.260   2.167
 6368SOL     OW20002   2.615   1.557   2.006
 6368SOL    HW120003   2.679   1.624   2.045
 6368SOL    HW220004   2.555   1.603   1.941
 6369SOL     OW20005   2.512   6.159   5.056
 6369SOL    HW120006   2.556   6.166   5.146
 6369SOL    HW220007   2.414   6.176   5.066
 6370SOL     OW20008   5.072   2.170   2.393
 6370SOL    HW120009   5.137   2.116   2.339
 6370SOL    HW220010   5.122   2.238   2.446
 6371SOL     OW20011   4.441   1.772   3.506
 6371SOL    HW120012   4.405   1.775   3.600
 6371SOL    HW220013   4.369   1.742   3.444
 6372SOL     OW20014   2.798   0.340   2.792
 6372SOL    HW120015   2.745   0.313   2.713
 6372SOL    HW220016   2.884   0.289   2.794
 6373SOL     OW20017   3.492   4.895   6.855
 6373SOL    HW120018   3.400   4.908   6.818
 6373SOL    HW220019   3.503   4.952   6.936
 6374SOL     OW20020   2.974   3.640   4.709
 6374SOL    HW120021   2.958   3.557   4.762
 6374SOL    HW220022   3.002   3.714   4.770
 6375SOL     OW20023   2.179   5.648   1.713
 6375SOL    HW120024   2.085   5.676   1.732
 6375SOL    HW220025   2.231   5.727   1.679
 6376SOL     OW20026   1.346   1.127   5.617
 6376SOL    HW120027   1.335   1.028   5.625
 6376SOL    HW220028   1.414   1.158   5.684
 6377SOL     OW20029   0.445   2.547   3.546
 6377SOL    HW120030   0.400   2.630   3.578
 6377SOL    HW220031   0.399   2.515   3.463
 6378SOL     OW20032   4.247   5.397   3.924
 6378SOL    HW120033   4.157   5.440   3.918
 6378SOL    HW220034   4.236   5.302   3.955
 6379SOL     OW20035   1.964   3.974   1.835
 6379SOL    HW120036   1.942   4.071   1.837
 6379SOL    HW220037   2.049   3.958   1.885
 6380SOL     OW20038   0.439   0.353   6.284
 6380SOL    HW120039   0.491   0.268   6.290
 6380SOL    HW220040   0.501   0.428   6.259
 6381SOL     OW20041   3.858   3.228   3.283
 6381SOL    HW120042   3.775   3.191   3.325
 6381SOL    HW220043   3.921   3.153   3.262
 6382SOL     OW20044   1.215   4.284   5.257
 6382SOL    HW120045   1.309   4.266   5.286
 6382SOL    HW220046   1.207   4.263   5.159
 6383SOL     OW20047   4.254   1.829   4.002
 6383SOL    HW120048   4.309   1.802   3.923
 6383SOL    HW220049   4.242   1.750   4.062
 6384SOL     OW20050   6.488   4.627   2.146
 6384SOL    HW120051   6.562   4.571   2.110
 6384SOL    HW220052   6.476   4.708   2.089
 6385SOL     OW20053   0.973   5.428   5.404
 6385SOL    HW120054   1.055   5.479   5.379
 6385SOL    HW220055   0.902   5.443   5.335
 6386SOL     OW20056   2.226   5.705   2.660
 6386SOL    HW120057   2.299   5.642   2.686
 6386SOL    HW220058   2.185   5.744   2.743
 6387SOL     OW20059   5.682   1.601   5.204
 6387SOL    HW120060   5.671   1.666   5.279
 6387SOL    HW220061   5.610   1.617   5.136
 6388SOL     OW20062   2.341   5.413   1.686
 6388SOL    HW120063   2.434   5.441   1.711
 6388SOL    HW220064   2.281   5.493   1.686
 6389SOL     OW20065   2.043   3.887   0.954
 6389SOL    HW120066   2.070   3.915   0.862
 6389SOL    HW220067   2.095   3.940   1.021
 6390SOL     OW20068   0.668   3.446   4.977
 6390SOL    HW120069   0.597   3.403   5.032
 6390SOL    HW220070   0.740   3.379   4.958
 6391SOL     OW20071   4.306   0.423   0.235
 6391SOL    HW120072   4.271   0.512   0.266
 6391SOL    HW220073   4.393   0.404   0.279
 6392SOL     OW20074   1.369   5.917   4.431
 6392SOL    HW120075   1.362   5.817   4.436
 6392SOL    HW220076   1.332   5.957   4.514
 6393SOL     OW20077   4.995   1.546   6.247
 6393SOL    HW120078   4.991   1.629   6.190
 6393SOL    HW220079   4.921   1.548   6.314
 6394SOL     OW20080   3.332   5.613   2.585
 6394SOL    HW120081   3.272   5.689   2.611
 6394SOL    HW220082   3.423   5.628   2.621
 6395SOL     OW20083   5.490   1.782   6.974
 6395SOL    HW120084   5.434   1.716   6.923
 6395SOL    HW220085   5.434   1.862   6.997
 6396SOL     OW20086   6.778   2.091   6.533
 6396SOL    HW120087   6.773   2.134   6.623
 6396SOL    HW220088   6.699   2.119   6.479
 6397SOL     OW20089   0.317   0.094   0.161
 6397SOL    HW120090   0.230   0.103   0.112
 6397SOL    HW220091   0.354   0.185   0.180
 6398SOL     OW20092   4.729   0.976   1.667
 6398SOL    HW120093   4.639   0.995   1.628
 6398SOL    HW220094   4.742   1.030   1.750
 6399SOL     OW20095   0.790   6.859   6.647
 6399SOL    HW120096   0.864   6.859   6.714
 6399SOL    HW220097   0.759   6.765   6.631
 6400SOL     OW20098   3.069   5.247   4.823
 6400SOL    HW120099   3.030   5.160   4.853
 6400SOL    HW220100   2.996   5.304   4.785
 6401SOL     OW20101   6.559   4.863   5.604
 6401SOL    HW120102   6.626   4.842   5.676
 6401SOL    HW220103   6.591   4.939   5.549
 6402SOL     OW20104   2.183   4.070   3.078
 6402SOL    HW120105   2.097   4.087   3.029
 6402SOL    HW220106   2.249   4.142   3.056
 6403SOL     OW20107   0.287   6.408   2.021
 6403SOL    HW120108   0.333   6.418   1.932
 6403SOL    HW220109   0.242   6.319   2.025
 6404SOL     OW20110   5.145   0.648   1.891
 6404SOL    HW120111   5.092   0.568   1.923
 6404SOL    HW220112   5.129   0.725   1.952
 6405SOL     OW20113   3.645   5.671   1.783
 6405SOL    HW120114   3.619   5.596   1.844
 6405SOL    HW220115   3.567   5.731   1.768
 6406SOL     OW20116   2.298   2.402   3.490
 6406SOL    HW120117   2.337   2.464   3.559
 6406SOL    HW220118   2.370   2.342   3.455
 6407SOL     OW20119   5.435   6.340   0.365
 6407SOL    HW120120   5.494   6.328   0.445
 6407SOL    HW220121   5.460   6.273   0.295
 6408SOL     OW20122   6.821   1.936   1.076
 6408SOL    HW120123   6.774   1.917   1.163
 6408SOL    HW220124   6.889   2.007   1.089
 6409SOL     OW20125   0.580   5.020   1.444
 6409SOL    HW120126   0.536   5.106   1.417
 6409SOL    HW220127   0.654   5.039   1.508
 6410SOL     OW20128   6.770   6.632   0.850
 6410SOL    HW120129   6.767   6.543   0.804
 6410SOL    HW220130   6.783   6.703   0.781
 6411SOL     OW20131   1.515   1.463   3.197
 6411SOL    HW120132   1.497   1.366   3.185
 6411SOL    HW220133   1.430   1.515   3.186
 6412SOL     OW20134   6.125   2.675   5.055
 6412SOL    HW120135   6.166   2.759   5.020
 6412SOL    HW220136   6.029   2.691   5.076
 6413SOL     OW20137   6.966   5.424   0.975
 6413SOL    HW120138   7.023   5.498   0.938
 6413SOL    HW220139   6.870   5.448   0.965
 6414SOL     OW20140   6.581   0.492   3.502
 6414SOL    HW120141   6.679   0.512   3.511
 6414SOL    HW220142   6.561   0.472   3.406
 6415SOL     OW20143   1.218   1.673   2.344
 6415SOL    HW120144   1.253   1.741   2.280
 6415SOL    HW220145   1.165   1.604   2.295
 6416SOL     OW20146   3.009   5.989   6.546
 6416SOL    HW120147   2.920   5.992   6.591
 6416SOL    HW220148   3.010   6.052   6.469
 6417SOL     OW20149   6.788   6.661   4.222
 6417SOL    HW120150   6.842   6.583   4.190
 6417SOL    HW220151   6.691   6.639   4.217
 6418SOL     OW20152   6.242   5.459   1.984
 6418SOL    HW120153   6.296   5.385   1.943
 6418SOL    HW220154   6.145   5.440   1.973
 6419SOL     OW20155   3.208   2.415   1.199
 6419SOL    HW120156   3.260   2.470   1.134
 6419SOL    HW220157   3.270   2.356   1.251
 6420SOL     OW20158   0.676   1.830   0.119
 6420SOL    HW120159   0.683   1.925   0.086
 6420SOL    HW220160   0.580   1.808   0.136
 6421SOL     OW20161   5.782   1.726   0.938
 6421SOL    HW120162   5.875   1.758   0.919
 6421SOL    HW220163   5.752   1.666   0.863
 6422SOL     OW20164   5.595   2.611   2.944
 6422SOL    HW120165   5.620   2.598   2.848
 6422SOL    HW220166   5.663   2.670   2.988
 6423SOL     OW20167   5.655   3.386   0.799
 6423SOL    HW120168   5.587   3.367   0.728
 6423SOL    HW220169   5.611   3.392   0.888
 6424SOL     OW20170   6.628   3.492   4.938
 6424SOL    HW120171   6.540   3.506   4.892
 6424SOL    HW220172   6.660   3.580   4.973
 6425SOL     OW20173   0.932   5.625   1.104
 6425SOL    HW120174   0.880   5.595   1.024
 6425SOL    HW220175   0.870   5.636   1.181
 6426SOL     OW20176   6.813   4.229   3.228
 6426SOL    HW120177   6.903   4.187   3.218
 6426SOL    HW220178   6.772   4.199   3.314
 6427SOL     OW20179   1.069   3.628   5.820
 6427SOL    HW120180   1.110   3.695   5.882
 6427SOL    HW220181   1.101   3.645   5.727
 6428SOL     OW20182   6.597   3.905   5.665
 6428SOL    HW120183   6.529   3.969   5.628
 6428SOL    HW220184   6.668   3.956   5.713
 6429SOL     OW20185   1.917   6.787   4.819
 6429SOL    HW120186   1.936   6.765   4.915
 6429SOL    HW220187   1.819   6.781   4.802
 6430SOL     OW20188   6.389   3.437   6.711
 6430SOL    HW120189   6.420   3.532   6.720
 6430SOL    HW220190   6.333   3.427   6.629
 6431SOL     OW20191   5.266   1.683   2.236
 6431SOL    HW120192   5.350   1.655   2.189
 6431SOL    HW220193   5.289   1.743   2.312
 6432SOL     OW20194   6.657   3.652   0.796
 6432SOL    HW120195   6.563   3.679   0.818
 6432SOL    HW220196   6.670   3.656   0.697
 6433SOL     OW20197   2.111   3.344   1.768
 6433SOL    HW120198   2.084   3.348   1.672
 6433SOL    HW220199   2.201   3.386   1.779
 6434SOL     OW20200   1.619   6.184   0.639
 6434SOL    HW120201   1.572   6.236   0.568
 6434SOL    HW220202   1.642   6.245   0.715
 6435SOL     OW20203   6.024   3.462   0.437
 6435SOL    HW120204   6.079   3.379   0.447
 6435SOL    HW220205   5.934   3.438   0.403
 6436SOL     OW20206   2.998   2.113   0.565
 6436SOL    HW120207   3.041   2.143   0.650
 6436SOL    HW220208   2.901   2.137   0.566
 6437SOL     OW20209   6.690   0.820   2.209
 6437SOL    HW120210   6.699   0.878   2.129
 6437SOL    HW220211   6.606   0.765   2.202
 6438SOL     OW20212   1.046   4.379   4.454
 6438SOL    HW120213   1.013   4.301   4.508
 6438SOL    HW220214   0.984   4.395   4.377
 6439SOL     OW20215   0.253   5.684   2.566
 6439SOL    HW120216   0.156   5.704   2.550
 6439SOL    HW220217   0.283   5.616   2.499
 6440SOL     OW20218   0.403   0.522   2.108
 6440SOL    HW120219   0.345   0.494   2.032
 6440SOL    HW220220   0.347   0.566   2.178
 6441SOL     OW20221   5.208   2.500   3.300
 6441SOL    HW120222   5.241   2.460   3.215
 6441SOL    HW220223   5.275   2.566   3.334
 6442SOL     OW20224   1.291   2.154   3.731
 6442SOL    HW120225   1.359   2.093   3.689
 6442SOL    HW220226   1.296   2.244   3.689
 6443SOL     OW20227   2.622   0.924   0.752
 6443SOL    HW120228   2.603   0.997   0.818
 6443SOL    HW220229   2.550   0.923   0.682
 6444SOL     OW20230   0.501   1.785   2.917
 6444SOL    HW120231   0.481   1.712   2.982
 6444SOL    HW220232   0.418   1.837   2.899
 6445SOL     OW20233   3.672   4.202   6.536
 6445SOL    HW120234   3.737   4.243   6.472
 6445SOL    HW220235   3.683   4.243   6.626
 6446SOL     OW20236   0.127   0.948   1.240
 6446SOL    HW120237   0.059   0.889   1.284
 6446SOL    HW220238   0.198   0.891   1.198
 6447SOL     OW20239   1.736   1.389   3.655
 6447SOL    HW120240   1.666   1.393   3.584
 6447SOL    HW220241   1.745   1.479   3.699
 6448SOL     OW20242   6.082   1.888   1.837
 6448SOL    HW120243   6.062   1.958   1.905
 6448SOL    HW220244   5.996   1.860   1.792
 6449SOL     OW20245   4.400   2.315   0.113
 6449SOL    HW120246   4.421   2.258   0.192
 6449SOL    HW220247   4.477   2.312   0.049
 6450SOL     OW20248   6.604   1.913   0.391
 6450SOL    HW120249   6.523   1.930   0.447
 6450SOL    HW220250   6.661   1.995   0.388
 6451SOL     OW20251   3.482   6.768   4.737
 6451SOL    HW120252   3.532   6.687   4.707
 6451SOL    HW220253   3.399   6.778   4.683
 6452SOL     OW20254   3.570   6.082   4.826
 6452SOL    HW120255   3.652   6.126   4.791
 6452SOL    HW220256   3.586   6.051   4.920
 6453SOL     OW20257   2.663   5.361   6.925
 6453SOL    HW120258   2.739   5.319   6.974
 6453SOL    HW220259   2.649   5.315   6.838
 6454SOL     OW20260   4.043   0.812   5.144
 6454SOL    HW120261   4.132   0.832   5.184
 6454SOL    HW220262   3.972   0.864   5.192
 6455SOL     OW20263   5.810   3.131   0.093
 6455SOL    HW120264   5.879   3.108   0.025
 6455SOL    HW220265   5.750   3.202   0.057
 6456SOL     OW20266   6.510   2.088   4.319
 6456SOL    HW120267   6.492   2.100   4.417
 6456SOL    HW220268   6.438   2.134   4.267
 6457SOL     OW20269   5.995   3.001   1.147
 6457SOL    HW120270   5.906   2.992   1.192
 6457SOL    HW220271   5.986   2.978   1.050
 6458SOL     OW20272   1.090   5.582   3.994
 6458SOL    HW120273   1.189   5.579   3.978
 6458SOL    HW220274   1.067   5.517   4.066
 6459SOL     OW20275   6.009   3.957   0.159
 6459SOL    HW120276   6.069   4.038   0.160
 6459SOL    HW220277   5.944   3.963   0.235
 6460SOL     OW20278   3.940   5.462   1.859
 6460SOL    HW120279   3.998   5.528   1.907
 6460SOL    HW220280   3.845   5.472   1.890
 6461SOL     OW20281   3.261   5.765   4.508
 6461SOL    HW120282   3.330   5.707   4.466
 6461SOL    HW220283   3.305   5.823   4.577
 6462SOL     OW20284   2.165   4.583   2.776
 6462SOL    HW120285   2.195   4.678   2.772
 6462SOL    HW220286   2.240   4.522   2.753
 6463SOL     OW20287   2.528   3.200   5.557
 6463SOL    HW120288   2.586   3.218   5.477
 6463SOL    HW220289   2.521   3.102   5.571
 6464SOL     OW20290   0.907   5.844   1.933
 6464SOL    HW120291   0.875   5.899   2.011
 6464SOL    HW220292   0.852   5.867   1.852
 6465SOL     OW20293   6.195   0.034   3.091
 6465SOL    HW120294   6.251   0.076   3.163
 6465SOL    HW220295   6.232   6.974   3.069
 6466SOL     OW20296   6.541   3.048   4.770
 6466SOL    HW120297   6.610   2.981   4.743
 6466SOL    HW220298   6.572   3.096   4.853
 6467SOL     OW20299   3.790   0.386   5.701
 6467SOL    HW120300   3.758   0.477   5.729
 6467SOL    HW220301   3.726   0.317   5.736
 6468SOL     OW20302   6.245   4.909   2.720
 6468SOL    HW120303   6.330   4.866   2.749
 6468SOL    HW220304   6.258   4.952   2.631
 6469SOL     OW20305   6.944   2.756   6.003
 6469SOL    HW120306   7.028   2.730   5.954
 6469SOL    HW220307   6.935   2.856   6.002
 6470SOL     OW20308   6.526   6.666   4.773
 6470SOL    HW120309   6.550   6.741   4.711
 6470SOL    HW220310   6.426   6.661   4.782
 6471SOL     OW20311   6.551   6.333   5.325
 6471SOL    HW120312   6.454   6.318   5.344
 6471SOL    HW220313   6.591   6.389   5.398
 6472SOL     OW20314   1.703   0.081   1.878
 6472SOL    HW120315   1.605   0.081   1.894
 6472SOL    HW220316   1.729   0.164   1.828
 6473SOL     OW20317   2.088   1.687   5.722
 6473SOL    HW120318   2.179   1.646   5.734
 6473SOL    HW220319   2.042   1.646   5.644
 6474SOL     OW20320   1.643   2.785   6.871
 6474SOL    HW120321   1.700   2.865   6.885
 6474SOL    HW220322   1.570   2.783   6.939
 6475SOL     OW20323   4.367   5.113   3.593
 6475SOL    HW120324   4.284   5.129   3.648
 6475SOL    HW220325   4.363   5.171   3.511
 6476SOL     OW20326   4.756   6.414   3.112
 6476SOL    HW120327   4.679   6.390   3.052
 6476SOL    HW220328   4.842   6.402   3.062
 6477SOL     OW20329   6.687   5.715   0.425
 6477SOL    HW120330   6.726   5.796   0.381
 6477SOL    HW220331   6.593   5.702   0.394
 6478SOL     OW20332   4.575   6.079   0.756
 6478SOL    HW120333   4.667   6.042   0.752
 6478SOL    HW220334   4.539   6.070   0.849
 6479SOL     OW20335   2.681   6.327   2.370
 6479SOL    HW120336   2.732   6.385   2.306
 6479SOL    HW220337   2.746   6.272   2.423
 6480SOL     OW20338   2.527   1.553   0.736
 6480SOL    HW120339   2.581   1.501   0.802
 6480SOL    HW220340   2.579   1.565   0.652
 6481SOL     OW20341   4.470   0.529   0.833
 6481SOL    HW120342   4.448   0.432   0.842
 6481SOL    HW220343   4.538   0.554   0.903
 6482SOL     OW20344   6.970   6.876   5.492
 6482SOL    HW120345   6.982   6.777   5.502
 6482SOL    HW220346   0.027   6.922   5.511
 6483SOL     OW20347   1.296   5.357   1.013
 6483SOL    HW120348   1.241   5.376   1.094
 6483SOL    HW220349   1.390   5.390   1.028
 6484SOL     OW20350   3.913   0.114   2.644
 6484SOL    HW120351   3.953   0.042   2.588
 6484SOL    HW220352   3.912   0.200   2.592
 6485SOL     OW20353   6.836   2.352   2.235
 6485SOL    HW120354   6.873   2.259   2.238
 6485SOL    HW220355   6.742   2.350   2.202
 6486SOL     OW20356   1.664   2.936   2.875
 6486SOL    HW120357   1.724   2.879   2.933
 6486SOL    HW220358   1.616   3.002   2.933
 6487SOL     OW20359   6.644   5.446   2.723
 6487SOL    HW120360   6.556   5.470   2.682
 6487SOL    HW220361   6.650   5.347   2.733
 6488SOL     OW20362   3.629   5.213   4.265
 6488SOL    HW120363   3.530   5.215   4.278
 6488SOL    HW220364   3.671   5.163   4.340
 6489SOL     OW20365   2.651   1.215   6.685
 6489SOL    HW120366   2.666   1.213   6.784
 6489SOL    HW220367   2.740   1.213   6.638
 6490SOL     OW20368   4.106   0.998   6.943
 6490SOL    HW120369   4.010   1.023   6.935
 6490SOL    HW220370   4.125   0.972   0.008
 6491SOL     OW20371   4.852   0.732   5.837
 6491SOL    HW120372   4.900   0.794   5.776
 6491SOL    HW220373   4.916   0.694   5.903
 6492SOL     OW20374   5.537   4.999   6.347
 6492SOL    HW120375   5.481   4.979   6.267
 6492SOL    HW220376   5.552   5.098   6.353
 6493SOL     OW20377   6.799   6.196   5.285
 6493SOL    HW120378   6.810   6.097   5.290
 6493SOL    HW220379   6.716   6.222   5.334
 6494SOL     OW20380   0.036   3.010   3.022
 6494SOL    HW120381   0.093   3.082   2.983
 6494SOL    HW220382   0.065   2.921   2.987
 6495SOL     OW20383   5.486   4.993   2.048
 6495SOL    HW120384   5.471   4.963   2.143
 6495SOL    HW220385   5.579   4.968   2.020
 6496SOL     OW20386   7.017   0.075   3.623
 6496SOL    HW120387   0.024   7.013   3.610
 6496SOL    HW220388   6.917   0.073   3.619
 6497SOL     OW20389   1.078   0.863   0.962
 6497SOL    HW120390   1.008   0.796   0.987
 6497SOL    HW220391   1.162   0.844   1.013
 6498SOL     OW20392   1.234   3.238   4.576
 6498SOL    HW120393   1.288   3.159   4.546
 6498SOL    HW220394   1.265   3.320   4.528
 6499SOL     OW20395   5.865   1.765   2.907
 6499SOL    HW120396   5.871   1.702   2.984
 6499SOL    HW220397   5.947   1.759   2.852
 6500SOL     OW20398   5.444   5.261   2.085
 6500SOL    HW120399   5.485   5.316   2.012
 6500SOL    HW220400   5.484   5.169   2.085
 6501SOL     OW20401   6.695   4.228   0.628
 6501SOL    HW120402   6.667   4.178   0.710
 6501SOL    HW220403   6.613   4.255   0.577
 6502SOL     OW20404   0.072   5.122   2.051
 6502SOL    HW120405   0.062   5.213   2.012
 6502SOL    HW220406   0.056   5.053   1.981
 6503SOL     OW20407   4.279   0.568   3.794
 6503SOL    HW120408   4.361   0.621   3.770
 6503SOL    HW220409   4.198   0.626   3.784
 6504SOL     OW20410   2.209   2.384   0.419
 6504SOL    HW120411   2.200   2.452   0.346
 6504SOL    HW220412   2.304   2.352   0.424
 6505SOL     OW20413   5.609   5.134   0.967
 6505SOL    HW120414   5.664   5.105   0.889
 6505SOL    HW220415   5.651   5.213   1.011
 6506SOL     OW20416   2.287   1.640   1.903
 6506SOL    HW120417   2.241   1.592   1.829
 6506SOL    HW220418   2.369   1.685   1.867
 6507SOL     OW20419   2.842   0.537   1.467
 6507SOL    HW120420   2.863   0.561   1.372
 6507SOL    HW220421   2.894   0.596   1.529
 6508SOL     OW20422   1.155   3.218   1.815
 6508SOL    HW120423   1.148   3.124   1.846
 6508SOL    HW220424   1.143   3.280   1.893
 6509SOL     OW20425   1.153   3.039   3.899
 6509SOL    HW120426   1.220   3.043   3.825
 6509SOL    HW220427   1.177   2.964   3.961
 6510SOL     OW20428   6.231   4.121   6.934
 6510SOL    HW120429   6.324   4.156   6.941
 6510SOL    HW220430   6.234   4.025   6.906
 6511SOL     OW20431   6.846   6.702   5.994
 6511SOL    HW120432   6.762   6.649   5.982
 6511SOL    HW220433   6.872   6.744   5.907
 6512SOL     OW20434   5.251   6.416   4.508
 6512SOL    HW120435   5.267   6.512   4.487
 6512SOL    HW220436   5.329   6.362   4.479
 6513SOL     OW20437   1.233   0.062   3.734
 6513SOL    HW120438   1.224   7.005   3.782
 6513SOL    HW220439   1.221   0.048   3.636
 6514SOL     OW20440   2.743   0.983   4.125
 6514SOL    HW120441   2.758   0.905   4.187
 6514SOL    HW220442   2.671   0.959   4.060
 6515SOL     OW20443   1.411   1.289   3.498
 6515SOL    HW120444   1.312   1.281   3.487
 6515SOL    HW220445   1.436   1.385   3.505
 6516SOL     OW20446   2.477   1.826   5.833
 6516SOL    HW120447   2.510   1.740   5.870
 6516SOL    HW220448   2.412   1.808   5.758
 6517SOL     OW20449   3.366   2.260   1.360
 6517SOL    HW120450   3.413   2.339   1.398
 6517SOL    HW220451   3.364   2.187   1.428
 6518SOL     OW20452   5.238   6.260   1.787
 6518SOL    HW120453   5.159   6.239   1.729
 6518SOL    HW220454   5.237   6.356   1.811
 6519SOL     OW20455   0.303   1.870   3.852
 6519SOL    HW120456   0.297   1.776   3.885
 6519SOL    HW220457   0.283   1.933   3.927
 6520SOL     OW20458   5.968   4.845   1.403
 6520SOL    HW120459   5.929   4.920   1.456
 6520SOL    HW220460   6.019   4.882   1.325
 6521SOL     OW20461   1.218   2.210   6.052
 6521SOL    HW120462   1.212   2.118   6.014
 6521SOL    HW220463   1.181   2.210   6.145
 6522SOL     OW20464   2.465   4.783   4.121
 6522SOL    HW120465   2.522   4.858   4.088
 6522SOL    HW220466   2.502   4.696   4.086
 6523SOL     OW20467   2.521   2.524   1.268
 6523SOL    HW120468   2.439   2.560   1.223
 6523SOL    HW220469   2.587   2.599   1.280
 6524SOL     OW20470   4.332   2.208   5.365
 6524SOL    HW120471   4.310   2.260   5.448
 6524SOL    HW220472   4.305   2.113   5.376
 6525SOL     OW20473   0.579   2.223   4.532
 6525SOL    HW120474   0.604   2.141   4.479
 6525SOL    HW220475   0.598   2.207   4.629
 6526SOL     OW20476   1.674   6.503   3.073
 6526SOL    HW120477   1.575   6.510   3.060
 6526SOL    HW220478   1.709   6.591   3.106
 6527SOL     OW20479   2.016   1.280   4.706
 6527SOL    HW120480   2.085   1.349   4.686
 6527SOL    HW220481   1.940   1.290   4.642
 6528SOL     OW20482   6.815   0.372   2.818
 6528SOL    HW120483   6.741   0.345   2.756
 6528SOL    HW220484   6.787   0.454   2.868
 6529SOL     OW20485   5.982   3.220   2.158
 6529SOL    HW120486   6.055   3.230   2.091
 6529SOL    HW220487   5.947   3.310   2.184
 6530SOL     OW20488   0.158   1.047   0.444
 6530SOL    HW120489   0.220   1.125   0.440
 6530SOL    HW220490   0.095   1.051   0.366
 6531SOL     OW20491   5.145   2.114   5.809
 6531SOL    HW120492   5.078   2.044   5.782
 6531SOL    HW220493   5.157   2.111   5.909
 6532SOL     OW20494   2.049   1.230   6.606
 6532SOL    HW120495   1.976   1.277   6.558
 6532SOL    HW220496   2.052   1.134   6.578
 6533SOL     OW20497   5.204   0.742   7.021
 6533SOL    HW120498   5.188   0.690   6.937
 6533SOL    HW220499   5.283   0.802   7.009
 6534SOL     OW20500   4.106   2.244   6.839
 6534SOL    HW120501   4.024   2.188   6.823
 6534SOL    HW220502   4.187   2.194   6.808
 6535SOL     OW20503   1.699   2.216   4.386
 6535SOL    HW120504   1.746   2.186   4.303
 6535SOL    HW220505   1.667   2.310   4.374
 6536SOL     OW20506   0.537   1.506   0.954
 6536SOL    HW120507   0.484   1.584   0.988
 6536SOL    HW220508   0.532   1.431   1.019
 6537SOL     OW20509   6.839   1.033   5.835
 6537SOL    HW120510   6.928   1.077   5.839
 6537SOL    HW220511   6.809   1.024   5.740
 6538SOL     OW20512   3.140   2.377   5.597
 6538SOL    HW120513   3.228   2.423   5.582
 6538SOL    HW220514   3.102   2.349   5.509
 6539SOL     OW20515   3.234   1.203   6.663
 6539SOL    HW120516   3.182   1.272   6.612
 6539SOL    HW220517   3.191   1.190   6.753
 6540SOL     OW20518   3.944   2.194   3.445
 6540SOL    HW120519   3.926   2.150   3.357
 6540SOL    HW220520   4.020   2.258   3.435
 6541SOL     OW20521   3.077   1.768   5.140
 6541SOL    HW120522   3.017   1.847   5.147
 6541SOL    HW220523   3.127   1.771   5.054
 6542SOL     OW20524   4.328   5.173   2.676
 6542SOL    HW120525   4.265   5.096   2.684
 6542SOL    HW220526   4.375   5.168   2.588
 6543SOL     OW20527   1.373   6.126   5.947
 6543SOL    HW120528   1.423   6.208   5.921
 6543SOL    HW220529   1.319   6.093   5.869
 6544SOL     OW20530   0.848   5.183   2.632
 6544SOL    HW120531   0.816   5.263   2.681
 6544SOL    HW220532   0.811   5.100   2.675
 6545SOL     OW20533   5.977   2.096   6.601
 6545SOL    HW120534   5.999   2.088   6.699
 6545SOL    HW220535   6.058   2.127   6.552
 6546SOL     OW20536   3.282   4.680   6.492
 6546SOL    HW120537   3.203   4.671   6.431
 6546SOL    HW220538   3.264   4.750   6.560
 6547SOL     OW20539   4.343   1.223   6.221
 6547SOL    HW120540   4.294   1.310   6.212
 6547SOL    HW220541   4.413   1.217   6.149
 6548SOL     OW20542   4.278   3.703   5.635
 6548SOL    HW120543   4.258   3.605   5.629
 6548SOL    HW220544   4.367   3.721   5.595
 6549SOL     OW20545   2.600   1.931   2.289
 6549SOL    HW120546   2.599   1.974   2.379
 6549SOL    HW220547   2.678   1.868   2.283
 6550SOL     OW20548   0.748   6.193   2.050
 6550SOL    HW120549   0.699   6.253   2.113
 6550SOL    HW220550   0.717   6.211   1.956
 6551SOL     OW20551   3.393   5.122   1.905
 6551SOL    HW120552   3.479   5.074   1.925
 6551SOL    HW220553   3.388   5.205   1.959
 6552SOL     OW20554   4.784   4.813   6.030
 6552SOL    HW120555   4.756   4.719   6.053
 6552SOL    HW220556   4.814   4.816   5.935
 6553SOL     OW20557   6.278   3.544   2.876
 6553SOL    HW120558   6.280   3.458   2.824
 6553SOL    HW220559   6.183   3.564   2.902
 6554SOL     OW20560   6.498   3.197   4.418
 6554SOL    HW120561   6.529   3.145   4.339
 6554SOL    HW220562   6.577   3.233   4.467
 6555SOL     OW20563   0.601   0.895   1.204
 6555SOL    HW120564   0.700   0.910   1.212
 6555SOL    HW220565   0.555   0.942   1.280
 6556SOL     OW20566   2.703   7.024   3.077
 6556SOL    HW120567   2.787   6.980   3.109
 6556SOL    HW220568   2.624   6.987   3.126
 6557SOL     OW20569   4.785   6.338   0.522
 6557SOL    HW120570   4.741   6.324   0.610
 6557SOL    HW220571   4.716   6.360   0.453
 6558SOL     OW20572   5.798   6.593   6.224
 6558SOL    HW120573   5.855   6.567   6.146
 6558SOL    HW220574   5.702   6.590   6.197
 6559SOL     OW20575   3.203   3.972   0.892
 6559SOL    HW120576   3.298   3.989   0.920
 6559SOL    HW220577   3.172   3.885   0.930
 6560SOL     OW20578   4.754   1.915   0.988
 6560SOL    HW120579   4.715   2.007   0.984
 6560SOL    HW220580   4.852   1.921   1.005
 6561SOL     OW20581   3.002   3.207   4.693
 6561SOL    HW120582   2.904   3.216   4.713
 6561SOL    HW220583   3.050   3.175   4.775
 6562SOL     OW20584   0.038   4.773   4.731
 6562SOL    HW120585   0.015   4.741   4.823
 6562SOL    HW220586   0.048   4.695   4.670
 6563SOL     OW20587   0.862   6.352   2.460
 6563SOL    HW120588   0.877   6.323   2.366
 6563SOL    HW220589   0.789   6.297   2.501
 6564SOL     OW20590   2.169   5.044   3.091
 6564SOL    HW120591   2.258   5.053   3.135
 6564SOL    HW220592   2.101   5.016   3.159
 6565SOL     OW20593   0.103   3.691   5.524
 6565SOL    HW120594   0.180   3.702   5.587
 6565SOL    HW220595   0.071   3.596   5.527
 6566SOL     OW20596   4.520   0.994   0.839
 6566SOL    HW120597   4.592   1.044   0.792
 6566SOL    HW220598   4.438   1.051   0.845
 6567SOL     OW20599   6.893   2.254   0.593
 6567SOL    HW120600   6.944   2.171   0.571
 6567SOL    HW220601   6.957   2.326   0.621
 6568SOL     OW20602   5.546   3.068   1.365
 6568SOL    HW120603   5.518   3.137   1.299
 6568SOL    HW220604   5.521   3.098   1.457
 6569SOL     OW20605   1.203   4.894   5.970
 6569SOL    HW120606   1.266   4.847   6.032
 6569SOL    HW220607   1.251   4.916   5.885
 6570SOL     OW20608   0.736   3.865   1.950
 6570SOL    HW120609   0.825   3.879   1.992
 6570SOL    HW220610   0.672   3.935   1.983
 6571SOL     OW20611   2.414   5.459   4.801
 6571SOL    HW120612   2.464   5.513   4.734
 6571SOL    HW220613   2.335   5.511   4.835
 6572SOL     OW20614   1.457   3.373   5.485
 6572SOL    HW120615   1.532   3.436   5.464
 6572SOL    HW220616   1.409   3.348   5.400
 6573SOL     OW20617   1.156   2.125   1.306
 6573SOL    HW120618   1.242   2.130   1.256
 6573SOL    HW220619   1.155   2.043   1.363
 6574SOL     OW20620   1.850   4.899   4.562
 6574SOL    HW120621   1.923   4.908   4.629
 6574SOL    HW220622   1.817   4.804   4.562
 6575SOL     OW20623   1.297   1.137   2.445
 6575SOL    HW120624   1.211   1.131   2.496
 6575SOL    HW220625   1.365   1.185   2.499
 6576SOL     OW20626   0.401   5.525   4.579
 6576SOL    HW120627   0.330   5.459   4.551
 6576SOL    HW220628   0.371   5.573   4.661
 6577SOL     OW20629   1.007   4.178   5.837
 6577SOL    HW120630   1.073   4.202   5.765
 6577SOL    HW220631   1.038   4.216   5.924
 6578SOL     OW20632   5.173   5.961   4.725
 6578SOL    HW120633   5.229   6.043   4.717
 6578SOL    HW220634   5.193   5.898   4.650
 6579SOL     OW20635   0.843   4.217   4.108
 6579SOL    HW120636   0.888   4.193   4.022
 6579SOL    HW220637   0.842   4.137   4.168
 6580SOL     OW20638   5.023   2.585   0.969
 6580SOL    HW120639   4.980   2.598   0.879
 6580SOL    HW220640   5.121   2.599   0.961
 6581SOL     OW20641   2.698   2.014   5.349
 6581SOL    HW120642   2.733   1.970   5.432
 6581SOL    HW220643   2.716   2.113   5.355
 6582SOL     OW20644   6.144   0.704   2.531
 6582SOL    HW120645   6.172   0.649   2.452
 6582SOL    HW220646   6.200   0.786   2.537
 6583SOL     OW20647   6.110   0.742   6.139
 6583SOL    HW120648   6.033   0.797   6.106
 6583SOL    HW220649   6.116   0.750   6.239
 6584SOL     OW20650   5.939   1.911   0.636
 6584SOL    HW120651   5.906   1.909   0.542
 6584SOL    HW220652   6.021   1.855   0.644
 6585SOL     OW20653   2.214   0.850   2.744
 6585SOL    HW120654   2.268   0.921   2.789
 6585SOL    HW220655   2.270   0.805   2.675
 6586SOL     OW20656   6.093   0.541   6.498
 6586SOL    HW120657   6.113   0.452   6.458
 6586SOL    HW220658   6.001   0.540   6.538
 6587SOL     OW20659   1.487   6.008   2.173
 6587SOL    HW120660   1.399   5.966   2.192
 6587SOL    HW220661   1.499   6.088   2.232
 6588SOL     OW20662   3.488   3.698   0.255
 6588SOL    HW120663   3.432   3.616   0.268
 6588SOL    HW220664   3.584   3.671   0.243
 6589SOL     OW20665   4.523   2.111   6.053
 6589SOL    HW120666   4.463   2.132   5.976
 6589SOL    HW220667   4.470   2.072   6.128
 6590SOL     OW20668   6.534   2.416   5.537
 6590SOL    HW120669   6.603   2.399   5.607
 6590SOL    HW220670   6.574   2.404   5.446
 6591SOL     OW20671   4.617   0.145   2.421
 6591SOL    HW120672   4.714   0.168   2.411
 6591SOL    HW220673   4.581   0.114   2.333
 6592SOL     OW20674   6.407   4.690   5.437
 6592SOL    HW120675   6.449   4.640   5.361
 6592SOL    HW220676   6.475   4.748   5.481
 6593SOL     OW20677   5.483   1.697   2.607
 6593SOL    HW120678   5.561   1.759   2.617
 6593SOL    HW220679   5.477   1.638   2.687
 6594SOL     OW20680   5.493   0.422   6.564
 6594SOL    HW120681   5.443   0.359   6.504
 6594SOL    HW220682   5.525   0.373   6.645
 6595SOL     OW20683   3.658   2.936   6.618
 6595SOL    HW120684   3.644   3.000   6.543
 6595SOL    HW220685   3.574   2.928   6.672
 6596SOL     OW20686   1.943   5.492   5.039
 6596SOL    HW120687   1.942   5.455   5.132
 6596SOL    HW220688   1.856   5.537   5.021
 6597SOL     OW20689   0.776   4.365   0.639
 6597SOL    HW120690   0.770   4.323   0.730
 6597SOL    HW220691   0.761   4.463   0.647
 6598SOL     OW20692   3.116   6.481   4.185
 6598SOL    HW120693   3.137   6.447   4.093
 6598SOL    HW220694   3.040   6.545   4.180
 6599SOL     OW20695   3.836   3.993   5.836
 6599SOL    HW120696   3.741   4.014   5.857
 6599SOL    HW220697   3.860   4.030   5.746
 6600SOL     OW20698   4.373   4.715   5.341
 6600SOL    HW120699   4.278   4.732   5.368
 6600SOL    HW220700   4.434   4.731   5.418
 6601SOL     OW20701   1.168   1.019   2.065
 6601SOL    HW120702   1.120   1.037   1.978
 6601SOL    HW220703   1.159   1.099   2.124
 6602SOL     OW20704   5.166   1.604   0.622
 6602SOL    HW120705   5.209   1.632   0.537
 6602SOL    HW220706   5.067   1.617   0.615
 6603SOL     OW20707   3.323   2.176   1.912
 6603SOL    HW120708   3.402   2.115   1.918
 6603SOL    HW220709   3.334   2.236   1.832
 6604SOL     OW20710   4.270   4.995   4.777
 6604SOL    HW120711   4.292   4.925   4.845
 6604SOL    HW220712   4.181   4.974   4.735
 6605SOL     OW20713   4.609   5.428   1.093
 6605SOL    HW120714   4.556   5.355   1.051
 6605SOL    HW220715   4.629   5.498   1.024
 6606SOL     OW20716   0.533   2.810   2.982
 6606SOL    HW120717   0.632   2.823   2.972
 6606SOL    HW220718   0.515   2.758   3.066
 6607SOL     OW20719   1.953   4.237   2.894
 6607SOL    HW120720   1.942   4.278   2.804
 6607SOL    HW220721   1.865   4.199   2.924
 6608SOL     OW20722   5.286   4.212   4.560
 6608SOL    HW120723   5.259   4.179   4.650
 6608SOL    HW220724   5.319   4.306   4.567
 6609SOL     OW20725   5.846   2.760   6.050
 6609SOL    HW120726   5.827   2.662   6.047
 6609SOL    HW220727   5.833   2.795   6.142
 6610SOL     OW20728   4.248   0.805   0.596
 6610SOL    HW120729   4.276   0.898   0.617
 6610SOL    HW220730   4.183   0.773   0.665
 6611SOL     OW20731   5.369   3.238   1.817
 6611SOL    HW120732   5.388   3.290   1.900
 6611SOL    HW220733   5.445   3.248   1.753
 6612SOL     OW20734   0.318   5.078   6.534
 6612SOL    HW120735   0.280   5.169   6.550
 6612SOL    HW220736   0.245   5.010   6.542
 6613SOL     OW20737   6.464   5.060   0.700
 6613SOL    HW120738   6.544   5.002   0.687
 6613SOL    HW220739   6.490   5.141   0.752
 6614SOL     OW20740   5.775   4.255   5.897
 6614SOL    HW120741   5.752   4.325   5.965
 6614SOL    HW220742   5.873   4.260   5.877
 6615SOL     OW20743   0.898   4.036   4.437
 6615SOL    HW120744   0.884   3.937   4.434
 6615SOL    HW220745   0.811   4.082   4.422
 6616SOL     OW20746   4.908   1.226   3.859
 6616SOL    HW120747   4.996   1.179   3.864
 6616SOL    HW220748   4.869   1.215   3.768
 6617SOL     OW20749   3.684   0.709   4.741
 6617SOL    HW120750   3.602   0.738   4.690
 6617SOL    HW220751   3.719   0.786   4.794
 6618SOL     OW20752   6.616   4.260   1.547
 6618SOL    HW120753   6.712   4.287   1.547
 6618SOL    HW220754   6.562   4.328   1.498
 6619SOL     OW20755   6.055   6.000   2.495
 6619SOL    HW120756   6.023   6.007   2.590
 6619SOL    HW220757   6.142   5.952   2.492
 6620SOL     OW20758   5.310   3.500   5.380
 6620SOL    HW120759   5.281   3.583   5.333
 6620SOL    HW220760   5.410   3.500   5.388
 6621SOL     OW20761   4.482   3.247   1.403
 6621SOL    HW120762   4.426   3.330   1.400
 6621SOL    HW220763   4.537   3.247   1.487
 6622SOL     OW20764   5.890   5.368   0.753
 6622SOL    HW120765   5.817   5.303   0.729
 6622SOL    HW220766   5.895   5.378   0.852
 6623SOL     OW20767   2.958   3.642   2.816
 6623SOL    HW120768   2.923   3.633   2.723
 6623SOL    HW220769   2.907   3.580   2.876
 6624SOL     OW20770   4.776   4.920   4.564
 6624SOL    HW120771   4.747   5.010   4.597
 6624SOL    HW220772   4.751   4.850   4.631
 6625SOL     OW20773   5.385   6.156   0.917
 6625SOL    HW120774   5.354   6.249   0.894
 6625SOL    HW220775   5.483   6.159   0.937
 6626SOL     OW20776   2.774   5.489   4.450
 6626SOL    HW120777   2.839   5.538   4.509
 6626SOL    HW220778   2.759   5.397   4.486
 6627SOL     OW20779   0.257   0.650   0.985
 6627SOL    HW120780   0.267   0.695   0.896
 6627SOL    HW220781   0.242   0.552   0.971
 6628SOL     OW20782   3.529   6.236   4.168
 6628SOL    HW120783   3.565   6.153   4.212
 6628SOL    HW220784   3.442   6.261   4.210
 6629SOL     OW20785   2.971   4.414   0.631
 6629SOL    HW120786   2.965   4.497   0.687
 6629SOL    HW220787   2.968   4.334   0.690
 6630SOL     OW20788   3.021   0.996   5.636
 6630SOL    HW120789   2.922   1.008   5.630
 6630SOL    HW220790   3.056   0.969   5.546
 6631SOL     OW20791   3.162   6.404   1.673
 6631SOL    HW120792   3.143   6.341   1.749
 6631SOL    HW220793   3.228   6.473   1.703
 6632SOL     OW20794   6.314   3.624   2.020
 6632SOL    HW120795   6.365   3.710   2.010
 6632SOL    HW220796   6.246   3.617   1.946
 6633SOL     OW20797   1.034   6.106   3.246
 6633SOL    HW120798   1.008   6.039   3.315
 6633SOL    HW220799   1.034   6.063   3.156
 6634SOL     OW20800   6.571   2.133   5.035
 6634SOL    HW120801   6.563   2.033   5.034
 6634SOL    HW220802   6.569   2.168   4.941
 6635SOL     OW20803   4.382   5.076   4.538
 6635SOL    HW120804   4.345   5.046   4.626
 6635SOL    HW220805   4.402   4.996   4.482
 6636SOL     OW20806   2.134   3.549   2.618
 6636SOL    HW120807   2.072   3.580   2.546
 6636SOL    HW220808   2.222   3.523   2.578
 6637SOL     OW20809   7.021   2.103   6.951
 6637SOL    HW120810   0.068   2.084   6.889
 6637SOL    HW220811   0.026   2.119   0.013
 6638SOL     OW20812   1.714   0.370   6.770
 6638SOL    HW120813   1.619   0.400   6.776
 6638SOL    HW220814   1.774   0.449   6.760
 6639SOL     OW20815   4.412   5.726   6.471
 6639SOL    HW120816   4.334   5.701   6.415
 6639SOL    HW220817   4.419   5.663   6.549
 6640SOL     OW20818   5.260   4.241   2.958
 6640SOL    HW120819   5.192   4.310   2.986
 6640SOL    HW220820   5.213   4.166   2.912
 6641SOL     OW20821   2.593   5.451   6.284
 6641SOL    HW120822   2.552   5.362   6.269
 6641SOL    HW220823   2.572   5.482   6.377
 6642SOL     OW20824   6.417   5.819   6.160
 6642SOL    HW120825   6.419   5.779   6.251
 6642SOL    HW220826   6.342   5.885   6.154
 6643SOL     OW20827   4.308   5.021   1.188
 6643SOL    HW120828   4.225   4.988   1.144
 6643SOL    HW220829   4.290   5.037   1.285
 6644SOL     OW20830   0.921   3.034   1.935
 6644SOL    HW120831   0.886   3.109   1.992
 6644SOL    HW220832   0.874   2.950   1.959
 6645SOL     OW20833   0.381   5.454   5.469
 6645SOL    HW120834   0.368   5.365   5.427
 6645SOL    HW220835   0.374   5.525   5.398
 6646SOL     OW20836   1.891   5.382   3.899
 6646SOL    HW120837   1.798   5.419   3.900
 6646SOL    HW220838   1.889   5.287   3.869
 6647SOL     OW20839   4.235   1.394   1.755
 6647SOL    HW120840   4.212   1.306   1.714
 6647SOL    HW220841   4.275   1.453   1.685
 6648SOL     OW20842   3.511   5.270   2.347
 6648SOL    HW120843   3.600   5.312   2.332
 6648SOL    HW220844   3.508   5.181   2.301
 6649SOL     OW20845   4.139   1.924   5.587
 6649SOL    HW120846   4.227   1.942   5.542
 6649SOL    HW220847   4.068   1.982   5.548
 6650SOL     OW20848   3.113   1.512   3.867
 6650SOL    HW120849   3.146   1.495   3.774
 6650SOL    HW220850   3.187   1.494   3.932
 6651SOL     OW20851   0.664   1.277   1.365
 6651SOL    HW120852   0.594   1.245   1.302
 6651SOL    HW220853   0.621   1.313   1.448
 6652SOL     OW20854   0.244   5.760   3.767
 6652SOL    HW120855   0.273   5.711   3.850
 6652SOL    HW220856   0.206   5.694   3.702
 6653SOL     OW20857   3.754   4.126   4.566
 6653SOL    HW120858   3.834   4.098   4.619
 6653SOL    HW220859   3.677   4.140   4.628
 6654SOL     OW20860   1.519   3.692   1.578
 6654SOL    HW120861   1.612   3.658   1.564
 6654SOL    HW220862   1.498   3.693   1.676
 6655SOL     OW20863   1.708   0.750   6.656
 6655SOL    HW120864   1.709   0.839   6.701
 6655SOL    HW220865   1.752   0.682   6.714
 6656SOL     OW20866   6.608   1.645   1.211
 6656SOL    HW120867   6.586   1.741   1.195
 6656SOL    HW220868   6.531   1.587   1.182
 6657SOL     OW20869   3.355   5.033   5.647
 6657SOL    HW120870   3.273   4.977   5.665
 6657SOL    HW220871   3.404   5.049   5.733
 6658SOL     OW20872   6.141   0.140   5.322
 6658SOL    HW120873   6.094   0.189   5.248
 6658SOL    HW220874   6.140   0.195   5.405
 6659SOL     OW20875   2.777   2.861   0.621
 6659SOL    HW120876   2.723   2.855   0.705
 6659SOL    HW220877   2.853   2.796   0.626
 6660SOL     OW20878   0.235   6.570   3.116
 6660SOL    HW120879   0.174   6.559   3.038
 6660SOL    HW220880   0.269   6.664   3.119
 6661SOL     OW20881   6.839   0.391   3.768
 6661SOL    HW120882   6.844   0.490   3.780
 6661SOL    HW220883   6.798   0.350   3.849
 6662SOL     OW20884   1.873   3.740   6.089
 6662SOL    HW120885   1.918   3.666   6.040
 6662SOL    HW220886   1.941   3.797   6.135
 6663SOL     OW20887   1.061   5.630   1.897
 6663SOL    HW120888   1.098   5.634   1.804
 6663SOL    HW220889   0.991   5.700   1.908
 6664SOL     OW20890   6.799   1.832   1.781
 6664SOL    HW120891   6.875   1.819   1.717
 6664SOL    HW220892   6.790   1.928   1.804
 6665SOL     OW20893   1.861   0.000   3.644
 6665SOL    HW120894   1.785   7.021   3.708
 6665SOL    HW220895   1.855   6.958   3.575
 6666SOL     OW20896   6.021   0.360   0.559
 6666SOL    HW120897   5.978   0.443   0.593
 6666SOL    HW220898   5.973   0.280   0.596
 6667SOL     OW20899   5.590   5.034   5.499
 6667SOL    HW120900   5.583   5.094   5.578
 6667SOL    HW220901   5.547   5.077   5.420
 6668SOL     OW20902   6.343   6.538   0.698
 6668SOL    HW120903   6.256   6.489   0.688
 6668SOL    HW220904   6.399   6.495   0.768
 6669SOL     OW20905   0.657   4.718   3.601
 6669SOL    HW120906   0.708   4.634   3.619
 6669SOL    HW220907   0.644   4.769   3.687
 6670SOL     OW20908   5.561   4.860   0.531
 6670SOL    HW120909   5.648   4.887   0.491
 6670SOL    HW220910   5.577   4.809   0.615
 6671SOL     OW20911   0.986   2.407   5.535
 6671SOL    HW120912   0.958   2.311   5.541
 6671SOL    HW220913   1.054   2.427   5.606
 6672SOL     OW20914   6.665   1.293   5.252
 6672SOL    HW120915   6.758   1.314   5.222
 6672SOL    HW220916   6.639   1.352   5.328
 6673SOL     OW20917   3.380   6.116   1.451
 6673SOL    HW120918   3.354   6.124   1.547
 6673SOL    HW220919   3.298   6.126   1.394
 6674SOL     OW20920   1.218   5.958   4.640
 6674SOL    HW120921   1.144   5.891   4.641
 6674SOL    HW220922   1.180   6.050   4.651
 6675SOL     OW20923   6.440   6.552   6.251
 6675SOL    HW120924   6.499   6.580   6.327
 6675SOL    HW220925   6.409   6.632   6.201
 6676SOL     OW20926   0.307   1.634   0.705
 6676SOL    HW120927   0.313   1.638   0.805
 6676SOL    HW220928   0.369   1.563   0.671
 6677SOL     OW20929   1.076   4.273   0.627
 6677SOL    HW120930   1.119   4.354   0.587
 6677SOL    HW220931   0.980   4.292   0.647
 6678SOL     OW20932   0.834   3.781   4.473
 6678SOL    HW120933   0.746   3.759   4.431
 6678SOL    HW220934   0.884   3.696   4.490
 6679SOL     OW20935   2.358   1.949   4.265
 6679SOL    HW120936   2.387   1.940   4.361
 6679SOL    HW220937   2.314   1.864   4.236
 6680SOL     OW20938   2.727   1.205   6.973
 6680SOL    HW120939   2.732   1.155   0.030
 6680SOL    HW220940   2.696   1.298   6.990
 6681SOL     OW20941   6.187   4.995   6.759
 6681SOL    HW120942   6.287   4.988   6.766
 6681SOL    HW220943   6.146   4.906   6.775
 6682SOL     OW20944   6.132   4.535   2.407
 6682SOL    HW120945   6.217   4.587   2.404
 6682SOL    HW220946   6.128   4.482   2.491
 6683SOL     OW20947   5.821   3.158   3.974
 6683SOL    HW120948   5.836   3.256   3.961
 6683SOL    HW220949   5.893   3.106   3.928
 6684SOL     OW20950   2.004   0.996   1.866
 6684SOL    HW120951   2.048   1.042   1.943
 6684SOL    HW220952   1.908   1.022   1.863
 6685SOL     OW20953   6.300   2.328   6.868
 6685SOL    HW120954   6.361   2.403   6.893
 6685SOL    HW220955   6.285   2.269   6.947
 6686SOL     OW20956   4.944   4.417   3.824
 6686SOL    HW120957   4.963   4.428   3.727
 6686SOL    HW220958   4.989   4.490   3.876
 6687SOL     OW20959   0.069   6.763   0.015
 6687SOL    HW120960   0.166   6.746   7.028
 6687SOL    HW220961   0.047   6.857   7.019
 6688SOL     OW20962   0.575   4.771   3.136
 6688SOL    HW120963   0.654   4.731   3.182
 6688SOL    HW220964   0.599   4.796   3.043
 6689SOL     OW20965   5.590   3.305   0.520
 6689SOL    HW120966   5.668   3.331   0.463
 6689SOL    HW220967   5.560   3.213   0.494
 6690SOL     OW20968   0.274   1.248   0.726
 6690SOL    HW120969   0.204   1.304   0.681
 6690SOL    HW220970   0.356   1.302   0.739
 6691SOL     OW20971   0.825   5.115   1.608
 6691SOL    HW120972   0.839   5.184   1.678
 6691SOL    HW220973   0.892   5.128   1.534
 6692SOL     OW20974   5.110   3.326   6.671
 6692SOL    HW120975   5.161   3.328   6.757
 6692SOL    HW220976   5.015   3.352   6.688
 6693SOL     OW20977   3.935   3.400   5.650
 6693SOL    HW120978   3.974   3.413   5.741
 6693SOL    HW220979   3.866   3.328   5.652
 6694SOL     OW20980   2.389   5.661   0.261
 6694SOL    HW120981   2.441   5.622   0.185
 6694SOL    HW220982   2.294   5.629   0.256
 6695SOL     OW20983   1.394   1.701   0.176
 6695SOL    HW120984   1.409   1.763   0.253
 6695SOL    HW220985   1.362   1.613   0.209
 6696SOL     OW20986   1.602   2.107   1.138
 6696SOL    HW120987   1.508   2.141   1.127
 6696SOL    HW220988   1.666   2.177   1.107
 6697SOL     OW20989   5.430   3.375   4.616
 6697SOL    HW120990   5.433   3.460   4.564
 6697SOL    HW220991   5.477   3.303   4.565
 6698SOL     OW20992   2.339   4.527   5.589
 6698SOL    HW120993   2.301   4.592   5.654
 6698SOL    HW220994   2.400   4.464   5.637
 6699SOL     OW20995   1.225   3.241   6.228
 6699SOL    HW120996   1.231   3.295   6.312
 6699SOL    HW220997   1.271   3.154   6.241
 6700SOL     OW20998   0.246   6.321   6.598
 6700SOL    HW120999   0.171   6.260   6.622
 6700SOL    HW221000   0.305   6.335   6.677
 6701SOL     OW21001   1.920   2.283   6.444
 6701SOL    HW121002   1.909   2.185   6.461
 6701SOL    HW221003   1.855   2.334   6.500
 6702SOL     OW21004   3.521   3.421   0.536
 6702SOL    HW121005   3.439   3.470   0.508
 6702SOL    HW221006   3.518   3.327   0.501
 6703SOL     OW21007   0.394   1.805   0.114
 6703SOL    HW121008   0.382   1.884   0.175
 6703SOL    HW221009   0.327   1.735   0.137
 6704SOL     OW21010   5.477   3.491   2.586
 6704SOL    HW121011   5.432   3.445   2.510
 6704SOL    HW221012   5.483   3.589   2.567
 6705SOL     OW21013   4.547   2.546   0.980
 6705SOL    HW121014   4.556   2.645   0.993
 6705SOL    HW221015   4.578   2.521   0.888
 6706SOL     OW21016   1.514   6.812   6.437
 6706SOL    HW121017   1.514   6.712   6.433
 6706SOL    HW221018   1.441   6.843   6.498
 6707SOL     OW21019   1.453   5.201   3.559
 6707SOL    HW121020   1.514   5.265   3.512
 6707SOL    HW221021   1.397   5.251   3.625
 6708SOL     OW21022   2.121   5.629   0.878
 6708SOL    HW121023   2.142   5.577   0.961
 6708SOL    HW221024   2.160   5.721   0.886
 6709SOL     OW21025   4.708   1.846   4.093
 6709SOL    HW121026   4.750   1.895   4.168
 6709SOL    HW221027   4.770   1.844   4.014
 6710SOL     OW21028   2.740   2.073   0.662
 6710SOL    HW121029   2.689   2.083   0.577
 6710SOL    HW221030   2.770   1.979   0.673
 6711SOL     OW21031   5.455   3.729   6.277
 6711SOL    HW121032   5.383   3.672   6.237
 6711SOL    HW221033   5.461   3.711   6.375
 6712SOL     OW21034   3.511   6.172   6.979
 6712SOL    HW121035   3.519   6.073   6.968
 6712SOL    HW221036   3.506   6.194   0.047
 6713SOL     OW21037   0.546   2.448   3.266
 6713SOL    HW121038   0.478   2.515   3.237
 6713SOL    HW221039   0.626   2.495   3.303
 6714SOL     OW21040   6.360   1.399   5.428
 6714SOL    HW121041   6.453   1.416   5.460
 6714SOL    HW221042   6.320   1.485   5.396
 6715SOL     OW21043   4.734   2.933   1.539
 6715SOL    HW121044   4.692   2.861   1.483
 6715SOL    HW221045   4.664   2.976   1.596
 6716SOL     OW21046   3.346   5.723   1.438
 6716SOL    HW121047   3.305   5.784   1.371
 6716SOL    HW221048   3.436   5.759   1.465
 6717SOL     OW21049   3.642   0.629   6.732
 6717SOL    HW121050   3.662   0.552   6.792
 6717SOL    HW221051   3.557   0.673   6.761
 6718SOL     OW21052   4.577   0.313   6.332
 6718SOL    HW121053   4.632   0.371   6.392
 6718SOL    HW221054   4.482   0.312   6.365
 6719SOL     OW21055   1.062   2.516   4.965
 6719SOL    HW121056   1.024   2.581   4.900
 6719SOL    HW221057   0.998   2.501   5.040
 6720SOL     OW21058   2.148   4.454   0.572
 6720SOL    HW121059   2.079   4.512   0.528
 6720SOL    HW221060   2.196   4.507   0.642
 6721SOL     OW21061   6.016   6.451   2.887
 6721SOL    HW121062   5.950   6.422   2.957
 6721SOL    HW221063   6.105   6.411   2.907
 6722SOL     OW21064   3.589   4.642   6.350
 6722SOL    HW121065   3.502   4.692   6.354
 6722SOL    HW221066   3.604   4.597   6.438
 6723SOL     OW21067   3.418   1.759   2.928
 6723SOL    HW121068   3.341   1.782   2.987
 6723SOL    HW221069   3.387   1.696   2.857
 6724SOL     OW21070   3.877   5.287   6.120
 6724SOL    HW121071   3.813   5.364   6.111
 6724SOL    HW221072   3.846   5.227   6.194
 6725SOL     OW21073   0.459   6.142   1.563
 6725SOL    HW121074   0.433   6.177   1.473
 6725SOL    HW221075   0.551   6.174   1.586
 6726SOL     OW21076   2.285   2.441   1.750
 6726SOL    HW121077   2.289   2.538   1.774
 6726SOL    HW221078   2.378   2.403   1.748
 6727SOL     OW21079   2.854   3.471   1.382
 6727SOL    HW121080   2.846   3.566   1.355
 6727SOL    HW221081   2.853   3.413   1.300
 6728SOL     OW21082   4.379   1.806   3.758
 6728SOL    HW121083   4.450   1.753   3.805
 6728SOL    HW221084   4.413   1.898   3.739
 6729SOL     OW21085   4.028   5.503   3.422
 6729SOL    HW121086   3.944   5.512   3.474
 6729SOL    HW221087   4.092   5.574   3.449
 6730SOL     OW21088   1.377   0.061   2.647
 6730SOL    HW121089   1.377   0.068   2.548
 6730SOL    HW221090   1.325   0.137   2.686
 6731SOL     OW21091   2.156   4.243   1.314
 6731SOL    HW121092   2.115   4.192   1.390
 6731SOL    HW221093   2.189   4.332   1.347
 6732SOL     OW21094   3.443   5.769   0.191
 6732SOL    HW121095   3.368   5.764   0.257
 6732SOL    HW221096   3.515   5.829   0.226
 6733SOL     OW21097   6.244   5.688   4.568
 6733SOL    HW121098   6.289   5.616   4.621
 6733SOL    HW221099   6.280   5.777   4.594
 6734SOL     OW21100   2.910   4.021   6.994
 6734SOL    HW121101   2.910   3.922   6.983
 6734SOL    HW221102   2.886   4.064   6.907
 6735SOL     OW21103   0.545   6.771   6.151
 6735SOL    HW121104   0.532   6.672   6.155
 6735SOL    HW221105   0.455   6.816   6.147
 6736SOL     OW21106   2.273   4.166   2.141
 6736SOL    HW121107   2.338   4.240   2.122
 6736SOL    HW221108   2.285   4.133   2.234
 6737SOL     OW21109   1.822   0.405   1.523
 6737SOL    HW121110   1.750   0.437   1.461
 6737SOL    HW221111   1.911   0.425   1.484
 6738SOL     OW21112   5.588   1.893   0.817
 6738SOL    HW121113   5.514   1.835   0.783
 6738SOL    HW221114   5.661   1.835   0.852
 6739SOL     OW21115   4.267   5.633   6.262
 6739SOL    HW121116   4.285   5.717   6.210
 6739SOL    HW221117   4.255   5.557   6.199
 6740SOL     OW21118   5.580   2.551   4.845
 6740SOL    HW121119   5.499   2.510   4.888
 6740SOL    HW221120   5.558   2.574   4.750
 6741SOL     OW21121   7.021   0.723   5.460
 6741SOL    HW121122   7.027   0.637   5.409
 6741SOL    HW221123   6.926   0.754   5.462
 6742SOL     OW21124   5.901   6.586   5.307
 6742SOL    HW121125   5.967   6.602   5.233
 6742SOL    HW221126   5.936   6.514   5.367
 6743SOL     OW21127   5.871   2.010   0.890
 6743SOL    HW121128   5.772   1.998   0.881
 6743SOL    HW221129   5.914   2.002   0.800
 6744SOL     OW21130   4.448   0.872   3.680
 6744SOL    HW121131   4.365   0.849   3.630
 6744SOL    HW221132   4.430   0.865   3.778
 6745SOL     OW21133   0.739   3.556   3.433
 6745SOL    HW121134   0.643   3.549   3.462
 6745SOL    HW221135   0.798   3.543   3.513
 6746SOL     OW21136   6.421   0.076   0.306
 6746SOL    HW121137   6.332   0.081   0.260
 6746SOL    HW221138   6.449   0.168   0.333
 6747SOL     OW21139   5.231   5.201   5.810
 6747SOL    HW121140   5.181   5.114   5.814
 6747SOL    HW221141   5.317   5.192   5.859
 6748SOL     OW21142   6.096   6.928   2.032
 6748SOL    HW121143   6.179   6.984   2.029
 6748SOL    HW221144   6.017   6.987   2.045
 6749SOL     OW21145   3.386   4.922   0.963
 6749SOL    HW121146   3.383   4.842   0.903
 6749SOL    HW221147   3.429   4.999   0.916
 6750SOL     OW21148   2.168   3.084   5.037
 6750SOL    HW121149   2.261   3.049   5.052
 6750SOL    HW221150   2.148   3.082   4.940
 6751SOL     OW21151   4.936   3.141   5.687
 6751SOL    HW121152   5.022   3.090   5.689
 6751SOL    HW221153   4.908   3.155   5.592
 6752SOL     OW21154   5.710   1.231   0.371
 6752SOL    HW121155   5.611   1.222   0.360
 6752SOL    HW221156   5.741   1.171   0.444
 6753SOL     OW21157   5.855   0.410   6.205
 6753SOL    HW121158   5.949   0.386   6.181
 6753SOL    HW221159   5.824   0.354   6.281
 6754SOL     OW21160   4.124   0.934   6.533
 6754SOL    HW121161   4.179   0.882   6.598
 6754SOL    HW221162   4.081   1.012   6.579
 6755SOL     OW21163   5.025   1.676   2.952
 6755SOL    HW121164   4.980   1.587   2.951
 6755SOL    HW221165   5.121   1.665   2.925
 6756SOL     OW21166   4.128   5.352   2.813
 6756SOL    HW121167   4.186   5.274   2.836
 6756SOL    HW221168   4.032   5.329   2.832
 6757SOL     OW21169   6.458   3.779   1.749
 6757SOL    HW121170   6.495   3.867   1.719
 6757SOL    HW221171   6.504   3.751   1.834
 6758SOL     OW21172   0.103   2.346   2.257
 6758SOL    HW121173   0.071   2.252   2.269
 6758SOL    HW221174   0.024   2.408   2.255
 6759SOL     OW21175   6.703   5.609   4.272
 6759SOL    HW121176   6.606   5.587   4.264
 6759SOL    HW221177   6.752   5.572   4.193
 6760SOL     OW21178   1.079   3.775   5.078
 6760SOL    HW121179   1.126   3.692   5.109
 6760SOL    HW221180   1.094   3.848   5.144
 6761SOL     OW21181   6.731   2.979   6.767
 6761SOL    HW121182   6.746   3.044   6.692
 6761SOL    HW221183   6.816   2.967   6.818
 6762SOL     OW21184   6.580   1.853   4.595
 6762SOL    HW121185   6.542   1.884   4.682
 6762SOL    HW221186   6.513   1.793   4.549
 6763SOL     OW21187   5.062   6.550   5.199
 6763SOL    HW121188   5.158   6.527   5.181
 6763SOL    HW221189   5.055   6.645   5.228
 6764SOL     OW21190   1.989   3.511   0.139
 6764SOL    HW121191   1.934   3.523   0.222
 6764SOL    HW221192   2.085   3.528   0.161
 6765SOL     OW21193   4.894   5.628   2.129
 6765SOL    HW121194   4.896   5.555   2.061
 6765SOL    HW221195   4.806   5.675   2.125
 6766SOL     OW21196   2.386   2.106   5.185
 6766SOL    HW121197   2.325   2.168   5.233
 6766SOL    HW221198   2.335   2.024   5.158
 6767SOL     OW21199   0.920   2.566   6.154
 6767SOL    HW121200   0.941   2.664   6.154
 6767SOL    HW221201   1.006   2.514   6.152
 6768SOL     OW21202   6.644   0.272   5.461
 6768SOL    HW121203   6.623   0.198   5.526
 6768SOL    HW221204   6.640   0.236   5.368
 6769SOL     OW21205   1.109   2.867   6.192
 6769SOL    HW121206   1.154   2.878   6.280
 6769SOL    HW221207   1.012   2.890   6.201
 6770SOL     OW21208   0.131   2.303   3.921
 6770SOL    HW121209   0.067   2.227   3.922
 6770SOL    HW221210   0.090   2.382   3.966
 6771SOL     OW21211   5.866   2.142   1.795
 6771SOL    HW121212   5.900   2.183   1.710
 6771SOL    HW221213   5.793   2.199   1.833
 6772SOL     OW21214   1.926   6.405   1.827
 6772SOL    HW121215   1.957   6.406   1.922
 6772SOL    HW221216   1.826   6.406   1.825
 6773SOL     OW21217   1.708   1.486   2.988
 6773SOL    HW121218   1.656   1.451   2.910
 6773SOL    HW221219   1.646   1.501   3.065
 6774SOL     OW21220   3.875   0.984   5.355
 6774SOL    HW121221   3.807   1.044   5.314
 6774SOL    HW221222   3.918   1.032   5.432
 6775SOL     OW21223   1.710   3.253   5.214
 6775SOL    HW121224   1.641   3.196   5.258
 6775SOL    HW221225   1.801   3.225   5.245
 6776SOL     OW21226   3.106   3.063   4.035
 6776SOL    HW121227   3.123   3.037   4.130
 6776SOL    HW221228   3.064   3.153   4.033
 6777SOL     OW21229   6.823   0.385   5.000
 6777SOL    HW121230   6.763   0.461   4.974
 6777SOL    HW221231   6.834   0.384   5.100
 6778SOL     OW21232   6.219   6.095   1.599
 6778SOL    HW121233   6.301   6.112   1.545
 6778SOL    HW221234   6.233   6.129   1.692
 6779SOL     OW21235   5.488   3.198   5.534
 6779SOL    HW121236   5.397   3.221   5.499
 6779SOL    HW221237   5.480   3.164   5.628
 6780SOL     OW21238   4.900   1.089   2.308
 6780SOL    HW121239   4.826   1.036   2.268
 6780SOL    HW221240   4.870   1.183   2.323
 6781SOL     OW21241   5.267   3.796   3.281
 6781SOL    HW121242   5.267   3.728   3.354
 6781SOL    HW221243   5.238   3.753   3.195
 6782SOL     OW21244   6.255   1.881   2.828
 6782SOL    HW121245   6.339   1.828   2.822
 6782SOL    HW221246   6.196   1.858   2.750
 6783SOL     OW21247   0.359   6.770   6.771
 6783SOL    HW121248   0.361   6.868   6.750
 6783SOL    HW221249   0.288   6.726   6.717
 6784SOL     OW21250   1.526   4.537   6.607
 6784SOL    HW121251   1.585   4.610   6.641
 6784SOL    HW221252   1.430   4.564   6.615
 6785SOL     OW21253   5.560   4.262   1.131
 6785SOL    HW121254   5.468   4.287   1.162
 6785SOL    HW221255   5.570   4.162   1.136
 6786SOL     OW21256   6.331   1.479   6.307
 6786SOL    HW121257   6.279   1.394   6.298
 6786SOL    HW221258   6.382   1.496   6.223
 6787SOL     OW21259   3.874   2.276   1.656
 6787SOL    HW121260   3.809   2.306   1.725
 6787SOL    HW221261   3.948   2.343   1.649
 6788SOL     OW21262   1.342   4.860   1.311
 6788SOL    HW121263   1.362   4.916   1.230
 6788SOL    HW221264   1.243   4.850   1.321
 6789SOL     OW21265   6.329   2.460   2.641
 6789SOL    HW121266   6.308   2.364   2.660
 6789SOL    HW221267   6.243   2.511   2.633
 6790SOL     OW21268   1.205   5.708   6.929
 6790SOL    HW121269   1.109   5.683   6.919
 6790SOL    HW221270   1.253   5.636   6.979
 6791SOL     OW21271   1.935   6.450   4.065
 6791SOL    HW121272   1.952   6.443   4.163
 6791SOL    HW221273   1.976   6.372   4.018
 6792SOL     OW21274   3.037   6.170   7.026
 6792SOL    HW121275   3.046   6.231   0.075
 6792SOL    HW221276   3.019   6.077   0.028
 6793SOL     OW21277   1.938   3.227   5.932
 6793SOL    HW121278   2.020   3.283   5.933
 6793SOL    HW221279   1.894   3.234   5.842
 6794SOL     OW21280   4.219   2.303   3.983
 6794SOL    HW121281   4.192   2.312   3.887
 6794SOL    HW221282   4.257   2.389   4.016
 6795SOL     OW21283   0.976   0.336   2.511
 6795SOL    HW121284   0.914   0.260   2.529
 6795SOL    HW221285   0.978   0.355   2.412
 6796SOL     OW21286   5.805   2.838   2.377
 6796SOL    HW121287   5.805   2.751   2.328
 6796SOL    HW221288   5.793   2.913   2.312
 6797SOL     OW21289   2.504   4.124   0.515
 6797SOL    HW121290   2.493   4.046   0.577
 6797SOL    HW221291   2.507   4.091   0.420
 6798SOL     OW21292   5.173   2.262   1.544
 6798SOL    HW121293   5.207   2.250   1.637
 6798SOL    HW221294   5.180   2.359   1.518
 6799SOL     OW21295   3.958   6.745   2.998
 6799SOL    HW121296   3.989   6.777   2.909
 6799SOL    HW221297   4.006   6.660   3.020
 6800SOL     OW21298   0.209   2.374   3.356
 6800SOL    HW121299   0.218   2.328   3.444
 6800SOL    HW221300   0.197   2.472   3.369
 6801SOL     OW21301   1.877   5.110   5.035
 6801SOL    HW121302   1.835   5.200   5.044
 6801SOL    HW221303   1.928   5.089   5.119
 6802SOL     OW21304   2.635   4.700   2.640
 6802SOL    HW121305   2.613   4.789   2.680
 6802SOL    HW221306   2.713   4.710   2.579
 6803SOL     OW21307   5.823   5.069   6.070
 6803SOL    HW121308   5.913   5.109   6.086
 6803SOL    HW221309   5.752   5.135   6.095
 6804SOL     OW21310   2.713   6.055   1.434
 6804SOL    HW121311   2.745   5.960   1.427
 6804SOL    HW221312   2.757   6.110   1.363
 6805SOL     OW21313   0.555   4.269   4.151
 6805SOL    HW121314   0.559   4.365   4.181
 6805SOL    HW221315   0.642   4.245   4.108
 6806SOL     OW21316   5.730   3.375   2.146
 6806SOL    HW121317   5.719   3.307   2.219
 6806SOL    HW221318   5.777   3.333   2.068
 6807SOL     OW21319   4.094   3.338   2.505
 6807SOL    HW121320   4.081   3.436   2.495
 6807SOL    HW221321   4.136   3.318   2.593
 6808SOL     OW21322   2.784   6.243   4.500
 6808SOL    HW121323   2.728   6.244   4.417
 6808SOL    HW221324   2.773   6.330   4.547
 6809SOL     OW21325   6.208   1.981   0.410
 6809SOL    HW121326   6.250   2.069   0.388
 6809SOL    HW221327   6.112   1.981   0.384
 6810SOL     OW21328   3.658   0.504   4.988
 6810SOL    HW121329   3.560   0.481   4.992
 6810SOL    HW221330   3.674   0.568   4.914
 6811SOL     OW21331   6.711   1.989   1.328
 6811SOL    HW121332   6.741   2.082   1.349
 6811SOL    HW221333   6.617   1.976   1.362
 6812SOL     OW21334   3.842   4.697   6.120
 6812SOL    HW121335   3.825   4.698   6.022
 6812SOL    HW221336   3.755   4.701   6.169
 6813SOL     OW21337   0.874   3.566   1.407
 6813SOL    HW121338   0.875   3.542   1.504
 6813SOL    HW221339   0.793   3.621   1.387
 6814SOL     OW21340   5.122   2.549   1.523
 6814SOL    HW121341   5.215   2.577   1.500
 6814SOL    HW221342   5.097   2.588   1.612
 6815SOL     OW21343   1.542   5.846   1.403
 6815SOL    HW121344   1.507   5.917   1.464
 6815SOL    HW221345   1.634   5.870   1.374
 6816SOL     OW21346   5.272   0.478   3.319
 6816SOL    HW121347   5.315   0.512   3.403
 6816SOL    HW221348   5.336   0.416   3.272
 6817SOL     OW21349   6.054   0.818   0.632
 6817SOL    HW121350   6.012   0.900   0.593
 6817SOL    HW221351   6.110   0.773   0.563
 6818SOL     OW21352   0.216   6.379   5.529
 6818SOL    HW121353   0.208   6.449   5.458
 6818SOL    HW221354   0.145   6.310   5.515
 6819SOL     OW21355   6.147   4.018   0.769
 6819SOL    HW121356   6.054   4.054   0.776
 6819SOL    HW221357   6.143   3.918   0.762
 6820SOL     OW21358   2.925   4.509   1.391
 6820SOL    HW121359   2.935   4.411   1.380
 6820SOL    HW221360   2.828   4.532   1.400
 6821SOL     OW21361   2.456   3.659   6.078
 6821SOL    HW121362   2.357   3.650   6.072
 6821SOL    HW221363   2.498   3.612   6.000
 6822SOL     OW21364   1.095   4.386   5.003
 6822SOL    HW121365   1.180   4.337   4.983
 6822SOL    HW221366   1.093   4.473   4.954
 6823SOL     OW21367   6.614   3.678   5.534
 6823SOL    HW121368   6.534   3.618   5.540
 6823SOL    HW221369   6.606   3.751   5.602
 6824SOL     OW21370   1.398   0.925   3.850
 6824SOL    HW121371   1.379   1.023   3.859
 6824SOL    HW221372   1.405   0.902   3.753
 6825SOL     OW21373   4.959   5.656   1.733
 6825SOL    HW121374   4.995   5.599   1.807
 6825SOL    HW221375   4.986   5.752   1.749
 6826SOL     OW21376   5.378   0.646   4.483
 6826SOL    HW121377   5.419   0.641   4.392
 6826SOL    HW221378   5.450   0.652   4.551
 6827SOL     OW21379   6.042   5.419   5.117
 6827SOL    HW121380   6.046   5.459   5.208
 6827SOL    HW221381   5.956   5.446   5.073
 6828SOL     OW21382   2.450   1.194   2.600
 6828SOL    HW121383   2.531   1.251   2.580
 6828SOL    HW221384   2.370   1.253   2.610
 6829SOL     OW21385   5.603   6.548   5.274
 6829SOL    HW121386   5.626   6.519   5.181
 6829SOL    HW221387   5.677   6.523   5.336
 6830SOL     OW21388   3.780   6.247   3.643
 6830SOL    HW121389   3.802   6.161   3.598
 6830SOL    HW221390   3.825   6.250   3.732
 6831SOL     OW21391   2.172   0.245   0.037
 6831SOL    HW121392   2.147   0.323   7.010
 6831SOL    HW221393   2.130   0.162   0.002
 6832SOL     OW21394   4.111   3.936   0.496
 6832SOL    HW121395   4.134   4.012   0.557
 6832SOL    HW221396   4.152   3.852   0.531
 6833SOL     OW21397   3.781   5.389   0.613
 6833SOL    HW121398   3.791   5.465   0.548
 6833SOL    HW221399   3.740   5.423   0.698
 6834SOL     OW21400   6.552   5.947   5.065
 6834SOL    HW121401   6.589   5.955   5.158
 6834SOL    HW221402   6.452   5.951   5.069
 6835SOL     OW21403   3.348   0.126   3.140
 6835SOL    HW121404   3.341   0.122   3.040
 6835SOL    HW221405   3.265   0.166   3.178
 6836SOL     OW21406   1.275   4.437   6.832
 6836SOL    HW121407   1.353   4.374   6.834
 6836SOL    HW221408   1.195   4.393   6.873
 6837SOL     OW21409   5.972   2.696   1.631
 6837SOL    HW121410   6.011   2.722   1.720
 6837SOL    HW221411   5.999   2.603   1.608
 6838SOL     OW21412   2.433   4.582   6.904
 6838SOL    HW121413   2.476   4.493   6.891
 6838SOL    HW221414   2.361   4.576   6.973
 6839SOL     OW21415   0.109   2.925   5.142
 6839SOL    HW121416   0.135   2.912   5.238
 6839SOL    HW221417   0.056   3.009   5.134
 6840SOL     OW21418   3.390   6.947   4.231
 6840SOL    HW121419   3.388   6.862   4.283
 6840SOL    HW221420   3.485   6.970   4.209
 6841SOL     OW21421   5.028   5.813   1.039
 6841SOL    HW121422   5.039   5.714   1.033
 6841SOL    HW221423   5.007   5.838   1.134
 6842SOL     OW21424   6.548   3.858   3.153
 6842SOL    HW121425   6.567   3.829   3.059
 6842SOL    HW221426   6.452   3.886   3.160
 6843SOL     OW21427   4.340   3.035   1.708
 6843SOL    HW121428   4.412   3.068   1.770
 6843SOL    HW221429   4.382   3.002   1.623
 6844SOL     OW21430   2.989   6.644   3.838
 6844SOL    HW121431   3.073   6.602   3.875
 6844SOL    HW221432   3.012   6.731   3.795
 6845SOL     OW21433   3.839   4.233   0.188
 6845SOL    HW121434   3.780   4.286   0.249
 6845SOL    HW221435   3.801   4.140   0.178
 6846SOL     OW21436   3.131   3.136   3.720
 6846SOL    HW121437   3.103   3.086   3.802
 6846SOL    HW221438   3.129   3.234   3.739
 6847SOL     OW21439   5.134   3.635   0.606
 6847SOL    HW121440   5.105   3.573   0.533
 6847SOL    HW221441   5.065   3.637   0.678
 6848SOL     OW21442   1.127   6.225   4.652
 6848SOL    HW121443   1.207   6.281   4.629
 6848SOL    HW221444   1.047   6.284   4.663
 6849SOL     OW21445   2.523   0.831   4.769
 6849SOL    HW121446   2.429   0.821   4.734
 6849SOL    HW221447   2.567   0.909   4.725
 6850SOL     OW21448   0.468   1.778   1.705
 6850SOL    HW121449   0.543   1.841   1.686
 6850SOL    HW221450   0.421   1.755   1.620
 6851SOL     OW21451   1.785   5.540   0.918
 6851SOL    HW121452   1.806   5.589   1.003
 6851SOL    HW221453   1.781   5.604   0.842
 6852SOL     OW21454   4.834   4.562   2.920
 6852SOL    HW121455   4.755   4.592   2.866
 6852SOL    HW221456   4.903   4.633   2.920
 6853SOL     OW21457   6.119   4.114   4.851
 6853SOL    HW121458   6.031   4.069   4.864
 6853SOL    HW221459   6.120   4.162   4.763
 6854SOL     OW21460   6.093   0.794   6.418
 6854SOL    HW121461   5.998   0.823   6.436
 6854SOL    HW221462   6.100   0.695   6.429
 6855SOL     OW21463   2.452   6.981   3.215
 6855SOL    HW121464   2.457   7.014   3.309
 6855SOL    HW221465   2.373   6.919   3.206
 6856SOL     OW21466   0.870   4.917   5.396
 6856SOL    HW121467   0.915   4.869   5.472
 6856SOL    HW221468   0.928   4.994   5.367
 6857SOL     OW21469   5.008   0.905   6.255
 6857SOL    HW121470   5.007   0.815   6.299
 6857SOL    HW221471   4.935   0.961   6.293
 6858SOL     OW21472   3.370   3.344   6.381
 6858SOL    HW121473   3.344   3.440   6.391
 6858SOL    HW221474   3.287   3.288   6.367
 6859SOL     OW21475   4.273   6.789   1.638
 6859SOL    HW121476   4.265   6.692   1.614
 6859SOL    HW221477   4.328   6.835   1.569
 6860SOL     OW21478   4.605   3.371   0.400
 6860SOL    HW121479   4.565   3.283   0.426
 6860SOL    HW221480   4.532   3.437   0.380
 6861SOL     OW21481   6.392   3.166   0.065
 6861SOL    HW121482   6.330   3.195   0.137
 6861SOL    HW221483   6.354   3.190   7.006
 6862SOL     OW21484   2.820   4.969   4.374
 6862SOL    HW121485   2.805   4.899   4.303
 6862SOL    HW221486   2.860   4.926   4.455
 6863SOL     OW21487   1.052   3.546   3.583
 6863SOL    HW121488   0.991   3.595   3.645
 6863SOL    HW221489   1.068   3.601   3.501
 6864SOL     OW21490   3.003   5.995   5.545
 6864SOL    HW121491   2.913   6.011   5.586
 6864SOL    HW221492   3.057   5.935   5.604
 6865SOL     OW21493   0.720   2.665   5.488
 6865SOL    HW121494   0.666   2.582   5.480
 6865SOL    HW221495   0.790   2.653   5.559
 6866SOL     OW21496   0.717   4.319   2.703
 6866SOL    HW121497   0.648   4.378   2.660
 6866SOL    HW221498   0.673   4.236   2.736
 6867SOL     OW21499   3.062   5.710   3.700
 6867SOL    HW121500   3.032   5.726   3.794
 6867SOL    HW221501   3.012   5.771   3.638
 6868SOL     OW21502   2.188   6.079   6.081
 6868SOL    HW121503   2.130   6.154   6.049
 6868SOL    HW221504   2.131   6.001   6.105
 6869SOL     OW21505   0.058   2.605   3.698
 6869SOL    HW121506   6.995   2.599   3.661
 6869SOL    HW221507   0.062   2.678   3.766
 6870SOL     OW21508   4.927   3.857   3.075
 6870SOL    HW121509   4.906   3.926   3.144
 6870SOL    HW221510   4.929   3.900   2.985
 6871SOL     OW21511   4.043   5.760   2.442
 6871SOL    HW121512   4.025   5.853   2.411
 6871SOL    HW221513   4.046   5.758   2.542
 6872SOL     OW21514   3.548   4.292   1.175
 6872SOL    HW121515   3.578   4.229   1.247
 6872SOL    HW221516   3.474   4.349   1.209
 6873SOL     OW21517   4.608   5.004   5.789
 6873SOL    HW121518   4.579   4.908   5.788
 6873SOL    HW221519   4.536   5.060   5.831
 6874SOL     OW21520   1.187   1.829   6.354
 6874SOL    HW121521   1.165   1.752   6.294
 6874SOL    HW221522   1.269   1.875   6.320
 6875SOL     OW21523   3.669   6.571   4.640
 6875SOL    HW121524   3.767   6.551   4.639
 6875SOL    HW221525   3.621   6.502   4.585
 6876SOL     OW21526   2.978   0.065   5.028
 6876SOL    HW121527   2.900   0.015   4.990
 6876SOL    HW221528   2.955   0.096   5.120
 6877SOL     OW21529   1.774   4.179   0.679
 6877SOL    HW121530   1.720   4.237   0.740
 6877SOL    HW221531   1.870   4.205   0.685
 6878SOL     OW21532   2.448   1.966   5.451
 6878SOL    HW121533   2.519   1.981   5.382
 6878SOL    HW221534   2.368   2.021   5.429
 6879SOL     OW21535   6.440   1.131   6.201
 6879SOL    HW121536   6.471   1.097   6.112
 6879SOL    HW221537   6.399   1.057   6.253
 6880SOL     OW21538   1.233   5.312   4.364
 6880SOL    HW121539   1.217   5.394   4.308
 6880SOL    HW221540   1.279   5.243   4.308
 6881SOL     OW21541   5.036   6.952   1.208
 6881SOL    HW121542   4.999   0.006   1.250
 6881SOL    HW221543   5.088   6.901   1.277
 6882SOL     OW21544   2.495   5.990   5.586
 6882SOL    HW121545   2.442   6.024   5.664
 6882SOL    HW221546   2.488   5.891   5.582
 6883SOL     OW21547   2.492   0.132   1.746
 6883SOL    HW121548   2.444   0.170   1.825
 6883SOL    HW221549   2.429   0.125   1.669
 6884SOL     OW21550   1.662   5.270   3.234
 6884SOL    HW121551   1.675   5.227   3.145
 6884SOL    HW221552   1.728   5.233   3.299
 6885SOL     OW21553   4.565   4.536   4.823
 6885SOL    HW121554   4.596   4.442   4.815
 6885SOL    HW221555   4.495   4.543   4.894
 6886SOL     OW21556   5.757   6.459   0.892
 6886SOL    HW121557   5.833   6.521   0.872
 6886SOL    HW221558   5.742   6.398   0.813
 6887SOL     OW21559   6.719   0.637   4.971
 6887SOL    HW121560   6.764   0.713   5.018
 6887SOL    HW221561   6.752   0.631   4.877
 6888SOL     OW21562   6.921   6.560   3.879
 6888SOL    HW121563   6.999   6.503   3.853
 6888SOL    HW221564   6.954   6.642   3.925
 6889SOL     OW21565   2.312   4.020   6.196
 6889SOL    HW121566   2.274   4.111   6.209
 6889SOL    HW221567   2.390   4.007   6.257
 6890SOL     OW21568   1.351   0.405   1.028
 6890SOL    HW121569   1.273   0.428   0.970
 6890SOL    HW221570   1.427   0.375   0.971
 6891SOL     OW21571   5.168   5.760   5.586
 6891SOL    HW121572   5.203   5.777   5.679
 6891SOL    HW221573   5.233   5.703   5.536
 6892SOL     OW21574   2.705   2.091   4.297
 6892SOL    HW121575   2.618   2.136   4.313
 6892SOL    HW221576   2.688   1.999   4.261
 6893SOL     OW21577   5.057   0.207   0.693
 6893SOL    HW121578   4.992   0.231   0.621
 6893SOL    HW221579   5.099   0.119   0.673
 6894SOL     OW21580   5.776   4.364   4.976
 6894SOL    HW121581   5.863   4.346   5.022
 6894SOL    HW221582   5.732   4.444   5.016
 6895SOL     OW21583   5.125   4.455   4.078
 6895SOL    HW121584   5.075   4.368   4.083
 6895SOL    HW221585   5.067   4.529   4.112
 6896SOL     OW21586   5.413   2.054   2.143
 6896SOL    HW121587   5.408   2.152   2.123
 6896SOL    HW221588   5.492   2.037   2.202
 6897SOL     OW21589   4.089   1.757   1.398
 6897SOL    HW121590   4.056   1.818   1.327
 6897SOL    HW221591   4.163   1.700   1.362
 6898SOL     OW21592   4.441   0.941   1.499
 6898SOL    HW121593   4.477   1.016   1.444
 6898SOL    HW221594   4.402   0.871   1.440
 6899SOL     OW21595   5.290   4.563   5.640
 6899SOL    HW121596   5.306   4.472   5.602
 6899SOL    HW221597   5.366   4.624   5.614
 6900SOL     OW21598   4.456   0.408   5.622
 6900SOL    HW121599   4.543   0.453   5.641
 6900SOL    HW221600   4.446   0.328   5.681
 6901SOL     OW21601   1.717   0.924   0.013
 6901SOL    HW121602   1.697   0.936   6.945
 6901SOL    HW221603   1.812   0.894   0.024
 6902SOL     OW21604   6.449   5.272   2.396
 6902SOL    HW121605   6.485   5.179   2.393
 6902SOL    HW221606   6.477   5.316   2.481
 6903SOL     OW21607   6.117   4.556   6.923
 6903SOL    HW121608   6.057   4.568   7.001
 6903SOL    HW221609   6.211   4.538   6.955
 6904SOL     OW21610   0.282   1.325   2.426
 6904SOL    HW121611   0.235   1.333   2.514
 6904SOL    HW221612   0.356   1.258   2.433
 6905SOL     OW21613   3.596   4.762   0.554
 6905SOL    HW121614   3.655   4.842   0.555
 6905SOL    HW221615   3.537   4.762   0.634
 6906SOL     OW21616   5.551   6.519   2.103
 6906SOL    HW121617   5.571   6.427   2.070
 6906SOL    HW221618   5.625   6.550   2.163
 6907SOL     OW21619   3.727   1.272   1.819
 6907SOL    HW121620   3.718   1.184   1.772
 6907SOL    HW221621   3.781   1.260   1.902
 6908SOL     OW21622   5.368   6.581   6.825
 6908SOL    HW121623   5.394   6.547   6.916
 6908SOL    HW221624   5.390   6.511   6.756
 6909SOL     OW21625   2.667   2.298   6.855
 6909SOL    HW121626   2.623   2.309   6.944
 6909SOL    HW221627   2.739   2.229   6.861
 6910SOL     OW21628   3.859   1.260   0.855
 6910SOL    HW121629   3.935   1.196   0.850
 6910SOL    HW221630   3.791   1.237   0.784
 6911SOL     OW21631   3.797   6.023   5.274
 6911SOL    HW121632   3.797   6.123   5.276
 6911SOL    HW221633   3.736   5.991   5.201
 6912SOL     OW21634   3.536   5.477   1.928
 6912SOL    HW121635   3.599   5.408   1.893
 6912SOL    HW221636   3.452   5.432   1.960
 6913SOL     OW21637   4.009   6.100   5.733
 6913SOL    HW121638   3.939   6.056   5.676
 6913SOL    HW221639   4.081   6.136   5.675
 6914SOL     OW21640   0.398   4.780   0.134
 6914SOL    HW121641   0.463   4.822   0.071
 6914SOL    HW221642   0.305   4.791   0.098
 6915SOL     OW21643   0.736   0.127   6.922
 6915SOL    HW121644   0.767   0.159   7.011
 6915SOL    HW221645   0.815   0.106   6.865
 6916SOL     OW21646   6.102   0.281   6.389
 6916SOL    HW121647   6.093   0.236   6.300
 6916SOL    HW221648   6.055   0.227   6.459
 6917SOL     OW21649   4.138   6.184   6.255
 6917SOL    HW121650   4.059   6.130   6.226
 6917SOL    HW221651   4.151   6.174   6.354
 6918SOL     OW21652   1.457   2.631   3.781
 6918SOL    HW121653   1.430   2.717   3.738
 6918SOL    HW221654   1.396   2.611   3.858
 6919SOL     OW21655   1.594   6.307   3.634
 6919SOL    HW121656   1.610   6.234   3.567
 6919SOL    HW221657   1.567   6.267   3.721
 6920SOL     OW21658   6.117   6.281   4.039
 6920SOL    HW121659   6.059   6.342   4.093
 6920SOL    HW221660   6.162   6.216   4.099
 6921SOL     OW21661   1.632   5.038   2.206
 6921SOL    HW121662   1.724   5.007   2.231
 6921SOL    HW221663   1.612   5.008   2.112
 6922SOL     OW21664   1.658   6.293   1.780
 6922SOL    HW121665   1.609   6.294   1.867
 6922SOL    HW221666   1.593   6.296   1.704
 6923SOL     OW21667   5.185   5.736   4.887
 6923SOL    HW121668   5.163   5.809   4.823
 6923SOL    HW221669   5.171   5.767   4.981
 6924SOL     OW21670   5.254   6.060   2.590
 6924SOL    HW121671   5.311   6.123   2.537
 6924SOL    HW221672   5.242   5.975   2.540
 6925SOL     OW21673   4.054   5.640   1.690
 6925SOL    HW121674   4.005   5.720   1.728
 6925SOL    HW221675   3.992   5.562   1.689
 6926SOL     OW21676   2.765   4.308   5.369
 6926SOL    HW121677   2.817   4.368   5.309
 6926SOL    HW221678   2.679   4.282   5.324
 6927SOL     OW21679   4.477   3.781   0.636
 6927SOL    HW121680   4.478   3.778   0.536
 6927SOL    HW221681   4.504   3.692   0.672
 6928SOL     OW21682   6.593   0.083   6.564
 6928SOL    HW121683   6.570   7.024   6.524
 6928SOL    HW221684   6.527   0.152   6.534
 6929SOL     OW21685   4.327   6.164   1.300
 6929SOL    HW121686   4.228   6.154   1.312
 6929SOL    HW221687   4.346   6.248   1.250
 6930SOL     OW21688   0.162   1.150   3.413
 6930SOL    HW121689   0.105   1.084   3.364
 6930SOL    HW221690   0.112   1.237   3.422
 6931SOL     OW21691   2.502   0.163   0.911
 6931SOL    HW121692   2.582   0.221   0.918
 6931SOL    HW221693   2.526   0.069   0.934
 6932SOL     OW21694   3.241   2.570   0.789
 6932SOL    HW121695   3.169   2.619   0.740
 6932SOL    HW221696   3.317   2.552   0.727
 6933SOL     OW21697   3.022   5.949   5.242
 6933SOL    HW121698   2.936   5.917   5.201
 6933SOL    HW221699   3.006   5.975   5.337
 6934SOL     OW21700   5.529   4.911   0.060
 6934SOL    HW121701   5.532   4.907   6.990
 6934SOL    HW221702   5.441   4.875   0.092
 6935SOL     OW21703   4.412   5.556   3.478
 6935SOL    HW121704   4.497   5.605   3.497
 6935SOL    HW221705   4.368   5.596   3.398
 6936SOL     OW21706   1.181   4.607   0.190
 6936SOL    HW121707   1.173   4.524   0.245
 6936SOL    HW221708   1.276   4.617   0.158
 6937SOL     OW21709   4.627   6.371   6.738
 6937SOL    HW121710   4.585   6.371   6.648
 6937SOL    HW221711   4.652   6.278   6.764
 6938SOL     OW21712   6.795   2.446   5.314
 6938SOL    HW121713   6.805   2.463   5.412
 6938SOL    HW221714   6.851   2.511   5.263
 6939SOL     OW21715   6.178   4.393   2.181
 6939SOL    HW121716   6.257   4.422   2.128
 6939SOL    HW221717   6.176   4.442   2.268
 6940SOL     OW21718   4.200   0.832   4.012
 6940SOL    HW121719   4.184   0.916   3.960
 6940SOL    HW221720   4.297   0.808   4.008
 6941SOL     OW21721   3.537   2.750   5.246
 6941SOL    HW121722   3.474   2.787   5.178
 6941SOL    HW221723   3.626   2.796   5.238
 6942SOL     OW21724   6.425   1.158   6.760
 6942SOL    HW121725   6.383   1.072   6.730
 6942SOL    HW221726   6.433   1.157   6.860
 6943SOL     OW21727   5.766   4.303   0.379
 6943SOL    HW121728   5.684   4.253   0.408
 6943SOL    HW221729   5.753   4.401   0.395
 6944SOL     OW21730   2.463   0.232   0.064
 6944SOL    HW121731   2.449   0.324   0.027
 6944SOL    HW221732   2.374   0.192   0.086
 6945SOL     OW21733   2.965   1.152   6.260
 6945SOL    HW121734   2.867   1.145   6.279
 6945SOL    HW221735   2.986   1.096   6.179
 6946SOL     OW21736   5.974   4.142   3.023
 6946SOL    HW121737   5.942   4.217   3.081
 6946SOL    HW221738   6.046   4.091   3.071
 6947SOL     OW21739   4.047   6.711   0.683
 6947SOL    HW121740   3.981   6.734   0.753
 6947SOL    HW221741   4.031   6.617   0.652
 6948SOL     OW21742   3.287   1.237   6.229
 6948SOL    HW121743   3.230   1.313   6.198
 6948SOL    HW221744   3.383   1.258   6.210
 6949SOL     OW21745   5.212   7.028   2.617
 6949SOL    HW121746   5.151   0.073   2.646
 6949SOL    HW221747   5.234   6.971   2.696
 6950SOL     OW21748   3.106   2.156   3.651
 6950SOL    HW121749   3.204   2.150   3.635
 6950SOL    HW221750   3.057   2.104   3.581
 6951SOL     OW21751   3.930   4.099   5.596
 6951SOL    HW121752   3.914   4.077   5.500
 6951SOL    HW221753   3.894   4.190   5.615
 6952SOL     OW21754   0.895   3.844   6.734
 6952SOL    HW121755   0.879   3.753   6.695
 6952SOL    HW221756   0.852   3.913   6.677
 6953SOL     OW21757   5.785   2.333   4.565
 6953SOL    HW121758   5.698   2.324   4.614
 6953SOL    HW221759   5.851   2.266   4.601
 6954SOL     OW21760   0.173   4.680   2.039
 6954SOL    HW121761   0.129   4.607   1.986
 6954SOL    HW221762   0.271   4.680   2.021
 6955SOL     OW21763   6.704   1.242   3.744
 6955SOL    HW121764   6.674   1.301   3.670
 6955SOL    HW221765   6.625   1.213   3.799
 6956SOL     OW21766   3.593   4.137   1.397
 6956SOL    HW121767   3.521   4.091   1.450
 6956SOL    HW221768   3.650   4.068   1.352
 6957SOL     OW21769   1.503   4.338   0.345
 6957SOL    HW121770   1.482   4.410   0.279
 6957SOL    HW221771   1.602   4.327   0.352
 6958SOL     OW21772   2.162   3.368   5.893
 6958SOL    HW121773   2.225   3.386   5.818
 6958SOL    HW221774   2.204   3.394   5.980
 6959SOL     OW21775   4.273   1.380   5.646
 6959SOL    HW121776   4.231   1.313   5.584
 6959SOL    HW221777   4.201   1.432   5.691
 6960SOL     OW21778   1.204   6.020   6.944
 6960SOL    HW121779   1.217   5.922   6.964
 6960SOL    HW221780   1.281   6.054   6.892
 6961SOL     OW21781   5.858   0.691   3.488
 6961SOL    HW121782   5.832   0.685   3.585
 6961SOL    HW221783   5.934   0.755   3.479
 6962SOL     OW21784   3.159   2.955   0.750
 6962SOL    HW121785   3.157   3.020   0.674
 6962SOL    HW221786   3.111   2.872   0.723
 6963SOL     OW21787   6.882   5.809   1.471
 6963SOL    HW121788   6.804   5.872   1.474
 6963SOL    HW221789   6.967   5.860   1.481
 6964SOL     OW21790   4.252   5.228   5.567
 6964SOL    HW121791   4.171   5.234   5.509
 6964SOL    HW221792   4.326   5.281   5.526
 6965SOL     OW21793   5.671   0.565   5.782
 6965SOL    HW121794   5.585   0.554   5.733
 6965SOL    HW221795   5.655   0.564   5.880
 6966SOL     OW21796   4.043   2.147   3.684
 6966SOL    HW121797   4.119   2.206   3.714
 6966SOL    HW221798   4.012   2.176   3.594
 6967SOL     OW21799   2.659   2.863   6.971
 6967SOL    HW121800   2.575   2.909   6.943
 6967SOL    HW221801   2.693   2.904   0.026
 6968SOL     OW21802   3.147   0.655   3.488
 6968SOL    HW121803   3.134   0.641   3.586
 6968SOL    HW221804   3.069   0.704   3.450
 6969SOL     OW21805   3.717   3.188   1.797
 6969SOL    HW121806   3.670   3.104   1.826
 6969SOL    HW221807   3.674   3.267   1.841
 6970SOL     OW21808   4.773   3.651   0.036
 6970SOL    HW121809   4.681   3.623   0.009
 6970SOL    HW221810   4.796   3.738   7.023
 6971SOL     OW21811   5.940   2.032   2.039
 6971SOL    HW121812   5.946   2.128   2.009
 6971SOL    HW221813   5.844   2.006   2.045
 6972SOL     OW21814   4.998   6.057   4.212
 6972SOL    HW121815   5.063   6.124   4.248
 6972SOL    HW221816   4.911   6.068   4.259
 6973SOL     OW21817   1.662   4.704   2.797
 6973SOL    HW121818   1.761   4.704   2.782
 6973SOL    HW221819   1.622   4.786   2.757
 6974SOL     OW21820   2.783   3.424   5.227
 6974SOL    HW121821   2.694   3.416   5.271
 6974SOL    HW221822   2.783   3.502   5.164
 6975SOL     OW21823   1.867   6.681   5.837
 6975SOL    HW121824   1.959   6.666   5.876
 6975SOL    HW221825   1.799   6.646   5.901
 6976SOL     OW21826   1.097   5.904   1.553
 6976SOL    HW121827   1.065   5.957   1.475
 6976SOL    HW221828   1.185   5.940   1.585
 6977SOL     OW21829   5.815   2.057   1.264
 6977SOL    HW121830   5.890   2.046   1.199
 6977SOL    HW221831   5.748   2.122   1.227
 6978SOL     OW21832   5.430   3.042   4.108
 6978SOL    HW121833   5.460   3.008   4.019
 6978SOL    HW221834   5.337   3.078   4.101
 6979SOL     OW21835   0.313   3.719   4.230
 6979SOL    HW121836   0.237   3.655   4.240
 6979SOL    HW221837   0.375   3.686   4.158
 6980SOL     OW21838   5.023   2.122   5.094
 6980SOL    HW121839   5.084   2.190   5.134
 6980SOL    HW221840   4.942   2.111   5.152
 6981SOL     OW21841   3.107   3.330   6.293
 6981SOL    HW121842   3.143   3.420   6.269
 6981SOL    HW221843   3.059   3.292   6.213
 6982SOL     OW21844   1.229   0.221   4.479
 6982SOL    HW121845   1.239   0.284   4.557
 6982SOL    HW221846   1.150   0.161   4.494
 6983SOL     OW21847   5.956   0.850   3.025
 6983SOL    HW121848   5.878   0.894   3.070
 6983SOL    HW221849   5.928   0.818   2.935
 6984SOL     OW21850   2.290   1.334   6.617
 6984SOL    HW121851   2.193   1.318   6.602
 6984SOL    HW221852   2.342   1.253   6.589
 6985SOL     OW21853   4.192   6.843   4.187
 6985SOL    HW121854   4.105   6.800   4.163
 6985SOL    HW221855   4.264   6.773   4.186
 6986SOL     OW21856   2.676   6.301   5.759
 6986SOL    HW121857   2.651   6.284   5.855
 6986SOL    HW221858   2.775   6.312   5.752
 6987SOL     OW21859   6.632   3.936   6.333
 6987SOL    HW121860   6.708   3.998   6.311
 6987SOL    HW221861   6.648   3.847   6.290
 6988SOL     OW21862   5.380   2.110   6.491
 6988SOL    HW121863   5.456   2.133   6.551
 6988SOL    HW221864   5.414   2.096   6.398
 6989SOL     OW21865   2.108   3.996   4.206
 6989SOL    HW121866   2.087   4.034   4.296
 6989SOL    HW221867   2.165   4.060   4.154
 6990SOL     OW21868   4.303   3.688   1.731
 6990SOL    HW121869   4.215   3.674   1.686
 6990SOL    HW221870   4.348   3.599   1.742
 6991SOL     OW21871   4.522   4.730   5.832
 6991SOL    HW121872   4.515   4.767   5.925
 6991SOL    HW221873   4.596   4.663   5.828
 6992SOL     OW21874   6.586   6.296   5.061
 6992SOL    HW121875   6.584   6.318   5.158
 6992SOL    HW221876   6.587   6.197   5.049
 6993SOL     OW21877   0.311   1.032   2.691
 6993SOL    HW121878   0.334   1.073   2.780
 6993SOL    HW221879   0.274   0.941   2.705
 6994SOL     OW21880   1.941   2.716   0.403
 6994SOL    HW121881   1.970   2.667   0.485
 6994SOL    HW221882   2.021   2.731   0.344
 6995SOL     OW21883   0.991   5.553   3.741
 6995SOL    HW121884   1.028   5.473   3.695
 6995SOL    HW221885   1.016   5.551   3.837
 6996SOL     OW21886   1.491   6.831   5.277
 6996SOL    HW121887   1.528   6.761   5.339
 6996SOL    HW221888   1.566   6.886   5.241
 6997SOL     OW21889   4.960   4.663   4.658
 6997SOL    HW121890   4.988   4.734   4.593
 6997SOL    HW221891   4.871   4.687   4.696
 6998SOL     OW21892   2.340   2.120   1.688
 6998SOL    HW121893   2.431   2.157   1.703
 6998SOL    HW221894   2.312   2.136   1.594
 6999SOL     OW21895   5.680   2.410   6.832
 6999SOL    HW121896   5.763   2.427   6.780
 6999SOL    HW221897   5.695   2.434   6.928
 7000SOL     OW21898   6.897   0.129   1.892
 7000SOL    HW121899   6.828   0.188   1.935
 7000SOL    HW221900   6.970   0.185   1.853
 7001SOL     OW21901   3.090   1.444   6.771
 7001SOL    HW121902   3.045   1.523   6.810
 7001SOL    HW221903   3.117   1.381   6.844
 7002SOL     OW21904   2.954   5.757   1.151
 7002SOL    HW121905   2.980   5.680   1.210
 7002SOL    HW221906   2.855   5.755   1.136
 7003SOL     OW21907   1.323   6.478   6.087
 7003SOL    HW121908   1.310   6.574   6.114
 7003SOL    HW221909   1.344   6.474   5.990
 7004SOL     OW21910   2.514   3.701   6.551
 7004SOL    HW121911   2.570   3.753   6.616
 7004SOL    HW221912   2.445   3.762   6.511
 7005SOL     OW21913   6.430   0.337   5.829
 7005SOL    HW121914   6.380   0.286   5.759
 7005SOL    HW221915   6.498   0.395   5.785
 7006SOL     OW21916   5.047   5.474   4.306
 7006SOL    HW121917   4.978   5.546   4.306
 7006SOL    HW221918   5.020   5.403   4.240
 7007SOL     OW21919   5.323   4.683   1.386
 7007SOL    HW121920   5.289   4.672   1.292
 7007SOL    HW221921   5.399   4.748   1.385
 7008SOL     OW21922   0.391   6.523   4.328
 7008SOL    HW121923   0.437   6.612   4.335
 7008SOL    HW221924   0.330   6.524   4.249
 7009SOL     OW21925   6.628   3.768   1.506
 7009SOL    HW121926   6.610   3.860   1.541
 7009SOL    HW221927   6.704   3.772   1.440
 7010SOL     OW21928   4.991   4.651   5.665
 7010SOL    HW121929   4.968   4.738   5.623
 7010SOL    HW221930   5.087   4.629   5.646
 7011SOL     OW21931   1.574   0.400   6.031
 7011SOL    HW121932   1.573   0.302   6.051
 7011SOL    HW221933   1.535   0.451   6.108
 7012SOL     OW21934   7.013   0.875   1.836
 7012SOL    HW121935   6.965   0.958   1.865
 7012SOL    HW221936   6.984   0.798   1.893
 7013SOL     OW21937   6.268   1.750   1.026
 7013SOL    HW121938   6.215   1.693   1.088
 7013SOL    HW221939   6.314   1.822   1.078
 7014SOL     OW21940   2.702   5.459   1.287
 7014SOL    HW121941   2.647   5.492   1.210
 7014SOL    HW221942   2.695   5.359   1.291
 7015SOL     OW21943   4.690   1.872   2.659
 7015SOL    HW121944   4.673   1.892   2.563
 7015SOL    HW221945   4.762   1.933   2.694
 7016SOL     OW21946   5.402   4.466   0.173
 7016SOL    HW121947   5.393   4.561   0.144
 7016SOL    HW221948   5.442   4.462   0.265
 7017SOL     OW21949   5.088   2.627   5.631
 7017SOL    HW121950   5.125   2.618   5.539
 7017SOL    HW221951   5.060   2.538   5.665
 7018SOL     OW21952   0.311   4.586   3.811
 7018SOL    HW121953   0.292   4.683   3.796
 7018SOL    HW221954   0.378   4.576   3.884
 7019SOL     OW21955   6.403   6.501   2.403
 7019SOL    HW121956   6.432   6.579   2.348
 7019SOL    HW221957   6.304   6.503   2.416
 7020SOL     OW21958   6.970   5.653   0.223
 7020SOL    HW121959   6.937   5.722   0.158
 7020SOL    HW221960   6.896   5.590   0.245
 7021SOL     OW21961   3.019   6.869   5.296
 7021SOL    HW121962   2.955   6.852   5.371
 7021SOL    HW221963   2.988   6.821   5.214
 7022SOL     OW21964   3.789   4.719   5.868
 7022SOL    HW121965   3.819   4.687   5.778
 7022SOL    HW221966   3.736   4.804   5.858
 7023SOL     OW21967   4.878   4.983   2.311
 7023SOL    HW121968   4.872   4.924   2.391
 7023SOL    HW221969   4.924   4.935   2.236
 7024SOL     OW21970   6.366   0.002   1.891
 7024SOL    HW121971   6.404   6.973   1.962
 7024SOL    HW221972   6.344   6.977   1.810
 7025SOL     OW21973   3.116   0.201   1.354
 7025SOL    HW121974   3.122   0.253   1.269
 7025SOL    HW221975   3.027   0.216   1.396
 7026SOL     OW21976   4.152   2.363   0.488
 7026SOL    HW121977   4.224   2.342   0.553
 7026SOL    HW221978   4.110   2.451   0.510
 7027SOL     OW21979   5.603   6.171   5.008
 7027SOL    HW121980   5.656   6.189   4.926
 7027SOL    HW221981   5.601   6.073   5.026
 7028SOL     OW21982   3.363   0.930   5.004
 7028SOL    HW121983   3.269   0.963   5.007
 7028SOL    HW221984   3.367   0.846   4.949
 7029SOL     OW21985   3.654   0.015   4.141
 7029SOL    HW121986   3.703   6.965   4.104
 7029SOL    HW221987   3.709   0.097   4.126
 7030SOL     OW21988   0.983   3.815   3.488
 7030SOL    HW121989   1.056   3.862   3.538
 7030SOL    HW221990   1.014   3.795   3.395
 7031SOL     OW21991   2.120   0.650   4.089
 7031SOL    HW121992   2.108   0.556   4.059
 7031SOL    HW221993   2.071   0.711   4.027
 7032SOL     OW21994   6.220   2.489   3.493
 7032SOL    HW121995   6.287   2.421   3.465
 7032SOL    HW221996   6.260   2.580   3.487
 7033SOL     OW21997   6.782   0.856   5.112
 7033SOL    HW121998   6.720   0.935   5.112
 7033SOL    HW221999   6.789   0.820   5.206
 7034SOL     OW22000   6.781   4.837   4.125
 7034SOL    HW122001   6.864   4.795   4.088
 7034SOL    HW222002   6.799   4.875   4.215
 7035SOL     OW22003   0.180   4.426   1.139
 7035SOL    HW122004   0.147   4.514   1.172
 7035SOL    HW222005   0.122   4.353   1.175
 7036SOL     OW22006   6.076   5.524   1.043
 7036SOL    HW122007   6.141   5.525   1.119
 7036SOL    HW222008   6.124   5.499   0.959
 7037SOL     OW22009   1.453   0.089   6.879
 7037SOL    HW122010   1.466   0.013   6.943
 7037SOL    HW222011   1.390   0.156   6.919
 7038SOL     OW22012   2.579   2.554   3.590
 7038SOL    HW122013   2.567   2.498   3.508
 7038SOL    HW222014   2.638   2.507   3.655
 7039SOL     OW22015   4.203   1.483   6.195
 7039SOL    HW122016   4.108   1.460   6.219
 7039SOL    HW222017   4.223   1.447   6.104
 7040SOL     OW22018   6.496   2.138   6.569
 7040SOL    HW122019   6.485   2.041   6.550
 7040SOL    HW222020   6.512   2.152   6.667
 7041SOL     OW22021   2.265   1.265   3.228
 7041SOL    HW122022   2.206   1.257   3.309
 7041SOL    HW222023   2.223   1.327   3.162
 7042SOL     OW22024   2.283   1.074   0.141
 7042SOL    HW122025   2.295   1.008   0.216
 7042SOL    HW222026   2.189   1.108   0.142
 7043SOL     OW22027   1.820   2.688   1.156
 7043SOL    HW122028   1.769   2.764   1.116
 7043SOL    HW222029   1.886   2.652   1.090
 7044SOL     OW22030   0.039   5.828   0.707
 7044SOL    HW122031   0.000   5.784   0.626
 7044SOL    HW222032   6.997   5.879   0.755
 7045SOL     OW22033   0.765   4.356   0.182
 7045SOL    HW122034   0.700   4.432   0.184
 7045SOL    HW222035   0.807   4.347   0.273
 7046SOL     OW22036   2.326   1.942   3.348
 7046SOL    HW122037   2.244   1.949   3.291
 7046SOL    HW222038   2.306   1.888   3.430
 7047SOL     OW22039   1.216   6.797   3.345
 7047SOL    HW122040   1.268   6.766   3.266
 7047SOL    HW222041   1.166   6.719   3.385
 7048SOL     OW22042   0.653   5.223   6.869
 7048SOL    HW122043   0.657   5.186   6.961
 7048SOL    HW222044   0.732   5.282   6.853
 7049SOL     OW22045   2.695   1.341   6.365
 7049SOL    HW122046   2.671   1.294   6.280
 7049SOL    HW222047   2.713   1.273   6.436
 7050SOL     OW22048   3.236   3.303   5.933
 7050SOL    HW122049   3.294   3.240   5.984
 7050SOL    HW222050   3.149   3.316   5.982
 7051SOL     OW22051   5.382   6.046   1.864
 7051SOL    HW122052   5.402   5.999   1.778
 7051SOL    HW222053   5.356   6.140   1.846
 7052SOL     OW22054   6.347   1.044   4.469
 7052SOL    HW122055   6.292   1.127   4.481
 7052SOL    HW222056   6.286   0.965   4.463
 7053SOL     OW22057   6.303   3.552   6.445
 7053SOL    HW122058   6.312   3.651   6.436
 7053SOL    HW222059   6.208   3.528   6.465
 7054SOL     OW22060   5.706   2.706   2.100
 7054SOL    HW122061   5.730   2.679   2.006
 7054SOL    HW222062   5.729   2.631   2.162
 7055SOL     OW22063   4.030   1.626   3.183
 7055SOL    HW122064   3.969   1.672   3.246
 7055SOL    HW222065   4.040   1.530   3.209
 7056SOL     OW22066   4.751   6.127   4.312
 7056SOL    HW122067   4.706   6.048   4.355
 7056SOL    HW222068   4.682   6.188   4.274
 7057SOL     OW22069   5.410   6.090   3.028
 7057SOL    HW122070   5.326   6.075   3.081
 7057SOL    HW222071   5.410   6.183   2.990
 7058SOL     OW22072   0.605   4.055   4.706
 7058SOL    HW122073   0.510   4.079   4.682
 7058SOL    HW222074   0.657   4.039   4.622
 7059SOL     OW22075   1.632   0.374   2.114
 7059SOL    HW122076   1.583   0.403   2.032
 7059SOL    HW222077   1.612   0.278   2.132
 7060SOL     OW22078   4.084   0.250   1.341
 7060SOL    HW122079   4.054   0.332   1.291
 7060SOL    HW222080   4.167   0.214   1.300
 7061SOL     OW22081   0.675   1.272   2.990
 7061SOL    HW122082   0.664   1.237   3.083
 7061SOL    HW222083   0.749   1.339   2.987
 7062SOL     OW22084   6.338   0.887   5.634
 7062SOL    HW122085   6.285   0.926   5.710
 7062SOL    HW222086   6.335   0.949   5.556
 7063SOL     OW22087   1.725   6.829   1.971
 7063SOL    HW122088   1.734   6.910   1.913
 7063SOL    HW222089   1.702   6.857   2.064
 7064SOL     OW22090   3.160   3.189   0.956
 7064SOL    HW122091   3.163   3.096   0.918
 7064SOL    HW222092   3.174   3.184   1.055
 7065SOL     OW22093   3.223   3.708   2.803
 7065SOL    HW122094   3.128   3.685   2.824
 7065SOL    HW222095   3.229   3.805   2.778
 7066SOL     OW22096   2.528   4.565   1.717
 7066SOL    HW122097   2.428   4.573   1.718
 7066SOL    HW222098   2.568   4.642   1.767
 7067SOL     OW22099   1.705   4.000   4.621
 7067SOL    HW122100   1.664   3.938   4.687
 7067SOL    HW222101   1.686   3.969   4.528
 7068SOL     OW22102   0.236   0.734   3.361
 7068SOL    HW122103   0.321   0.778   3.388
 7068SOL    HW222104   0.254   0.639   3.334
 7069SOL     OW22105   1.464   3.722   5.424
 7069SOL    HW122106   1.404   3.706   5.503
 7069SOL    HW222107   1.532   3.648   5.419
 7070SOL     OW22108   5.716   5.686   2.950
 7070SOL    HW122109   5.680   5.638   2.869
 7070SOL    HW222110   5.643   5.741   2.991
 7071SOL     OW22111   1.613   6.663   5.439
 7071SOL    HW122112   1.648   6.569   5.434
 7071SOL    HW222113   1.673   6.717   5.498
 7072SOL     OW22114   0.163   6.931   6.490
 7072SOL    HW122115   0.235   6.962   6.553
 7072SOL    HW222116   0.133   7.008   6.433
 7073SOL     OW22117   1.739   2.530   0.360
 7073SOL    HW122118   1.789   2.473   0.294
 7073SOL    HW222119   1.789   2.615   0.375
 7074SOL     OW22120   3.934   1.421   6.258
 7074SOL    HW122121   3.852   1.444   6.311
 7074SOL    HW222122   3.916   1.339   6.204
 7075SOL     OW22123   0.456   6.420   3.307
 7075SOL    HW122124   0.367   6.462   3.293
 7075SOL    HW222125   0.470   6.405   3.405
 7076SOL     OW22126   2.945   1.308   5.935
 7076SOL    HW122127   2.951   1.340   6.030
 7076SOL    HW222128   3.037   1.308   5.895
 7077SOL     OW22129   0.958   5.636   6.478
 7077SOL    HW122130   0.952   5.713   6.542
 7077SOL    HW222131   0.902   5.655   6.397
 7078SOL     OW22132   0.348   0.458   1.310
 7078SOL    HW122133   0.371   0.377   1.255
 7078SOL    HW222134   0.366   0.541   1.257
 7079SOL     OW22135   5.116   6.695   4.079
 7079SOL    HW122136   5.212   6.722   4.080
 7079SOL    HW222137   5.064   6.758   4.022
 7080SOL     OW22138   6.108   0.870   3.442
 7080SOL    HW122139   6.139   0.797   3.381
 7080SOL    HW222140   6.175   0.945   3.440
 7081SOL     OW22141   4.417   0.883   4.554
 7081SOL    HW122142   4.381   0.960   4.608
 7081SOL    HW222143   4.413   0.906   4.457
 7082SOL     OW22144   5.823   1.445   0.512
 7082SOL    HW122145   5.781   1.385   0.443
 7082SOL    HW222146   5.878   1.515   0.466
 7083SOL     OW22147   4.595   0.402   4.837
 7083SOL    HW122148   4.522   0.425   4.901
 7083SOL    HW222149   4.658   0.480   4.829
 7084SOL     OW22150   6.474   5.298   0.122
 7084SOL    HW122151   6.386   5.317   0.165
 7084SOL    HW222152   6.470   5.210   0.075
 7085SOL     OW22153   5.276   1.777   1.001
 7085SOL    HW122154   5.293   1.769   0.903
 7085SOL    HW222155   5.308   1.694   1.047
 7086SOL     OW22156   1.209   0.824   5.962
 7086SOL    HW122157   1.303   0.789   5.957
 7086SOL    HW222158   1.207   0.907   6.017
 7087SOL     OW22159   2.448   2.629   4.609
 7087SOL    HW122160   2.370   2.628   4.547
 7087SOL    HW222161   2.507   2.707   4.587
 7088SOL     OW22162   0.160   1.101   4.792
 7088SOL    HW122163   0.092   1.162   4.832
 7088SOL    HW222164   0.121   1.010   4.780
 7089SOL     OW22165   2.771   2.026   2.081
 7089SOL    HW122166   2.711   2.029   2.161
 7089SOL    HW222167   2.816   2.115   2.070
 7090SOL     OW22168   3.653   0.914   5.053
 7090SOL    HW122169   3.572   0.860   5.032
 7090SOL    HW222170   3.630   0.986   5.118
 7091SOL     OW22171   6.634   5.030   6.830
 7091SOL    HW122172   6.565   4.958   6.840
 7091SOL    HW222173   6.704   5.019   6.901
 7092SOL     OW22174   3.429   2.272   0.910
 7092SOL    HW122175   3.474   2.186   0.887
 7092SOL    HW222176   3.451   2.296   1.005
 7093SOL     OW22177   3.950   3.955   6.114
 7093SOL    HW122178   3.926   3.858   6.111
 7093SOL    HW222179   3.932   3.997   6.024
 7094SOL     OW22180   6.128   1.222   6.271
 7094SOL    HW122181   6.040   1.198   6.311
 7094SOL    HW222182   6.198   1.160   6.305
 7095SOL     OW22183   1.259   4.457   1.684
 7095SOL    HW122184   1.198   4.420   1.753
 7095SOL    HW222185   1.216   4.451   1.594
 7096SOL     OW22186   3.485   0.147   3.360
 7096SOL    HW122187   3.418   0.146   3.286
 7096SOL    HW222188   3.438   0.164   3.447
 7097SOL     OW22189   1.906   1.639   1.542
 7097SOL    HW122190   1.950   1.729   1.542
 7097SOL    HW222191   1.838   1.635   1.470
 7098SOL     OW22192   1.036   0.704   0.007
 7098SOL    HW122193   1.065   0.635   0.074
 7098SOL    HW222194   1.116   0.749   6.998
 7099SOL     OW22195   0.079   1.721   4.387
 7099SOL    HW122196   0.031   1.757   4.467
 7099SOL    HW222197   0.056   1.625   4.375
 7100SOL     OW22198   5.491   2.503   0.907
 7100SOL    HW122199   5.546   2.466   0.832
 7100SOL    HW222200   5.550   2.518   0.987
 7101SOL     OW22201   1.542   0.532   5.059
 7101SOL    HW122202   1.545   0.630   5.036
 7101SOL    HW222203   1.449   0.506   5.083
 7102SOL     OW22204   4.509   2.751   6.987
 7102SOL    HW122205   4.514   2.850   6.970
 7102SOL    HW222206   4.442   2.733   0.029
 7103SOL     OW22207   2.354   6.708   6.599
 7103SOL    HW122208   2.371   6.793   6.650
 7103SOL    HW222209   2.413   6.705   6.519
 7104SOL     OW22210   0.083   3.428   1.382
 7104SOL    HW122211   0.070   3.332   1.408
 7104SOL    HW222212   0.164   3.464   1.428
 7105SOL     OW22213   2.025   2.480   4.390
 7105SOL    HW122214   2.094   2.542   4.352
 7105SOL    HW222215   2.068   2.392   4.411
 7106SOL     OW22216   2.990   2.964   5.285
 7106SOL    HW122217   2.901   2.983   5.244
 7106SOL    HW222218   2.977   2.925   5.375
 7107SOL     OW22219   1.877   1.966   0.206
 7107SOL    HW122220   1.932   2.039   0.246
 7107SOL    HW222221   1.934   1.885   0.193
 7108SOL     OW22222   3.887   6.595   2.097
 7108SOL    HW122223   3.893   6.689   2.131
 7108SOL    HW222224   3.827   6.542   2.157
 7109SOL     OW22225   5.015   5.616   6.967
 7109SOL    HW122226   4.983   5.648   0.027
 7109SOL    HW222227   4.937   5.589   6.912
 7110SOL     OW22228   4.168   5.299   4.183
 7110SOL    HW122229   4.093   5.254   4.232
 7110SOL    HW222230   4.229   5.230   4.144
 7111SOL     OW22231   1.499   3.124   3.033
 7111SOL    HW122232   1.493   3.220   3.060
 7111SOL    HW222233   1.418   3.075   3.065
 7112SOL     OW22234   2.004   6.057   2.908
 7112SOL    HW122235   1.959   6.142   2.937
 7112SOL    HW222236   2.056   6.075   2.824
 7113SOL     OW22237   3.675   4.028   6.184
 7113SOL    HW122238   3.654   3.955   6.119
 7113SOL    HW222239   3.764   4.011   6.226
 7114SOL     OW22240   3.782   6.462   0.656
 7114SOL    HW122241   3.769   6.535   0.589
 7114SOL    HW222242   3.879   6.438   0.661
 7115SOL     OW22243   3.760   2.392   1.350
 7115SOL    HW122244   3.787   2.369   1.443
 7115SOL    HW222245   3.830   2.449   1.308
 7116SOL     OW22246   6.404   4.417   4.089
 7116SOL    HW122247   6.446   4.484   4.150
 7116SOL    HW222248   6.460   4.408   4.007
 7117SOL     OW22249   5.344   0.489   2.625
 7117SOL    HW122250   5.404   0.475   2.705
 7117SOL    HW222251   5.343   0.407   2.569
 7118SOL     OW22252   6.685   3.976   3.818
 7118SOL    HW122253   6.766   4.034   3.813
 7118SOL    HW222254   6.702   3.902   3.883
 7119SOL     OW22255   0.592   2.139   2.305
 7119SOL    HW122256   0.606   2.048   2.266
 7119SOL    HW222257   0.498   2.168   2.289
 7120SOL     OW22258   4.657   6.788   4.269
 7120SOL    HW122259   4.629   6.724   4.197
 7120SOL    HW222260   4.580   6.802   4.332
 7121SOL     OW22261   1.697   6.398   0.791
 7121SOL    HW122262   1.675   6.444   0.877
 7121SOL    HW222263   1.797   6.394   0.780
 7122SOL     OW22264   0.070   6.179   0.199
 7122SOL    HW122265   0.153   6.230   0.218
 7122SOL    HW222266   0.094   6.088   0.164
 7123SOL     OW22267   3.376   4.724   0.789
 7123SOL    HW122268   3.415   4.652   0.846
 7123SOL    HW222269   3.312   4.684   0.723
 7124SOL     OW22270   0.463   4.984   6.971
 7124SOL    HW122271   0.558   4.978   6.942
 7124SOL    HW222272   0.438   5.080   6.984
 7125SOL     OW22273   1.472   5.563   3.556
 7125SOL    HW122274   1.507   5.594   3.468
 7125SOL    HW222275   1.452   5.642   3.614
 7126SOL     OW22276   1.791   4.401   1.236
 7126SOL    HW122277   1.886   4.417   1.261
 7126SOL    HW222278   1.768   4.453   1.154
 7127SOL     OW22279   2.543   0.451   5.064
 7127SOL    HW122280   2.590   0.412   5.143
 7127SOL    HW222281   2.556   0.550   5.063
 7128SOL     OW22282   3.089   3.961   2.373
 7128SOL    HW122283   3.106   3.865   2.353
 7128SOL    HW222284   3.134   4.018   2.305
 7129SOL     OW22285   3.593   1.793   0.375
 7129SOL    HW122286   3.559   1.874   0.329
 7129SOL    HW222287   3.691   1.803   0.394
 7130SOL     OW22288   1.411   0.611   2.940
 7130SOL    HW122289   1.480   0.683   2.948
 7130SOL    HW222290   1.342   0.624   3.011
 7131SOL     OW22291   2.862   1.172   3.036
 7131SOL    HW122292   2.848   1.262   2.996
 7131SOL    HW222293   2.886   1.181   3.133
 7132SOL     OW22294   3.273   4.149   2.257
 7132SOL    HW122295   3.223   4.233   2.235
 7132SOL    HW222296   3.336   4.167   2.333
 7133SOL     OW22297   6.294   4.033   2.010
 7133SOL    HW122298   6.267   4.053   2.105
 7133SOL    HW222299   6.232   4.080   1.948
 7134SOL     OW22300   4.569   4.605   2.747
 7134SOL    HW122301   4.501   4.571   2.683
 7134SOL    HW222302   4.564   4.705   2.751
 7135SOL     OW22303   6.815   1.867   5.956
 7135SOL    HW122304   6.745   1.802   5.926
 7135SOL    HW222305   6.772   1.954   5.977
 7136SOL     OW22306   2.330   2.150   6.790
 7136SOL    HW122307   2.232   2.145   6.770
 7136SOL    HW222308   2.367   2.238   6.759
 7137SOL     OW22309   5.400   2.134   5.252
 7137SOL    HW122310   5.311   2.169   5.280
 7137SOL    HW222311   5.431   2.182   5.170
 7138SOL     OW22312   2.185   2.304   6.401
 7138SOL    HW122313   2.090   2.315   6.430
 7138SOL    HW222314   2.196   2.215   6.356
 7139SOL     OW22315   1.997   1.428   0.036
 7139SOL    HW122316   2.096   1.437   0.046
 7139SOL    HW222317   1.960   1.377   0.114
 7140SOL     OW22318   6.538   4.438   4.529
 7140SOL    HW122319   6.594   4.362   4.496
 7140SOL    HW222320   6.545   4.515   4.465
 7141SOL     OW22321   1.008   0.790   1.827
 7141SOL    HW122322   1.028   0.733   1.906
 7141SOL    HW222323   0.953   0.739   1.761
 7142SOL     OW22324   3.490   6.679   4.107
 7142SOL    HW122325   3.488   6.677   4.207
 7142SOL    HW222326   3.400   6.703   4.072
 7143SOL     OW22327   1.875   3.044   4.056
 7143SOL    HW122328   1.860   2.960   4.108
 7143SOL    HW222329   1.891   3.021   3.960
 7144SOL     OW22330   1.933   3.307   3.596
 7144SOL    HW122331   1.965   3.365   3.521
 7144SOL    HW222332   1.999   3.233   3.610
 7145SOL     OW22333   3.171   5.777   6.888
 7145SOL    HW122334   3.162   5.678   6.901
 7145SOL    HW222335   3.268   5.801   6.880
 7146SOL     OW22336   3.916   5.047   1.426
 7146SOL    HW122337   3.920   5.143   1.453
 7146SOL    HW222338   3.934   4.989   1.505
 7147SOL     OW22339   0.658   0.955   3.931
 7147SOL    HW122340   0.744   1.001   3.908
 7147SOL    HW222341   0.675   0.858   3.945
 7148SOL     OW22342   6.629   1.878   0.789
 7148SOL    HW122343   6.660   1.959   0.839
 7148SOL    HW222344   6.572   1.907   0.712
 7149SOL     OW22345   1.164   0.783   4.586
 7149SOL    HW122346   1.225   0.830   4.650
 7149SOL    HW222347   1.107   0.849   4.539
 7150SOL     OW22348   6.927   3.423   5.975
 7150SOL    HW122349   6.953   3.444   6.069
 7150SOL    HW222350   6.872   3.498   5.938
 7151SOL     OW22351   1.199   6.860   0.627
 7151SOL    HW122352   1.251   6.802   0.564
 7151SOL    HW222353   1.258   6.888   0.703
 7152SOL     OW22354   0.729   2.445   4.423
 7152SOL    HW122355   0.674   2.378   4.474
 7152SOL    HW222356   0.745   2.525   4.481
 7153SOL     OW22357   4.585   1.927   3.262
 7153SOL    HW122358   4.614   1.863   3.190
 7153SOL    HW222359   4.549   1.875   3.340
 7154SOL     OW22360   3.773   0.441   4.365
 7154SOL    HW122361   3.790   0.451   4.463
 7154SOL    HW222362   3.796   0.527   4.318
 7155SOL     OW22363   2.083   1.726   3.957
 7155SOL    HW122364   2.160   1.686   3.907
 7155SOL    HW222365   2.118   1.781   4.033
 7156SOL     OW22366   2.198   5.660   5.383
 7156SOL    HW122367   2.104   5.688   5.401
 7156SOL    HW222368   2.226   5.693   5.293
 7157SOL     OW22369   5.883   4.087   0.844
 7157SOL    HW122370   5.827   4.157   0.887
 7157SOL    HW222371   5.876   4.002   0.896
 7158SOL     OW22372   3.591   0.385   3.093
 7158SOL    HW122373   3.619   0.360   3.185
 7158SOL    HW222374   3.497   0.419   3.094
 7159SOL     OW22375   1.445   6.057   6.824
 7159SOL    HW122376   1.467   5.959   6.826
 7159SOL    HW222377   1.511   6.106   6.881
 7160SOL     OW22378   0.733   0.177   2.278
 7160SOL    HW122379   0.653   0.232   2.302
 7160SOL    HW222380   0.807   0.238   2.247
 7161SOL     OW22381   3.215   3.931   4.983
 7161SOL    HW122382   3.229   3.994   5.060
 7161SOL    HW222383   3.191   3.841   5.018
 7162SOL     OW22384   3.672   5.000   4.084
 7162SOL    HW122385   3.600   4.935   4.108
 7162SOL    HW222386   3.645   5.091   4.116
 7163SOL     OW22387   1.439   6.564   4.019
 7163SOL    HW122388   1.422   6.473   3.981
 7163SOL    HW222389   1.513   6.608   3.969
 7164SOL     OW22390   3.588   1.300   4.151
 7164SOL    HW122391   3.526   1.349   4.214
 7164SOL    HW222392   3.667   1.266   4.202
 7165SOL     OW22393   4.489   5.083   2.196
 7165SOL    HW122394   4.399   5.071   2.154
 7165SOL    HW222395   4.558   5.090   2.125
 7166SOL     OW22396   3.087   6.667   2.511
 7166SOL    HW122397   3.034   6.748   2.484
 7166SOL    HW222398   3.170   6.696   2.559
 7167SOL     OW22399   5.500   2.606   0.510
 7167SOL    HW122400   5.524   2.539   0.580
 7167SOL    HW222401   5.583   2.632   0.460
 7168SOL     OW22402   6.750   1.475   3.954
 7168SOL    HW122403   6.760   1.444   3.860
 7168SOL    HW222404   6.754   1.575   3.957
 7169SOL     OW22405   2.112   2.492   0.194
 7169SOL    HW122406   2.013   2.486   0.204
 7169SOL    HW222407   2.139   2.587   0.182
 7170SOL     OW22408   5.029   3.831   4.575
 7170SOL    HW122409   4.951   3.824   4.637
 7170SOL    HW222410   4.999   3.814   4.482
 7171SOL     OW22411   3.533   3.672   5.333
 7171SOL    HW122412   3.443   3.664   5.375
 7171SOL    HW222413   3.582   3.749   5.374
 7172SOL     OW22414   5.315   5.456   1.553
 7172SOL    HW122415   5.358   5.536   1.594
 7172SOL    HW222416   5.225   5.441   1.595
 7173SOL     OW22417   6.394   6.767   4.316
 7173SOL    HW122418   6.442   6.844   4.357
 7173SOL    HW222419   6.460   6.701   4.280
 7174SOL     OW22420   0.977   6.245   5.651
 7174SOL    HW122421   1.002   6.245   5.554
 7174SOL    HW222422   0.895   6.302   5.664
 7175SOL     OW22423   5.849   3.580   5.550
 7175SOL    HW122424   5.937   3.620   5.525
 7175SOL    HW222425   5.863   3.486   5.580
 7176SOL     OW22426   1.632   3.523   1.274
 7176SOL    HW122427   1.617   3.436   1.227
 7176SOL    HW222428   1.583   3.522   1.361
 7177SOL     OW22429   6.986   4.834   1.296
 7177SOL    HW122430   7.023   4.913   1.344
 7177SOL    HW222431   6.901   4.805   1.340
 7178SOL     OW22432   6.795   0.247   6.835
 7178SOL    HW122433   6.728   0.173   6.839
 7178SOL    HW222434   6.758   0.324   6.783
 7179SOL     OW22435   0.840   3.764   5.821
 7179SOL    HW122436   0.918   3.708   5.794
 7179SOL    HW222437   0.772   3.707   5.867
 7180SOL     OW22438   0.190   0.362   2.028
 7180SOL    HW122439   0.239   0.293   1.975
 7180SOL    HW222440   0.098   0.375   1.990
 7181SOL     OW22441   5.262   6.649   2.373
 7181SOL    HW122442   5.173   6.625   2.410
 7181SOL    HW222443   5.332   6.633   2.443
 7182SOL     OW22444   3.297   3.679   6.017
 7182SOL    HW122445   3.348   3.604   6.061
 7182SOL    HW222446   3.257   3.737   6.087
 7183SOL     OW22447   2.306   2.828   2.682
 7183SOL    HW122448   2.361   2.745   2.687
 7183SOL    HW222449   2.287   2.849   2.586
 7184SOL     OW22450   2.726   5.519   2.946
 7184SOL    HW122451   2.796   5.536   3.015
 7184SOL    HW222452   2.734   5.425   2.912
 7185SOL     OW22453   5.492   2.195   6.240
 7185SOL    HW122454   5.569   2.139   6.211
 7185SOL    HW222455   5.518   2.292   6.235
 7186SOL     OW22456   1.248   6.893   4.840
 7186SOL    HW122457   1.309   6.865   4.766
 7186SOL    HW222458   1.154   6.866   4.818
 7187SOL     OW22459   1.621   4.748   1.210
 7187SOL    HW122460   1.708   4.768   1.254
 7187SOL    HW222461   1.546   4.776   1.270
 7188SOL     OW22462   4.126   0.100   1.923
 7188SOL    HW122463   4.065   0.090   1.845
 7188SOL    HW222464   4.155   0.195   1.931
 7189SOL     OW22465   6.363   0.920   5.982
 7189SOL    HW122466   6.317   0.994   5.934
 7189SOL    HW222467   6.298   0.847   6.003
 7190SOL     OW22468   4.858   4.863   1.919
 7190SOL    HW122469   4.930   4.928   1.942
 7190SOL    HW222470   4.771   4.893   1.959
 7191SOL     OW22471   0.666   3.766   1.576
 7191SOL    HW122472   0.657   3.760   1.477
 7191SOL    HW222473   0.763   3.777   1.600
 7192SOL     OW22474   3.331   4.300   6.091
 7192SOL    HW122475   3.360   4.362   6.018
 7192SOL    HW222476   3.242   4.328   6.126
 7193SOL     OW22477   6.016   2.282   4.831
 7193SOL    HW122478   5.988   2.374   4.858
 7193SOL    HW222479   6.059   2.236   4.908
 7194SOL     OW22480   3.467   0.839   1.797
 7194SOL    HW122481   3.417   0.814   1.880
 7194SOL    HW222482   3.480   0.938   1.794
 7195SOL     OW22483   0.737   0.067   3.692
 7195SOL    HW122484   0.812   0.125   3.660
 7195SOL    HW222485   0.653   0.090   3.643
 7196SOL     OW22486   3.866   3.946   1.536
 7196SOL    HW122487   3.816   3.928   1.451
 7196SOL    HW222488   3.801   3.960   1.610
 7197SOL     OW22489   2.176   0.721   3.642
 7197SOL    HW122490   2.136   0.801   3.597
 7197SOL    HW222491   2.257   0.749   3.694
 7198SOL     OW22492   0.044   6.615   5.521
 7198SOL    HW122493   0.137   6.633   5.489
 7198SOL    HW222494   0.006   6.537   5.472
 7199SOL     OW22495   6.447   5.967   1.749
 7199SOL    HW122496   6.357   5.927   1.766
 7199SOL    HW222497   6.483   6.008   1.833
 7200SOL     OW22498   0.948   1.834   2.419
 7200SOL    HW122499   1.046   1.815   2.414
 7200SOL    HW222500   0.912   1.801   2.506
 7201SOL     OW22501   1.610   5.005   2.946
 7201SOL    HW122502   1.707   4.985   2.935
 7201SOL    HW222503   1.556   4.936   2.898
 7202SOL     OW22504   2.055   6.883   5.458
 7202SOL    HW122505   2.129   6.942   5.489
 7202SOL    HW222506   1.984   6.938   5.414
 7203SOL     OW22507   5.445   0.691   6.621
 7203SOL    HW122508   5.433   0.592   6.611
 7203SOL    HW222509   5.534   0.710   6.661
 7204SOL     OW22510   0.817   3.384   2.560
 7204SOL    HW122511   0.905   3.422   2.531
 7204SOL    HW222512   0.764   3.455   2.606
 7205SOL     OW22513   1.442   4.191   1.461
 7205SOL    HW122514   1.413   4.185   1.366
 7205SOL    HW222515   1.393   4.124   1.516
 7206SOL     OW22516   6.922   0.417   1.984
 7206SOL    HW122517   6.871   0.353   2.042
 7206SOL    HW222518   6.889   0.409   1.890
 7207SOL     OW22519   3.916   6.806   1.387
 7207SOL    HW122520   3.966   6.784   1.471
 7207SOL    HW222521   3.858   6.886   1.403
 7208SOL     OW22522   2.741   6.996   4.950
 7208SOL    HW122523   2.711   0.038   5.013
 7208SOL    HW222524   2.661   6.944   4.920
 7209SOL     OW22525   2.345   3.643   5.337
 7209SOL    HW122526   2.394   3.691   5.410
 7209SOL    HW222527   2.315   3.710   5.268
 7210SOL     OW22528   4.468   0.985   4.297
 7210SOL    HW122529   4.377   0.951   4.276
 7210SOL    HW222530   4.501   1.042   4.222
 7211SOL     OW22531   0.242   5.495   2.996
 7211SOL    HW122532   0.214   5.470   2.904
 7211SOL    HW222533   0.170   5.549   3.040
 7212SOL     OW22534   5.272   6.385   2.671
 7212SOL    HW122535   5.338   6.377   2.596
 7212SOL    HW222536   5.187   6.338   2.645
 7213SOL     OW22537   5.752   6.334   5.560
 7213SOL    HW122538   5.762   6.304   5.655
 7213SOL    HW222539   5.839   6.321   5.512
 7214SOL     OW22540   1.656   5.240   6.014
 7214SOL    HW122541   1.601   5.283   6.086
 7214SOL    HW222542   1.634   5.142   6.010
 7215SOL     OW22543   1.328   2.881   1.547
 7215SOL    HW122544   1.414   2.874   1.598
 7215SOL    HW222545   1.267   2.807   1.576
 7216SOL     OW22546   2.461   1.630   2.818
 7216SOL    HW122547   2.364   1.629   2.842
 7216SOL    HW222548   2.471   1.601   2.723
 7217SOL     OW22549   1.311   3.865   1.820
 7217SOL    HW122550   1.359   3.793   1.870
 7217SOL    HW222551   1.214   3.866   1.846
 7218SOL     OW22552   6.633   2.996   3.700
 7218SOL    HW122553   6.695   2.936   3.650
 7218SOL    HW222554   6.661   3.091   3.687
 7219SOL     OW22555   2.152   1.527   1.644
 7219SOL    HW122556   2.087   1.593   1.607
 7219SOL    HW222557   2.234   1.526   1.588
 7220SOL     OW22558   6.782   2.047   3.580
 7220SOL    HW122559   6.735   2.072   3.495
 7220SOL    HW222560   6.800   2.129   3.634
 7221SOL     OW22561   6.698   3.963   4.668
 7221SOL    HW122562   6.756   4.011   4.601
 7221SOL    HW222563   6.749   3.953   4.754
 7222SOL     OW22564   6.364   0.410   2.693
 7222SOL    HW122565   6.352   0.499   2.735
 7222SOL    HW222566   6.316   0.341   2.747
 7223SOL     OW22567   5.206   0.875   4.567
 7223SOL    HW122568   5.138   0.807   4.593
 7223SOL    HW222569   5.279   0.831   4.515
 7224SOL     OW22570   4.851   0.731   3.479
 7224SOL    HW122571   4.911   0.664   3.437
 7224SOL    HW222572   4.794   0.773   3.408
 7225SOL     OW22573   2.872   0.253   1.469
 7225SOL    HW122574   2.825   0.244   1.382
 7225SOL    HW222575   2.869   0.348   1.499
 7226SOL     OW22576   5.509   6.777   5.089
 7226SOL    HW122577   5.524   6.875   5.086
 7226SOL    HW222578   5.472   6.751   5.178
 7227SOL     OW22579   0.290   2.708   5.569
 7227SOL    HW122580   0.261   2.623   5.615
 7227SOL    HW222581   0.246   2.786   5.614
 7228SOL     OW22582   1.770   0.031   3.045
 7228SOL    HW122583   1.782   0.064   2.951
 7228SOL    HW222584   1.857   0.034   3.093
 7229SOL     OW22585   6.209   0.435   3.503
 7229SOL    HW122586   6.234   0.493   3.581
 7229SOL    HW222587   6.271   0.451   3.427
 7230SOL     OW22588   6.228   5.225   1.643
 7230SOL    HW122589   6.243   5.151   1.709
 7230SOL    HW222590   6.133   5.224   1.612
 7231SOL     OW22591   5.727   1.142   6.883
 7231SOL    HW122592   5.724   1.227   6.831
 7231SOL    HW222593   5.760   1.161   6.975
 7232SOL     OW22594   3.259   3.572   0.799
 7232SOL    HW122595   3.262   3.643   0.729
 7232SOL    HW222596   3.198   3.499   0.770
 7233SOL     OW22597   1.250   1.927   6.606
 7233SOL    HW122598   1.217   1.875   6.528
 7233SOL    HW222599   1.269   2.021   6.578
 7234SOL     OW22600   5.380   2.689   3.751
 7234SOL    HW122601   5.334   2.773   3.721
 7234SOL    HW222602   5.351   2.667   3.844
 7235SOL     OW22603   5.550   2.657   4.602
 7235SOL    HW122604   5.460   2.658   4.560
 7235SOL    HW222605   5.619   2.642   4.531
 7236SOL     OW22606   0.604   1.608   3.480
 7236SOL    HW122607   0.656   1.684   3.440
 7236SOL    HW222608   0.540   1.644   3.547
 7237SOL     OW22609   6.361   4.987   5.754
 7237SOL    HW122610   6.413   4.956   5.675
 7237SOL    HW222611   6.264   4.988   5.732
 7238SOL     OW22612   1.620   0.324   2.655
 7238SOL    HW122613   1.626   0.361   2.748
 7238SOL    HW222614   1.524   0.319   2.628
 7239SOL     OW22615   4.752   1.557   2.097
 7239SOL    HW122616   4.681   1.550   2.168
 7239SOL    HW222617   4.833   1.601   2.136
 7240SOL     OW22618   2.857   3.385   3.274
 7240SOL    HW122619   2.760   3.362   3.265
 7240SOL    HW222620   2.891   3.353   3.362
 7241SOL     OW22621   4.991   0.281   5.156
 7241SOL    HW122622   4.950   0.366   5.122
 7241SOL    HW222623   5.047   0.240   5.085
 7242SOL     OW22624   5.934   5.664   0.697
 7242SOL    HW122625   6.000   5.671   0.622
 7242SOL    HW222626   5.914   5.568   0.714
 7243SOL     OW22627   0.367   5.848   1.411
 7243SOL    HW122628   0.453   5.894   1.393
 7243SOL    HW222629   0.354   5.775   1.344
 7244SOL     OW22630   4.561   1.927   1.782
 7244SOL    HW122631   4.631   1.995   1.803
 7244SOL    HW222632   4.499   1.917   1.860
 7245SOL     OW22633   5.678   2.182   3.422
 7245SOL    HW122634   5.639   2.267   3.386
 7245SOL    HW222635   5.627   2.104   3.385
 7246SOL     OW22636   0.863   5.728   5.643
 7246SOL    HW122637   0.901   5.639   5.667
 7246SOL    HW222638   0.930   5.799   5.661
 7247SOL     OW22639   4.495   5.458   3.760
 7247SOL    HW122640   4.404   5.447   3.798
 7247SOL    HW222641   4.493   5.436   3.662
 7248SOL     OW22642   3.153   0.906   5.407
 7248SOL    HW122643   3.240   0.856   5.404
 7248SOL    HW222644   3.162   0.992   5.358
 7249SOL     OW22645   5.358   2.759   6.348
 7249SOL    HW122646   5.296   2.786   6.421
 7249SOL    HW222647   5.365   2.659   6.345
 7250SOL     OW22648   3.219   3.183   0.185
 7250SOL    HW122649   3.240   3.105   0.243
 7250SOL    HW222650   3.228   3.156   0.089
 7251SOL     OW22651   6.266   1.504   5.872
 7251SOL    HW122652   6.219   1.486   5.785
 7251SOL    HW222653   6.215   1.463   5.947
 7252SOL     OW22654   4.512   3.668   5.442
 7252SOL    HW122655   4.603   3.662   5.399
 7252SOL    HW222656   4.453   3.596   5.405
 7253SOL     OW22657   5.149   5.007   0.252
 7253SOL    HW122658   5.121   4.974   0.163
 7253SOL    HW222659   5.182   4.931   0.308
 7254SOL     OW22660   5.092   6.030   5.560
 7254SOL    HW122661   5.164   6.092   5.530
 7254SOL    HW222662   5.121   5.936   5.545
 7255SOL     OW22663   3.455   3.786   3.736
 7255SOL    HW122664   3.498   3.829   3.815
 7255SOL    HW222665   3.375   3.734   3.766
 7256SOL     OW22666   3.594   5.843   4.060
 7256SOL    HW122667   3.632   5.779   4.127
 7256SOL    HW222668   3.610   5.807   3.967
 7257SOL     OW22669   6.171   5.249   2.429
 7257SOL    HW122670   6.261   5.292   2.433
 7257SOL    HW222671   6.106   5.303   2.481
 7258SOL     OW22672   2.683   0.625   5.963
 7258SOL    HW122673   2.693   0.615   6.062
 7258SOL    HW222674   2.586   0.624   5.940
 7259SOL     OW22675   3.520   4.174   5.890
 7259SOL    HW122676   3.429   4.202   5.860
 7259SOL    HW222677   3.512   4.093   5.948
 7260SOL     OW22678   4.446   1.989   2.718
 7260SOL    HW122679   4.529   1.939   2.693
 7260SOL    HW222680   4.424   2.053   2.644
 7261SOL     OW22681   2.703   4.783   1.307
 7261SOL    HW122682   2.707   4.865   1.250
 7261SOL    HW222683   2.737   4.805   1.399
 7262SOL     OW22684   5.885   0.489   4.397
 7262SOL    HW122685   5.834   0.422   4.344
 7262SOL    HW222686   5.965   0.444   4.438
 7263SOL     OW22687   4.744   4.243   1.293
 7263SOL    HW122688   4.671   4.301   1.258
 7263SOL    HW222689   4.770   4.273   1.385
 7264SOL     OW22690   6.624   6.892   4.970
 7264SOL    HW122691   6.663   6.832   4.901
 7264SOL    HW222692   6.657   6.865   5.060
 7265SOL     OW22693   4.616   2.878   6.325
 7265SOL    HW122694   4.695   2.873   6.263
 7265SOL    HW222695   4.590   2.785   6.352
 7266SOL     OW22696   4.181   1.238   2.698
 7266SOL    HW122697   4.119   1.270   2.770
 7266SOL    HW222698   4.138   1.162   2.649
 7267SOL     OW22699   4.595   2.313   4.109
 7267SOL    HW122700   4.542   2.236   4.144
 7267SOL    HW222701   4.680   2.322   4.162
 7268SOL     OW22702   4.103   6.449   6.526
 7268SOL    HW122703   4.167   6.377   6.500
 7268SOL    HW222704   4.134   6.493   6.610
 7269SOL     OW22705   1.395   0.229   3.972
 7269SOL    HW122706   1.414   0.139   3.931
 7269SOL    HW222707   1.370   0.217   4.068
 7270SOL     OW22708   3.782   2.704   1.556
 7270SOL    HW122709   3.709   2.682   1.621
 7270SOL    HW222710   3.855   2.753   1.603
 7271SOL     OW22711   4.591   6.247   3.660
 7271SOL    HW122712   4.541   6.250   3.747
 7271SOL    HW222713   4.538   6.195   3.593
 7272SOL     OW22714   5.472   1.234   1.764
 7272SOL    HW122715   5.433   1.301   1.827
 7272SOL    HW222716   5.403   1.208   1.696
 7273SOL     OW22717   5.836   4.654   4.257
 7273SOL    HW122718   5.825   4.557   4.233
 7273SOL    HW222719   5.848   4.663   4.356
 7274SOL     OW22720   5.806   4.911   3.877
 7274SOL    HW122721   5.810   4.995   3.823
 7274SOL    HW222722   5.780   4.834   3.818
 7275SOL     OW22723   6.135   0.265   2.010
 7275SOL    HW122724   6.120   0.245   1.913
 7275SOL    HW222725   6.113   0.361   2.028
 7276SOL     OW22726   4.126   1.506   2.964
 7276SOL    HW122727   4.112   1.553   3.051
 7276SOL    HW222728   4.069   1.424   2.961
 7277SOL     OW22729   6.796   2.454   3.996
 7277SOL    HW122730   6.708   2.415   4.024
 7277SOL    HW222731   6.830   2.405   3.916
 7278SOL     OW22732   3.855   1.384   2.700
 7278SOL    HW122733   3.868   1.463   2.640
 7278SOL    HW222734   3.810   1.310   2.650
 7279SOL     OW22735   3.318   3.537   2.076
 7279SOL    HW122736   3.268   3.550   1.990
 7279SOL    HW222737   3.310   3.442   2.106
 7280SOL     OW22738   6.455   1.509   6.070
 7280SOL    HW122739   6.466   1.410   6.066
 7280SOL    HW222740   6.418   1.542   5.983
 7281SOL     OW22741   3.564   0.075   3.767
 7281SOL    HW122742   3.606   7.026   3.721
 7281SOL    HW222743   3.485   0.106   3.714
 7282SOL     OW22744   1.131   3.920   1.263
 7282SOL    HW122745   1.224   3.956   1.252
 7282SOL    HW222746   1.129   3.824   1.237
 7283SOL     OW22747   2.796   5.950   2.598
 7283SOL    HW122748   2.873   5.891   2.621
 7283SOL    HW222749   2.711   5.898   2.610
 7284SOL     OW22750   0.496   0.874   4.235
 7284SOL    HW122751   0.477   0.951   4.174
 7284SOL    HW222752   0.411   0.844   4.279
 7285SOL     OW22753   4.779   2.194   2.451
 7285SOL    HW122754   4.733   2.106   2.434
 7285SOL    HW222755   4.857   2.202   2.390
 7286SOL     OW22756   6.446   1.430   5.133
 7286SOL    HW122757   6.354   1.400   5.159
 7286SOL    HW222758   6.513   1.374   5.181
 7287SOL     OW22759   3.470   1.532   4.583
 7287SOL    HW122760   3.485   1.620   4.540
 7287SOL    HW222761   3.456   1.545   4.681
 7288SOL     OW22762   3.172   2.181   0.776
 7288SOL    HW122763   3.110   2.259   0.788
 7288SOL    HW222764   3.253   2.194   0.833
 7289SOL     OW22765   0.091   2.348   0.757
 7289SOL    HW122766   0.122   2.443   0.762
 7289SOL    HW222767   0.145   2.299   0.689
 7290SOL     OW22768   3.368   2.091   4.877
 7290SOL    HW122769   3.434   2.076   4.951
 7290SOL    HW222770   3.291   2.144   4.912
 7291SOL     OW22771   0.843   0.978   0.107
 7291SOL    HW122772   0.820   0.974   0.204
 7291SOL    HW222773   0.891   0.895   0.080
 7292SOL     OW22774   3.246   0.935   2.229
 7292SOL    HW122775   3.200   0.851   2.260
 7292SOL    HW222776   3.241   1.004   2.301
 7293SOL     OW22777   5.723   1.503   3.932
 7293SOL    HW122778   5.722   1.437   3.857
 7293SOL    HW222779   5.669   1.467   4.009
 7294SOL     OW22780   2.049   1.237   2.472
 7294SOL    HW122781   2.121   1.175   2.440
 7294SOL    HW222782   2.047   1.319   2.414
 7295SOL     OW22783   5.297   4.409   1.644
 7295SOL    HW122784   5.226   4.477   1.624
 7295SOL    HW222785   5.352   4.393   1.562
 7296SOL     OW22786   3.205   6.951   2.949
 7296SOL    HW122787   3.170   6.949   2.855
 7296SOL    HW222788   3.143   6.900   3.009
 7297SOL     OW22789   5.069   0.415   6.633
 7297SOL    HW122790   5.025   0.333   6.597
 7297SOL    HW222791   5.150   0.388   6.686
 7298SOL     OW22792   4.018   4.458   0.477
 7298SOL    HW122793   3.985   4.447   0.570
 7298SOL    HW222794   3.999   4.374   0.425
 7299SOL     OW22795   0.131   3.017   0.079
 7299SOL    HW122796   0.034   3.017   0.106
 7299SOL    HW222797   0.184   2.965   0.146
 7300SOL     OW22798   0.566   3.903   2.406
 7300SOL    HW122799   0.487   3.846   2.383
 7300SOL    HW222800   0.537   3.999   2.412
 7301SOL     OW22801   4.130   1.815   0.694
 7301SOL    HW122802   4.113   1.897   0.639
 7301SOL    HW222803   4.066   1.813   0.771
 7302SOL     OW22804   5.725   1.683   6.694
 7302SOL    HW122805   5.790   1.673   6.769
 7302SOL    HW222806   5.717   1.779   6.669
 7303SOL     OW22807   3.728   2.363   0.637
 7303SOL    HW122808   3.754   2.280   0.686
 7303SOL    HW222809   3.631   2.380   0.649
 7304SOL     OW22810   2.948   6.926   0.361
 7304SOL    HW122811   2.988   7.015   0.385
 7304SOL    HW222812   2.854   6.939   0.332
 7305SOL     OW22813   6.853   6.868   6.218
 7305SOL    HW122814   6.926   6.937   6.214
 7305SOL    HW222815   6.871   6.796   6.151
 7306SOL     OW22816   2.067   3.551   0.735
 7306SOL    HW122817   2.033   3.645   0.730
 7306SOL    HW222818   1.995   3.492   0.772
 7307SOL     OW22819   4.546   6.733   0.776
 7307SOL    HW122820   4.601   6.731   0.693
 7307SOL    HW222821   4.576   6.661   0.838
 7308SOL     OW22822   3.684   1.849   2.936
 7308SOL    HW122823   3.596   1.804   2.947
 7308SOL    HW222824   3.756   1.780   2.932
 7309SOL     OW22825   2.373   5.371   3.129
 7309SOL    HW122826   2.276   5.383   3.110
 7309SOL    HW222827   2.423   5.453   3.100
 7310SOL     OW22828   5.161   3.316   0.408
 7310SOL    HW122829   5.087   3.383   0.412
 7310SOL    HW222830   5.249   3.362   0.411
 7311SOL     OW22831   1.410   6.433   5.676
 7311SOL    HW122832   1.494   6.411   5.627
 7311SOL    HW222833   1.332   6.419   5.615
 7312SOL     OW22834   5.201   1.784   4.864
 7312SOL    HW122835   5.259   1.732   4.800
 7312SOL    HW222836   5.239   1.777   4.956
 7313SOL     OW22837   3.392   1.094   2.889
 7313SOL    HW122838   3.381   1.067   2.985
 7313SOL    HW222839   3.453   1.030   2.843
 7314SOL     OW22840   2.931   5.515   4.964
 7314SOL    HW122841   2.857   5.582   4.966
 7314SOL    HW222842   2.893   5.423   4.977
 7315SOL     OW22843   2.628   4.859   2.201
 7315SOL    HW122844   2.601   4.913   2.281
 7315SOL    HW222845   2.727   4.842   2.204
 7316SOL     OW22846   2.926   1.010   2.470
 7316SOL    HW122847   2.847   1.065   2.441
 7316SOL    HW222848   2.922   0.921   2.426
 7317SOL     OW22849   5.213   1.391   1.070
 7317SOL    HW122850   5.138   1.393   1.137
 7317SOL    HW222851   5.175   1.396   0.978
 7318SOL     OW22852   4.867   6.923   1.491
 7318SOL    HW122853   4.888   6.858   1.418
 7318SOL    HW222854   4.933   6.912   1.565
 7319SOL     OW22855   4.473   5.158   5.975
 7319SOL    HW122856   4.420   5.192   6.053
 7319SOL    HW222857   4.475   5.228   5.904
 7320SOL     OW22858   1.725   3.209   0.632
 7320SOL    HW122859   1.676   3.125   0.608
 7320SOL    HW222860   1.719   3.224   0.731
 7321SOL     OW22861   2.387   2.456   5.252
 7321SOL    HW122862   2.300   2.417   5.221
 7321SOL    HW222863   2.443   2.479   5.173
 7322SOL     OW22864   2.797   2.054   3.862
 7322SOL    HW122865   2.814   2.012   3.951
 7322SOL    HW222866   2.846   2.140   3.856
 7323SOL     OW22867   2.228   2.011   7.008
 7323SOL    HW122868   2.139   1.971   6.986
 7323SOL    HW222869   2.258   2.072   6.934
 7324SOL     OW22870   6.076   3.813   5.505
 7324SOL    HW122871   6.145   3.806   5.433
 7324SOL    HW222872   6.113   3.779   5.591
 7325SOL     OW22873   3.407   0.719   6.875
 7325SOL    HW122874   3.451   0.738   6.963
 7325SOL    HW222875   3.368   0.626   6.876
 7326SOL     OW22876   4.153   6.813   0.418
 7326SOL    HW122877   4.119   6.788   0.509
 7326SOL    HW222878   4.104   6.893   0.384
 7327SOL     OW22879   2.076   5.319   3.344
 7327SOL    HW122880   2.169   5.295   3.371
 7327SOL    HW222881   2.014   5.244   3.368
 7328SOL     OW22882   4.172   6.035   0.080
 7328SOL    HW122883   4.217   6.118   0.112
 7328SOL    HW222884   4.235   5.958   0.082
 7329SOL     OW22885   2.704   3.773   6.738
 7329SOL    HW122886   2.793   3.767   6.693
 7329SOL    HW222887   2.712   3.734   6.830
 7330SOL     OW22888   2.743   3.298   1.572
 7330SOL    HW122889   2.649   3.331   1.580
 7330SOL    HW222890   2.796   3.359   1.514
 7331SOL     OW22891   5.647   1.891   2.664
 7331SOL    HW122892   5.722   1.922   2.606
 7331SOL    HW222893   5.596   1.970   2.698
 7332SOL     OW22894   1.760   0.097   5.007
 7332SOL    HW122895   1.813   0.170   5.051
 7332SOL    HW222896   1.728   0.129   4.918
 7333SOL     OW22897   6.397   1.307   1.598
 7333SOL    HW122898   6.481   1.332   1.550
 7333SOL    HW222899   6.328   1.277   1.532
 7334SOL     OW22900   0.507   5.069   5.151
 7334SOL    HW122901   0.596   5.086   5.109
 7334SOL    HW222902   0.453   5.010   5.091
 7335SOL     OW22903   6.908   2.356   0.985
 7335SOL    HW122904   6.967   2.310   0.919
 7335SOL    HW222905   6.827   2.392   0.938
 7336SOL     OW22906   1.971   0.065   1.111
 7336SOL    HW122907   1.946   0.098   1.020
 7336SOL    HW222908   2.070   0.074   1.123
 7337SOL     OW22909   3.015   1.819   1.851
 7337SOL    HW122910   3.037   1.906   1.895
 7337SOL    HW222911   2.989   1.752   1.921
 7338SOL     OW22912   5.148   2.199   6.947
 7338SOL    HW122913   5.228   2.252   6.972
 7338SOL    HW222914   5.075   2.214   7.013
 7339SOL     OW22915   6.835   6.649   3.550
 7339SOL    HW122916   6.903   6.663   3.478
 7339SOL    HW222917   6.843   6.556   3.586
 7340SOL     OW22918   2.686   0.216   0.248
 7340SOL    HW122919   2.708   0.122   0.274
 7340SOL    HW222920   2.600   0.217   0.197
 7341SOL     OW22921   5.506   5.463   3.022
 7341SOL    HW122922   5.434   5.532   3.018
 7341SOL    HW222923   5.593   5.507   3.043
 7342SOL     OW22924   6.813   4.764   6.895
 7342SOL    HW122925   6.888   4.700   6.877
 7342SOL    HW222926   6.810   4.833   6.823
 7343SOL     OW22927   0.103   1.802   3.580
 7343SOL    HW122928   0.148   1.733   3.523
 7343SOL    HW222929   0.163   1.880   3.591
 7344SOL     OW22930   1.608   1.533   5.459
 7344SOL    HW122931   1.535   1.576   5.513
 7344SOL    HW222932   1.569   1.500   5.373
 7345SOL     OW22933   1.901   6.743   6.727
 7345SOL    HW122934   1.977   6.764   6.665
 7345SOL    HW222935   1.815   6.749   6.677
 7346SOL     OW22936   3.195   5.504   3.333
 7346SOL    HW122937   3.286   5.512   3.291
 7346SOL    HW222938   3.165   5.594   3.363
 7347SOL     OW22939   6.116   2.919   3.577
 7347SOL    HW122940   6.102   2.871   3.663
 7347SOL    HW222941   6.087   3.014   3.587
 7348SOL     OW22942   5.450   0.091   6.257
 7348SOL    HW122943   5.424   0.169   6.313
 7348SOL    HW222944   5.400   0.093   6.171
 7349SOL     OW22945   3.629   1.843   0.984
 7349SOL    HW122946   3.729   1.846   0.985
 7349SOL    HW222947   3.596   1.838   1.078
 7350SOL     OW22948   1.486   1.329   2.288
 7350SOL    HW122949   1.453   1.247   2.335
 7350SOL    HW222950   1.459   1.326   2.192
 7351SOL     OW22951   6.283   4.869   0.326
 7351SOL    HW122952   6.332   4.951   0.355
 7351SOL    HW222953   6.340   4.817   0.263
 7352SOL     OW22954   6.496   1.770   2.802
 7352SOL    HW122955   6.510   1.685   2.751
 7352SOL    HW222956   6.583   1.820   2.808
 7353SOL     OW22957   5.375   1.769   4.093
 7353SOL    HW122958   5.342   1.787   4.000
 7353SOL    HW222959   5.448   1.833   4.115
 7354SOL     OW22960   5.869   4.736   5.564
 7354SOL    HW122961   5.782   4.690   5.550
 7354SOL    HW222962   5.940   4.668   5.582
 7355SOL     OW22963   0.000   5.689   0.482
 7355SOL    HW122964   6.998   5.604   0.524
 7355SOL    HW222965   7.026   5.681   0.383
 7356SOL     OW22966   0.012   2.200   6.466
 7356SOL    HW122967   6.946   2.176   6.481
 7356SOL    HW222968   0.071   2.128   6.500
 7357SOL     OW22969   1.225   0.860   1.637
 7357SOL    HW122970   1.141   0.832   1.684
 7357SOL    HW222971   1.219   0.956   1.611
 7358SOL     OW22972   3.737   1.431   3.700
 7358SOL    HW122973   3.834   1.426   3.722
 7358SOL    HW222974   3.723   1.404   3.605
 7359SOL     OW22975   3.216   4.042   4.169
 7359SOL    HW122976   3.259   4.069   4.083
 7359SOL    HW222977   3.254   4.096   4.244
 7360SOL     OW22978   1.915   5.259   5.856
 7360SOL    HW122979   1.878   5.212   5.936
 7360SOL    HW222980   2.014   5.250   5.855
 7361SOL     OW22981   4.656   0.131   1.422
 7361SOL    HW122982   4.730   0.065   1.413
 7361SOL    HW222983   4.642   0.153   1.518
 7362SOL     OW22984   1.710   4.723   0.668
 7362SOL    HW122985   1.615   4.735   0.696
 7362SOL    HW222986   1.757   4.666   0.735
 7363SOL     OW22987   5.139   2.518   6.147
 7363SOL    HW122988   5.130   2.547   6.242
 7363SOL    HW222989   5.055   2.540   6.097
 7364SOL     OW22990   4.799   6.076   0.193
 7364SOL    HW122991   4.744   6.016   0.134
 7364SOL    HW222992   4.781   6.052   0.289
 7365SOL     OW22993   5.567   7.025   1.956
 7365SOL    HW122994   5.529   0.021   1.867
 7365SOL    HW222995   5.542   6.930   1.977
 7366SOL     OW22996   3.431   6.735   0.295
 7366SOL    HW122997   3.512   6.783   0.265
 7366SOL    HW222998   3.422   6.743   0.394
 7367SOL     OW22999   4.839   3.495   6.403
 7367SOL    HW123000   4.838   3.395   6.410
 7367SOL    HW223001   4.933   3.527   6.394
 7368SOL     OW23002   3.340   2.752   5.457
 7368SOL    HW123003   3.409   2.740   5.386
 7368SOL    HW223004   3.252   2.716   5.426
 7369SOL     OW23005   0.380   6.471   6.419
 7369SOL    HW123006   0.339   6.411   6.488
 7369SOL    HW223007   0.326   6.555   6.412
 7370SOL     OW23008   6.717   5.502   0.956
 7370SOL    HW123009   6.632   5.533   0.998
 7370SOL    HW223010   6.697   5.441   0.880
 7371SOL     OW23011   2.424   5.273   3.380
 7371SOL    HW123012   2.405   5.305   3.288
 7371SOL    HW223013   2.456   5.178   3.376
 7372SOL     OW23014   1.991   6.865   5.126
 7372SOL    HW123015   1.996   6.917   5.041
 7372SOL    HW223016   1.930   6.912   5.190
 7373SOL     OW23017   4.334   1.248   0.772
 7373SOL    HW123018   4.283   1.299   0.704
 7373SOL    HW223019   4.377   1.311   0.837
 7374SOL     OW23020   2.535   3.783   0.947
 7374SOL    HW123021   2.539   3.875   0.986
 7374SOL    HW223022   2.442   3.747   0.958
 7375SOL     OW23023   2.321   5.364   2.178
 7375SOL    HW123024   2.356   5.399   2.091
 7375SOL    HW223025   2.398   5.331   2.233
 7376SOL     OW23026   3.304   4.958   0.458
 7376SOL    HW123027   3.255   5.028   0.511
 7376SOL    HW223028   3.322   4.879   0.517
 7377SOL     OW23029   4.698   6.305   1.489
 7377SOL    HW123030   4.686   6.365   1.410
 7377SOL    HW223031   4.702   6.210   1.458
 7378SOL     OW23032   1.050   1.270   6.276
 7378SOL    HW123033   1.100   1.199   6.326
 7378SOL    HW223034   0.959   1.281   6.317
 7379SOL     OW23035   4.715   0.868   6.997
 7379SOL    HW123036   4.664   0.781   6.997
 7379SOL    HW223037   4.650   0.944   6.997
 7380SOL     OW23038   0.388   3.410   6.437
 7380SOL    HW123039   0.336   3.326   6.425
 7380SOL    HW223040   0.430   3.411   6.528
 7381SOL     OW23041   5.823   2.872   0.463
 7381SOL    HW123042   5.780   2.935   0.528
 7381SOL    HW223043   5.777   2.880   0.375
 7382SOL     OW23044   0.888   5.787   3.893
 7382SOL    HW123045   0.959   5.744   3.950
 7382SOL    HW223046   0.873   5.731   3.812
 7383SOL     OW23047   1.428   4.959   1.683
 7383SOL    HW123048   1.439   4.885   1.617
 7383SOL    HW223049   1.331   4.974   1.702
 7384SOL     OW23050   5.736   0.492   1.534
 7384SOL    HW123051   5.817   0.461   1.485
 7384SOL    HW223052   5.756   0.580   1.577
 7385SOL     OW23053   5.311   0.094   2.085
 7385SOL    HW123054   5.392   0.068   2.032
 7385SOL    HW223055   5.268   0.011   2.123
 7386SOL     OW23056   5.862   1.441   5.103
 7386SOL    HW123057   5.848   1.345   5.126
 7386SOL    HW223058   5.778   1.493   5.122
 7387SOL     OW23059   5.321   5.812   4.523
 7387SOL    HW123060   5.316   5.712   4.524
 7387SOL    HW223061   5.302   5.846   4.431
 7388SOL     OW23062   4.770   4.095   4.098
 7388SOL    HW123063   4.720   4.071   4.182
 7388SOL    HW223064   4.800   4.011   4.053
 7389SOL     OW23065   2.167   3.612   6.099
 7389SOL    HW123066   2.100   3.584   6.030
 7389SOL    HW223067   2.123   3.672   6.166
 7390SOL     OW23068   4.175   5.806   0.827
 7390SOL    HW123069   4.210   5.759   0.908
 7390SOL    HW223070   4.149   5.738   0.758
 7391SOL     OW23071   0.154   4.686   0.854
 7391SOL    HW123072   0.112   4.686   0.944
 7391SOL    HW223073   0.222   4.760   0.849
 7392SOL     OW23074   1.441   4.732   1.530
 7392SOL    HW123075   1.409   4.781   1.449
 7392SOL    HW223076   1.481   4.645   1.503
 7393SOL     OW23077   1.710   3.457   0.532
 7393SOL    HW123078   1.630   3.497   0.577
 7393SOL    HW223079   1.718   3.361   0.559
 7394SOL     OW23080   2.972   4.360   0.137
 7394SOL    HW123081   2.898   4.355   0.070
 7394SOL    HW223082   3.046   4.297   0.111
 7395SOL     OW23083   2.576   6.932   0.993
 7395SOL    HW123084   2.574   6.855   0.929
 7395SOL    HW223085   2.663   6.933   1.042
 7396SOL     OW23086   6.368   6.958   2.329
 7396SOL    HW123087   6.302   0.004   2.329
 7396SOL    HW223088   6.442   6.978   2.266
 7397SOL     OW23089   5.889   3.979   3.760
 7397SOL    HW123090   5.871   3.918   3.837
 7397SOL    HW223091   5.821   4.052   3.758
 7398SOL     OW23092   4.234   5.141   2.983
 7398SOL    HW123093   4.217   5.148   3.081
 7398SOL    HW223094   4.319   5.089   2.968
 7399SOL     OW23095   4.756   6.462   3.928
 7399SOL    HW123096   4.797   6.499   3.845
 7399SOL    HW223097   4.808   6.382   3.958
 7400SOL     OW23098   2.178   4.722   6.654
 7400SOL    HW123099   2.270   4.705   6.620
 7400SOL    HW223100   2.120   4.755   6.579
 7401SOL     OW23101   6.652   3.013   3.969
 7401SOL    HW123102   6.587   3.089   3.978
 7401SOL    HW223103   6.666   2.993   3.872
 7402SOL     OW23104   1.722   6.054   5.043
 7402SOL    HW123105   1.724   5.960   5.077
 7402SOL    HW223106   1.798   6.106   5.081
 7403SOL     OW23107   1.953   3.014   1.685
 7403SOL    HW123108   2.006   3.098   1.693
 7403SOL    HW223109   1.900   3.016   1.600
 7404SOL     OW23110   1.319   2.502   2.792
 7404SOL    HW123111   1.416   2.501   2.817
 7404SOL    HW223112   1.302   2.435   2.720
 7405SOL     OW23113   3.591   5.972   5.619
 7405SOL    HW123114   3.515   5.973   5.684
 7405SOL    HW223115   3.587   5.889   5.563
 7406SOL     OW23116   5.952   5.532   2.938
 7406SOL    HW123117   5.862   5.572   2.957
 7406SOL    HW223118   5.946   5.432   2.945
 7407SOL     OW23119   4.325   1.660   5.857
 7407SOL    HW123120   4.408   1.660   5.801
 7407SOL    HW223121   4.287   1.752   5.861
 7408SOL     OW23122   0.703   3.567   5.248
 7408SOL    HW123123   0.692   3.565   5.148
 7408SOL    HW223124   0.630   3.621   5.289
 7409SOL     OW23125   2.189   7.023   4.354
 7409SOL    HW123126   2.107   0.028   4.309
 7409SOL    HW223127   2.184   6.924   4.363
 7410SOL     OW23128   4.029   5.333   5.775
 7410SOL    HW123129   3.976   5.263   5.822
 7410SOL    HW223130   4.105   5.290   5.726
 7411SOL     OW23131   5.742   3.161   5.477
 7411SOL    HW123132   5.656   3.177   5.526
 7411SOL    HW223133   5.735   3.195   5.383
 7412SOL     OW23134   1.138   0.884   0.666
 7412SOL    HW123135   1.090   0.907   0.750
 7412SOL    HW223136   1.162   0.786   0.666
 7413SOL     OW23137   6.568   3.713   3.400
 7413SOL    HW123138   6.519   3.752   3.478
 7413SOL    HW223139   6.575   3.781   3.327
 7414SOL     OW23140   0.206   5.006   2.273
 7414SOL    HW123141   0.197   5.056   2.187
 7414SOL    HW223142   0.303   4.999   2.297
 7415SOL     OW23143   2.892   1.300   3.388
 7415SOL    HW123144   2.795   1.305   3.412
 7415SOL    HW223145   2.926   1.391   3.362
 7416SOL     OW23146   6.490   0.332   1.760
 7416SOL    HW123147   6.478   0.324   1.859
 7416SOL    HW223148   6.542   0.254   1.725
 7417SOL     OW23149   0.360   5.466   1.536
 7417SOL    HW123150   0.384   5.482   1.632
 7417SOL    HW223151   0.342   5.554   1.491
 7418SOL     OW23152   1.988   3.039   0.731
 7418SOL    HW123153   1.978   3.086   0.819
 7418SOL    HW223154   2.028   3.102   0.664
 7419SOL     OW23155   6.027   2.147   5.611
 7419SOL    HW123156   6.115   2.170   5.571
 7419SOL    HW223157   6.032   2.152   5.711
 7420SOL     OW23158   0.965   6.751   2.116
 7420SOL    HW123159   0.877   6.735   2.163
 7420SOL    HW223160   1.032   6.685   2.150
 7421SOL     OW23161   4.890   1.911   1.431
 7421SOL    HW123162   4.979   1.865   1.428
 7421SOL    HW223163   4.825   1.853   1.480
 7422SOL     OW23164   1.077   2.009   0.478
 7422SOL    HW123165   1.050   1.996   0.574
 7422SOL    HW223166   1.150   2.077   0.474
 7423SOL     OW23167   3.072   4.142   0.712
 7423SOL    HW123168   3.109   4.058   0.752
 7423SOL    HW223169   2.992   4.171   0.765
 7424SOL     OW23170   5.535   6.603   3.736
 7424SOL    HW123171   5.524   6.703   3.732
 7424SOL    HW223172   5.533   6.573   3.831
 7425SOL     OW23173   4.434   6.966   4.897
 7425SOL    HW123174   4.403   6.957   4.802
 7425SOL    HW223175   4.510   0.001   4.901
 7426SOL     OW23176   0.063   0.044   6.252
 7426SOL    HW123177   0.116   7.022   6.185
 7426SOL    HW223178   0.116   0.123   6.283
 7427SOL     OW23179   5.113   4.813   6.157
 7427SOL    HW123180   5.050   4.822   6.080
 7427SOL    HW223181   5.068   4.762   6.231
 7428SOL     OW23182   5.599   1.911   4.960
 7428SOL    HW123183   5.552   1.849   5.022
 7428SOL    HW223184   5.562   2.003   4.970
 7429SOL     OW23185   5.599   6.473   3.027
 7429SOL    HW123186   5.659   6.401   3.062
 7429SOL    HW223187   5.516   6.432   2.989
 7430SOL     OW23188   0.601   4.503   4.404
 7430SOL    HW123189   0.513   4.455   4.399
 7430SOL    HW223190   0.644   4.483   4.492
 7431SOL     OW23191   0.140   3.918   3.339
 7431SOL    HW123192   0.136   3.837   3.280
 7431SOL    HW223193   0.210   3.905   3.409
 7432SOL     OW23194   2.049   6.312   5.880
 7432SOL    HW123195   1.978   6.252   5.917
 7432SOL    HW223196   2.026   6.337   5.786
 7433SOL     OW23197   1.022   6.675   1.126
 7433SOL    HW123198   0.994   6.588   1.166
 7433SOL    HW223199   1.085   6.658   1.050
 7434SOL     OW23200   5.016   0.030   0.385
 7434SOL    HW123201   4.959   0.109   0.365
 7434SOL    HW223202   5.063   0.000   0.302
 7435SOL     OW23203   1.354   4.192   0.002
 7435SOL    HW123204   1.262   4.197   6.992
 7435SOL    HW223205   1.394   4.103   7.010
 7436SOL     OW23206   5.092   3.577   6.402
 7436SOL    HW123207   5.151   3.569   6.483
 7436SOL    HW223208   5.142   3.543   6.322
 7437SOL     OW23209   6.681   6.472   5.498
 7437SOL    HW123210   6.763   6.487   5.444
 7437SOL    HW223211   6.706   6.454   5.593
 7438SOL     OW23212   6.653   3.893   0.997
 7438SOL    HW123213   6.702   3.931   0.918
 7438SOL    HW223214   6.703   3.814   1.032
 7439SOL     OW23215   1.541   6.326   2.753
 7439SOL    HW123216   1.590   6.239   2.748
 7439SOL    HW223217   1.469   6.327   2.684
 7440SOL     OW23218   1.439   0.526   4.683
 7440SOL    HW123219   1.403   0.617   4.665
 7440SOL    HW223220   1.534   0.533   4.713
 7441SOL     OW23221   6.697   1.576   3.320
 7441SOL    HW123222   6.735   1.668   3.330
 7441SOL    HW223223   6.714   1.543   3.228
 7442SOL     OW23224   1.806   0.940   0.274
 7442SOL    HW123225   1.761   0.952   0.185
 7442SOL    HW223226   1.748   0.886   0.334
 7443SOL     OW23227   5.901   1.130   1.209
 7443SOL    HW123228   5.856   1.077   1.280
 7443SOL    HW223229   5.980   1.177   1.248
 7444SOL     OW23230   2.355   2.599   4.869
 7444SOL    HW123231   2.418   2.531   4.906
 7444SOL    HW223232   2.366   2.603   4.769
 7445SOL     OW23233   6.056   2.637   2.451
 7445SOL    HW123234   6.058   2.627   2.550
 7445SOL    HW223235   6.006   2.720   2.427
 7446SOL     OW23236   4.390   4.601   2.535
 7446SOL    HW123237   4.431   4.682   2.494
 7446SOL    HW223238   4.430   4.518   2.497
 7447SOL     OW23239   1.725   2.900   6.134
 7447SOL    HW123240   1.753   2.989   6.171
 7447SOL    HW223241   1.658   2.914   6.061
 7448SOL     OW23242   6.875   1.243   5.517
 7448SOL    HW123243   6.825   1.276   5.436
 7448SOL    HW223244   6.927   1.161   5.493
 7449SOL     OW23245   3.268   1.454   2.863
 7449SOL    HW123246   3.292   1.404   2.946
 7449SOL    HW223247   3.200   1.524   2.884
 7450SOL     OW23248   3.751   2.056   1.805
 7450SOL    HW123249   3.728   2.107   1.889
 7450SOL    HW223250   3.807   2.114   1.746
 7451SOL     OW23251   0.811   0.676   1.681
 7451SOL    HW123252   0.830   0.585   1.644
 7451SOL    HW223253   0.763   0.667   1.769
 7452SOL     OW23254   2.057   5.704   2.949
 7452SOL    HW123255   2.096   5.764   3.020
 7452SOL    HW223256   1.977   5.658   2.985
 7453SOL     OW23257   6.532   4.298   4.764
 7453SOL    HW123258   6.497   4.210   4.729
 7453SOL    HW223259   6.528   4.366   4.691
 7454SOL     OW23260   2.890   1.871   0.259
 7454SOL    HW123261   2.793   1.875   0.238
 7454SOL    HW223262   2.943   1.908   0.183
 7455SOL     OW23263   5.017   6.686   0.230
 7455SOL    HW123264   4.948   6.672   0.159
 7455SOL    HW223265   4.983   6.650   0.317
 7456SOL     OW23266   1.515   2.599   6.681
 7456SOL    HW123267   1.538   2.676   6.740
 7456SOL    HW223268   1.596   2.569   6.631
 7457SOL     OW23269   0.484   6.464   4.957
 7457SOL    HW123270   0.506   6.557   4.926
 7457SOL    HW223271   0.412   6.468   5.026
 7458SOL     OW23272   3.120   0.506   1.662
 7458SOL    HW123273   3.140   0.412   1.636
 7458SOL    HW223274   3.098   0.559   1.580
 7459SOL     OW23275   3.881   4.892   3.762
 7459SOL    HW123276   3.933   4.809   3.778
 7459SOL    HW223277   3.914   4.964   3.823
 7460SOL     OW23278   1.421   4.851   6.226
 7460SOL    HW123279   1.423   4.753   6.244
 7460SOL    HW223280   1.514   4.884   6.206
 7461SOL     OW23281   3.338   1.752   4.010
 7461SOL    HW123282   3.331   1.652   4.007
 7461SOL    HW223283   3.427   1.780   3.974
 7462SOL     OW23284   1.252   2.583   3.976
 7462SOL    HW123285   1.253   2.491   3.938
 7462SOL    HW223286   1.238   2.579   4.075
 7463SOL     OW23287   3.750   3.650   2.436
 7463SOL    HW123288   3.790   3.725   2.385
 7463SOL    HW223289   3.787   3.649   2.529
 7464SOL     OW23290   4.404   5.499   0.656
 7464SOL    HW123291   4.473   5.571   0.649
 7464SOL    HW223292   4.443   5.412   0.625
 7465SOL     OW23293   2.927   1.276   2.652
 7465SOL    HW123294   2.925   1.196   2.711
 7465SOL    HW223295   3.005   1.269   2.589
 7466SOL     OW23296   6.959   6.250   0.931
 7466SOL    HW123297   6.875   6.196   0.922
 7466SOL    HW223298   6.937   6.340   0.968
 7467SOL     OW23299   3.943   2.549   0.666
 7467SOL    HW123300   3.895   2.634   0.645
 7467SOL    HW223301   3.884   2.471   0.644
 7468SOL     OW23302   5.154   5.099   4.641
 7468SOL    HW123303   5.081   5.155   4.681
 7468SOL    HW223304   5.114   5.022   4.592
 7469SOL     OW23305   5.321   2.253   0.985
 7469SOL    HW123306   5.362   2.328   1.038
 7469SOL    HW223307   5.391   2.210   0.928
 7470SOL     OW23308   0.833   3.323   3.317
 7470SOL    HW123309   0.886   3.337   3.233
 7470SOL    HW223310   0.803   3.411   3.352
 7471SOL     OW23311   6.965   4.291   5.911
 7471SOL    HW123312   0.026   4.315   5.879
 7471SOL    HW223313   6.936   4.205   5.869
 7472SOL     OW23314   3.355   5.768   2.951
 7472SOL    HW123315   3.368   5.865   2.929
 7472SOL    HW223316   3.341   5.757   3.049
 7473SOL     OW23317   1.833   1.969   6.229
 7473SOL    HW123318   1.796   1.894   6.174
 7473SOL    HW223319   1.840   2.051   6.173
 7474SOL     OW23320   2.352   1.317   1.933
 7474SOL    HW123321   2.366   1.414   1.912
 7474SOL    HW223322   2.408   1.292   2.012
 7475SOL     OW23323   5.491   1.006   6.187
 7475SOL    HW123324   5.415   0.983   6.247
 7475SOL    HW223325   5.468   0.983   6.092
 7476SOL     OW23326   1.666   6.703   4.792
 7476SOL    HW123327   1.621   6.715   4.704
 7476SOL    HW223328   1.597   6.690   4.863
 7477SOL     OW23329   4.847   4.045   4.992
 7477SOL    HW123330   4.879   4.138   4.977
 7477SOL    HW223331   4.770   4.047   5.056
 7478SOL     OW23332   6.427   4.086   1.355
 7478SOL    HW123333   6.479   4.142   1.419
 7478SOL    HW223334   6.461   4.101   1.262
 7479SOL     OW23335   3.841   0.062   4.505
 7479SOL    HW123336   3.855   7.025   4.431
 7479SOL    HW223337   3.754   0.109   4.490
 7480SOL     OW23338   5.874   4.948   0.096
 7480SOL    HW123339   5.774   4.953   0.106
 7480SOL    HW223340   5.898   4.965   0.000
 7481SOL     OW23341   5.999   6.917   0.348
 7481SOL    HW123342   5.929   6.948   0.412
 7481SOL    HW223343   6.023   6.822   0.369
 7482SOL     OW23344   5.283   0.570   5.395
 7482SOL    HW123345   5.241   0.503   5.457
 7482SOL    HW223346   5.229   0.654   5.395
 7483SOL     OW23347   3.934   6.816   6.528
 7483SOL    HW123348   3.846   6.863   6.529
 7483SOL    HW223349   3.982   6.834   6.614
 7484SOL     OW23350   3.120   6.095   0.768
 7484SOL    HW123351   3.030   6.125   0.737
 7484SOL    HW223352   3.139   6.004   0.731
 7485SOL     OW23353   1.191   0.206   5.072
 7485SOL    HW123354   1.168   0.237   4.979
 7485SOL    HW223355   1.136   0.126   5.095
 7486SOL     OW23356   1.704   2.134   4.926
 7486SOL    HW123357   1.759   2.151   4.843
 7486SOL    HW223358   1.622   2.083   4.901
 7487SOL     OW23359   1.705   6.492   2.367
 7487SOL    HW123360   1.798   6.521   2.390
 7487SOL    HW223361   1.662   6.451   2.448
 7488SOL     OW23362   4.726   2.278   4.412
 7488SOL    HW123363   4.769   2.292   4.501
 7488SOL    HW223364   4.627   2.268   4.424
 7489SOL     OW23365   1.333   3.400   3.278
 7489SOL    HW123366   1.284   3.314   3.266
 7489SOL    HW223367   1.392   3.394   3.358
 7490SOL     OW23368   5.543   0.660   2.387
 7490SOL    HW123369   5.599   0.619   2.459
 7490SOL    HW223370   5.474   0.594   2.357
 7491SOL     OW23371   0.942   6.997   1.392
 7491SOL    HW123372   1.025   7.001   1.337
 7491SOL    HW223373   0.885   0.047   1.371
 7492SOL     OW23374   1.398   1.966   2.752
 7492SOL    HW123375   1.418   1.998   2.845
 7492SOL    HW223376   1.482   1.967   2.698
 7493SOL     OW23377   5.821   4.317   0.107
 7493SOL    HW123378   5.809   4.319   0.207
 7493SOL    HW223379   5.731   4.320   0.063
 7494SOL     OW23380   5.042   2.394   0.662
 7494SOL    HW123381   5.019   2.323   0.729
 7494SOL    HW223382   5.028   2.484   0.703
 7495SOL     OW23383   1.027   1.736   3.519
 7495SOL    HW123384   0.962   1.809   3.541
 7495SOL    HW223385   0.977   1.651   3.501
 7496SOL     OW23386   0.202   4.961   5.942
 7496SOL    HW123387   0.233   4.900   5.869
 7496SOL    HW223388   0.199   5.055   5.908
 7497SOL     OW23389   0.567   4.427   3.002
 7497SOL    HW123390   0.663   4.453   2.989
 7497SOL    HW223391   0.558   4.327   2.995
 7498SOL     OW23392   4.921   1.892   4.318
 7498SOL    HW123393   4.878   1.974   4.280
 7498SOL    HW223394   4.856   1.844   4.376
 7499SOL     OW23395   3.432   5.001   3.562
 7499SOL    HW123396   3.340   5.022   3.594
 7499SOL    HW223397   3.498   5.019   3.636
 7500SOL     OW23398   5.032   3.899   1.434
 7500SOL    HW123399   4.936   3.871   1.445
 7500SOL    HW223400   5.039   3.998   1.449
 7501SOL     OW23401   1.186   4.371   3.630
 7501SOL    HW123402   1.130   4.375   3.548
 7501SOL    HW223403   1.240   4.287   3.629
 7502SOL     OW23404   1.246   1.894   4.940
 7502SOL    HW123405   1.216   1.848   4.856
 7502SOL    HW223406   1.182   1.966   4.963
 7503SOL     OW23407   2.341   2.445   0.818
 7503SOL    HW123408   2.245   2.461   0.841
 7503SOL    HW223409   2.391   2.419   0.900
 7504SOL     OW23410   5.418   5.265   6.078
 7504SOL    HW123411   5.443   5.195   6.010
 7504SOL    HW223412   5.327   5.245   6.114
 7505SOL     OW23413   1.273   1.640   3.239
 7505SOL    HW123414   1.243   1.716   3.183
 7505SOL    HW223415   1.213   1.561   3.223
 7506SOL     OW23416   3.658   0.683   3.214
 7506SOL    HW123417   3.616   0.656   3.301
 7506SOL    HW223418   3.754   0.654   3.212
 7507SOL     OW23419   1.973   6.188   5.187
 7507SOL    HW123420   1.988   6.261   5.120
 7507SOL    HW223421   1.922   6.225   5.265
 7508SOL     OW23422   4.753   6.089   3.386
 7508SOL    HW123423   4.769   6.187   3.397
 7508SOL    HW223424   4.708   6.072   3.298
 7509SOL     OW23425   2.408   4.392   6.547
 7509SOL    HW123426   2.489   4.338   6.568
 7509SOL    HW223427   2.423   4.487   6.576
 7510SOL     OW23428   3.531   2.884   4.141
 7510SOL    HW123429   3.503   2.974   4.172
 7510SOL    HW223430   3.605   2.893   4.073
 7511SOL     OW23431   1.422   1.013   1.994
 7511SOL    HW123432   1.448   0.972   1.906
 7511SOL    HW223433   1.323   1.005   2.007
 7512SOL     OW23434   1.454   3.110   2.521
 7512SOL    HW123435   1.427   3.014   2.518
 7512SOL    HW223436   1.465   3.144   2.427
 7513SOL     OW23437   2.220   3.176   0.033
 7513SOL    HW123438   2.130   3.162   7.023
 7513SOL    HW223439   2.221   3.144   0.127
 7514SOL     OW23440   2.984   5.187   3.157
 7514SOL    HW123441   3.023   5.095   3.152
 7514SOL    HW223442   2.952   5.215   3.066
 7515SOL     OW23443   6.697   5.212   3.624
 7515SOL    HW123444   6.745   5.173   3.702
 7515SOL    HW223445   6.599   5.218   3.645
 7516SOL     OW23446   1.625   3.283   1.168
 7516SOL    HW123447   1.606   3.300   1.072
 7516SOL    HW223448   1.642   3.185   1.182
 7517SOL     OW23449   1.257   5.850   2.202
 7517SOL    HW123450   1.276   5.761   2.161
 7517SOL    HW223451   1.228   5.838   2.297
 7518SOL     OW23452   5.187   3.708   2.070
 7518SOL    HW123453   5.158   3.641   2.138
 7518SOL    HW223454   5.120   3.782   2.066
 7519SOL     OW23455   1.975   0.475   4.795
 7519SOL    HW123456   2.019   0.462   4.706
 7519SOL    HW223457   2.021   0.549   4.844
 7520SOL     OW23458   1.652   0.132   4.744
 7520SOL    HW123459   1.647   0.056   4.679
 7520SOL    HW223460   1.561   0.171   4.758
 7521SOL     OW23461   3.772   2.459   5.808
 7521SOL    HW123462   3.808   2.381   5.860
 7521SOL    HW223463   3.775   2.541   5.864
 7522SOL     OW23464   1.890   6.667   2.166
 7522SOL    HW123465   1.840   6.694   2.249
 7522SOL    HW223466   1.834   6.687   2.086
 7523SOL     OW23467   6.771   5.829   6.306
 7523SOL    HW123468   6.746   5.827   6.403
 7523SOL    HW223469   6.702   5.779   6.253
 7524SOL     OW23470   6.262   2.490   6.075
 7524SOL    HW123471   6.265   2.554   5.998
 7524SOL    HW223472   6.356   2.468   6.103
 7525SOL     OW23473   0.538   7.013   0.492
 7525SOL    HW123474   0.558   6.990   0.587
 7525SOL    HW223475   0.458   0.044   0.489
 7526SOL     OW23476   3.936   3.426   5.376
 7526SOL    HW123477   3.848   3.387   5.350
 7526SOL    HW223478   3.937   3.445   5.474
 7527SOL     OW23479   2.410   6.298   1.416
 7527SOL    HW123480   2.443   6.315   1.509
 7527SOL    HW223481   2.310   6.305   1.414
 7528SOL     OW23482   5.911   1.926   0.359
 7528SOL    HW123483   5.951   1.965   0.276
 7528SOL    HW223484   5.815   1.954   0.367
 7529SOL     OW23485   0.932   0.312   4.219
 7529SOL    HW123486   0.851   0.290   4.164
 7529SOL    HW223487   1.014   0.282   4.170
 7530SOL     OW23488   0.352   3.276   2.704
 7530SOL    HW123489   0.427   3.306   2.762
 7530SOL    HW223490   0.370   3.302   2.609
 7531SOL     OW23491   1.562   2.467   4.375
 7531SOL    HW123492   1.532   2.411   4.297
 7531SOL    HW223493   1.483   2.496   4.428
 7532SOL     OW23494   4.703   4.545   2.254
 7532SOL    HW123495   4.782   4.483   2.258
 7532SOL    HW223496   4.653   4.529   2.169
 7533SOL     OW23497   3.881   0.140   5.031
 7533SOL    HW123498   3.783   0.119   5.030
 7533SOL    HW223499   3.916   0.139   4.937
 7534SOL     OW23500   4.380   6.622   4.226
 7534SOL    HW123501   4.403   6.642   4.321
 7534SOL    HW223502   4.464   6.618   4.172
 7535SOL     OW23503   2.927   4.356   6.842
 7535SOL    HW123504   2.849   4.412   6.815
 7535SOL    HW223505   3.011   4.400   6.813
 7536SOL     OW23506   4.785   4.969   6.830
 7536SOL    HW123507   4.821   4.902   6.895
 7536SOL    HW223508   4.847   5.047   6.826
 7537SOL     OW23509   2.064   4.698   5.125
 7537SOL    HW123510   1.981   4.741   5.087
 7537SOL    HW223511   2.106   4.641   5.054
 7538SOL     OW23512   3.532   4.068   5.438
 7538SOL    HW123513   3.606   4.001   5.447
 7538SOL    HW223514   3.549   4.127   5.359
 7539SOL     OW23515   1.419   2.937   4.226
 7539SOL    HW123516   1.343   2.898   4.175
 7539SOL    HW223517   1.485   2.977   4.162
 7540SOL     OW23518   3.001   0.951   0.227
 7540SOL    HW123519   3.097   0.966   0.247
 7540SOL    HW223520   2.946   0.975   0.306
 7541SOL     OW23521   0.376   1.987   5.986
 7541SOL    HW123522   0.386   2.033   6.073
 7541SOL    HW223523   0.435   2.030   5.917
 7542SOL     OW23524   1.951   0.288   4.390
 7542SOL    HW123525   2.007   0.344   4.452
 7542SOL    HW223526   1.865   0.264   4.436
 7543SOL     OW23527   2.420   2.513   2.108
 7543SOL    HW123528   2.406   2.566   2.192
 7543SOL    HW223529   2.473   2.568   2.043
 7544SOL     OW23530   1.129   2.180   2.465
 7544SOL    HW123531   1.187   2.199   2.385
 7544SOL    HW223532   1.041   2.145   2.433
 7545SOL     OW23533   3.978   0.487   4.136
 7545SOL    HW123534   4.047   0.474   4.064
 7545SOL    HW223535   4.007   0.439   4.219
 7546SOL     OW23536   4.748   6.653   4.756
 7546SOL    HW123537   4.834   6.661   4.806
 7546SOL    HW223538   4.672   6.648   4.821
 7547SOL     OW23539   1.681   6.614   1.097
 7547SOL    HW123540   1.712   6.708   1.107
 7547SOL    HW223541   1.741   6.553   1.148
 7548SOL     OW23542   2.702   4.015   0.797
 7548SOL    HW123543   2.761   3.945   0.836
 7548SOL    HW223544   2.623   4.030   0.857
 7549SOL     OW23545   6.059   6.887   2.406
 7549SOL    HW123546   6.125   6.831   2.457
 7549SOL    HW223547   6.105   6.969   2.372
 7550SOL     OW23548   0.824   5.706   0.471
 7550SOL    HW123549   0.778   5.718   0.383
 7550SOL    HW223550   0.885   5.626   0.466
 7551SOL     OW23551   4.736   4.026   5.874
 7551SOL    HW123552   4.830   3.998   5.893
 7551SOL    HW223553   4.685   3.949   5.836
 7552SOL     OW23554   3.571   5.683   4.694
 7552SOL    HW123555   3.508   5.639   4.758
 7552SOL    HW223556   3.530   5.768   4.660
 7553SOL     OW23557   4.349   4.342   5.719
 7553SOL    HW123558   4.306   4.254   5.737
 7553SOL    HW223559   4.285   4.400   5.667
 7554SOL     OW23560   6.579   0.842   1.060
 7554SOL    HW123561   6.553   0.774   0.991
 7554SOL    HW223562   6.496   0.885   1.097
 7555SOL     OW23563   2.806   6.640   6.776
 7555SOL    HW123564   2.820   6.633   6.875
 7555SOL    HW223565   2.718   6.599   6.752
 7556SOL     OW23566   0.348   4.038   2.832
 7556SOL    HW123567   0.300   3.950   2.831
 7556SOL    HW223568   0.446   4.022   2.814
 7557SOL     OW23569   4.730   4.380   0.792
 7557SOL    HW123570   4.713   4.334   0.705
 7557SOL    HW223571   4.643   4.401   0.836
 7558SOL     OW23572   1.625   3.724   3.539
 7558SOL    HW123573   1.722   3.715   3.516
 7558SOL    HW223574   1.603   3.660   3.613
 7559SOL     OW23575   1.072   5.021   0.381
 7559SOL    HW123576   1.091   5.091   0.312
 7559SOL    HW223577   0.983   4.978   0.362
 7560SOL     OW23578   4.310   0.235   5.842
 7560SOL    HW123579   4.342   0.323   5.875
 7560SOL    HW223580   4.330   0.164   5.910
 7561SOL     OW23581   1.562   2.981   0.605
 7561SOL    HW123582   1.488   3.030   0.559
 7561SOL    HW223583   1.523   2.909   0.662
 7562SOL     OW23584   4.614   6.070   5.291
 7562SOL    HW123585   4.553   6.132   5.341
 7562SOL    HW223586   4.709   6.102   5.300
 7563SOL     OW23587   2.483   1.382   3.322
 7563SOL    HW123588   2.402   1.325   3.305
 7563SOL    HW223589   2.526   1.353   3.407
 7564SOL     OW23590   6.356   5.692   4.134
 7564SOL    HW123591   6.411   5.771   4.163
 7564SOL    HW223592   6.343   5.696   4.035
 7565SOL     OW23593   4.668   4.991   6.560
 7565SOL    HW123594   4.716   4.984   6.647
 7565SOL    HW223595   4.669   4.903   6.513
 7566SOL     OW23596   1.700   5.857   3.796
 7566SOL    HW123597   1.764   5.801   3.848
 7566SOL    HW223598   1.700   5.950   3.833
 7567SOL     OW23599   2.898   4.030   0.493
 7567SOL    HW123600   2.826   4.062   0.555
 7567SOL    HW223601   2.977   4.091   0.499
 7568SOL     OW23602   4.060   4.842   4.470
 7568SOL    HW123603   4.046   4.901   4.549
 7568SOL    HW223604   3.982   4.848   4.408
 7569SOL     OW23605   3.414   6.936   2.758
 7569SOL    HW123606   3.347   6.973   2.821
 7569SOL    HW223607   3.424   6.996   2.679
 7570SOL     OW23608   6.203   5.204   5.041
 7570SOL    HW123609   6.168   5.291   5.077
 7570SOL    HW223610   6.266   5.164   5.107
 7571SOL     OW23611   6.929   4.332   0.562
 7571SOL    HW123612   6.948   4.383   0.646
 7571SOL    HW223613   6.836   4.296   0.566
 7572SOL     OW23614   5.922   1.282   3.738
 7572SOL    HW123615   5.985   1.272   3.815
 7572SOL    HW223616   5.938   1.209   3.672
 7573SOL     OW23617   3.071   4.845   3.856
 7573SOL    HW123618   3.124   4.803   3.930
 7573SOL    HW223619   3.127   4.914   3.810
 7574SOL     OW23620   4.210   6.039   1.785
 7574SOL    HW123621   4.223   5.955   1.732
 7574SOL    HW223622   4.128   6.031   1.842
 7575SOL     OW23623   5.039   3.496   3.875
 7575SOL    HW123624   5.011   3.402   3.896
 7575SOL    HW223625   4.998   3.523   3.788
 7576SOL     OW23626   0.095   4.450   1.925
 7576SOL    HW123627   0.152   4.381   1.970
 7576SOL    HW223628   0.129   4.466   1.833
 7577SOL     OW23629   3.989   1.360   3.762
 7577SOL    HW123630   4.064   1.412   3.803
 7577SOL    HW223631   3.987   1.268   3.801
 7578SOL     OW23632   2.046   5.407   5.649
 7578SOL    HW123633   1.997   5.380   5.732
 7578SOL    HW223634   2.084   5.325   5.605
 7579SOL     OW23635   4.057   2.273   4.646
 7579SOL    HW123636   4.047   2.218   4.563
 7579SOL    HW223637   3.973   2.325   4.661
 7580SOL     OW23638   1.672   3.155   2.692
 7580SOL    HW123639   1.596   3.137   2.629
 7580SOL    HW223640   1.659   3.102   2.775
 7581SOL     OW23641   5.366   0.988   0.963
 7581SOL    HW123642   5.314   1.028   0.887
 7581SOL    HW223643   5.327   1.019   1.050
 7582SOL     OW23644   3.873   3.265   1.541
 7582SOL    HW123645   3.836   3.226   1.625
 7582SOL    HW223646   3.797   3.296   1.483
 7583SOL     OW23647   6.059   4.321   3.564
 7583SOL    HW123648   6.013   4.298   3.650
 7583SOL    HW223649   6.132   4.387   3.582
 7584SOL     OW23650   1.653   2.554   2.142
 7584SOL    HW123651   1.709   2.475   2.167
 7584SOL    HW223652   1.588   2.527   2.070
 7585SOL     OW23653   3.261   3.756   0.601
 7585SOL    HW123654   3.316   3.840   0.595
 7585SOL    HW223655   3.164   3.780   0.608
 7586SOL     OW23656   1.542   2.634   2.964
 7586SOL    HW123657   1.535   2.588   3.053
 7586SOL    HW223658   1.474   2.706   2.958
 7587SOL     OW23659   3.157   0.544   5.455
 7587SOL    HW123660   3.098   0.597   5.394
 7587SOL    HW223661   3.236   0.510   5.404
 7588SOL     OW23662   0.132   4.453   1.648
 7588SOL    HW123663   0.202   4.399   1.601
 7588SOL    HW223664   0.115   4.537   1.597
 7589SOL     OW23665   4.564   5.754   6.250
 7589SOL    HW123666   4.511   5.810   6.186
 7589SOL    HW223667   4.512   5.743   6.335
 7590SOL     OW23668   2.220   0.900   5.243
 7590SOL    HW123669   2.188   0.831   5.179
 7590SOL    HW223670   2.217   0.864   5.336
 7591SOL     OW23671   0.139   5.753   6.327
 7591SOL    HW123672   0.149   5.774   6.425
 7591SOL    HW223673   0.224   5.714   6.293
 7592SOL     OW23674   4.708   4.705   6.464
 7592SOL    HW123675   4.725   4.614   6.502
 7592SOL    HW223676   4.643   4.698   6.389
 7593SOL     OW23677   6.761   4.756   0.141
 7593SOL    HW123678   6.785   4.755   0.044
 7593SOL    HW223679   6.738   4.849   0.169
 7594SOL     OW23680   1.120   0.584   4.789
 7594SOL    HW123681   1.131   0.655   4.720
 7594SOL    HW223682   1.177   0.605   4.868
 7595SOL     OW23683   0.145   3.859   6.747
 7595SOL    HW123684   0.121   3.784   6.685
 7595SOL    HW223685   0.109   3.840   6.838
 7596SOL     OW23686   5.465   5.449   2.300
 7596SOL    HW123687   5.453   5.392   2.219
 7596SOL    HW223688   5.458   5.393   2.382
 7597SOL     OW23689   2.519   4.494   2.795
 7597SOL    HW123690   2.550   4.484   2.890
 7597SOL    HW223691   2.573   4.566   2.751
 7598SOL     OW23692   6.225   1.501   2.698
 7598SOL    HW123693   6.322   1.485   2.712
 7598SOL    HW223694   6.177   1.492   2.785
 7599SOL     OW23695   5.529   3.979   1.654
 7599SOL    HW123696   5.622   4.001   1.684
 7599SOL    HW223697   5.533   3.920   1.574
 7600SOL     OW23698   2.046   2.978   2.228
 7600SOL    HW123699   2.005   2.926   2.303
 7600SOL    HW223700   2.096   2.916   2.168
 7601SOL     OW23701   1.892   0.808   5.533
 7601SOL    HW123702   1.818   0.781   5.471
 7601SOL    HW223703   1.887   0.906   5.550
 7602SOL     OW23704   2.018   2.589   5.118
 7602SOL    HW123705   1.972   2.576   5.030
 7602SOL    HW223706   2.104   2.638   5.104
 7603SOL     OW23707   5.846   1.140   1.843
 7603SOL    HW123708   5.772   1.163   1.780
 7603SOL    HW223709   5.854   1.041   1.851
 7604SOL     OW23710   5.898   5.536   6.611
 7604SOL    HW123711   5.840   5.455   6.621
 7604SOL    HW223712   5.935   5.561   6.700
 7605SOL     OW23713   4.814   3.169   5.275
 7605SOL    HW123714   4.899   3.134   5.315
 7605SOL    HW223715   4.787   3.253   5.321
 7606SOL     OW23716   5.444   1.145   4.048
 7606SOL    HW123717   5.360   1.199   4.035
 7606SOL    HW223718   5.420   1.058   4.092
 7607SOL     OW23719   5.024   6.076   6.238
 7607SOL    HW123720   5.021   5.977   6.236
 7607SOL    HW223721   5.118   6.107   6.220
 7608SOL     OW23722   3.682   3.213   4.858
 7608SOL    HW123723   3.588   3.229   4.829
 7608SOL    HW223724   3.710   3.120   4.832
 7609SOL     OW23725   0.858   2.698   3.110
 7609SOL    HW123726   0.834   2.676   3.205
 7609SOL    HW223727   0.843   2.617   3.053
 7610SOL     OW23728   5.803   0.372   2.217
 7610SOL    HW123729   5.744   0.294   2.198
 7610SOL    HW223730   5.805   0.388   2.316
 7611SOL     OW23731   1.637   1.939   1.654
 7611SOL    HW123732   1.543   1.922   1.625
 7611SOL    HW223733   1.672   1.861   1.705
 7612SOL     OW23734   3.546   0.889   2.743
 7612SOL    HW123735   3.586   0.893   2.651
 7612SOL    HW223736   3.502   0.800   2.755
 7613SOL     OW23737   6.867   0.673   2.004
 7613SOL    HW123738   6.908   0.586   1.975
 7613SOL    HW223739   6.769   0.660   2.019
 7614SOL     OW23740   4.390   1.097   6.901
 7614SOL    HW123741   4.291   1.094   6.907
 7614SOL    HW223742   4.418   1.174   6.844
 7615SOL     OW23743   4.513   4.673   6.266
 7615SOL    HW123744   4.503   4.732   6.186
 7615SOL    HW223745   4.428   4.624   6.282
 7616SOL     OW23746   6.992   5.938   3.493
 7616SOL    HW123747   6.957   5.885   3.571
 7616SOL    HW223748   0.059   5.958   3.507
 7617SOL     OW23749   3.977   5.115   3.510
 7617SOL    HW123750   3.950   5.021   3.531
 7617SOL    HW223751   3.950   5.137   3.416
 7618SOL     OW23752   3.433   1.337   0.284
 7618SOL    HW123753   3.377   1.392   0.222
 7618SOL    HW223754   3.530   1.362   0.272
 7619SOL     OW23755   5.487   3.504   5.772
 7619SOL    HW123756   5.496   3.408   5.745
 7619SOL    HW223757   5.575   3.539   5.804
 7620SOL     OW23758   2.738   5.662   2.081
 7620SOL    HW123759   2.654   5.713   2.097
 7620SOL    HW223760   2.809   5.725   2.049
 7621SOL     OW23761   2.399   2.890   1.379
 7621SOL    HW123762   2.470   2.960   1.386
 7621SOL    HW223763   2.426   2.808   1.430
 7622SOL     OW23764   4.884   2.058   0.693
 7622SOL    HW123765   4.899   1.986   0.761
 7622SOL    HW223766   4.798   2.042   0.646
 7623SOL     OW23767   6.906   6.973   5.253
 7623SOL    HW123768   6.915   6.946   5.349
 7623SOL    HW223769   6.822   7.026   5.241
 7624SOL     OW23770   6.917   1.240   4.809
 7624SOL    HW123771   6.926   1.339   4.803
 7624SOL    HW223772   6.875   1.206   4.725
 7625SOL     OW23773   2.296   4.579   0.766
 7625SOL    HW123774   2.356   4.499   0.771
 7625SOL    HW223775   2.266   4.604   0.857
 7626SOL     OW23776   2.648   3.873   5.328
 7626SOL    HW123777   2.602   3.805   5.386
 7626SOL    HW223778   2.579   3.921   5.274
 7627SOL     OW23779   0.120   6.985   6.863
 7627SOL    HW123780   0.024   6.971   6.838
 7627SOL    HW223781   0.128   0.035   6.922
 7628SOL     OW23782   4.118   1.362   0.636
 7628SOL    HW123783   4.101   1.347   0.539
 7628SOL    HW223784   4.032   1.385   0.682
 7629SOL     OW23785   6.081   5.676   2.239
 7629SOL    HW123786   6.141   5.635   2.170
 7629SOL    HW223787   5.986   5.663   2.213
 7630SOL     OW23788   5.792   2.477   2.298
 7630SOL    HW123789   5.720   2.429   2.349
 7630SOL    HW223790   5.880   2.432   2.314
 7631SOL     OW23791   0.729   0.302   4.020
 7631SOL    HW123792   0.662   0.338   3.954
 7631SOL    HW223793   0.762   0.213   3.989
 7632SOL     OW23794   5.149   1.110   4.697
 7632SOL    HW123795   5.225   1.164   4.732
 7632SOL    HW223796   5.185   1.031   4.647
 7633SOL     OW23797   5.566   3.364   6.287
 7633SOL    HW123798   5.556   3.461   6.307
 7633SOL    HW223799   5.526   3.344   6.198
 7634SOL     OW23800   0.745   2.096   2.010
 7634SOL    HW123801   0.831   2.049   1.989
 7634SOL    HW223802   0.758   2.195   1.999
 7635SOL     OW23803   2.185   4.592   5.830
 7635SOL    HW123804   2.221   4.641   5.910
 7635SOL    HW223805   2.164   4.497   5.856
 7636SOL     OW23806   0.872   1.523   3.579
 7636SOL    HW123807   0.786   1.573   3.594
 7636SOL    HW223808   0.871   1.439   3.632
 7637SOL     OW23809   3.231   6.499   3.919
 7637SOL    HW123810   3.238   6.463   3.827
 7637SOL    HW223811   3.319   6.491   3.966
 7638SOL     OW23812   4.708   5.288   1.790
 7638SOL    HW123813   4.773   5.238   1.733
 7638SOL    HW223814   4.658   5.353   1.733
 7639SOL     OW23815   0.716   2.028   4.402
 7639SOL    HW123816   0.637   2.021   4.342
 7639SOL    HW223817   0.784   2.089   4.361
 7640SOL     OW23818   2.356   2.934   6.573
 7640SOL    HW123819   2.372   3.028   6.600
 7640SOL    HW223820   2.425   2.874   6.615
 7641SOL     OW23821   6.030   2.943   0.885
 7641SOL    HW123822   6.071   3.022   0.840
 7641SOL    HW223823   6.091   2.864   0.874
 7642SOL     OW23824   1.188   3.189   3.222
 7642SOL    HW123825   1.108   3.193   3.163
 7642SOL    HW223826   1.196   3.097   3.261
 7643SOL     OW23827   5.635   3.515   3.428
 7643SOL    HW123828   5.671   3.606   3.409
 7643SOL    HW223829   5.690   3.472   3.500
 7644SOL     OW23830   6.721   2.738   4.220
 7644SOL    HW123831   6.806   2.778   4.188
 7644SOL    HW223832   6.671   2.699   4.142
 7645SOL     OW23833   3.581   2.680   0.585
 7645SOL    HW123834   3.560   2.584   0.602
 7645SOL    HW223835   3.679   2.691   0.573
 7646SOL     OW23836   0.489   0.338   2.288
 7646SOL    HW123837   0.395   0.339   2.321
 7646SOL    HW223838   0.495   0.391   2.203
 7647SOL     OW23839   2.585   4.346   6.914
 7647SOL    HW123840   2.623   4.380   6.828
 7647SOL    HW223841   2.658   4.306   6.969
 7648SOL     OW23842   2.311   0.587   3.878
 7648SOL    HW123843   2.230   0.617   3.928
 7648SOL    HW223844   2.285   0.520   3.808
 7649SOL     OW23845   3.822   1.992   1.304
 7649SOL    HW123846   3.755   1.992   1.378
 7649SOL    HW223847   3.878   2.075   1.310
 7650SOL     OW23848   0.619   4.473   1.068
 7650SOL    HW123849   0.671   4.388   1.067
 7650SOL    HW223850   0.524   4.455   1.043
 7651SOL     OW23851   5.749   2.227   5.989
 7651SOL    HW123852   5.755   2.168   6.069
 7651SOL    HW223853   5.670   2.201   5.934
 7652SOL     OW23854   0.625   2.753   2.131
 7652SOL    HW123855   0.653   2.679   2.191
 7652SOL    HW223856   0.704   2.785   2.078
 7653SOL     OW23857   5.008   2.665   1.741
 7653SOL    HW123858   4.993   2.581   1.792
 7653SOL    HW223859   4.951   2.738   1.778
 7654SOL     OW23860   5.995   3.652   5.096
 7654SOL    HW123861   5.956   3.565   5.127
 7654SOL    HW223862   5.964   3.726   5.156
 7655SOL     OW23863   5.049   4.136   6.563
 7655SOL    HW123864   5.044   4.038   6.541
 7655SOL    HW223865   5.086   4.186   6.485
 7656SOL     OW23866   6.866   0.372   5.256
 7656SOL    HW123867   6.947   0.431   5.258
 7656SOL    HW223868   6.816   0.382   5.342
 7657SOL     OW23869   3.607   2.116   3.386
 7657SOL    HW123870   3.567   2.187   3.328
 7657SOL    HW223871   3.704   2.103   3.362
 7658SOL     OW23872   4.528   1.341   5.555
 7658SOL    HW123873   4.508   1.340   5.457
 7658SOL    HW223874   4.443   1.354   5.606
 7659SOL     OW23875   5.025   5.681   6.215
 7659SOL    HW123876   5.108   5.720   6.255
 7659SOL    HW223877   5.017   5.585   6.243
 7660SOL     OW23878   5.430   5.675   3.765
 7660SOL    HW123879   5.341   5.649   3.804
 7660SOL    HW223880   5.492   5.597   3.769
 7661SOL     OW23881   6.044   3.176   3.657
 7661SOL    HW123882   6.102   3.254   3.680
 7661SOL    HW223883   5.992   3.197   3.574
 7662SOL     OW23884   6.451   5.510   3.544
 7662SOL    HW123885   6.446   5.450   3.625
 7662SOL    HW223886   6.420   5.602   3.569
 7663SOL     OW23887   0.998   6.827   6.816
 7663SOL    HW123888   1.008   6.728   6.811
 7663SOL    HW223889   1.032   6.859   6.905
 7664SOL     OW23890   5.085   4.674   4.902
 7664SOL    HW123891   5.055   4.672   4.806
 7664SOL    HW223892   5.141   4.756   4.917
 7665SOL     OW23893   1.803   5.628   4.047
 7665SOL    HW123894   1.872   5.668   4.108
 7665SOL    HW223895   1.829   5.534   4.025
 7666SOL     OW23896   2.167   0.060   2.422
 7666SOL    HW123897   2.129   0.146   2.389
 7666SOL    HW223898   2.175   0.062   2.522
 7667SOL     OW23899   5.770   0.246   5.556
 7667SOL    HW123900   5.698   0.313   5.539
 7667SOL    HW223901   5.780   0.186   5.477
 7668SOL     OW23902   3.488   4.097   2.979
 7668SOL    HW123903   3.431   4.132   3.053
 7668SOL    HW223904   3.461   4.142   2.893
 7669SOL     OW23905   4.365   6.140   4.655
 7669SOL    HW123906   4.343   6.049   4.620
 7669SOL    HW223907   4.395   6.198   4.579
 7670SOL     OW23908   1.301   5.843   0.855
 7670SOL    HW123909   1.332   5.882   0.942
 7670SOL    HW223910   1.369   5.862   0.784
 7671SOL     OW23911   4.957   2.825   5.178
 7671SOL    HW123912   5.048   2.855   5.151
 7671SOL    HW223913   4.959   2.727   5.197
 7672SOL     OW23914   4.920   0.117   1.783
 7672SOL    HW123915   4.888   0.139   1.875
 7672SOL    HW223916   4.941   0.201   1.734
 7673SOL     OW23917   2.037   4.019   6.954
 7673SOL    HW123918   2.100   3.950   6.917
 7673SOL    HW223919   2.077   4.060   0.006
 7674SOL     OW23920   6.169   1.558   6.523
 7674SOL    HW123921   6.167   1.466   6.562
 7674SOL    HW223922   6.239   1.563   6.452
 7675SOL     OW23923   5.538   0.180   3.491
 7675SOL    HW123924   5.447   0.170   3.532
 7675SOL    HW223925   5.540   0.137   3.401
 7676SOL     OW23926   2.285   0.359   0.539
 7676SOL    HW123927   2.255   0.449   0.572
 7676SOL    HW223928   2.213   0.318   0.482
 7677SOL     OW23929   1.609   2.067   2.616
 7677SOL    HW123930   1.699   2.111   2.613
 7677SOL    HW223931   1.598   2.009   2.536
 7678SOL     OW23932   4.799   6.810   5.755
 7678SOL    HW123933   4.721   6.865   5.787
 7678SOL    HW223934   4.884   6.857   5.777
 7679SOL     OW23935   1.719   5.153   4.559
 7679SOL    HW123936   1.794   5.216   4.577
 7679SOL    HW223937   1.754   5.059   4.558
 7680SOL     OW23938   4.480   0.265   0.911
 7680SOL    HW123939   4.535   0.276   0.994
 7680SOL    HW223940   4.437   0.175   0.910
 7681SOL     OW23941   4.544   2.450   5.324
 7681SOL    HW123942   4.534   2.509   5.404
 7681SOL    HW223943   4.637   2.416   5.318
 7682SOL     OW23944   3.815   1.052   7.004
 7682SOL    HW123945   3.848   1.138   0.013
 7682SOL    HW223946   3.717   1.058   6.987
 7683SOL     OW23947   6.461   3.579   3.057
 7683SOL    HW123948   6.410   3.552   2.976
 7683SOL    HW223949   6.421   3.535   3.138
 7684SOL     OW23950   4.094   2.272   6.262
 7684SOL    HW123951   4.028   2.236   6.328
 7684SOL    HW223952   4.185   2.275   6.303
 7685SOL     OW23953   4.629   4.375   1.708
 7685SOL    HW123954   4.580   4.394   1.622
 7685SOL    HW223955   4.575   4.313   1.764
 7686SOL     OW23956   2.153   0.639   2.149
 7686SOL    HW123957   2.146   0.599   2.240
 7686SOL    HW223958   2.239   0.610   2.106
 7687SOL     OW23959   4.799   4.645   5.430
 7687SOL    HW123960   4.883   4.605   5.393
 7687SOL    HW223961   4.724   4.580   5.419
 7688SOL     OW23962   6.838   0.581   3.531
 7688SOL    HW123963   6.868   0.625   3.615
 7688SOL    HW223964   6.889   0.496   3.517
 7689SOL     OW23965   3.435   0.320   5.019
 7689SOL    HW123966   3.361   0.258   4.993
 7689SOL    HW223967   3.522   0.270   5.019
 7690SOL     OW23968   0.966   5.461   3.247
 7690SOL    HW123969   1.041   5.519   3.279
 7690SOL    HW223970   0.881   5.489   3.291
 7691SOL     OW23971   0.053   4.129   5.652
 7691SOL    HW123972   7.022   4.064   5.606
 7691SOL    HW223973   0.107   4.081   5.721
 7692SOL     OW23974   0.972   5.968   1.282
 7692SOL    HW123975   1.000   5.892   1.224
 7692SOL    HW223976   1.034   6.046   1.267
 7693SOL     OW23977   4.075   1.642   6.669
 7693SOL    HW123978   4.128   1.582   6.608
 7693SOL    HW223979   3.979   1.616   6.665
 7694SOL     OW23980   5.829   5.555   3.914
 7694SOL    HW123981   5.863   5.648   3.928
 7694SOL    HW223982   5.777   5.526   3.994
 7695SOL     OW23983   5.308   6.614   6.378
 7695SOL    HW123984   5.249   6.660   6.311
 7695SOL    HW223985   5.274   6.521   6.393
 7696SOL     OW23986   1.351   4.222   5.601
 7696SOL    HW123987   1.252   4.218   5.588
 7696SOL    HW223988   1.392   4.136   5.568
 7697SOL     OW23989   4.163   0.259   2.371
 7697SOL    HW123990   4.177   0.161   2.357
 7697SOL    HW223991   4.065   0.278   2.374
 7698SOL     OW23992   0.392   2.146   6.238
 7698SOL    HW123993   0.490   2.159   6.224
 7698SOL    HW223994   0.344   2.231   6.221
 7699SOL     OW23995   3.314   3.579   1.507
 7699SOL    HW123996   3.365   3.650   1.556
 7699SOL    HW223997   3.217   3.583   1.534
 7700SOL     OW23998   5.623   1.178   5.602
 7700SOL    HW123999   5.593   1.272   5.584
 7700SOL    HW224000   5.716   1.166   5.567
 7701SOL     OW24001   6.899   2.312   4.999
 7701SOL    HW124002   6.892   2.279   4.905
 7701SOL    HW224003   6.913   2.411   4.998
 7702SOL     OW24004   0.920   6.046   6.910
 7702SOL    HW124005   1.020   6.047   6.902
 7702SOL    HW224006   0.889   6.129   6.957
 7703SOL     OW24007   1.335   2.769   0.190
 7703SOL    HW124008   1.291   2.859   0.186
 7703SOL    HW224009   1.289   2.713   0.260
 7704SOL     OW24010   4.084   3.627   1.594
 7704SOL    HW124011   4.078   3.683   1.512
 7704SOL    HW224012   3.996   3.627   1.641
 7705SOL     OW24013   3.907   3.071   4.616
 7705SOL    HW124014   3.903   3.165   4.649
 7705SOL    HW224015   3.845   3.014   4.671
 7706SOL     OW24016   5.858   1.065   5.535
 7706SOL    HW124017   5.865   0.971   5.569
 7706SOL    HW224018   5.888   1.068   5.439
 7707SOL     OW24019   0.220   4.968   6.229
 7707SOL    HW124020   0.313   4.935   6.247
 7707SOL    HW224021   0.196   4.946   6.134
 7708SOL     OW24022   5.208   1.600   5.527
 7708SOL    HW124023   5.125   1.575   5.578
 7708SOL    HW224024   5.242   1.520   5.478
 7709SOL     OW24025   4.099   2.412   1.640
 7709SOL    HW124026   4.152   2.427   1.723
 7709SOL    HW224027   4.156   2.429   1.560
 7710SOL     OW24028   3.357   1.124   5.931
 7710SOL    HW124029   3.340   1.083   6.021
 7710SOL    HW224030   3.338   1.056   5.860
 7711SOL     OW24031   4.950   6.630   4.534
 7711SOL    HW124032   4.876   6.639   4.600
 7711SOL    HW224033   4.911   6.603   4.445
 7712SOL     OW24034   6.160   4.281   6.145
 7712SOL    HW124035   6.081   4.268   6.206
 7712SOL    HW224036   6.201   4.370   6.162
 7713SOL     OW24037   1.026   4.824   6.630
 7713SOL    HW124038   0.997   4.834   6.535
 7713SOL    HW224039   0.998   4.904   6.682
 7714SOL     OW24040   6.300   4.857   5.084
 7714SOL    HW124041   6.326   4.766   5.053
 7714SOL    HW224042   6.208   4.880   5.050
 7715SOL     OW24043   3.452   1.487   1.495
 7715SOL    HW124044   3.364   1.474   1.449
 7715SOL    HW224045   3.448   1.570   1.550
 7716SOL     OW24046   3.740   2.090   4.562
 7716SOL    HW124047   3.659   2.120   4.612
 7716SOL    HW224048   3.735   2.124   4.468
 7717SOL     OW24049   3.231   6.406   0.455
 7717SOL    HW124050   3.293   6.439   0.527
 7717SOL    HW224051   3.245   6.307   0.443
 7718SOL     OW24052   1.167   6.327   3.214
 7718SOL    HW124053   1.221   6.345   3.296
 7718SOL    HW224054   1.118   6.241   3.223
 7719SOL     OW24055   5.272   2.644   5.819
 7719SOL    HW124056   5.277   2.554   5.863
 7719SOL    HW224057   5.205   2.641   5.745
 7720SOL     OW24058   4.900   6.544   1.411
 7720SOL    HW124059   4.937   6.603   1.338
 7720SOL    HW224060   4.864   6.460   1.371
 7721SOL     OW24061   0.353   4.852   3.776
 7721SOL    HW124062   0.343   4.946   3.743
 7721SOL    HW224063   0.449   4.835   3.801
 7722SOL     OW24064   0.653   5.833   3.367
 7722SOL    HW124065   0.677   5.849   3.463
 7722SOL    HW224066   0.554   5.843   3.356
 7723SOL     OW24067   7.027   2.382   6.048
 7723SOL    HW124068   6.990   2.399   6.139
 7723SOL    HW224069   6.995   2.294   6.015
 7724SOL     OW24070   2.769   6.017   6.915
 7724SOL    HW124071   2.676   6.054   6.913
 7724SOL    HW224072   2.816   6.048   6.997
 7725SOL     OW24073   5.087   4.429   3.368
 7725SOL    HW124074   5.177   4.396   3.397
 7725SOL    HW224075   5.036   4.462   3.447
 7726SOL     OW24076   5.059   6.021   3.574
 7726SOL    HW124077   5.024   6.099   3.626
 7726SOL    HW224078   5.029   6.029   3.479
 7727SOL     OW24079   5.925   3.305   2.623
 7727SOL    HW124080   5.983   3.384   2.603
 7727SOL    HW224081   5.853   3.299   2.553
 7728SOL     OW24082   2.015   3.478   2.862
 7728SOL    HW124083   1.929   3.447   2.822
 7728SOL    HW224084   2.076   3.510   2.790
 7729SOL     OW24085   5.571   1.377   5.968
 7729SOL    HW124086   5.549   1.465   5.927
 7729SOL    HW224087   5.665   1.351   5.944
 7730SOL     OW24088   4.474   6.221   3.255
 7730SOL    HW124089   4.462   6.313   3.291
 7730SOL    HW224090   4.464   6.154   3.329
 7731SOL     OW24091   6.097   1.705   3.954
 7731SOL    HW124092   6.195   1.698   3.940
 7731SOL    HW224093   6.072   1.801   3.968
 7732SOL     OW24094   4.186   4.655   0.840
 7732SOL    HW124095   4.222   4.654   0.746
 7732SOL    HW224096   4.089   4.678   0.838
 7733SOL     OW24097   3.720   5.264   1.904
 7733SOL    HW124098   3.699   5.168   1.925
 7733SOL    HW224099   3.792   5.267   1.834
 7734SOL     OW24100   1.200   3.070   2.245
 7734SOL    HW124101   1.181   2.980   2.205
 7734SOL    HW224102   1.181   3.068   2.343
 7735SOL     OW24103   5.802   3.889   0.622
 7735SOL    HW124104   5.894   3.863   0.650
 7735SOL    HW224105   5.735   3.839   0.679
 7736SOL     OW24106   5.626   4.092   6.674
 7736SOL    HW124107   5.572   4.168   6.638
 7736SOL    HW224108   5.723   4.114   6.666
 7737SOL     OW24109   5.015   3.232   0.181
 7737SOL    HW124110   5.000   3.331   0.186
 7737SOL    HW224111   5.110   3.211   0.207
 7738SOL     OW24112   1.722   4.767   6.710
 7738SOL    HW124113   1.778   4.837   6.754
 7738SOL    HW224114   1.680   4.805   6.628
 7739SOL     OW24115   6.045   4.800   2.279
 7739SOL    HW124116   6.024   4.762   2.189
 7739SOL    HW224117   6.054   4.725   2.345
 7740SOL     OW24118   6.696   6.070   3.143
 7740SOL    HW124119   6.607   6.040   3.108
 7740SOL    HW224120   6.749   6.111   3.069
 7741SOL     OW24121   2.586   5.345   3.711
 7741SOL    HW124122   2.578   5.250   3.679
 7741SOL    HW224123   2.682   5.368   3.724
 7742SOL     OW24124   6.883   0.714   4.481
 7742SOL    HW124125   6.811   0.776   4.450
 7742SOL    HW224126   6.894   0.640   4.415
 7743SOL     OW24127   4.920   3.343   2.014
 7743SOL    HW124128   4.884   3.250   2.024
 7743SOL    HW224129   4.935   3.362   1.917
 7744SOL     OW24130   0.209   6.601   3.410
 7744SOL    HW124131   0.186   6.673   3.476
 7744SOL    HW224132   0.225   6.515   3.458
 7745SOL     OW24133   6.309   2.736   5.364
 7745SOL    HW124134   6.237   2.800   5.337
 7745SOL    HW224135   6.320   2.667   5.292
 7746SOL     OW24136   1.770   0.597   6.323
 7746SOL    HW124137   1.678   0.592   6.362
 7746SOL    HW224138   1.785   0.517   6.264
 7747SOL     OW24139   4.826   5.011   0.841
 7747SOL    HW124140   4.878   4.925   0.841
 7747SOL    HW224141   4.750   5.005   0.906
 7748SOL     OW24142   1.353   3.941   6.776
 7748SOL    HW124143   1.438   3.970   6.733
 7748SOL    HW224144   1.327   3.851   6.741
 7749SOL     OW24145   5.978   3.187   6.087
 7749SOL    HW124146   6.056   3.245   6.064
 7749SOL    HW224147   5.898   3.244   6.103
 7750SOL     OW24148   3.802   5.592   3.036
 7750SOL    HW124149   3.871   5.552   3.096
 7750SOL    HW224150   3.729   5.633   3.091
 7751SOL     OW24151   1.013   2.299   1.471
 7751SOL    HW124152   0.996   2.295   1.569
 7751SOL    HW224153   1.079   2.229   1.446
 7752SOL     OW24154   2.712   1.150   2.332
 7752SOL    HW124155   2.706   1.250   2.326
 7752SOL    HW224156   2.720   1.111   2.240
 7753SOL     OW24157   4.893   0.492   5.014
 7753SOL    HW124158   4.896   0.592   5.006
 7753SOL    HW224159   4.801   0.460   4.991
 7754SOL     OW24160   4.743   6.381   1.229
 7754SOL    HW124161   4.794   6.432   1.160
 7754SOL    HW224162   4.750   6.283   1.211
 7755SOL     OW24163   1.525   2.941   5.948
 7755SOL    HW124164   1.476   2.861   5.981
 7755SOL    HW224165   1.468   3.023   5.961
 7756SOL     OW24166   1.388   4.588   2.089
 7756SOL    HW124167   1.439   4.510   2.126
 7756SOL    HW224168   1.332   4.628   2.161
 7757SOL     OW24169   0.562   4.383   0.452
 7757SOL    HW124170   0.571   4.304   0.390
 7757SOL    HW224171   0.628   4.374   0.526
 7758SOL     OW24172   6.723   1.132   5.006
 7758SOL    HW124173   6.791   1.175   4.948
 7758SOL    HW224174   6.676   1.201   5.060
 7759SOL     OW24175   3.187   1.215   2.724
 7759SOL    HW124176   3.215   1.299   2.770
 7759SOL    HW224177   3.240   1.138   2.761
 7760SOL     OW24178   5.308   2.944   0.444
 7760SOL    HW124179   5.251   3.018   0.481
 7760SOL    HW224180   5.395   2.982   0.413
 7761SOL     OW24181   4.896   5.325   2.972
 7761SOL    HW124182   4.962   5.255   2.944
 7761SOL    HW224183   4.803   5.289   2.960
 7762SOL     OW24184   4.691   1.169   0.142
 7762SOL    HW124185   4.655   1.160   0.235
 7762SOL    HW224186   4.637   1.237   0.092
 7763SOL     OW24187   1.608   0.808   2.966
 7763SOL    HW124188   1.569   0.900   2.972
 7763SOL    HW224189   1.664   0.790   3.047
 7764SOL     OW24190   3.817   4.447   5.335
 7764SOL    HW124191   3.914   4.423   5.336
 7764SOL    HW224192   3.807   4.546   5.322
 7765SOL     OW24193   6.674   4.120   4.174
 7765SOL    HW124194   6.701   4.026   4.196
 7765SOL    HW224195   6.583   4.120   4.132
 7766SOL     OW24196   0.167   2.943   5.648
 7766SOL    HW124197   0.113   2.924   5.730
 7766SOL    HW224198   0.205   3.035   5.654
 7767SOL     OW24199   4.147   0.664   3.041
 7767SOL    HW124200   4.130   0.566   3.050
 7767SOL    HW224201   4.245   0.680   3.030
 7768SOL     OW24202   3.097   6.050   4.195
 7768SOL    HW124203   3.084   6.108   4.276
 7768SOL    HW224204   3.169   5.984   4.212
 7769SOL     OW24205   4.026   1.765   6.259
 7769SOL    HW124206   3.927   1.748   6.255
 7769SOL    HW224207   4.063   1.770   6.167
 7770SOL     OW24208   1.493   3.043   3.421
 7770SOL    HW124209   1.461   3.130   3.460
 7770SOL    HW224210   1.582   3.057   3.378
 7771SOL     OW24211   1.225   3.044   5.175
 7771SOL    HW124212   1.233   2.992   5.090
 7771SOL    HW224213   1.141   3.099   5.173
 7772SOL     OW24214   5.068   6.370   2.120
 7772SOL    HW124215   5.016   6.359   2.204
 7772SOL    HW224216   5.164   6.388   2.142
 7773SOL     OW24217   2.749   6.764   5.877
 7773SOL    HW124218   2.690   6.841   5.854
 7773SOL    HW224219   2.724   6.729   5.967
 7774SOL     OW24220   5.249   1.124   2.786
 7774SOL    HW124221   5.241   1.067   2.704
 7774SOL    HW224222   5.167   1.113   2.842
 7775SOL     OW24223   4.117   2.208   1.196
 7775SOL    HW124224   4.059   2.213   1.277
 7775SOL    HW224225   4.065   2.236   1.115
 7776SOL     OW24226   2.502   1.677   3.579
 7776SOL    HW124227   2.422   1.723   3.539
 7776SOL    HW224228   2.541   1.734   3.651
 7777SOL     OW24229   5.071   4.744   2.862
 7777SOL    HW124230   5.107   4.784   2.947
 7777SOL    HW224231   5.133   4.672   2.831
 7778SOL     OW24232   0.668   3.054   1.805
 7778SOL    HW124233   0.576   3.022   1.827
 7778SOL    HW224234   0.732   3.019   1.873
 7779SOL     OW24235   2.447   1.347   3.993
 7779SOL    HW124236   2.379   1.411   4.028
 7779SOL    HW224237   2.402   1.275   3.940
 7780SOL     OW24238   6.483   6.074   3.718
 7780SOL    HW124239   6.389   6.046   3.699
 7780SOL    HW224240   6.483   6.156   3.775
 7781SOL     OW24241   3.375   3.192   1.519
 7781SOL    HW124242   3.331   3.120   1.572
 7781SOL    HW224243   3.349   3.183   1.423
 7782SOL     OW24244   5.043   5.282   3.597
 7782SOL    HW124245   4.985   5.359   3.572
 7782SOL    HW224246   4.986   5.205   3.628
 7783SOL     OW24247   0.261   6.907   3.896
 7783SOL    HW124248   0.342   6.874   3.946
 7783SOL    HW224249   0.280   6.999   3.860
 7784SOL     OW24250   0.417   3.250   2.428
 7784SOL    HW124251   0.473   3.331   2.410
 7784SOL    HW224252   0.476   3.169   2.428
 7785SOL     OW24253   6.259   0.339   2.458
 7785SOL    HW124254   6.305   0.362   2.543
 7785SOL    HW224255   6.266   0.415   2.394
 7786SOL     OW24256   5.394   0.644   6.275
 7786SOL    HW124257   5.486   0.672   6.249
 7786SOL    HW224258   5.367   0.691   6.359
 7787SOL     OW24259   1.060   1.863   0.906
 7787SOL    HW124260   1.074   1.779   0.853
 7787SOL    HW224261   1.097   1.941   0.856
 7788SOL     OW24262   0.909   4.352   2.518
 7788SOL    HW124263   0.974   4.277   2.524
 7788SOL    HW224264   0.840   4.342   2.589
 7789SOL     OW24265   4.115   6.908   6.748
 7789SOL    HW124266   4.087   6.972   6.821
 7789SOL    HW224267   4.203   6.937   6.710
 7790SOL     OW24268   3.977   4.881   5.158
 7790SOL    HW124269   4.057   4.858   5.214
 7790SOL    HW224270   3.933   4.963   5.194
 7791SOL     OW24271   1.302   6.391   1.265
 7791SOL    HW124272   1.394   6.366   1.297
 7791SOL    HW224273   1.309   6.467   1.201
 7792SOL     OW24274   1.323   1.571   1.625
 7792SOL    HW124275   1.259   1.513   1.574
 7792SOL    HW224276   1.309   1.667   1.600
 7793SOL     OW24277   4.826   1.320   0.556
 7793SOL    HW124278   4.862   1.315   0.463
 7793SOL    HW224279   4.824   1.416   0.585
 7794SOL     OW24280   0.917   1.467   3.026
 7794SOL    HW124281   0.968   1.496   2.945
 7794SOL    HW224282   0.972   1.402   3.079
 7795SOL     OW24283   4.650   3.504   1.025
 7795SOL    HW124284   4.619   3.440   1.096
 7795SOL    HW224285   4.709   3.573   1.067
 7796SOL     OW24286   4.094   1.299   0.351
 7796SOL    HW124287   4.179   1.286   0.301
 7796SOL    HW224288   4.037   1.366   0.303
 7797SOL     OW24289   1.633   6.059   2.784
 7797SOL    HW124290   1.668   5.984   2.839
 7797SOL    HW224291   1.631   6.031   2.688
 7798SOL     OW24292   2.366   2.954   0.795
 7798SOL    HW124293   2.429   3.028   0.772
 7798SOL    HW224294   2.350   2.954   0.894
 7799SOL     OW24295   2.511   5.787   4.364
 7799SOL    HW124296   2.584   5.743   4.313
 7799SOL    HW224297   2.550   5.850   4.432
 7800SOL     OW24298   0.451   0.997   1.408
 7800SOL    HW124299   0.393   0.915   1.410
 7800SOL    HW224300   0.498   1.005   1.496
 7801SOL     OW24301   2.954   2.399   1.092
 7801SOL    HW124302   2.879   2.430   1.150
 7801SOL    HW224303   3.036   2.388   1.147
 7802SOL     OW24304   0.164   4.905   4.389
 7802SOL    HW124305   0.253   4.865   4.366
 7802SOL    HW224306   0.098   4.831   4.405
 7803SOL     OW24307   3.096   2.473   6.304
 7803SOL    HW124308   3.015   2.461   6.361
 7803SOL    HW224309   3.068   2.493   6.210
 7804SOL     OW24310   2.953   1.614   5.391
 7804SOL    HW124311   2.932   1.656   5.480
 7804SOL    HW224312   2.916   1.671   5.318
 7805SOL     OW24313   0.233   1.981   6.488
 7805SOL    HW124314   0.178   1.913   6.439
 7805SOL    HW224315   0.294   2.027   6.425
 7806SOL     OW24316   6.563   2.662   4.899
 7806SOL    HW124317   6.512   2.726   4.957
 7806SOL    HW224318   6.542   2.680   4.803
 7807SOL     OW24319   2.685   6.324   5.457
 7807SOL    HW124320   2.767   6.380   5.465
 7807SOL    HW224321   2.658   6.290   5.547
 7808SOL     OW24322   0.297   2.867   4.551
 7808SOL    HW124323   0.364   2.904   4.617
 7808SOL    HW224324   0.229   2.812   4.600
 7809SOL     OW24325   2.973   0.592   3.190
 7809SOL    HW124326   3.035   0.636   3.125
 7809SOL    HW224327   2.978   0.639   3.278
 7810SOL     OW24328   2.566   6.751   5.632
 7810SOL    HW124329   2.588   6.829   5.690
 7810SOL    HW224330   2.513   6.685   5.684
 7811SOL     OW24331   1.232   5.829   3.399
 7811SOL    HW124332   1.164   5.825   3.326
 7811SOL    HW224333   1.187   5.811   3.487
 7812SOL     OW24334   3.058   0.088   5.536
 7812SOL    HW124335   3.050   0.153   5.612
 7812SOL    HW224336   3.154   0.078   5.511
 7813SOL     OW24337   5.265   0.945   0.590
 7813SOL    HW124338   5.320   0.862   0.578
 7813SOL    HW224339   5.213   0.963   0.506
 7814SOL     OW24340   6.380   1.705   1.447
 7814SOL    HW124341   6.287   1.730   1.423
 7814SOL    HW224342   6.401   1.736   1.540
 7815SOL     OW24343   4.545   5.923   3.642
 7815SOL    HW124344   4.536   5.844   3.703
 7815SOL    HW224345   4.617   5.983   3.676
 7816SOL     OW24346   1.336   1.185   5.353
 7816SOL    HW124347   1.328   1.155   5.448
 7816SOL    HW224348   1.245   1.202   5.316
 7817SOL     OW24349   5.063   0.962   5.219
 7817SOL    HW124350   4.986   0.904   5.247
 7817SOL    HW224351   5.056   0.981   5.121
 7818SOL     OW24352   3.866   0.077   3.331
 7818SOL    HW124353   3.806   0.156   3.342
 7818SOL    HW224354   3.837   0.024   3.251
 7819SOL     OW24355   2.688   2.421   4.290
 7819SOL    HW124356   2.742   2.393   4.211
 7819SOL    HW224357   2.744   2.416   4.372
 7820SOL     OW24358   2.084   0.697   6.659
 7820SOL    HW124359   2.108   0.634   6.585
 7820SOL    HW224360   2.166   0.716   6.714
 7821SOL     OW24361   2.832   6.308   6.121
 7821SOL    HW124362   2.835   6.391   6.065
 7821SOL    HW224363   2.773   6.323   6.200
 7822SOL     OW24364   0.802   1.584   4.611
 7822SOL    HW124365   0.776   1.496   4.651
 7822SOL    HW224366   0.897   1.580   4.579
 7823SOL     OW24367   1.775   2.321   5.097
 7823SOL    HW124368   1.758   2.412   5.060
 7823SOL    HW224369   1.777   2.255   5.023
 7824SOL     OW24370   6.433   4.112   2.985
 7824SOL    HW124371   6.347   4.090   3.030
 7824SOL    HW224372   6.470   4.030   2.942
 7825SOL     OW24373   3.069   3.990   3.807
 7825SOL    HW124374   2.978   4.009   3.842
 7825SOL    HW224375   3.067   3.992   3.707
 7826SOL     OW24376   6.183   6.575   1.105
 7826SOL    HW124377   6.164   6.577   1.007
 7826SOL    HW224378   6.177   6.480   1.138
 7827SOL     OW24379   5.385   3.479   0.433
 7827SOL    HW124380   5.472   3.431   0.446
 7827SOL    HW224381   5.386   3.529   0.347
 7828SOL     OW24382   0.956   5.611   0.094
 7828SOL    HW124383   0.869   5.600   0.047
 7828SOL    HW224384   0.981   5.525   0.139
 7829SOL     OW24385   3.110   3.991   2.647
 7829SOL    HW124386   3.164   4.074   2.661
 7829SOL    HW224387   3.077   3.988   2.552
 7830SOL     OW24388   6.964   4.542   6.852
 7830SOL    HW124389   7.018   4.551   6.769
 7830SOL    HW224390   7.014   4.487   6.919
 7831SOL     OW24391   3.348   3.867   0.110
 7831SOL    HW124392   3.389   3.956   0.129
 7831SOL    HW224393   3.393   3.797   0.166
 7832SOL     OW24394   3.823   2.729   5.961
 7832SOL    HW124395   3.905   2.749   6.015
 7832SOL    HW224396   3.742   2.744   6.017
 7833SOL     OW24397   6.585   6.838   1.823
 7833SOL    HW124398   6.507   6.800   1.773
 7833SOL    HW224399   6.658   6.860   1.759
 7834SOL     OW24400   5.007   1.283   1.577
 7834SOL    HW124401   4.967   1.306   1.666
 7834SOL    HW224402   4.947   1.218   1.530
 7835SOL     OW24403   1.853   2.232   4.149
 7835SOL    HW124404   1.794   2.283   4.086
 7835SOL    HW224405   1.901   2.296   4.208
 7836SOL     OW24406   2.218   6.875   6.929
 7836SOL    HW124407   2.159   6.954   6.945
 7836SOL    HW224408   2.294   6.901   6.870
 7837SOL     OW24409   4.827   6.636   2.006
 7837SOL    HW124410   4.789   6.728   2.017
 7837SOL    HW224411   4.839   6.616   1.909
 7838SOL     OW24412   3.354   5.211   4.385
 7838SOL    HW124413   3.280   5.147   4.364
 7838SOL    HW224414   3.317   5.304   4.391
 7839SOL     OW24415   0.010   5.611   3.090
 7839SOL    HW124416   6.965   5.545   3.103
 7839SOL    HW224417   7.005   5.690   3.039
 7840SOL     OW24418   3.898   3.098   6.186
 7840SOL    HW124419   3.874   3.186   6.226
 7840SOL    HW224420   3.876   3.098   6.088
 7841SOL     OW24421   1.413   1.638   5.654
 7841SOL    HW124422   1.369   1.620   5.742
 7841SOL    HW224423   1.343   1.656   5.585
 7842SOL     OW24424   1.100   0.740   2.897
 7842SOL    HW124425   1.111   0.824   2.844
 7842SOL    HW224426   1.072   0.666   2.836
 7843SOL     OW24427   6.647   2.071   2.038
 7843SOL    HW124428   6.588   2.007   2.088
 7843SOL    HW224429   6.626   2.064   1.940
 7844SOL     OW24430   3.584   2.090   3.081
 7844SOL    HW124431   3.619   2.092   2.988
 7844SOL    HW224432   3.630   2.018   3.132
 7845SOL     OW24433   0.658   1.100   4.795
 7845SOL    HW124434   0.727   1.060   4.855
 7845SOL    HW224435   0.687   1.190   4.764
 7846SOL     OW24436   5.260   6.808   2.782
 7846SOL    HW124437   5.254   6.813   2.881
 7846SOL    HW224438   5.194   6.741   2.748
 7847SOL     OW24439   0.526   6.600   5.562
 7847SOL    HW124440   0.614   6.645   5.568
 7847SOL    HW224441   0.503   6.559   5.651
 7848SOL     OW24442   4.521   3.278   1.141
 7848SOL    HW124443   4.500   3.255   1.236
 7848SOL    HW224444   4.443   3.326   1.101
 7849SOL     OW24445   6.746   4.455   5.789
 7849SOL    HW124446   6.825   4.401   5.816
 7849SOL    HW224447   6.708   4.502   5.870
 7850SOL     OW24448   1.288   2.877   4.651
 7850SOL    HW124449   1.319   2.855   4.743
 7850SOL    HW224450   1.352   2.942   4.609
 7851SOL     OW24451   2.716   6.626   0.371
 7851SOL    HW124452   2.740   6.661   0.280
 7851SOL    HW224453   2.800   6.606   0.421
 7852SOL     OW24454   2.543   6.224   0.457
 7852SOL    HW124455   2.636   6.190   0.444
 7852SOL    HW224456   2.526   6.300   0.394
 7853SOL     OW24457   2.669   1.991   6.435
 7853SOL    HW124458   2.672   1.914   6.371
 7853SOL    HW224459   2.648   1.956   6.527
 7854SOL     OW24460   3.974   3.995   4.669
 7854SOL    HW124461   3.989   3.948   4.582
 7854SOL    HW224462   4.055   3.983   4.727
 7855SOL     OW24463   3.121   0.262   4.779
 7855SOL    HW124464   3.178   0.217   4.847
 7855SOL    HW224465   3.119   0.361   4.797
 7856SOL     OW24466   3.017   2.584   5.733
 7856SOL    HW124467   3.053   2.500   5.691
 7856SOL    HW224468   3.066   2.663   5.696
 7857SOL     OW24469   0.365   3.516   4.886
 7857SOL    HW124470   0.462   3.496   4.869
 7857SOL    HW224471   0.333   3.463   4.964
 7858SOL     OW24472   5.040   2.993   3.187
 7858SOL    HW124473   5.122   3.050   3.190
 7858SOL    HW224474   4.993   2.997   3.275
 7859SOL     OW24475   6.715   6.918   6.953
 7859SOL    HW124476   6.627   6.966   6.949
 7859SOL    HW224477   6.702   6.828   6.995
 7860SOL     OW24478   4.595   6.671   0.251
 7860SOL    HW124479   4.577   6.590   0.307
 7860SOL    HW224480   4.550   6.751   0.293
 7861SOL     OW24481   6.455   3.751   0.159
 7861SOL    HW124482   6.416   3.659   0.156
 7861SOL    HW224483   6.387   3.815   0.194
 7862SOL     OW24484   2.980   4.648   1.626
 7862SOL    HW124485   2.942   4.608   1.709
 7862SOL    HW224486   2.977   4.580   1.552
 7863SOL     OW24487   4.526   6.095   2.848
 7863SOL    HW124488   4.600   6.075   2.784
 7863SOL    HW224489   4.554   6.071   2.941
 7864SOL     OW24490   2.105   5.945   5.570
 7864SOL    HW124491   2.040   5.946   5.646
 7864SOL    HW224492   2.063   5.988   5.490
 7865SOL     OW24493   4.382   0.349   2.994
 7865SOL    HW124494   4.287   0.363   3.020
 7865SOL    HW224495   4.393   0.368   2.896
 7866SOL     OW24496   2.732   0.386   5.477
 7866SOL    HW124497   2.675   0.468   5.477
 7866SOL    HW224498   2.828   0.411   5.484
 7867SOL     OW24499   0.044   2.539   0.491
 7867SOL    HW124500   0.074   2.484   0.413
 7867SOL    HW224501   0.112   2.532   0.565
 7868SOL     OW24502   5.300   0.236   1.498
 7868SOL    HW124503   5.382   0.262   1.550
 7868SOL    HW224504   5.285   0.303   1.425
 7869SOL     OW24505   5.849   1.898   4.563
 7869SOL    HW124506   5.810   1.849   4.641
 7869SOL    HW224507   5.890   1.984   4.595
 7870SOL     OW24508   5.988   0.201   2.981
 7870SOL    HW124509   6.070   0.156   3.017
 7870SOL    HW224510   6.005   0.299   2.972
 7871SOL     OW24511   5.339   2.494   3.034
 7871SOL    HW124512   5.420   2.540   2.998
 7871SOL    HW224513   5.268   2.489   2.963
 7872SOL     OW24514   5.284   3.920   3.842
 7872SOL    HW124515   5.204   3.971   3.809
 7872SOL    HW224516   5.364   3.945   3.787
 7873SOL     OW24517   0.030   6.295   4.897
 7873SOL    HW124518   6.991   6.255   4.957
 7873SOL    HW224519   0.057   6.229   4.828
 7874SOL     OW24520   6.114   6.637   0.351
 7874SOL    HW124521   6.039   6.599   0.404
 7874SOL    HW224522   6.181   6.679   0.412
 7875SOL     OW24523   5.465   2.362   0.294
 7875SOL    HW124524   5.542   2.412   0.253
 7875SOL    HW224525   5.388   2.424   0.305
 7876SOL     OW24526   6.942   2.640   5.189
 7876SOL    HW124527   6.911   2.680   5.103
 7876SOL    HW224528   6.928   2.705   5.263
 7877SOL     OW24529   6.088   3.271   1.390
 7877SOL    HW124530   6.128   3.279   1.299
 7877SOL    HW224531   6.089   3.175   1.418
 7878SOL     OW24532   3.955   3.480   2.259
 7878SOL    HW124533   4.023   3.469   2.332
 7878SOL    HW224534   3.935   3.577   2.247
 7879SOL     OW24535   6.630   1.416   5.508
 7879SOL    HW124536   6.658   1.385   5.599
 7879SOL    HW224537   6.614   1.515   5.510
 7880SOL     OW24538   2.006   6.261   6.322
 7880SOL    HW124539   2.102   6.264   6.349
 7880SOL    HW224540   1.958   6.341   6.358
 7881SOL     OW24541   0.038   4.772   5.644
 7881SOL    HW124542   6.997   4.716   5.601
 7881SOL    HW224543   0.023   4.774   5.743
 7882SOL     OW24544   1.312   4.702   0.546
 7882SOL    HW124545   1.376   4.778   0.553
 7882SOL    HW224546   1.345   4.625   0.600
 7883SOL     OW24547   2.756   2.254   2.784
 7883SOL    HW124548   2.760   2.330   2.719
 7883SOL    HW224549   2.661   2.236   2.808
 7884SOL     OW24550   6.769   2.298   5.850
 7884SOL    HW124551   6.709   2.375   5.872
 7884SOL    HW224552   6.738   2.217   5.901
 7885SOL     OW24553   5.161   4.896   2.141
 7885SOL    HW124554   5.196   4.898   2.235
 7885SOL    HW224555   5.193   4.813   2.096
 7886SOL     OW24556   3.460   5.431   3.504
 7886SOL    HW124557   3.497   5.361   3.442
 7886SOL    HW224558   3.444   5.391   3.594
 7887SOL     OW24559   0.421   3.292   0.674
 7887SOL    HW124560   0.397   3.297   0.772
 7887SOL    HW224561   0.394   3.202   0.639
 7888SOL     OW24562   0.473   1.147   5.100
 7888SOL    HW124563   0.393   1.088   5.088
 7888SOL    HW224564   0.469   1.189   5.191
 7889SOL     OW24565   6.122   4.378   0.482
 7889SOL    HW124566   6.092   4.394   0.388
 7889SOL    HW224567   6.151   4.283   0.492
 7890SOL     OW24568   1.126   2.210   1.774
 7890SOL    HW124569   1.221   2.186   1.753
 7890SOL    HW224570   1.112   2.207   1.873
 7891SOL     OW24571   6.402   1.018   5.000
 7891SOL    HW124572   6.447   0.954   4.938
 7891SOL    HW224573   6.424   1.111   4.972
 7892SOL     OW24574   0.793   1.691   4.866
 7892SOL    HW124575   0.840   1.707   4.779
 7892SOL    HW224576   0.842   1.622   4.919
 7893SOL     OW24577   5.702   6.131   0.764
 7893SOL    HW124578   5.681   6.157   0.858
 7893SOL    HW224579   5.625   6.081   0.725
 7894SOL     OW24580   2.697   0.268   6.100
 7894SOL    HW124581   2.762   0.244   6.027
 7894SOL    HW224582   2.655   0.185   6.136
 7895SOL     OW24583   5.059   6.964   2.388
 7895SOL    HW124584   5.124   6.911   2.334
 7895SOL    HW224585   5.095   6.976   2.481
 7896SOL     OW24586   3.510   1.801   1.212
 7896SOL    HW124587   3.533   1.849   1.296
 7896SOL    HW224588   3.529   1.703   1.223
 7897SOL     OW24589   5.384   0.896   1.623
 7897SOL    HW124590   5.295   0.849   1.616
 7897SOL    HW224591   5.399   0.926   1.717
 7898SOL     OW24592   3.578   6.267   3.419
 7898SOL    HW124593   3.623   6.246   3.506
 7898SOL    HW224594   3.579   6.365   3.404
 7899SOL     OW24595   5.650   4.731   2.820
 7899SOL    HW124596   5.714   4.677   2.765
 7899SOL    HW224597   5.700   4.779   2.892
 7900SOL     OW24598   0.643   4.054   0.616
 7900SOL    HW124599   0.714   4.098   0.672
 7900SOL    HW224600   0.596   3.985   0.671
 7901SOL     OW24601   7.026   3.115   6.494
 7901SOL    HW124602   7.013   3.180   6.569
 7901SOL    HW224603   7.013   3.022   6.529
 7902SOL     OW24604   1.550   0.719   1.542
 7902SOL    HW124605   1.646   0.703   1.519
 7902SOL    HW224606   1.514   0.794   1.486
 7903SOL     OW24607   3.426   2.153   5.594
 7903SOL    HW124608   3.463   2.196   5.676
 7903SOL    HW224609   3.421   2.220   5.520
 7904SOL     OW24610   5.679   3.187   3.179
 7904SOL    HW124611   5.594   3.150   3.143
 7904SOL    HW224612   5.698   3.146   3.268
 7905SOL     OW24613   6.210   2.012   0.815
 7905SOL    HW124614   6.235   1.940   0.880
 7905SOL    HW224615   6.122   2.052   0.840
 7906SOL     OW24616   6.780   5.809   5.931
 7906SOL    HW124617   6.787   5.902   5.896
 7906SOL    HW224618   6.871   5.773   5.949
 7907SOL     OW24619   5.307   5.674   3.039
 7907SOL    HW124620   5.259   5.681   2.951
 7907SOL    HW224621   5.383   5.739   3.041
 7908SOL     OW24622   1.710   6.946   6.217
 7908SOL    HW124623   1.665   0.001   6.188
 7908SOL    HW224624   1.663   6.909   6.297
 7909SOL     OW24625   0.056   4.083   2.956
 7909SOL    HW124626   0.106   4.155   2.909
 7909SOL    HW224627   0.106   3.997   2.950
 7910SOL     OW24628   1.623   4.263   4.660
 7910SOL    HW124629   1.612   4.306   4.571
 7910SOL    HW224630   1.655   4.168   4.648
 7911SOL     OW24631   6.005   3.817   6.567
 7911SOL    HW124632   6.103   3.836   6.571
 7911SOL    HW224633   5.978   3.800   6.473
 7912SOL     OW24634   5.753   5.421   1.914
 7912SOL    HW124635   5.655   5.403   1.904
 7912SOL    HW224636   5.771   5.518   1.899
 7913SOL     OW24637   1.066   4.049   6.835
 7913SOL    HW124638   1.163   4.035   6.812
 7913SOL    HW224639   1.013   3.969   6.807
 7914SOL     OW24640   1.126   0.306   4.777
 7914SOL    HW124641   1.042   0.278   4.728
 7914SOL    HW224642   1.129   0.406   4.784
 7915SOL     OW24643   2.474   6.363   1.674
 7915SOL    HW124644   2.449   6.460   1.672
 7915SOL    HW224645   2.524   6.342   1.758
 7916SOL     OW24646   2.122   0.405   3.023
 7916SOL    HW124647   2.110   0.313   2.986
 7916SOL    HW224648   2.147   0.468   2.949
 7917SOL     OW24649   4.716   1.270   3.099
 7917SOL    HW124650   4.727   1.313   3.188
 7917SOL    HW224651   4.805   1.238   3.066
 7918SOL     OW24652   1.560   2.830   2.644
 7918SOL    HW124653   1.629   2.763   2.617
 7918SOL    HW224654   1.586   2.872   2.731
 7919SOL     OW24655   0.897   0.519   4.647
 7919SOL    HW124656   0.944   0.526   4.735
 7919SOL    HW224657   0.857   0.607   4.623
 7920SOL     OW24658   4.920   0.175   1.250
 7920SOL    HW124659   4.928   0.256   1.308
 7920SOL    HW224660   4.826   0.167   1.216
 7921SOL     OW24661   6.849   3.487   0.925
 7921SOL    HW124662   6.803   3.544   0.856
 7921SOL    HW224663   6.945   3.514   0.932
 7922SOL     OW24664   1.942   6.732   3.497
 7922SOL    HW124665   2.017   6.792   3.525
 7922SOL    HW224666   1.947   6.716   3.399
 7923SOL     OW24667   5.276   0.389   6.812
 7923SOL    HW124668   5.372   0.360   6.818
 7923SOL    HW224669   5.231   0.373   6.899
 7924SOL     OW24670   5.185   5.785   6.831
 7924SOL    HW124671   5.198   5.751   6.738
 7924SOL    HW224672   5.128   5.720   6.882
 7925SOL     OW24673   2.189   4.493   6.320
 7925SOL    HW124674   2.238   4.578   6.307
 7925SOL    HW224675   2.248   4.427   6.366
 7926SOL     OW24676   4.648   5.623   0.630
 7926SOL    HW124677   4.644   5.641   0.728
 7926SOL    HW224678   4.666   5.708   0.581
 7927SOL     OW24679   4.613   6.739   3.759
 7927SOL    HW124680   4.619   6.825   3.808
 7927SOL    HW224681   4.671   6.670   3.803
 7928SOL     OW24682   5.954   2.761   3.947
 7928SOL    HW124683   5.982   2.753   4.043
 7928SOL    HW224684   5.982   2.850   3.912
 7929SOL     OW24685   4.428   3.988   5.707
 7929SOL    HW124686   4.343   4.039   5.721
 7929SOL    HW224687   4.460   4.002   5.614
 7930SOL     OW24688   3.413   5.304   1.056
 7930SOL    HW124689   3.384   5.223   1.106
 7930SOL    HW224690   3.501   5.335   1.091
 7931SOL     OW24691   5.450   0.841   0.250
 7931SOL    HW124692   5.453   0.806   0.343
 7931SOL    HW224693   5.539   0.830   0.206
 7932SOL     OW24694   1.324   3.832   0.784
 7932SOL    HW124695   1.281   3.894   0.719
 7932SOL    HW224696   1.289   3.739   0.768
 7933SOL     OW24697   2.263   1.446   0.065
 7933SOL    HW124698   2.314   1.411   7.016
 7933SOL    HW224699   2.318   1.433   0.148
 7934SOL     OW24700   6.545   5.296   0.859
 7934SOL    HW124701   6.482   5.364   0.822
 7934SOL    HW224702   6.525   5.281   0.956
 7935SOL     OW24703   6.601   4.352   3.853
 7935SOL    HW124704   6.561   4.269   3.813
 7935SOL    HW224705   6.638   4.410   3.781
 7936SOL     OW24706   2.382   5.292   3.881
 7936SOL    HW124707   2.411   5.295   3.977
 7936SOL    HW224708   2.460   5.312   3.822
 7937SOL     OW24709   4.148   1.143   1.605
 7937SOL    HW124710   4.074   1.145   1.537
 7937SOL    HW224711   4.200   1.058   1.594
 7938SOL     OW24712   1.693   0.044   3.314
 7938SOL    HW124713   1.610   7.030   3.348
 7938SOL    HW224714   1.676   0.084   3.225
 7939SOL     OW24715   1.809   0.321   3.727
 7939SOL    HW124716   1.794   0.319   3.628
 7939SOL    HW224717   1.742   0.382   3.769
 7940SOL     OW24718   6.390   1.226   5.783
 7940SOL    HW124719   6.374   1.304   5.844
 7940SOL    HW224720   6.475   1.181   5.809
 7941SOL     OW24721   2.830   0.145   0.614
 7941SOL    HW124722   2.842   0.056   0.569
 7941SOL    HW224723   2.733   0.167   0.619
 7942SOL     OW24724   1.853   3.700   0.935
 7942SOL    HW124725   1.783   3.690   1.006
 7942SOL    HW224726   1.910   3.780   0.954
 7943SOL     OW24727   1.583   5.578   6.747
 7943SOL    HW124728   1.504   5.574   6.686
 7943SOL    HW224729   1.663   5.610   6.696
 7944SOL     OW24730   1.468   1.813   0.420
 7944SOL    HW124731   1.439   1.863   0.502
 7944SOL    HW224732   1.568   1.817   0.412
 7945SOL     OW24733   6.450   4.320   3.484
 7945SOL    HW124734   6.445   4.284   3.391
 7945SOL    HW224735   6.471   4.245   3.547
 7946SOL     OW24736   5.320   1.382   5.835
 7946SOL    HW124737   5.417   1.398   5.851
 7946SOL    HW224738   5.277   1.351   5.920
 7947SOL     OW24739   0.786   4.130   0.038
 7947SOL    HW124740   0.771   4.216   0.087
 7947SOL    HW224741   0.765   4.143   6.971
 7948SOL     OW24742   1.215   5.716   1.222
 7948SOL    HW124743   1.213   5.627   1.267
 7948SOL    HW224744   1.306   5.755   1.230
 7949SOL     OW24745   3.793   5.325   5.111
 7949SOL    HW124746   3.789   5.348   5.208
 7949SOL    HW224747   3.708   5.352   5.066
 7950SOL     OW24748   6.357   2.342   6.420
 7950SOL    HW124749   6.424   2.297   6.479
 7950SOL    HW224750   6.404   2.393   6.348
 7951SOL     OW24751   3.223   0.660   2.751
 7951SOL    HW124752   3.313   0.618   2.766
 7951SOL    HW224753   3.185   0.690   2.838
 7952SOL     OW24754   0.289   3.328   5.469
 7952SOL    HW124755   0.314   3.240   5.427
 7952SOL    HW224756   0.326   3.403   5.414
 7953SOL     OW24757   0.494   0.997   0.117
 7953SOL    HW124758   0.549   0.973   0.037
 7953SOL    HW224759   0.541   1.068   0.170
 7954SOL     OW24760   3.980   2.282   0.981
 7954SOL    HW124761   3.907   2.351   0.988
 7954SOL    HW224762   4.041   2.308   0.906
 7955SOL     OW24763   6.346   6.981   6.446
 7955SOL    HW124764   6.259   6.937   6.427
 7955SOL    HW224765   6.420   6.929   6.405
 7956SOL     OW24766   0.251   6.780   1.495
 7956SOL    HW124767   0.172   6.720   1.489
 7956SOL    HW224768   0.309   6.752   1.571
 7957SOL     OW24769   6.043   2.146   6.292
 7957SOL    HW124770   6.012   2.239   6.275
 7957SOL    HW224771   6.139   2.138   6.264
 7958SOL     OW24772   4.892   2.569   6.050
 7958SOL    HW124773   4.878   2.585   6.148
 7958SOL    HW224774   4.835   2.632   5.997
 7959SOL     OW24775   5.722   2.675   6.964
 7959SOL    HW124776   5.793   2.742   6.984
 7959SOL    HW224777   5.720   2.657   6.865
 7960SOL     OW24778   0.786   2.946   5.073
 7960SOL    HW124779   0.743   3.000   5.145
 7960SOL    HW224780   0.875   2.986   5.051
 7961SOL     OW24781   6.313   0.015   6.085
 7961SOL    HW124782   6.280   0.091   6.140
 7961SOL    HW224783   6.302   0.036   5.988
 7962SOL     OW24784   6.108   0.374   4.564
 7962SOL    HW124785   6.074   0.424   4.644
 7962SOL    HW224786   6.202   0.403   4.544
 7963SOL     OW24787   5.778   6.186   2.530
 7963SOL    HW124788   5.863   6.189   2.582
 7963SOL    HW224789   5.735   6.096   2.543
 7964SOL     OW24790   1.085   4.698   1.681
 7964SOL    HW124791   1.021   4.762   1.638
 7964SOL    HW224792   1.151   4.667   1.613
 7965SOL     OW24793   4.669   1.947   6.429
 7965SOL    HW124794   4.764   1.945   6.400
 7965SOL    HW224795   4.628   2.036   6.407
 7966SOL     OW24796   5.608   3.970   5.373
 7966SOL    HW124797   5.604   4.061   5.332
 7966SOL    HW224798   5.519   3.948   5.413
 7967SOL     OW24799   2.252   4.270   1.739
 7967SOL    HW124800   2.211   4.361   1.734
 7967SOL    HW224801   2.322   4.269   1.811
 7968SOL     OW24802   2.090   2.260   3.597
 7968SOL    HW124803   2.037   2.224   3.521
 7968SOL    HW224804   2.153   2.331   3.563
 7969SOL     OW24805   2.476   4.338   6.175
 7969SOL    HW124806   2.388   4.344   6.126
 7969SOL    HW224807   2.512   4.245   6.166
 7970SOL     OW24808   6.775   2.493   2.625
 7970SOL    HW124809   6.738   2.401   2.613
 7970SOL    HW224810   6.699   2.559   2.630
 7971SOL     OW24811   2.543   0.016   6.937
 7971SOL    HW124812   2.643   0.021   6.940
 7971SOL    HW224813   2.505   0.099   6.977
 7972SOL     OW24814   3.318   2.920   3.929
 7972SOL    HW124815   3.389   2.890   3.993
 7972SOL    HW224816   3.238   2.952   3.980
 7973SOL     OW24817   0.954   5.686   2.255
 7973SOL    HW124818   1.019   5.736   2.312
 7973SOL    HW224819   0.913   5.748   2.188
 7974SOL     OW24820   0.137   3.133   3.972
 7974SOL    HW124821   0.054   3.147   3.918
 7974SOL    HW224822   0.206   3.085   3.917
 7975SOL     OW24823   3.852   0.329   6.588
 7975SOL    HW124824   3.788   0.405   6.571
 7975SOL    HW224825   3.865   0.277   6.504
 7976SOL     OW24826   0.240   0.375   0.960
 7976SOL    HW124827   0.247   0.329   0.871
 7976SOL    HW224828   0.168   0.331   1.014
 7977SOL     OW24829   5.410   5.073   2.874
 7977SOL    HW124830   5.364   4.996   2.829
 7977SOL    HW224831   5.396   5.067   2.973
 7978SOL     OW24832   0.478   4.146   1.362
 7978SOL    HW124833   0.476   4.063   1.306
 7978SOL    HW224834   0.522   4.125   1.449
 7979SOL     OW24835   3.864   2.833   5.719
 7979SOL    HW124836   3.844   2.805   5.813
 7979SOL    HW224837   3.825   2.767   5.655
 7980SOL     OW24838   3.795   5.898   2.896
 7980SOL    HW124839   3.811   5.983   2.846
 7980SOL    HW224840   3.789   5.822   2.831
 7981SOL     OW24841   1.133   2.948   3.346
 7981SOL    HW124842   1.161   2.870   3.402
 7981SOL    HW224843   1.062   3.000   3.394
 7982SOL     OW24844   6.642   6.807   0.612
 7982SOL    HW124845   6.593   6.842   0.533
 7982SOL    HW224846   6.736   6.783   0.586
 7983SOL     OW24847   3.468   1.672   0.833
 7983SOL    HW124848   3.515   1.741   0.888
 7983SOL    HW224849   3.397   1.627   0.888
 7984SOL     OW24850   5.891   1.371   1.989
 7984SOL    HW124851   5.804   1.415   1.966
 7984SOL    HW224852   5.893   1.280   1.949
 7985SOL     OW24853   3.029   3.761   6.169
 7985SOL    HW124854   2.962   3.688   6.156
 7985SOL    HW224855   3.007   3.839   6.110
 7986SOL     OW24856   1.970   1.232   3.713
 7986SOL    HW124857   1.883   1.264   3.675
 7986SOL    HW224858   1.952   1.173   3.792
 7987SOL     OW24859   0.966   2.920   0.347
 7987SOL    HW124860   0.883   2.963   0.311
 7987SOL    HW224861   0.948   2.882   0.438
 7988SOL     OW24862   6.314   6.859   1.695
 7988SOL    HW124863   6.215   6.862   1.707
 7988SOL    HW224864   6.342   6.767   1.668
 7989SOL     OW24865   0.609   5.046   1.848
 7989SOL    HW124866   0.535   5.070   1.785
 7989SOL    HW224867   0.590   5.085   1.938
 7990SOL     OW24868   4.282   4.970   5.653
 7990SOL    HW124869   4.362   4.928   5.610
 7990SOL    HW224870   4.272   5.064   5.619
 7991SOL     OW24871   5.405   0.937   4.193
 7991SOL    HW124872   5.361   1.011   4.244
 7991SOL    HW224873   5.493   0.916   4.235
 7992SOL     OW24874   3.339   0.456   0.335
 7992SOL    HW124875   3.336   0.490   0.241
 7992SOL    HW224876   3.283   0.373   0.342
 7993SOL     OW24877   6.308   4.617   1.374
 7993SOL    HW124878   6.243   4.609   1.299
 7993SOL    HW224879   6.265   4.666   1.450
 7994SOL     OW24880   0.860   1.171   5.244
 7994SOL    HW124881   0.944   1.224   5.251
 7994SOL    HW224882   0.848   1.116   5.327
 7995SOL     OW24883   0.450   5.817   0.471
 7995SOL    HW124884   0.452   5.874   0.553
 7995SOL    HW224885   0.543   5.791   0.446
 7996SOL     OW24886   1.610   6.285   4.154
 7996SOL    HW124887   1.567   6.358   4.207
 7996SOL    HW224888   1.591   6.297   4.057
 7997SOL     OW24889   2.410   0.717   6.041
 7997SOL    HW124890   2.441   0.626   6.069
 7997SOL    HW224891   2.370   0.764   6.120
 7998SOL     OW24892   1.987   2.087   1.708
 7998SOL    HW124893   1.935   2.067   1.791
 7998SOL    HW224894   2.024   2.180   1.714
 7999SOL     OW24895   0.111   0.692   2.402
 7999SOL    HW124896   0.106   0.786   2.436
 7999SOL    HW224897   0.201   0.654   2.423
 8000SOL     OW24898   4.401   5.824   0.667
 8000SOL    HW124899   4.324   5.841   0.727
 8000SOL    HW224900   4.464   5.902   0.671
 8001SOL     OW24901   5.077   5.051   1.940
 8001SOL    HW124902   5.120   4.992   2.009
 8001SOL    HW224903   5.099   5.146   1.960
 8002SOL     OW24904   1.215   0.491   5.137
 8002SOL    HW124905   1.202   0.392   5.146
 8002SOL    HW224906   1.241   0.529   5.226
 8003SOL     OW24907   2.461   5.577   2.718
 8003SOL    HW124908   2.469   5.480   2.694
 8003SOL    HW224909   2.475   5.589   2.816
 8004SOL     OW24910   2.233   3.934   3.821
 8004SOL    HW124911   2.292   3.885   3.758
 8004SOL    HW224912   2.272   4.024   3.841
 8005SOL     OW24913   2.835   0.217   4.806
 8005SOL    HW124914   2.934   0.208   4.818
 8005SOL    HW224915   2.793   0.240   4.894
 8006SOL     OW24916   4.748   5.250   6.585
 8006SOL    HW124917   4.735   5.292   6.496
 8006SOL    HW224918   4.716   5.155   6.583
 8007SOL     OW24919   0.685   0.364   1.078
 8007SOL    HW124920   0.697   0.320   0.989
 8007SOL    HW224921   0.598   0.334   1.118
 8008SOL     OW24922   5.242   5.292   1.338
 8008SOL    HW124923   5.270   5.197   1.347
 8008SOL    HW224924   5.305   5.351   1.389
 8009SOL     OW24925   5.678   0.053   1.601
 8009SOL    HW124926   5.684   7.002   1.541
 8009SOL    HW224927   5.653   0.133   1.546
 8010SOL     OW24928   3.098   0.139   0.392
 8010SOL    HW124929   3.055   0.228   0.406
 8010SOL    HW224930   3.182   0.150   0.340
 8011SOL     OW24931   3.729   1.776   1.821
 8011SOL    HW124932   3.817   1.754   1.778
 8011SOL    HW224933   3.730   1.871   1.851
 8012SOL     OW24934   5.984   0.800   5.568
 8012SOL    HW124935   6.018   0.715   5.609
 8012SOL    HW224936   6.057   0.844   5.516
 8013SOL     OW24937   3.604   0.793   3.532
 8013SOL    HW124938   3.669   0.825   3.463
 8013SOL    HW224939   3.614   0.846   3.616
 8014SOL     OW24940   2.033   2.462   3.802
 8014SOL    HW124941   2.035   2.376   3.751
 8014SOL    HW224942   2.053   2.538   3.740
 8015SOL     OW24943   3.638   5.736   5.183
 8015SOL    HW124944   3.644   5.665   5.113
 8015SOL    HW224945   3.730   5.767   5.206
 8016SOL     OW24946   2.744   3.636   5.668
 8016SOL    HW124947   2.817   3.615   5.603
 8016SOL    HW224948   2.782   3.689   5.744
 8017SOL     OW24949   5.459   6.757   1.994
 8017SOL    HW124950   5.460   6.725   1.899
 8017SOL    HW224951   5.505   6.690   2.052
 8018SOL     OW24952   3.600   2.652   1.090
 8018SOL    HW124953   3.619   2.714   1.166
 8018SOL    HW224954   3.679   2.594   1.072
 8019SOL     OW24955   3.122   3.358   0.734
 8019SOL    HW124956   3.130   3.277   0.792
 8019SOL    HW224957   3.072   3.335   0.651
 8020SOL     OW24958   1.140   6.899   0.006
 8020SOL    HW124959   1.053   6.895   0.055
 8020SOL    HW224960   1.210   6.849   0.057
 8021SOL     OW24961   1.472   2.239   0.652
 8021SOL    HW124962   1.406   2.211   0.582
 8021SOL    HW224963   1.534   2.308   0.613
 8022SOL     OW24964   3.681   6.975   2.609
 8022SOL    HW124965   3.640   6.910   2.673
 8022SOL    HW224966   3.749   0.001   2.657
 8023SOL     OW24967   3.588   4.917   2.588
 8023SOL    HW124968   3.652   4.840   2.597
 8023SOL    HW224969   3.639   5.003   2.583
 8024SOL     OW24970   2.615   0.934   6.657
 8024SOL    HW124971   2.538   0.915   6.716
 8024SOL    HW224972   2.629   1.033   6.651
 8025SOL     OW24973   1.335   6.938   1.773
 8025SOL    HW124974   1.399   6.860   1.769
 8025SOL    HW224975   1.246   6.906   1.804
 8026SOL     OW24976   0.690   6.634   5.127
 8026SOL    HW124977   0.778   6.660   5.166
 8026SOL    HW224978   0.684   6.534   5.120
 8027SOL     OW24979   4.401   7.007   6.342
 8027SOL    HW124980   4.349   0.051   6.298
 8027SOL    HW224981   4.498   7.018   6.320
 8028SOL     OW24982   3.455   5.572   6.402
 8028SOL    HW124983   3.401   5.650   6.435
 8028SOL    HW224984   3.395   5.509   6.351
 8029SOL     OW24985   1.696   6.792   1.605
 8029SOL    HW124986   1.764   6.721   1.591
 8029SOL    HW224987   1.604   6.751   1.605
 8030SOL     OW24988   0.901   3.369   0.783
 8030SOL    HW124989   0.841   3.309   0.835
 8030SOL    HW224990   0.846   3.431   0.727
 8031SOL     OW24991   0.641   0.643   4.231
 8031SOL    HW124992   0.725   0.674   4.276
 8031SOL    HW224993   0.576   0.719   4.226
 8032SOL     OW24994   0.586   3.375   1.505
 8032SOL    HW124995   0.538   3.385   1.592
 8032SOL    HW224996   0.681   3.349   1.523
 8033SOL     OW24997   3.721   4.988   0.623
 8033SOL    HW124998   3.775   5.055   0.674
 8033SOL    HW224999   3.704   5.023   0.531
 8034SOL     OW25000   0.978   1.523   4.979
 8034SOL    HW125001   1.040   1.593   5.015
 8034SOL    HW225002   1.005   1.499   4.886
 8035SOL     OW25003   5.211   0.462   3.718
 8035SOL    HW125004   5.122   0.507   3.722
 8035SOL    HW225005   5.272   0.515   3.660
 8036SOL     OW25006   5.454   5.106   5.265
 8036SOL    HW125007   5.421   5.182   5.208
 8036SOL    HW225008   5.397   5.026   5.250
 8037SOL     OW25009   3.730   0.851   6.413
 8037SOL    HW125010   3.791   0.893   6.346
 8037SOL    HW225011   3.635   0.871   6.389
 8038SOL     OW25012   5.530   5.851   1.968
 8038SOL    HW125013   5.620   5.868   2.008
 8038SOL    HW225014   5.482   5.939   1.957
 8039SOL     OW25015   1.837   2.562   4.912
 8039SOL    HW125016   1.753   2.569   4.965
 8039SOL    HW225017   1.818   2.583   4.816
 8040SOL     OW25018   0.660   0.111   5.006
 8040SOL    HW125019   0.616   0.041   4.950
 8040SOL    HW225020   0.593   0.183   5.028
 8041SOL     OW25021   2.899   2.043   2.872
 8041SOL    HW125022   2.833   2.115   2.851
 8041SOL    HW225023   2.986   2.084   2.899
 8042SOL     OW25024   5.237   4.232   6.327
 8042SOL    HW125025   5.187   4.318   6.333
 8042SOL    HW225026   5.237   4.200   6.232
 8043SOL     OW25027   5.815   5.309   0.065
 8043SOL    HW125028   5.800   5.294   6.997
 8043SOL    HW225029   5.763   5.242   0.118
 8044SOL     OW25030   1.133   3.034   1.454
 8044SOL    HW125031   1.223   3.004   1.485
 8044SOL    HW225032   1.131   3.134   1.447
 8045SOL     OW25033   5.838   2.981   5.001
 8045SOL    HW125034   5.778   2.981   5.080
 8045SOL    HW225035   5.821   2.899   4.946
 8046SOL     OW25036   6.917   4.309   1.661
 8046SOL    HW125037   6.899   4.215   1.688
 8046SOL    HW225038   7.016   4.324   1.656
 8047SOL     OW25039   2.760   6.396   0.169
 8047SOL    HW125040   2.735   6.302   0.193
 8047SOL    HW225041   2.818   6.434   0.240
 8048SOL     OW25042   4.929   2.052   6.523
 8048SOL    HW125043   4.921   2.143   6.482
 8048SOL    HW225044   5.012   2.048   6.579
 8049SOL     OW25045   2.579   1.738   0.352
 8049SOL    HW125046   2.602   1.766   0.258
 8049SOL    HW225047   2.482   1.753   0.369
 8050SOL     OW25048   6.994   4.750   5.904
 8050SOL    HW125049   0.027   4.682   5.941
 8050SOL    HW225050   6.978   4.821   5.972
 8051SOL     OW25051   4.157   6.439   3.516
 8051SOL    HW125052   4.210   6.502   3.459
 8051SOL    HW225053   4.116   6.368   3.459
 8052SOL     OW25054   1.943   1.639   2.882
 8052SOL    HW125055   1.943   1.733   2.917
 8052SOL    HW225056   1.857   1.594   2.906
 8053SOL     OW25057   1.651   1.195   6.444
 8053SOL    HW125058   1.730   1.246   6.478
 8053SOL    HW225059   1.676   1.099   6.433
 8054SOL     OW25060   4.877   3.832   4.812
 8054SOL    HW125061   4.849   3.749   4.861
 8054SOL    HW225062   4.854   3.913   4.868
 8055SOL     OW25063   6.931   1.299   6.102
 8055SOL    HW125064   6.907   1.256   6.014
 8055SOL    HW225065   6.854   1.289   6.166
 8056SOL     OW25066   1.744   2.730   2.371
 8056SOL    HW125067   1.731   2.656   2.437
 8056SOL    HW225068   1.703   2.705   2.284
 8057SOL     OW25069   3.104   1.643   2.108
 8057SOL    HW125070   3.131   1.593   2.026
 8057SOL    HW225071   3.184   1.685   2.151
 8058SOL     OW25072   3.113   6.146   1.855
 8058SOL    HW125073   3.059   6.150   1.939
 8058SOL    HW225074   3.081   6.069   1.799
 8059SOL     OW25075   4.590   4.370   5.084
 8059SOL    HW125076   4.605   4.351   4.987
 8059SOL    HW225077   4.624   4.293   5.138
 8060SOL     OW25078   0.358   1.277   4.882
 8060SOL    HW125079   0.295   1.212   4.839
 8060SOL    HW225080   0.386   1.241   4.971
 8061SOL     OW25081   0.007   0.345   0.594
 8061SOL    HW125082   0.105   0.359   0.603
 8061SOL    HW225083   6.988   0.421   0.638
 8062SOL     OW25084   4.730   4.332   6.887
 8062SOL    HW125085   4.640   4.329   6.845
 8062SOL    HW225086   4.797   4.289   6.826
 8063SOL     OW25087   2.602   4.591   2.123
 8063SOL    HW125088   2.694   4.580   2.085
 8063SOL    HW225089   2.586   4.688   2.144
 8064SOL     OW25090   6.761   2.187   0.127
 8064SOL    HW125091   6.795   2.277   0.100
 8064SOL    HW225092   6.744   2.187   0.226
 8065SOL     OW25093   5.257   0.095   6.889
 8065SOL    HW125094   5.259   0.114   6.791
 8065SOL    HW225095   5.199   0.162   6.935
 8066SOL     OW25096   6.613   1.025   5.381
 8066SOL    HW125097   6.522   1.040   5.421
 8066SOL    HW225098   6.631   1.095   5.312
 8067SOL     OW25099   5.675   0.923   4.359
 8067SOL    HW125100   5.687   0.826   4.383
 8067SOL    HW225101   5.606   0.963   4.418
 8068SOL     OW25102   6.996   4.107   1.151
 8068SOL    HW125103   7.010   4.164   1.232
 8068SOL    HW225104   6.943   4.158   1.084
 8069SOL     OW25105   0.923   2.559   2.081
 8069SOL    HW125106   0.954   2.542   2.175
 8069SOL    HW225107   0.867   2.482   2.051
 8070SOL     OW25108   5.554   4.004   1.022
 8070SOL    HW125109   5.620   4.033   0.953
 8070SOL    HW225110   5.587   3.920   1.066
 8071SOL     OW25111   1.969   6.997   6.311
 8071SOL    HW125112   1.978   0.065   6.329
 8071SOL    HW225113   1.885   6.980   6.259
 8072SOL     OW25114   2.665   1.714   5.529
 8072SOL    HW125115   2.571   1.727   5.560
 8072SOL    HW225116   2.668   1.719   5.429
 8073SOL     OW25117   5.399   5.424   0.293
 8073SOL    HW125118   5.489   5.437   0.336
 8073SOL    HW225119   5.411   5.388   0.201
 8074SOL     OW25120   6.741   0.592   0.467
 8074SOL    HW125121   6.706   0.667   0.525
 8074SOL    HW225122   6.782   0.630   0.385
 8075SOL     OW25123   0.203   6.811   1.213
 8075SOL    HW125124   0.245   6.791   1.302
 8075SOL    HW225125   0.112   6.848   1.227
 8076SOL     OW25126   6.432   5.855   0.640
 8076SOL    HW125127   6.529   5.832   0.649
 8076SOL    HW225128   6.378   5.771   0.633
 8077SOL     OW25129   6.012   4.266   1.426
 8077SOL    HW125130   5.940   4.203   1.396
 8077SOL    HW225131   6.085   4.215   1.472
 8078SOL     OW25132   5.255   1.783   1.634
 8078SOL    HW125133   5.241   1.832   1.720
 8078SOL    HW225134   5.245   1.847   1.557
 8079SOL     OW25135   0.073   0.693   6.067
 8079SOL    HW125136   7.025   0.675   6.008
 8079SOL    HW225137   0.139   0.750   6.019
 8080SOL     OW25138   6.698   4.033   3.464
 8080SOL    HW125139   6.712   4.060   3.560
 8080SOL    HW225140   6.601   4.011   3.450
 8081SOL     OW25141   5.918   0.890   5.276
 8081SOL    HW125142   5.930   0.833   5.195
 8081SOL    HW225143   5.847   0.851   5.334
 8082SOL     OW25144   5.092   2.540   5.118
 8082SOL    HW125145   5.090   2.612   5.049
 8082SOL    HW225146   5.000   2.525   5.153
 8083SOL     OW25147   0.077   2.939   3.598
 8083SOL    HW125148   0.111   2.955   3.506
 8083SOL    HW225149   0.009   3.009   3.621
 8084SOL     OW25150   5.871   1.663   6.940
 8084SOL    HW125151   5.859   1.762   6.945
 8084SOL    HW225152   5.827   1.620   7.019
 8085SOL     OW25153   1.574   5.949   4.161
 8085SOL    HW125154   1.568   5.959   4.062
 8085SOL    HW225155   1.567   6.038   4.205
 8086SOL     OW25156   0.133   1.943   1.779
 8086SOL    HW125157   0.122   1.852   1.817
 8086SOL    HW225158   0.153   1.937   1.681
 8087SOL     OW25159   6.054   0.837   6.738
 8087SOL    HW125160   6.138   0.886   6.762
 8087SOL    HW225161   6.077   0.755   6.686
 8088SOL     OW25162   6.290   0.187   5.569
 8088SOL    HW125163   6.241   0.273   5.556
 8088SOL    HW225164   6.236   0.127   5.628
 8089SOL     OW25165   6.633   0.914   0.210
 8089SOL    HW125166   6.698   0.838   0.219
 8089SOL    HW225167   6.541   0.878   0.198
 8090SOL     OW25168   3.851   2.088   4.798
 8090SOL    HW125169   3.923   2.157   4.792
 8090SOL    HW225170   3.815   2.070   4.706
 8091SOL     OW25171   1.028   3.195   5.410
 8091SOL    HW125172   1.053   3.098   5.404
 8091SOL    HW225173   1.097   3.243   5.464
 8092SOL     OW25174   4.884   6.218   5.443
 8092SOL    HW125175   4.929   6.135   5.477
 8092SOL    HW225176   4.894   6.224   5.344
 8093SOL     OW25177   3.817   0.160   3.852
 8093SOL    HW125178   3.723   0.140   3.826
 8093SOL    HW225179   3.880   0.108   3.794
 8094SOL     OW25180   2.659   5.104   3.097
 8094SOL    HW125181   2.722   5.146   3.031
 8094SOL    HW225182   2.678   5.140   3.188
 8095SOL     OW25183   0.370   5.204   5.333
 8095SOL    HW125184   0.298   5.137   5.352
 8095SOL    HW225185   0.436   5.165   5.268
 8096SOL     OW25186   1.274   5.048   0.596
 8096SOL    HW125187   1.225   5.020   0.513
 8096SOL    HW225188   1.214   5.036   0.676
 8097SOL     OW25189   4.956   0.791   6.926
 8097SOL    HW125190   5.032   0.769   6.986
 8097SOL    HW225191   4.886   0.842   6.977
 8098SOL     OW25192   2.895   6.487   5.524
 8098SOL    HW125193   2.961   6.412   5.531
 8098SOL    HW225194   2.878   6.524   5.616
 8099SOL     OW25195   2.333   4.680   3.369
 8099SOL    HW125196   2.377   4.760   3.328
 8099SOL    HW225197   2.233   4.688   3.360
 8100SOL     OW25198   7.008   6.472   0.656
 8100SOL    HW125199   6.913   6.443   0.644
 8100SOL    HW225200   0.039   6.398   0.627
 8101SOL     OW25201   2.979   4.813   6.412
 8101SOL    HW125202   3.018   4.848   6.497
 8101SOL    HW225203   2.909   4.877   6.379
 8102SOL     OW25204   0.970   4.695   3.759
 8102SOL    HW125205   1.054   4.718   3.808
 8102SOL    HW225206   0.990   4.685   3.662
 8103SOL     OW25207   5.356   0.579   1.479
 8103SOL    HW125208   5.301   0.641   1.534
 8103SOL    HW225209   5.346   0.486   1.514
 8104SOL     OW25210   1.625   0.037   0.309
 8104SOL    HW125211   1.662   6.986   0.355
 8104SOL    HW225212   1.698   0.102   0.291
 8105SOL     OW25213   6.938   6.837   2.806
 8105SOL    HW125214   6.854   6.804   2.762
 8105SOL    HW225215   6.914   6.901   2.879
 8106SOL     OW25216   3.870   6.785   6.980
 8106SOL    HW125217   3.954   6.780   0.005
 8106SOL    HW225218   3.875   6.720   6.905
 8107SOL     OW25219   0.568   6.320   0.092
 8107SOL    HW125220   0.500   6.387   0.122
 8107SOL    HW225221   0.549   6.232   0.136
 8108SOL     OW25222   2.163   1.315   1.116
 8108SOL    HW125223   2.138   1.345   1.208
 8108SOL    HW225224   2.200   1.392   1.064
 8109SOL     OW25225   0.274   3.974   2.144
 8109SOL    HW125226   0.273   4.045   2.215
 8109SOL    HW225227   0.193   3.985   2.086
 8110SOL     OW25228   5.060   3.941   6.843
 8110SOL    HW125229   5.136   3.884   6.872
 8110SOL    HW225230   5.053   3.940   6.744
 8111SOL     OW25231   5.492   2.116   2.688
 8111SOL    HW125232   5.479   2.153   2.780
 8111SOL    HW225233   5.403   2.106   2.643
 8112SOL     OW25234   1.894   4.579   6.617
 8112SOL    HW125235   1.817   4.620   6.666
 8112SOL    HW225236   1.897   4.614   6.523
 8113SOL     OW25237   5.907   5.043   6.858
 8113SOL    HW125238   5.903   5.143   6.864
 8113SOL    HW225239   5.998   5.016   6.826
 8114SOL     OW25240   2.066   2.700   2.801
 8114SOL    HW125241   1.997   2.740   2.741
 8114SOL    HW225242   2.157   2.733   2.774
 8115SOL     OW25243   2.719   1.925   5.980
 8115SOL    HW125244   2.620   1.917   5.967
 8115SOL    HW225245   2.740   2.015   6.018
 8116SOL     OW25246   4.105   3.121   1.802
 8116SOL    HW125247   4.189   3.069   1.788
 8116SOL    HW225248   4.127   3.211   1.839
 8117SOL     OW25249   1.275   0.858   3.070
 8117SOL    HW125250   1.320   0.934   3.023
 8117SOL    HW225251   1.211   0.814   3.007
 8118SOL     OW25252   5.841   1.910   6.947
 8118SOL    HW125253   5.779   1.936   6.873
 8118SOL    HW225254   5.917   1.976   6.951
 8119SOL     OW25255   5.513   4.814   6.582
 8119SOL    HW125256   5.500   4.894   6.523
 8119SOL    HW225257   5.452   4.740   6.552
 8120SOL     OW25258   1.901   6.630   2.532
 8120SOL    HW125259   1.869   6.576   2.609
 8120SOL    HW225260   2.000   6.627   2.527
 8121SOL     OW25261   1.517   2.107   2.962
 8121SOL    HW125262   1.571   2.189   2.939
 8121SOL    HW225263   1.442   2.133   3.023
 8122SOL     OW25264   0.259   5.342   1.135
 8122SOL    HW125265   0.260   5.297   1.046
 8122SOL    HW225266   0.249   5.441   1.122
 8123SOL     OW25267   6.705   0.572   6.144
 8123SOL    HW125268   6.621   0.522   6.167
 8123SOL    HW225269   6.681   0.651   6.087
 8124SOL     OW25270   6.331   5.781   5.725
 8124SOL    HW125271   6.293   5.802   5.635
 8124SOL    HW225272   6.265   5.725   5.776
 8125SOL     OW25273   0.764   5.930   1.470
 8125SOL    HW125274   0.816   5.910   1.387
 8125SOL    HW225275   0.712   6.014   1.458
 8126SOL     OW25276   3.349   5.612   4.844
 8126SOL    HW125277   3.317   5.644   4.933
 8126SOL    HW225278   3.306   5.525   4.822
 8127SOL     OW25279   4.531   2.052   5.728
 8127SOL    HW125280   4.443   2.018   5.761
 8127SOL    HW225281   4.545   2.146   5.758
 8128SOL     OW25282   3.853   2.793   0.622
 8128SOL    HW125283   3.788   2.865   0.596
 8128SOL    HW225284   3.924   2.786   0.552
 8129SOL     OW25285   6.408   3.146   3.507
 8129SOL    HW125286   6.506   3.134   3.491
 8129SOL    HW225287   6.393   3.181   3.600
 8130SOL     OW25288   7.028   6.242   6.957
 8130SOL    HW125289   7.022   6.342   6.955
 8130SOL    HW225290   0.028   6.212   0.018
 8131SOL     OW25291   3.013   2.031   0.057
 8131SOL    HW125292   2.982   2.115   0.103
 8131SOL    HW225293   3.093   2.052   0.002
 8132SOL     OW25294   6.344   1.669   4.603
 8132SOL    HW125295   6.316   1.666   4.507
 8132SOL    HW225296   6.274   1.626   4.659
 8133SOL     OW25297   4.349   5.479   1.518
 8133SOL    HW125298   4.422   5.479   1.450
 8133SOL    HW225299   4.306   5.569   1.521
 8134SOL     OW25300   6.398   1.562   6.884
 8134SOL    HW125301   6.298   1.556   6.891
 8134SOL    HW225302   6.430   1.495   6.817
 8135SOL     OW25303   2.713   5.988   1.893
 8135SOL    HW125304   2.706   6.017   1.988
 8135SOL    HW225305   2.753   6.062   1.838
 8136SOL     OW25306   4.387   4.760   2.286
 8136SOL    HW125307   4.393   4.726   2.192
 8136SOL    HW225308   4.479   4.768   2.324
 8137SOL     OW25309   3.649   1.192   5.909
 8137SOL    HW125310   3.550   1.186   5.915
 8137SOL    HW225311   3.683   1.125   5.844
 8138SOL     OW25312   6.624   0.922   2.466
 8138SOL    HW125313   6.525   0.925   2.453
 8138SOL    HW225314   6.669   0.894   2.381
 8139SOL     OW25315   1.135   1.728   5.119
 8139SOL    HW125316   1.174   1.791   5.051
 8139SOL    HW225317   1.087   1.780   5.189
 8140SOL     OW25318   4.624   2.619   3.262
 8140SOL    HW125319   4.675   2.701   3.285
 8140SOL    HW225320   4.607   2.616   3.163
 8141SOL     OW25321   6.395   4.137   4.133
 8141SOL    HW125322   6.394   4.230   4.096
 8141SOL    HW225323   6.316   4.086   4.098
 8142SOL     OW25324   0.352   6.099   0.407
 8142SOL    HW125325   0.317   6.168   0.472
 8142SOL    HW225326   0.279   6.036   0.383
 8143SOL     OW25327   6.763   2.714   6.602
 8143SOL    HW125328   6.742   2.759   6.689
 8143SOL    HW225329   6.821   2.773   6.547
 8144SOL     OW25330   4.506   6.060   0.492
 8144SOL    HW125331   4.549   6.066   0.582
 8144SOL    HW225332   4.469   6.150   0.466
 8145SOL     OW25333   4.652   0.003   4.642
 8145SOL    HW125334   4.720   0.021   4.713
 8145SOL    HW225335   4.697   6.994   4.562
 8146SOL     OW25336   3.051   1.580   2.977
 8146SOL    HW125337   3.016   1.661   2.930
 8146SOL    HW225338   2.980   1.509   2.978
 8147SOL     OW25339   4.791   1.820   3.647
 8147SOL    HW125340   4.861   1.752   3.625
 8147SOL    HW225341   4.821   1.910   3.618
 8148SOL     OW25342   0.961   3.073   3.511
 8148SOL    HW125343   0.888   3.129   3.472
 8148SOL    HW225344   1.036   3.132   3.540
 8149SOL     OW25345   4.079   5.562   4.198
 8149SOL    HW125346   3.987   5.539   4.169
 8149SOL    HW225347   4.137   5.481   4.193
 8150SOL     OW25348   1.616   5.695   0.309
 8150SOL    HW125349   1.553   5.762   0.270
 8150SOL    HW225350   1.629   5.714   0.406
 8151SOL     OW25351   0.762   2.002   4.963
 8151SOL    HW125352   0.747   1.967   4.870
 8151SOL    HW225353   0.860   2.014   4.978
 8152SOL     OW25354   0.433   1.076   3.442
 8152SOL    HW125355   0.491   1.120   3.373
 8152SOL    HW225356   0.341   1.115   3.438
 8153SOL     OW25357   1.594   6.532   6.743
 8153SOL    HW125358   1.675   6.510   6.796
 8153SOL    HW225359   1.579   6.631   6.744
 8154SOL     OW25360   1.893   6.936   3.976
 8154SOL    HW125361   1.980   6.894   4.003
 8154SOL    HW225362   1.818   6.892   4.026
 8155SOL     OW25363   4.065   3.544   5.182
 8155SOL    HW125364   4.014   3.492   5.251
 8155SOL    HW225365   4.077   3.488   5.100
 8156SOL     OW25366   0.966   6.270   5.094
 8156SOL    HW125367   0.871   6.293   5.070
 8156SOL    HW225368   1.010   6.226   5.016
 8157SOL     OW25369   5.886   2.701   6.704
 8157SOL    HW125370   5.912   2.756   6.783
 8157SOL    HW225371   5.910   2.606   6.719
 8158SOL     OW25372   1.109   5.820   2.439
 8158SOL    HW125373   1.162   5.792   2.519
 8158SOL    HW225374   1.059   5.904   2.460
 8159SOL     OW25375   0.235   6.306   0.558
 8159SOL    HW125376   0.221   6.284   0.655
 8159SOL    HW225377   0.247   6.404   0.547
 8160SOL     OW25378   6.014   1.784   1.239
 8160SOL    HW125379   6.040   1.712   1.174
 8160SOL    HW225380   5.915   1.785   1.249
 8161SOL     OW25381   3.373   4.010   1.781
 8161SOL    HW125382   3.419   4.087   1.736
 8161SOL    HW225383   3.414   3.993   1.870
 8162SOL     OW25384   5.571   0.814   0.990
 8162SOL    HW125385   5.525   0.772   0.912
 8162SOL    HW225386   5.507   0.874   1.038
 8163SOL     OW25387   2.586   2.933   5.474
 8163SOL    HW125388   2.501   2.885   5.453
 8163SOL    HW225389   2.611   2.992   5.397
 8164SOL     OW25390   5.363   3.962   1.882
 8164SOL    HW125391   5.443   3.961   1.822
 8164SOL    HW225392   5.351   4.054   1.921
 8165SOL     OW25393   1.567   3.430   1.764
 8165SOL    HW125394   1.653   3.453   1.719
 8165SOL    HW225395   1.508   3.382   1.700
 8166SOL     OW25396   2.616   0.222   2.967
 8166SOL    HW125397   2.654   0.135   3.000
 8166SOL    HW225398   2.691   0.286   2.948
 8167SOL     OW25399   5.349   3.175   4.398
 8167SOL    HW125400   5.265   3.143   4.441
 8167SOL    HW225401   5.427   3.125   4.437
 8168SOL     OW25402   2.812   1.500   2.361
 8168SOL    HW125403   2.904   1.461   2.371
 8168SOL    HW225404   2.819   1.600   2.360
 8169SOL     OW25405   5.263   3.906   5.695
 8169SOL    HW125406   5.269   3.877   5.790
 8169SOL    HW225407   5.226   3.999   5.690
 8170SOL     OW25408   0.649   5.256   4.461
 8170SOL    HW125409   0.556   5.263   4.497
 8170SOL    HW225410   0.670   5.160   4.444
 8171SOL     OW25411   1.960   0.844   7.028
 8171SOL    HW125412   1.995   0.933   6.999
 8171SOL    HW225413   2.016   0.809   0.073
 8172SOL     OW25414   7.017   5.364   2.594
 8172SOL    HW125415   6.953   5.440   2.587
 8172SOL    HW225416   6.967   5.280   2.615
 8173SOL     OW25417   0.196   3.492   6.754
 8173SOL    HW125418   0.290   3.472   6.728
 8173SOL    HW225419   0.134   3.428   6.708
 8174SOL     OW25420   4.978   6.597   2.437
 8174SOL    HW125421   4.890   6.640   2.417
 8174SOL    HW225422   4.975   6.501   2.412
 8175SOL     OW25423   1.308   2.351   3.561
 8175SOL    HW125424   1.397   2.395   3.558
 8175SOL    HW225425   1.298   2.292   3.481
 8176SOL     OW25426   4.714   4.627   3.164
 8176SOL    HW125427   4.777   4.627   3.086
 8176SOL    HW225428   4.655   4.546   3.160
 8177SOL     OW25429   2.246   0.155   6.119
 8177SOL    HW125430   2.236   0.085   6.190
 8177SOL    HW225431   2.226   0.245   6.158
 8178SOL     OW25432   2.015   6.160   7.027
 8178SOL    HW125433   2.037   6.136   0.092
 8178SOL    HW225434   2.035   6.082   6.968
 8179SOL     OW25435   4.305   6.793   5.330
 8179SOL    HW125436   4.289   6.830   5.238
 8179SOL    HW225437   4.281   6.862   5.398
 8180SOL     OW25438   4.770   4.111   4.590
 8180SOL    HW125439   4.729   4.020   4.591
 8180SOL    HW225440   4.866   4.105   4.563
 8181SOL     OW25441   2.183   1.761   2.784
 8181SOL    HW125442   2.179   1.772   2.685
 8181SOL    HW225443   2.102   1.712   2.816
 8182SOL     OW25444   5.647   2.999   5.201
 8182SOL    HW125445   5.573   3.061   5.229
 8182SOL    HW225446   5.721   3.005   5.268
 8183SOL     OW25447   2.035   4.353   3.760
 8183SOL    HW125448   2.041   4.453   3.763
 8183SOL    HW225449   2.035   4.317   3.853
 8184SOL     OW25450   6.123   6.270   5.038
 8184SOL    HW125451   6.081   6.358   5.019
 8184SOL    HW225452   6.062   6.196   5.008
 8185SOL     OW25453   0.489   2.227   3.524
 8185SOL    HW125454   0.439   2.229   3.437
 8185SOL    HW225455   0.488   2.318   3.565
 8186SOL     OW25456   4.001   2.952   6.401
 8186SOL    HW125457   3.962   2.861   6.413
 8186SOL    HW225458   3.963   2.995   6.319
 8187SOL     OW25459   2.670   1.775   6.212
 8187SOL    HW125460   2.719   1.782   6.126
 8187SOL    HW225461   2.576   1.809   6.200
 8188SOL     OW25462   4.944   3.608   3.024
 8188SOL    HW125463   4.952   3.708   3.029
 8188SOL    HW225464   4.930   3.580   2.929
 8189SOL     OW25465   0.229   5.798   3.093
 8189SOL    HW125466   0.240   5.776   2.997
 8189SOL    HW225467   0.134   5.823   3.111
 8190SOL     OW25468   5.255   3.366   2.863
 8190SOL    HW125469   5.250   3.269   2.838
 8190SOL    HW225470   5.178   3.390   2.921
 8191SOL     OW25471   5.989   4.391   1.156
 8191SOL    HW125472   5.983   4.358   1.251
 8191SOL    HW225473   5.902   4.374   1.110
 8192SOL     OW25474   2.296   1.408   0.718
 8192SOL    HW125475   2.288   1.325   0.662
 8192SOL    HW225476   2.367   1.467   0.681
 8193SOL     OW25477   3.922   6.327   5.915
 8193SOL    HW125478   3.915   6.280   5.827
 8193SOL    HW225479   3.844   6.303   5.972
 8194SOL     OW25480   0.709   1.021   2.397
 8194SOL    HW125481   0.777   0.982   2.459
 8194SOL    HW225482   0.754   1.049   2.312
 8195SOL     OW25483   6.179   0.833   0.884
 8195SOL    HW125484   6.107   0.816   0.951
 8195SOL    HW225485   6.144   0.816   0.792
 8196SOL     OW25486   2.360   0.677   1.016
 8196SOL    HW125487   2.357   0.619   1.097
 8196SOL    HW225488   2.455   0.697   0.991
 8197SOL     OW25489   0.665   6.727   0.646
 8197SOL    HW125490   0.748   6.782   0.657
 8197SOL    HW225491   0.590   6.770   0.696
 8198SOL     OW25492   2.600   0.938   2.504
 8198SOL    HW125493   2.630   1.033   2.496
 8198SOL    HW225494   2.636   0.898   2.587
 8199SOL     OW25495   6.148   4.606   1.110
 8199SOL    HW125496   6.095   4.521   1.112
 8199SOL    HW225497   6.090   4.681   1.081
 8200SOL     OW25498   4.105   4.648   1.336
 8200SOL    HW125499   4.183   4.610   1.287
 8200SOL    HW225500   4.025   4.649   1.276
 8201SOL     OW25501   0.807   1.230   4.425
 8201SOL    HW125502   0.858   1.151   4.459
 8201SOL    HW225503   0.714   1.228   4.461
 8202SOL     OW25504   1.407   3.649   4.287
 8202SOL    HW125505   1.486   3.627   4.229
 8202SOL    HW225506   1.408   3.747   4.309
 8203SOL     OW25507   6.542   4.328   6.714
 8203SOL    HW125508   6.625   4.312   6.661
 8203SOL    HW225509   6.532   4.255   6.782
 8204SOL     OW25510   2.749   6.393   1.800
 8204SOL    HW125511   2.792   6.332   1.733
 8204SOL    HW225512   2.684   6.341   1.855
 8205SOL     OW25513   3.516   6.725   2.969
 8205SOL    HW125514   3.505   6.698   3.064
 8205SOL    HW225515   3.456   6.803   2.950
 8206SOL     OW25516   3.696   2.139   4.297
 8206SOL    HW125517   3.639   2.100   4.225
 8206SOL    HW225518   3.751   2.214   4.260
 8207SOL     OW25519   2.249   6.460   0.120
 8207SOL    HW125520   2.177   6.508   0.170
 8207SOL    HW225521   2.207   6.391   0.061
 8208SOL     OW25522   0.811   5.686   0.773
 8208SOL    HW125523   0.812   5.684   0.673
 8208SOL    HW225524   0.904   5.676   0.808
 8209SOL     OW25525   0.921   6.080   4.241
 8209SOL    HW125526   1.017   6.052   4.245
 8209SOL    HW225527   0.865   6.013   4.290
 8210SOL     OW25528   2.524   0.248   1.252
 8210SOL    HW125529   2.613   0.248   1.206
 8210SOL    HW225530   2.514   0.164   1.306
 8211SOL     OW25531   3.413   4.026   4.398
 8211SOL    HW125532   3.429   4.084   4.319
 8211SOL    HW225533   3.488   3.960   4.406
 8212SOL     OW25534   3.568   5.457   6.679
 8212SOL    HW125535   3.557   5.499   6.589
 8212SOL    HW225536   3.647   5.498   6.725
 8213SOL     OW25537   4.993   3.902   2.113
 8213SOL    HW125538   4.956   3.948   2.032
 8213SOL    HW225539   4.926   3.907   2.187
 8214SOL     OW25540   3.828   4.833   3.428
 8214SOL    HW125541   3.825   4.793   3.520
 8214SOL    HW225542   3.915   4.810   3.385
 8215SOL     OW25543   2.936   6.454   5.259
 8215SOL    HW125544   2.948   6.355   5.263
 8215SOL    HW225545   2.902   6.488   5.347
 8216SOL     OW25546   6.387   4.548   0.004
 8216SOL    HW125547   6.388   4.506   0.095
 8216SOL    HW225548   6.481   4.556   7.000
 8217SOL     OW25549   3.611   6.486   3.674
 8217SOL    HW125550   3.556   6.497   3.757
 8217SOL    HW225551   3.674   6.409   3.685
 8218SOL     OW25552   2.187   5.888   3.691
 8218SOL    HW125553   2.211   5.819   3.622
 8218SOL    HW225554   2.269   5.911   3.745
 8219SOL     OW25555   3.946   3.623   4.742
 8219SOL    HW125556   3.997   3.662   4.665
 8219SOL    HW225557   3.860   3.672   4.755
 8220SOL     OW25558   4.604   3.999   6.106
 8220SOL    HW125559   4.642   4.006   6.014
 8220SOL    HW225560   4.677   3.979   6.171
 8221SOL     OW25561   6.594   3.762   4.006
 8221SOL    HW125562   6.516   3.742   3.946
 8221SOL    HW225563   6.624   3.679   4.052
 8222SOL     OW25564   5.370   1.745   5.716
 8222SOL    HW125565   5.379   1.839   5.685
 8222SOL    HW225566   5.311   1.694   5.653
 8223SOL     OW25567   1.222   6.392   5.459
 8223SOL    HW125568   1.235   6.464   5.390
 8223SOL    HW225569   1.143   6.336   5.435
 8224SOL     OW25570   4.868   1.593   4.831
 8224SOL    HW125571   4.837   1.681   4.793
 8224SOL    HW225572   4.953   1.566   4.785
 8225SOL     OW25573   6.113   1.560   6.860
 8225SOL    HW125574   6.122   1.516   6.771
 8225SOL    HW225575   6.022   1.600   6.869
 8226SOL     OW25576   4.016   0.604   6.821
 8226SOL    HW125577   4.099   0.654   6.797
 8226SOL    HW225578   3.974   0.567   6.738
 8227SOL     OW25579   5.863   3.423   2.861
 8227SOL    HW125580   5.764   3.427   2.874
 8227SOL    HW225581   5.883   3.376   2.775
 8228SOL     OW25582   2.618   1.484   4.743
 8228SOL    HW125583   2.649   1.502   4.837
 8228SOL    HW225584   2.551   1.410   4.743
 8229SOL     OW25585   4.522   3.539   0.790
 8229SOL    HW125586   4.429   3.503   0.802
 8229SOL    HW225587   4.576   3.519   0.872
 8230SOL     OW25588   5.913   1.487   6.514
 8230SOL    HW125589   5.932   1.391   6.497
 8230SOL    HW225590   5.993   1.542   6.491
 8231SOL     OW25591   3.334   1.111   1.464
 8231SOL    HW125592   3.281   1.161   1.533
 8231SOL    HW225593   3.333   1.162   1.378
 8232SOL     OW25594   4.011   6.052   4.436
 8232SOL    HW125595   4.062   5.970   4.409
 8232SOL    HW225596   3.975   6.097   4.355
 8233SOL     OW25597   3.029   0.569   6.752
 8233SOL    HW125598   3.022   0.518   6.667
 8233SOL    HW225599   2.963   0.645   6.751
 8234SOL     OW25600   0.383   2.631   6.413
 8234SOL    HW125601   0.364   2.541   6.453
 8234SOL    HW225602   0.344   2.702   6.471
 8235SOL     OW25603   1.321   6.281   6.681
 8235SOL    HW125604   1.398   6.344   6.664
 8235SOL    HW225605   1.356   6.192   6.710
 8236SOL     OW25606   0.735   0.552   0.624
 8236SOL    HW125607   0.795   0.544   0.704
 8236SOL    HW225608   0.748   0.473   0.564
 8237SOL     OW25609   4.861   4.297   5.860
 8237SOL    HW125610   4.912   4.315   5.945
 8237SOL    HW225611   4.797   4.221   5.876
 8238SOL     OW25612   6.977   5.199   6.798
 8238SOL    HW125613   0.011   5.175   6.871
 8238SOL    HW225614   6.938   5.116   6.759
 8239SOL     OW25615   5.002   2.838   4.006
 8239SOL    HW125616   5.095   2.803   3.993
 8239SOL    HW225617   4.946   2.817   3.926
 8240SOL     OW25618   3.479   3.490   5.044
 8240SOL    HW125619   3.477   3.516   4.947
 8240SOL    HW225620   3.386   3.493   5.081
 8241SOL     OW25621   0.189   2.862   5.380
 8241SOL    HW125622   0.150   2.891   5.467
 8241SOL    HW225623   0.239   2.777   5.392
 8242SOL     OW25624   0.634   3.874   3.294
 8242SOL    HW125625   0.686   3.871   3.379
 8242SOL    HW225626   0.552   3.818   3.303
 8243SOL     OW25627   2.212   5.556   3.776
 8243SOL    HW125628   2.169   5.609   3.849
 8243SOL    HW225629   2.259   5.477   3.814
 8244SOL     OW25630   5.447   6.768   4.809
 8244SOL    HW125631   5.358   6.725   4.802
 8244SOL    HW225632   5.480   6.762   4.903
 8245SOL     OW25633   5.649   3.722   1.882
 8245SOL    HW125634   5.724   3.789   1.881
 8245SOL    HW225635   5.630   3.693   1.975
 8246SOL     OW25636   2.282   4.263   0.422
 8246SOL    HW125637   2.359   4.211   0.458
 8246SOL    HW225638   2.220   4.289   0.497
 8247SOL     OW25639   2.268   5.015   3.543
 8247SOL    HW125640   2.317   4.953   3.604
 8247SOL    HW225641   2.245   5.099   3.592
 8248SOL     OW25642   6.384   0.891   2.729
 8248SOL    HW125643   6.371   0.905   2.631
 8248SOL    HW225644   6.383   0.980   2.775
 8249SOL     OW25645   3.317   6.636   5.410
 8249SOL    HW125646   3.289   6.585   5.329
 8249SOL    HW225647   3.339   6.730   5.384
 8250SOL     OW25648   2.027   1.109   6.959
 8250SOL    HW125649   1.998   1.182   6.897
 8250SOL    HW225650   2.048   1.147   0.019
 8251SOL     OW25651   1.832   1.604   6.649
 8251SOL    HW125652   1.827   1.593   6.749
 8251SOL    HW225653   1.908   1.664   6.626
 8252SOL     OW25654   0.740   0.839   6.684
 8252SOL    HW125655   0.787   0.926   6.698
 8252SOL    HW225656   0.807   0.765   6.692
 8253SOL     OW25657   6.943   3.726   4.442
 8253SOL    HW125658   6.959   3.635   4.481
 8253SOL    HW225659   6.847   3.735   4.416
 8254SOL     OW25660   4.815   3.943   0.390
 8254SOL    HW125661   4.801   3.862   0.447
 8254SOL    HW225662   4.810   3.917   0.293
 8255SOL     OW25663   1.691   6.159   5.748
 8255SOL    HW125664   1.737   6.106   5.677
 8255SOL    HW225665   1.686   6.104   5.832
 8256SOL     OW25666   1.799   5.853   2.885
 8256SOL    HW125667   1.895   5.882   2.880
 8256SOL    HW225668   1.794   5.763   2.927
 8257SOL     OW25669   5.006   4.545   3.600
 8257SOL    HW125670   4.949   4.596   3.665
 8257SOL    HW225671   5.099   4.580   3.602
 8258SOL     OW25672   0.492   3.078   4.184
 8258SOL    HW125673   0.555   3.122   4.120
 8258SOL    HW225674   0.498   2.979   4.175
 8259SOL     OW25675   5.181   3.705   3.982
 8259SOL    HW125676   5.146   3.619   3.946
 8259SOL    HW225677   5.205   3.766   3.906
 8260SOL     OW25678   4.633   2.369   6.232
 8260SOL    HW125679   4.719   2.320   6.217
 8260SOL    HW225680   4.580   2.324   6.304
 8261SOL     OW25681   5.109   2.248   3.342
 8261SOL    HW125682   5.148   2.340   3.338
 8261SOL    HW225683   5.010   2.254   3.331
 8262SOL     OW25684   5.286   4.076   2.266
 8262SOL    HW125685   5.290   3.977   2.274
 8262SOL    HW225686   5.287   4.102   2.169
 8263SOL     OW25687   6.883   1.313   0.206
 8263SOL    HW125688   6.953   1.376   0.239
 8263SOL    HW225689   6.852   1.341   0.115
 8264SOL     OW25690   3.387   1.603   2.021
 8264SOL    HW125691   3.456   1.564   1.960
 8264SOL    HW225692   3.428   1.676   2.075
 8265SOL     OW25693   6.262   5.373   0.298
 8265SOL    HW125694   6.184   5.408   0.246
 8265SOL    HW225695   6.269   5.421   0.385
 8266SOL     OW25696   4.229   2.291   2.957
 8266SOL    HW125697   4.153   2.228   2.941
 8266SOL    HW225698   4.274   2.311   2.870
 8267SOL     OW25699   1.802   3.946   2.731
 8267SOL    HW125700   1.774   4.021   2.791
 8267SOL    HW225701   1.902   3.939   2.732
 8268SOL     OW25702   2.313   5.361   1.400
 8268SOL    HW125703   2.350   5.343   1.491
 8268SOL    HW225704   2.333   5.284   1.340
 8269SOL     OW25705   6.251   1.992   3.092
 8269SOL    HW125706   6.284   1.930   3.163
 8269SOL    HW225707   6.272   1.953   3.002
 8270SOL     OW25708   4.661   5.475   0.350
 8270SOL    HW125709   4.741   5.496   0.406
 8270SOL    HW225710   4.652   5.376   0.341
 8271SOL     OW25711   2.469   0.443   6.073
 8271SOL    HW125712   2.551   0.388   6.054
 8271SOL    HW225713   2.430   0.414   6.161
 8272SOL     OW25714   0.182   1.171   2.015
 8272SOL    HW125715   0.129   1.237   2.068
 8272SOL    HW225716   0.126   1.134   1.941
 8273SOL     OW25717   5.474   0.362   6.023
 8273SOL    HW125718   5.511   0.450   6.053
 8273SOL    HW225719   5.549   0.300   6.002
 8274SOL     OW25720   5.013   6.907   3.908
 8274SOL    HW125721   4.958   6.983   3.941
 8274SOL    HW225722   5.109   6.933   3.906
 8275SOL     OW25723   4.771   0.783   4.552
 8275SOL    HW125724   4.782   0.797   4.454
 8275SOL    HW225725   4.858   0.752   4.591
 8276SOL     OW25726   4.836   2.657   6.997
 8276SOL    HW125727   4.908   2.726   7.002
 8276SOL    HW225728   4.758   2.693   6.946
 8277SOL     OW25729   1.268   0.390   1.479
 8277SOL    HW125730   1.316   0.433   1.555
 8277SOL    HW225731   1.292   0.293   1.474
 8278SOL     OW25732   1.607   1.532   1.575
 8278SOL    HW125733   1.620   1.582   1.661
 8278SOL    HW225734   1.594   1.597   1.501
 8279SOL     OW25735   5.898   4.556   6.092
 8279SOL    HW125736   5.810   4.511   6.103
 8279SOL    HW225737   5.924   4.556   5.995
 8280SOL     OW25738   0.084   4.723   0.559
 8280SOL    HW125739   0.001   4.668   0.548
 8280SOL    HW225740   0.087   4.761   0.652
 8281SOL     OW25741   2.349   4.508   0.343
 8281SOL    HW125742   2.382   4.469   0.257
 8281SOL    HW225743   2.304   4.438   0.397
 8282SOL     OW25744   4.472   2.689   0.575
 8282SOL    HW125745   4.541   2.757   0.601
 8282SOL    HW225746   4.394   2.695   0.638
 8283SOL     OW25747   0.676   2.002   3.015
 8283SOL    HW125748   0.630   1.922   2.977
 8283SOL    HW225749   0.763   1.975   3.056
 8284SOL     OW25750   4.139   2.419   0.793
 8284SOL    HW125751   4.056   2.464   0.761
 8284SOL    HW225752   4.169   2.461   0.879
 8285SOL     OW25753   0.632   4.839   0.499
 8285SOL    HW125754   0.620   4.762   0.562
 8285SOL    HW225755   0.721   4.833   0.456
 8286SOL     OW25756   6.790   1.955   7.027
 8286SOL    HW125757   6.819   1.887   0.065
 8286SOL    HW225758   6.803   2.047   0.034
 8287SOL     OW25759   1.196   1.850   3.080
 8287SOL    HW125760   1.221   1.817   2.989
 8287SOL    HW225761   1.203   1.950   3.082
 8288SOL     OW25762   1.912   6.731   2.866
 8288SOL    HW125763   1.996   6.745   2.814
 8288SOL    HW225764   1.875   6.640   2.846
 8289SOL     OW25765   5.778   6.490   0.178
 8289SOL    HW125766   5.764   6.392   0.188
 8289SOL    HW225767   5.852   6.520   0.238
 8290SOL     OW25768   4.536   2.803   1.705
 8290SOL    HW125769   4.609   2.741   1.732
 8290SOL    HW225770   4.542   2.887   1.758
 8291SOL     OW25771   5.812   5.942   5.118
 8291SOL    HW125772   5.789   5.844   5.121
 8291SOL    HW225773   5.780   5.986   5.201
 8292SOL     OW25774   0.574   4.041   5.901
 8292SOL    HW125775   0.600   4.062   5.807
 8292SOL    HW225776   0.626   4.098   5.964
 8293SOL     OW25777   3.122   5.276   4.172
 8293SOL    HW125778   3.112   5.335   4.092
 8293SOL    HW225779   3.139   5.332   4.253
 8294SOL     OW25780   6.189   3.305   5.945
 8294SOL    HW125781   6.230   3.264   5.864
 8294SOL    HW225782   6.260   3.344   6.004
 8295SOL     OW25783   4.107   4.803   1.563
 8295SOL    HW125784   4.084   4.755   1.648
 8295SOL    HW225785   4.083   4.747   1.485
 8296SOL     OW25786   3.335   0.065   1.975
 8296SOL    HW125787   3.260   0.130   1.981
 8296SOL    HW225788   3.407   0.103   1.917
 8297SOL     OW25789   5.345   4.910   1.823
 8297SOL    HW125790   5.382   4.819   1.805
 8297SOL    HW225791   5.371   4.940   1.915
 8298SOL     OW25792   0.249   5.991   0.685
 8298SOL    HW125793   0.176   5.924   0.696
 8298SOL    HW225794   0.213   6.082   0.705
 8299SOL     OW25795   1.124   1.390   6.934
 8299SOL    HW125796   1.029   1.406   6.907
 8299SOL    HW225797   1.185   1.448   6.880
 8300SOL     OW25798   4.672   5.998   5.025
 8300SOL    HW125799   4.649   5.991   5.122
 8300SOL    HW225800   4.614   6.067   4.981
 8301SOL     OW25801   5.927   4.156   6.915
 8301SOL    HW125802   6.022   4.177   6.893
 8301SOL    HW225803   5.899   4.209   6.995
 8302SOL     OW25804   3.514   6.440   6.141
 8302SOL    HW125805   3.546   6.513   6.081
 8302SOL    HW225806   3.533   6.465   6.236
 8303SOL     OW25807   6.938   4.441   4.428
 8303SOL    HW125808   6.926   4.390   4.343
 8303SOL    HW225809   7.026   4.418   4.470
 8304SOL     OW25810   5.600   3.009   3.888
 8304SOL    HW125811   5.625   2.912   3.878
 8304SOL    HW225812   5.679   3.060   3.922
 8305SOL     OW25813   4.345   6.357   5.890
 8305SOL    HW125814   4.383   6.444   5.859
 8305SOL    HW225815   4.251   6.372   5.920
 8306SOL     OW25816   4.514   1.020   3.402
 8306SOL    HW125817   4.444   0.962   3.444
 8306SOL    HW225818   4.558   0.969   3.328
 8307SOL     OW25819   1.061   5.139   4.521
 8307SOL    HW125820   1.145   5.190   4.503
 8307SOL    HW225821   1.067   5.049   4.477
 8308SOL     OW25822   2.069   4.247   0.729
 8308SOL    HW125823   2.107   4.327   0.683
 8308SOL    HW225824   2.136   4.172   0.728
 8309SOL     OW25825   5.627   5.555   2.746
 8309SOL    HW125826   5.584   5.466   2.757
 8309SOL    HW225827   5.608   5.591   2.655
 8310SOL     OW25828   2.475   5.891   2.888
 8310SOL    HW125829   2.403   5.938   2.940
 8310SOL    HW225830   2.446   5.882   2.792
 8311SOL     OW25831   4.797   6.862   2.379
 8311SOL    HW125832   4.748   6.857   2.292
 8311SOL    HW225833   4.888   6.902   2.364
 8312SOL     OW25834   6.432   6.883   0.859
 8312SOL    HW125835   6.475   6.875   0.769
 8312SOL    HW225836   6.448   6.799   0.911
 8313SOL     OW25837   5.073   1.975   5.492
 8313SOL    HW125838   5.061   1.946   5.587
 8313SOL    HW225839   5.071   2.075   5.488
 8314SOL     OW25840   5.594   5.795   5.499
 8314SOL    HW125841   5.525   5.746   5.446
 8314SOL    HW225842   5.567   5.797   5.595
 8315SOL     OW25843   3.360   1.885   6.743
 8315SOL    HW125844   3.439   1.946   6.754
 8315SOL    HW225845   3.337   1.877   6.646
 8316SOL     OW25846   1.464   1.020   4.976
 8316SOL    HW125847   1.441   1.039   5.071
 8316SOL    HW225848   1.488   1.105   4.929
 8317SOL     OW25849   2.809   1.579   6.410
 8317SOL    HW125850   2.770   1.627   6.331
 8317SOL    HW225851   2.785   1.482   6.405
 8318SOL     OW25852   4.928   5.649   5.223
 8318SOL    HW125853   4.858   5.656   5.294
 8318SOL    HW225854   4.898   5.584   5.153
 8319SOL     OW25855   2.977   6.162   6.338
 8319SOL    HW125856   2.915   6.174   6.260
 8319SOL    HW225857   2.992   6.250   6.383
 8320SOL     OW25858   3.877   4.819   5.607
 8320SOL    HW125859   3.878   4.906   5.558
 8320SOL    HW225860   3.970   4.782   5.611
 8321SOL     OW25861   0.666   6.798   7.009
 8321SOL    HW125862   0.613   6.874   0.015
 8321SOL    HW225863   0.646   6.785   6.912
 8322SOL     OW25864   2.909   0.138   2.434
 8322SOL    HW125865   2.929   0.236   2.437
 8322SOL    HW225866   2.831   0.118   2.494
 8323SOL     OW25867   6.382   5.470   6.698
 8323SOL    HW125868   6.393   5.374   6.723
 8323SOL    HW225869   6.343   5.520   6.776
 8324SOL     OW25870   6.843   6.163   5.018
 8324SOL    HW125871   6.814   6.179   5.113
 8324SOL    HW225872   6.773   6.197   4.955
 8325SOL     OW25873   1.673   5.297   4.988
 8325SOL    HW125874   1.711   5.374   5.038
 8325SOL    HW225875   1.575   5.288   5.008
 8326SOL     OW25876   3.574   0.992   6.867
 8326SOL    HW125877   3.576   0.912   6.928
 8326SOL    HW225878   3.573   0.961   6.772
 8327SOL     OW25879   0.807   6.083   5.435
 8327SOL    HW125880   0.738   6.134   5.487
 8327SOL    HW225881   0.768   5.996   5.404
 8328SOL     OW25882   1.045   6.887   0.958
 8328SOL    HW125883   1.110   6.821   0.919
 8328SOL    HW225884   1.043   6.876   1.058
 8329SOL     OW25885   1.780   1.671   6.307
 8329SOL    HW125886   1.822   1.612   6.238
 8329SOL    HW225887   1.846   1.691   6.379
 8330SOL     OW25888   3.413   6.581   0.055
 8330SOL    HW125889   3.504   6.575   0.012
 8330SOL    HW225890   3.415   6.650   0.128
 8331SOL     OW25891   1.731   2.629   5.979
 8331SOL    HW125892   1.769   2.720   5.998
 8331SOL    HW225893   1.632   2.636   5.967
 8332SOL     OW25894   5.172   4.179   0.938
 8332SOL    HW125895   5.079   4.187   0.902
 8332SOL    HW225896   5.212   4.092   0.909
 8333SOL     OW25897   2.101   4.141   5.646
 8333SOL    HW125898   2.120   4.187   5.733
 8333SOL    HW225899   2.187   4.122   5.599
 8334SOL     OW25900   2.927   2.845   5.527
 8334SOL    HW125901   3.003   2.823   5.589
 8334SOL    HW225902   2.840   2.834   5.575
 8335SOL     OW25903   6.420   2.785   0.335
 8335SOL    HW125904   6.353   2.831   0.393
 8335SOL    HW225905   6.474   2.853   0.286
 8336SOL     OW25906   0.549   4.566   3.977
 8336SOL    HW125907   0.588   4.628   4.045
 8336SOL    HW225908   0.621   4.531   3.918
 8337SOL     OW25909   6.476   6.956   4.479
 8337SOL    HW125910   6.524   6.924   4.560
 8337SOL    HW225911   6.415   0.002   4.505
 8338SOL     OW25912   2.406   4.856   0.865
 8338SOL    HW125913   2.310   4.879   0.849
 8338SOL    HW225914   2.439   4.800   0.789
 8339SOL     OW25915   6.506   0.028   1.582
 8339SOL    HW125916   6.416   7.017   1.594
 8339SOL    HW225917   6.576   6.986   1.579
 8340SOL     OW25918   6.023   2.424   6.213
 8340SOL    HW125919   6.106   2.434   6.158
 8340SOL    HW225920   5.945   2.460   6.162
 8341SOL     OW25921   3.615   6.737   0.962
 8341SOL    HW125922   3.706   6.708   0.933
 8341SOL    HW225923   3.612   6.836   0.970
 8342SOL     OW25924   4.088   0.908   1.322
 8342SOL    HW125925   4.178   0.865   1.326
 8342SOL    HW225926   4.020   0.847   1.363
 8343SOL     OW25927   4.659   6.085   3.106
 8343SOL    HW125928   4.753   6.111   3.082
 8343SOL    HW225929   4.609   6.165   3.137
 8344SOL     OW25930   2.339   4.276   4.719
 8344SOL    HW125931   2.368   4.275   4.623
 8344SOL    HW225932   2.357   4.187   4.761
 8345SOL     OW25933   6.945   0.026   4.283
 8345SOL    HW125934   6.846   0.032   4.296
 8345SOL    HW225935   6.968   0.059   4.192
 8346SOL     OW25936   5.468   3.958   2.867
 8346SOL    HW125937   5.381   3.910   2.866
 8346SOL    HW225938   5.542   3.895   2.891
 8347SOL     OW25939   1.551   1.629   6.967
 8347SOL    HW125940   1.529   1.696   0.008
 8347SOL    HW225941   1.545   1.537   7.006
 8348SOL     OW25942   2.574   6.741   0.764
 8348SOL    HW125943   2.552   6.740   0.667
 8348SOL    HW225944   2.663   6.696   0.778
 8349SOL     OW25945   4.810   6.002   1.017
 8349SOL    HW125946   4.746   5.927   1.031
 8349SOL    HW225947   4.888   5.969   0.963
 8350SOL     OW25948   2.379   1.024   6.357
 8350SOL    HW125949   2.362   1.040   6.454
 8350SOL    HW225950   2.368   0.927   6.336
 8351SOL     OW25951   0.368   4.461   3.222
 8351SOL    HW125952   0.399   4.542   3.271
 8351SOL    HW225953   0.431   4.442   3.147
 8352SOL     OW25954   2.164   6.487   6.675
 8352SOL    HW125955   2.142   6.518   6.767
 8352SOL    HW225956   2.216   6.558   6.628
 8353SOL     OW25957   1.775   6.008   2.399
 8353SOL    HW125958   1.806   5.967   2.485
 8353SOL    HW225959   1.853   6.053   2.354
 8354SOL     OW25960   5.427   3.201   3.743
 8354SOL    HW125961   5.503   3.137   3.749
 8354SOL    HW225962   5.439   3.274   3.811
 8355SOL     OW25963   3.345   3.580   5.529
 8355SOL    HW125964   3.418   3.551   5.591
 8355SOL    HW225965   3.269   3.616   5.582
 8356SOL     OW25966   3.742   2.867   2.697
 8356SOL    HW125967   3.650   2.885   2.731
 8356SOL    HW225968   3.751   2.770   2.674
 8357SOL     OW25969   3.399   6.941   4.944
 8357SOL    HW125970   3.477   6.994   4.978
 8357SOL    HW225971   3.431   6.871   4.880
 8358SOL     OW25972   7.027   0.940   4.632
 8358SOL    HW125973   6.987   0.855   4.597
 8358SOL    HW225974   6.956   1.010   4.640
 8359SOL     OW25975   5.125   2.967   5.666
 8359SOL    HW125976   5.178   2.943   5.747
 8359SOL    HW225977   5.130   2.894   5.598
 8360SOL     OW25978   3.552   0.448   2.310
 8360SOL    HW125979   3.598   0.509   2.374
 8360SOL    HW225980   3.611   0.432   2.231
 8361SOL     OW25981   4.774   1.900   6.711
 8361SOL    HW125982   4.711   1.869   6.639
 8361SOL    HW225983   4.850   1.950   6.669
 8362SOL     OW25984   0.248   4.319   2.108
 8362SOL    HW125985   0.198   4.262   2.174
 8362SOL    HW225986   0.322   4.367   2.155
 8363SOL     OW25987   3.529   2.506   1.369
 8363SOL    HW125988   3.521   2.597   1.328
 8363SOL    HW225989   3.612   2.461   1.335
 8364SOL     OW25990   0.554   1.400   3.310
 8364SOL    HW125991   0.639   1.353   3.289
 8364SOL    HW225992   0.573   1.483   3.364
 8365SOL     OW25993   2.297   2.642   1.140
 8365SOL    HW125994   2.245   2.707   1.194
 8365SOL    HW225995   2.321   2.683   1.052
 8366SOL     OW25996   5.028   6.116   1.541
 8366SOL    HW125997   4.933   6.104   1.512
 8366SOL    HW225998   5.059   6.207   1.515
 8367SOL     OW25999   0.678   4.973   4.385
 8367SOL    HW126000   0.715   4.883   4.411
 8367SOL    HW226001   0.592   4.960   4.336
 8368SOL     OW26002   0.525   3.495   6.209
 8368SOL    HW126003   0.477   3.445   6.281
 8368SOL    HW226004   0.459   3.549   6.156
 8369SOL     OW26005   1.052   1.014   0.454
 8369SOL    HW126006   1.086   0.961   0.532
 8369SOL    HW226007   1.126   1.025   0.387
 8370SOL     OW26008   2.627   3.060   1.700
 8370SOL    HW126009   2.695   3.132   1.686
 8370SOL    HW226010   2.669   2.971   1.688
 8371SOL     OW26011   2.761   4.504   5.616
 8371SOL    HW126012   2.803   4.452   5.542
 8371SOL    HW226013   2.685   4.452   5.656
 8372SOL     OW26014   1.447   7.008   3.437
 8372SOL    HW126015   1.481   6.980   3.526
 8372SOL    HW226016   1.397   0.064   3.447
 8373SOL     OW26017   6.361   0.419   4.575
 8373SOL    HW126018   6.362   0.454   4.669
 8373SOL    HW226019   6.377   0.320   4.576
 8374SOL     OW26020   0.561   1.973   3.644
 8374SOL    HW126021   0.501   1.903   3.606
 8374SOL    HW226022   0.545   2.060   3.597
 8375SOL     OW26023   1.395   2.356   5.549
 8375SOL    HW126024   1.350   2.399   5.471
 8375SOL    HW226025   1.468   2.296   5.517
 8376SOL     OW26026   0.947   0.801   3.522
 8376SOL    HW126027   1.008   0.862   3.572
 8376SOL    HW226028   0.963   0.706   3.550
 8377SOL     OW26029   4.500   6.020   2.066
 8377SOL    HW126030   4.480   6.041   1.970
 8377SOL    HW226031   4.453   6.086   2.124
 8378SOL     OW26032   4.369   6.157   6.077
 8378SOL    HW126033   4.355   6.211   5.994
 8378SOL    HW226034   4.297   6.177   6.143
 8379SOL     OW26035   6.034   3.035   1.503
 8379SOL    HW126036   5.967   3.029   1.577
 8379SOL    HW226037   6.053   2.943   1.468
 8380SOL     OW26038   1.457   5.247   2.843
 8380SOL    HW126039   1.457   5.234   2.744
 8380SOL    HW226040   1.542   5.213   2.882
 8381SOL     OW26041   0.314   2.675   2.483
 8381SOL    HW126042   0.362   2.720   2.408
 8381SOL    HW226043   0.218   2.703   2.484
 8382SOL     OW26044   1.020   0.600   2.087
 8382SOL    HW126045   1.099   0.542   2.066
 8382SOL    HW226046   0.943   0.573   2.030
 8383SOL     OW26047   2.295   6.628   4.674
 8383SOL    HW126048   2.353   6.678   4.611
 8383SOL    HW226049   2.320   6.650   4.768
 8384SOL     OW26050   0.570   4.008   3.951
 8384SOL    HW126051   0.477   4.045   3.954
 8384SOL    HW226052   0.629   4.072   3.902
 8385SOL     OW26053   3.981   2.180   1.437
 8385SOL    HW126054   3.936   2.217   1.519
 8385SOL    HW226055   4.057   2.122   1.464
 8386SOL     OW26056   6.602   5.718   2.260
 8386SOL    HW126057   6.563   5.627   2.269
 8386SOL    HW226058   6.619   5.738   2.163
 8387SOL     OW26059   0.377   2.435   3.846
 8387SOL    HW126060   0.291   2.392   3.873
 8387SOL    HW226061   0.382   2.441   3.746
 8388SOL     OW26062   3.161   6.219   1.277
 8388SOL    HW126063   3.179   6.315   1.301
 8388SOL    HW226064   3.184   6.204   1.181
 8389SOL     OW26065   1.065   2.893   4.350
 8389SOL    HW126066   1.062   2.914   4.448
 8389SOL    HW226067   0.978   2.855   4.321
 8390SOL     OW26068   1.201   6.590   6.547
 8390SOL    HW126069   1.289   6.576   6.502
 8390SOL    HW226070   1.127   6.576   6.481
 8391SOL     OW26071   5.031   6.155   1.152
 8391SOL    HW126072   5.124   6.119   1.156
 8391SOL    HW226073   4.967   6.081   1.133
 8392SOL     OW26074   3.347   5.921   0.566
 8392SOL    HW126075   3.391   5.847   0.515
 8392SOL    HW226076   3.265   5.886   0.611
 8393SOL     OW26077   1.505   6.533   2.194
 8393SOL    HW126078   1.579   6.525   2.260
 8393SOL    HW226079   1.472   6.627   2.193
 8394SOL     OW26080   1.686   1.043   4.283
 8394SOL    HW126081   1.744   1.123   4.274
 8394SOL    HW226082   1.728   0.965   4.236
 8395SOL     OW26083   1.827   6.223   6.828
 8395SOL    HW126084   1.903   6.227   6.893
 8395SOL    HW226085   1.826   6.307   6.774
 8396SOL     OW26086   4.944   1.877   0.146
 8396SOL    HW126087   4.869   1.823   0.107
 8396SOL    HW226088   4.932   1.884   0.245
 8397SOL     OW26089   0.463   4.364   3.596
 8397SOL    HW126090   0.377   4.350   3.547
 8397SOL    HW226091   0.446   4.423   3.675
 8398SOL     OW26092   5.734   1.848   6.401
 8398SOL    HW126093   5.662   1.780   6.395
 8398SOL    HW226094   5.727   1.897   6.488
 8399SOL     OW26095   5.529   0.020   5.050
 8399SOL    HW126096   5.440   0.050   5.014
 8399SOL    HW226097   5.529   0.030   5.150
 8400SOL     OW26098   6.018   5.716   3.171
 8400SOL    HW126099   6.013   5.680   3.264
 8400SOL    HW226100   5.969   5.656   3.108
 8401SOL     OW26101   2.064   3.492   5.131
 8401SOL    HW126102   2.109   3.438   5.060
 8401SOL    HW226103   2.094   3.459   5.221
 8402SOL     OW26104   4.687   1.315   4.385
 8402SOL    HW126105   4.719   1.221   4.373
 8402SOL    HW226106   4.595   1.315   4.424
 8403SOL     OW26107   0.927   1.846   6.494
 8403SOL    HW126108   1.013   1.858   6.445
 8403SOL    HW226109   0.862   1.796   6.437
 8404SOL     OW26110   5.037   5.234   5.163
 8404SOL    HW126111   5.012   5.228   5.260
 8404SOL    HW226112   5.027   5.144   5.120
 8405SOL     OW26113   0.428   2.869   5.990
 8405SOL    HW126114   0.484   2.897   5.913
 8405SOL    HW226115   0.351   2.932   6.001
 8406SOL     OW26116   6.205   3.760   1.675
 8406SOL    HW126117   6.304   3.760   1.684
 8406SOL    HW226118   6.167   3.680   1.722
 8407SOL     OW26119   5.348   3.199   2.203
 8407SOL    HW126120   5.427   3.244   2.161
 8407SOL    HW226121   5.348   3.216   2.301
 8408SOL     OW26122   5.314   4.213   4.214
 8408SOL    HW126123   5.218   4.223   4.188
 8408SOL    HW226124   5.355   4.139   4.161
 8409SOL     OW26125   0.688   2.022   3.929
 8409SOL    HW126126   0.643   1.975   3.853
 8409SOL    HW226127   0.644   2.110   3.945
 8410SOL     OW26128   1.874   5.389   2.183
 8410SOL    HW126129   1.776   5.393   2.201
 8410SOL    HW226130   1.892   5.423   2.091
 8411SOL     OW26131   2.004   3.604   3.135
 8411SOL    HW126132   1.910   3.635   3.125
 8411SOL    HW226133   2.038   3.569   3.048
 8412SOL     OW26134   5.418   2.541   2.632
 8412SOL    HW126135   5.365   2.577   2.708
 8412SOL    HW226136   5.456   2.617   2.579
 8413SOL     OW26137   1.421   5.366   2.130
 8413SOL    HW126138   1.364   5.289   2.160
 8413SOL    HW226139   1.477   5.337   2.053
 8414SOL     OW26140   6.337   0.273   4.157
 8414SOL    HW126141   6.362   0.352   4.101
 8414SOL    HW226142   6.248   0.289   4.200
 8415SOL     OW26143   0.653   4.729   0.930
 8415SOL    HW126144   0.673   4.641   0.974
 8415SOL    HW226145   0.695   4.803   0.983
 8416SOL     OW26146   4.148   4.926   2.703
 8416SOL    HW126147   4.186   4.866   2.773
 8416SOL    HW226148   4.165   4.888   2.613
 8417SOL     OW26149   0.796   5.643   6.727
 8417SOL    HW126150   0.861   5.567   6.730
 8417SOL    HW226151   0.732   5.634   6.803
 8418SOL     OW26152   5.628   6.539   2.760
 8418SOL    HW126153   5.653   6.536   2.857
 8418SOL    HW226154   5.606   6.447   2.729
 8419SOL     OW26155   2.232   1.684   3.187
 8419SOL    HW126156   2.325   1.705   3.218
 8419SOL    HW226157   2.232   1.598   3.137
 8420SOL     OW26158   4.964   1.764   5.298
 8420SOL    HW126159   5.023   1.838   5.330
 8420SOL    HW226160   4.969   1.758   5.198
 8421SOL     OW26161   0.019   0.904   0.737
 8421SOL    HW126162   0.101   0.950   0.771
 8421SOL    HW226163   0.032   0.878   0.642
 8422SOL     OW26164   2.974   1.142   1.198
 8422SOL    HW126165   2.928   1.091   1.125
 8422SOL    HW226166   2.962   1.240   1.181
 8423SOL     OW26167   2.022   4.779   1.719
 8423SOL    HW126168   1.925   4.755   1.714
 8423SOL    HW226169   2.052   4.819   1.632
 8424SOL     OW26170   2.579   2.347   2.318
 8424SOL    HW126171   2.536   2.426   2.361
 8424SOL    HW226172   2.544   2.338   2.224
 8425SOL     OW26173   6.911   5.494   5.499
 8425SOL    HW126174   6.907   5.397   5.520
 8425SOL    HW226175   6.844   5.517   5.428
 8426SOL     OW26176   3.761   4.035   2.944
 8426SOL    HW126177   3.797   4.050   2.852
 8426SOL    HW226178   3.662   4.050   2.944
 8427SOL     OW26179   2.292   1.031   6.651
 8427SOL    HW126180   2.198   1.050   6.680
 8427SOL    HW226181   2.315   0.937   6.674
 8428SOL     OW26182   6.878   2.965   1.660
 8428SOL    HW126183   6.898   3.063   1.672
 8428SOL    HW226184   6.963   2.916   1.641
 8429SOL     OW26185   1.347   6.670   3.140
 8429SOL    HW126186   1.335   6.578   3.104
 8429SOL    HW226187   1.311   6.736   3.075
 8430SOL     OW26188   3.169   6.348   3.699
 8430SOL    HW126189   3.104   6.282   3.736
 8430SOL    HW226190   3.225   6.305   3.629
 8431SOL     OW26191   3.161   3.442   3.097
 8431SOL    HW126192   3.173   3.412   3.191
 8431SOL    HW226193   3.158   3.542   3.094
 8432SOL     OW26194   4.206   5.346   0.836
 8432SOL    HW126195   4.128   5.408   0.830
 8432SOL    HW226196   4.278   5.377   0.775
 8433SOL     OW26197   6.420   1.603   3.429
 8433SOL    HW126198   6.386   1.514   3.459
 8433SOL    HW226199   6.459   1.595   3.337
 8434SOL     OW26200   5.377   6.468   0.048
 8434SOL    HW126201   5.343   6.545   0.102
 8434SOL    HW226202   5.300   6.408   0.024
 8435SOL     OW26203   5.610   3.815   0.817
 8435SOL    HW126204   5.654   3.778   0.899
 8435SOL    HW226205   5.527   3.764   0.798
 8436SOL     OW26206   3.486   4.271   1.750
 8436SOL    HW126207   3.537   4.306   1.672
 8436SOL    HW226208   3.406   4.329   1.767
 8437SOL     OW26209   0.305   3.034   0.886
 8437SOL    HW126210   0.218   3.015   0.840
 8437SOL    HW226211   0.317   2.971   0.962
 8438SOL     OW26212   2.566   5.738   1.788
 8438SOL    HW126213   2.608   5.827   1.804
 8438SOL    HW226214   2.504   5.716   1.863
 8439SOL     OW26215   5.421   0.428   2.266
 8439SOL    HW126216   5.464   0.373   2.195
 8439SOL    HW226217   5.382   0.369   2.336
 8440SOL     OW26218   1.355   3.803   3.547
 8440SOL    HW126219   1.455   3.805   3.543
 8440SOL    HW226220   1.320   3.744   3.475
 8441SOL     OW26221   4.439   5.763   1.335
 8441SOL    HW126222   4.358   5.730   1.385
 8441SOL    HW226223   4.521   5.725   1.377
 8442SOL     OW26224   3.015   3.048   0.534
 8442SOL    HW126225   2.921   3.021   0.558
 8442SOL    HW226226   3.017   3.146   0.512
 8443SOL     OW26227   6.834   2.627   0.627
 8443SOL    HW126228   6.913   2.602   0.572
 8443SOL    HW226229   6.853   2.711   0.678
 8444SOL     OW26230   5.034   2.715   3.082
 8444SOL    HW126231   5.068   2.805   3.109
 8444SOL    HW226232   4.983   2.723   2.997
 8445SOL     OW26233   3.440   5.490   3.199
 8445SOL    HW126234   3.498   5.554   3.149
 8445SOL    HW226235   3.488   5.403   3.212
 8446SOL     OW26236   6.014   4.114   3.385
 8446SOL    HW126237   5.923   4.079   3.405
 8446SOL    HW226238   6.038   4.184   3.453
 8447SOL     OW26239   5.434   4.960   1.075
 8447SOL    HW126240   5.473   4.918   1.156
 8447SOL    HW226241   5.493   5.036   1.045
 8448SOL     OW26242   1.522   4.424   5.554
 8448SOL    HW126243   1.432   4.380   5.551
 8448SOL    HW226244   1.518   4.512   5.506
 8449SOL     OW26245   2.045   0.888   5.820
 8449SOL    HW126246   1.948   0.912   5.810
 8449SOL    HW226247   2.070   0.891   5.917
 8450SOL     OW26248   1.493   5.960   0.694
 8450SOL    HW126249   1.550   5.891   0.737
 8450SOL    HW226250   1.550   6.037   0.665
 8451SOL     OW26251   2.793   4.246   1.427
 8451SOL    HW126252   2.865   4.177   1.438
 8451SOL    HW226253   2.776   4.291   1.515
 8452SOL     OW26254   6.762   5.889   2.403
 8452SOL    HW126255   6.710   5.838   2.335
 8452SOL    HW226256   6.721   5.876   2.494
 8453SOL     OW26257   0.833   4.474   5.548
 8453SOL    HW126258   0.910   4.451   5.489
 8453SOL    HW226259   0.820   4.402   5.616
 8454SOL     OW26260   2.147   6.945   5.764
 8454SOL    HW126261   2.096   7.018   5.810
 8454SOL    HW226262   2.235   6.980   5.732
 8455SOL     OW26263   6.296   2.164   0.050
 8455SOL    HW126264   6.283   2.209   0.138
 8455SOL    HW226265   6.363   2.091   0.059
 8456SOL     OW26266   5.859   4.668   3.725
 8456SOL    HW126267   5.903   4.660   3.814
 8456SOL    HW226268   5.864   4.581   3.677
 8457SOL     OW26269   5.499   6.160   6.064
 8457SOL    HW126270   5.586   6.111   6.068
 8457SOL    HW226271   5.487   6.212   6.149
 8458SOL     OW26272   1.133   1.390   1.507
 8458SOL    HW126273   1.185   1.396   1.422
 8458SOL    HW226274   1.051   1.335   1.492
 8459SOL     OW26275   2.226   4.929   2.585
 8459SOL    HW126276   2.300   4.905   2.648
 8459SOL    HW226277   2.166   4.996   2.629
 8460SOL     OW26278   3.620   1.172   1.085
 8460SOL    HW126279   3.654   1.081   1.062
 8460SOL    HW226280   3.522   1.177   1.066
 8461SOL     OW26281   5.446   4.905   3.216
 8461SOL    HW126282   5.370   4.859   3.262
 8461SOL    HW226283   5.422   5.001   3.201
 8462SOL     OW26284   2.041   3.468   0.474
 8462SOL    HW126285   1.986   3.385   0.468
 8462SOL    HW226286   2.050   3.496   0.569
 8463SOL     OW26287   0.751   6.594   1.989
 8463SOL    HW126288   0.832   6.536   1.988
 8463SOL    HW226289   0.727   6.616   2.084
 8464SOL     OW26290   6.656   3.237   0.047
 8464SOL    HW126291   6.563   3.204   0.061
 8464SOL    HW226292   6.664   3.280   6.987
 8465SOL     OW26293   5.878   4.034   0.389
 8465SOL    HW126294   5.873   4.132   0.405
 8465SOL    HW226295   5.825   3.986   0.460
 8466SOL     OW26296   0.220   1.547   4.939
 8466SOL    HW126297   0.222   1.583   5.032
 8466SOL    HW226298   0.275   1.464   4.935
 8467SOL     OW26299   3.047   0.917   0.673
 8467SOL    HW126300   3.112   0.904   0.748
 8467SOL    HW226301   3.085   0.982   0.608
 8468SOL     OW26302   6.726   3.375   1.979
 8468SOL    HW126303   6.711   3.350   1.883
 8468SOL    HW226304   6.784   3.456   1.983
 8469SOL     OW26305   3.186   2.822   5.680
 8469SOL    HW126306   3.178   2.897   5.745
 8469SOL    HW226307   3.230   2.856   5.596
 8470SOL     OW26308   1.469   5.475   0.419
 8470SOL    HW126309   1.504   5.551   0.365
 8470SOL    HW226310   1.370   5.485   0.432
 8471SOL     OW26311   3.786   1.858   3.737
 8471SOL    HW126312   3.776   1.948   3.695
 8471SOL    HW226313   3.883   1.842   3.759
 8472SOL     OW26314   6.169   1.316   6.636
 8472SOL    HW126315   6.118   1.268   6.708
 8472SOL    HW226316   6.261   1.336   6.669
 8473SOL     OW26317   4.984   5.237   5.443
 8473SOL    HW126318   4.966   5.322   5.492
 8473SOL    HW226319   4.918   5.167   5.471
 8474SOL     OW26320   3.353   4.085   6.601
 8474SOL    HW126321   3.418   4.018   6.563
 8474SOL    HW226322   3.308   4.133   6.526
 8475SOL     OW26323   0.918   1.774   3.103
 8475SOL    HW126324   1.015   1.794   3.087
 8475SOL    HW226325   0.895   1.686   3.062
 8476SOL     OW26326   6.842   0.646   2.384
 8476SOL    HW126327   6.798   0.722   2.335
 8476SOL    HW226328   6.941   0.663   2.389
 8477SOL     OW26329   6.101   6.955   0.966
 8477SOL    HW126330   6.177   6.914   1.016
 8477SOL    HW226331   6.129   0.014   0.930
 8478SOL     OW26332   2.119   6.624   6.899
 8478SOL    HW126333   2.066   6.610   6.982
 8478SOL    HW226334   2.157   6.716   6.899
 8479SOL     OW26335   1.506   2.193   0.196
 8479SOL    HW126336   1.578   2.124   0.198
 8479SOL    HW226337   1.444   2.174   0.120
 8480SOL     OW26338   3.292   4.431   1.646
 8480SOL    HW126339   3.307   4.521   1.687
 8480SOL    HW226340   3.334   4.428   1.555
 8481SOL     OW26341   5.542   3.239   1.598
 8481SOL    HW126342   5.639   3.233   1.574
 8481SOL    HW226343   5.506   3.328   1.571
 8482SOL     OW26344   5.036   7.013   5.540
 8482SOL    HW126345   4.946   7.007   5.496
 8482SOL    HW226346   5.096   0.042   5.487
 8483SOL     OW26347   4.789   5.477   3.941
 8483SOL    HW126348   4.778   5.412   3.865
 8483SOL    HW226349   4.852   5.439   4.009
 8484SOL     OW26350   5.511   6.770   5.454
 8484SOL    HW126351   5.483   6.728   5.541
 8484SOL    HW226352   5.578   6.711   5.409
 8485SOL     OW26353   3.414   0.473   5.919
 8485SOL    HW126354   3.330   0.523   5.937
 8485SOL    HW226355   3.405   0.422   5.833
 8486SOL     OW26356   4.763   2.688   4.842
 8486SOL    HW126357   4.860   2.699   4.864
 8486SOL    HW226358   4.730   2.600   4.877
 8487SOL     OW26359   1.143   1.451   5.819
 8487SOL    HW126360   1.177   1.545   5.830
 8487SOL    HW226361   1.150   1.403   5.906
 8488SOL     OW26362   4.250   5.529   2.992
 8488SOL    HW126363   4.181   5.571   2.933
 8488SOL    HW226364   4.287   5.447   2.949
 8489SOL     OW26365   6.362   2.351   1.371
 8489SOL    HW126366   6.429   2.353   1.445
 8489SOL    HW226367   6.316   2.262   1.370
 8490SOL     OW26368   4.460   0.392   6.724
 8490SOL    HW126369   4.509   0.469   6.684
 8490SOL    HW226370   4.473   0.392   6.824
 8491SOL     OW26371   2.834   6.164   1.676
 8491SOL    HW126372   2.782   6.133   1.595
 8491SOL    HW226373   2.901   6.095   1.700
 8492SOL     OW26374   5.922   6.435   4.163
 8492SOL    HW126375   5.890   6.530   4.170
 8492SOL    HW226376   5.860   6.375   4.213
 8493SOL     OW26377   5.124   0.187   5.381
 8493SOL    HW126378   5.116   0.243   5.464
 8493SOL    HW226379   5.045   0.202   5.322
 8494SOL     OW26380   0.352   3.752   2.268
 8494SOL    HW126381   0.333   3.839   2.223
 8494SOL    HW226382   0.399   3.691   2.204
 8495SOL     OW26383   4.136   5.575   4.606
 8495SOL    HW126384   4.142   5.604   4.701
 8495SOL    HW226385   4.228   5.575   4.565
 8496SOL     OW26386   4.054   2.117   2.352
 8496SOL    HW126387   3.995   2.070   2.416
 8496SOL    HW226388   3.999   2.172   2.289
 8497SOL     OW26389   6.172   1.103   3.145
 8497SOL    HW126390   6.113   1.155   3.207
 8497SOL    HW226391   6.165   1.139   3.053
 8498SOL     OW26392   6.067   6.023   5.445
 8498SOL    HW126393   6.151   5.984   5.408
 8498SOL    HW226394   5.994   5.954   5.443
 8499SOL     OW26395   6.631   6.970   6.076
 8499SOL    HW126396   6.702   6.908   6.110
 8499SOL    HW226397   6.604   0.003   6.148
 8500SOL     OW26398   0.261   0.638   5.631
 8500SOL    HW126399   0.259   0.568   5.560
 8500SOL    HW226400   0.203   0.610   5.707
 8501SOL     OW26401   3.689   6.796   4.898
 8501SOL    HW126402   3.730   6.718   4.945
 8501SOL    HW226403   3.648   6.765   4.812
 8502SOL     OW26404   6.609   2.588   0.464
 8502SOL    HW126405   6.566   2.677   0.448
 8502SOL    HW226406   6.667   2.593   0.545
 8503SOL     OW26407   4.692   2.674   5.872
 8503SOL    HW126408   4.610   2.731   5.877
 8503SOL    HW226409   4.751   2.706   5.797
 8504SOL     OW26410   1.467   1.197   3.230
 8504SOL    HW126411   1.461   1.252   3.313
 8504SOL    HW226412   1.442   1.102   3.250
 8505SOL     OW26413   6.163   1.262   2.460
 8505SOL    HW126414   6.145   1.342   2.518
 8505SOL    HW226415   6.143   1.178   2.511
 8506SOL     OW26416   2.114   0.916   4.309
 8506SOL    HW126417   2.027   0.883   4.347
 8506SOL    HW226418   2.134   0.865   4.225
 8507SOL     OW26419   4.320   5.800   0.190
 8507SOL    HW126420   4.345   5.745   0.270
 8507SOL    HW226421   4.301   5.739   0.113
 8508SOL     OW26422   3.227   0.880   6.049
 8508SOL    HW126423   3.159   0.862   6.120
 8508SOL    HW226424   3.310   0.827   6.068
 8509SOL     OW26425   3.897   1.874   2.158
 8509SOL    HW126426   3.820   1.912   2.209
 8509SOL    HW226427   3.874   1.783   2.125
 8510SOL     OW26428   0.667   2.376   5.584
 8510SOL    HW126429   0.731   2.366   5.660
 8510SOL    HW226430   0.694   2.316   5.509
 8511SOL     OW26431   5.780   1.860   4.126
 8511SOL    HW126432   5.840   1.906   4.061
 8511SOL    HW226433   5.699   1.916   4.144
 8512SOL     OW26434   2.655   6.916   6.252
 8512SOL    HW126435   2.725   6.963   6.199
 8512SOL    HW226436   2.603   6.854   6.192
 8513SOL     OW26437   3.765   5.625   6.787
 8513SOL    HW126438   3.821   5.621   6.870
 8513SOL    HW226439   3.822   5.653   6.710
 8514SOL     OW26440   4.397   5.580   4.497
 8514SOL    HW126441   4.367   5.494   4.457
 8514SOL    HW226442   4.495   5.576   4.517
 8515SOL     OW26443   5.466   2.785   2.014
 8515SOL    HW126444   5.552   2.749   2.049
 8515SOL    HW226445   5.391   2.755   2.072
 8516SOL     OW26446   0.077   2.436   1.161
 8516SOL    HW126447   7.015   2.440   1.121
 8516SOL    HW226448   0.071   2.450   1.260
 8517SOL     OW26449   1.023   3.588   4.821
 8517SOL    HW126450   0.928   3.613   4.843
 8517SOL    HW226451   1.069   3.556   4.904
 8518SOL     OW26452   3.400   5.471   1.546
 8518SOL    HW126453   3.341   5.410   1.598
 8518SOL    HW226454   3.349   5.552   1.518
 8519SOL     OW26455   2.871   5.516   3.447
 8519SOL    HW126456   2.943   5.481   3.388
 8519SOL    HW226457   2.911   5.569   3.522
 8520SOL     OW26458   3.965   5.627   7.004
 8520SOL    HW126459   3.953   5.707   0.033
 8520SOL    HW226460   3.943   5.544   0.026
 8521SOL     OW26461   0.445   1.085   4.033
 8521SOL    HW126462   0.524   1.043   3.989
 8521SOL    HW226463   0.383   1.122   3.964
 8522SOL     OW26464   2.614   5.988   4.541
 8522SOL    HW126465   2.683   6.033   4.484
 8522SOL    HW226466   2.548   6.056   4.574
 8523SOL     OW26467   2.071   5.330   6.911
 8523SOL    HW126468   2.043   5.425   6.923
 8523SOL    HW226469   2.163   5.318   6.947
 8524SOL     OW26470   2.083   0.882   6.085
 8524SOL    HW126471   2.124   0.968   6.117
 8524SOL    HW226472   2.066   0.822   6.163
 8525SOL     OW26473   5.847   4.050   4.864
 8525SOL    HW126474   5.791   4.124   4.901
 8525SOL    HW226475   5.829   4.040   4.766
 8526SOL     OW26476   6.660   2.976   1.464
 8526SOL    HW126477   6.740   3.026   1.429
 8526SOL    HW226478   6.676   2.951   1.559
 8527SOL     OW26479   4.813   1.489   5.082
 8527SOL    HW126480   4.735   1.545   5.111
 8527SOL    HW226481   4.837   1.512   4.988
 8528SOL     OW26482   5.933   6.907   0.051
 8528SOL    HW126483   5.988   6.920   0.134
 8528SOL    HW226484   5.919   6.809   0.035
 8529SOL     OW26485   6.553   1.311   4.359
 8529SOL    HW126486   6.641   1.287   4.318
 8529SOL    HW226487   6.566   1.326   4.457
 8530SOL     OW26488   1.798   5.497   5.868
 8530SOL    HW126489   1.846   5.409   5.868
 8530SOL    HW226490   1.709   5.487   5.913
 8531SOL     OW26491   2.947   5.541   3.108
 8531SOL    HW126492   3.035   5.509   3.072
 8531SOL    HW226493   2.932   5.635   3.078
 8532SOL     OW26494   1.244   3.038   6.635
 8532SOL    HW126495   1.241   2.949   6.680
 8532SOL    HW226496   1.296   3.031   6.550
 8533SOL     OW26497   2.956   0.466   6.486
 8533SOL    HW126498   3.009   0.382   6.492
 8533SOL    HW226499   2.864   0.445   6.454
 8534SOL     OW26500   3.346   2.546   1.030
 8534SOL    HW126501   3.330   2.522   0.934
 8534SOL    HW226502   3.444   2.563   1.044
 8535SOL     OW26503   0.039   1.963   5.657
 8535SOL    HW126504   0.099   2.042   5.656
 8535SOL    HW226505   0.045   1.914   5.569
 8536SOL     OW26506   6.554   0.157   6.248
 8536SOL    HW126507   6.475   0.111   6.289
 8536SOL    HW226508   6.526   0.244   6.209
 8537SOL     OW26509   3.281   6.612   3.467
 8537SOL    HW126510   3.375   6.602   3.499
 8537SOL    HW226511   3.219   6.566   3.530
 8538SOL     OW26512   4.264   1.953   5.151
 8538SOL    HW126513   4.212   1.871   5.129
 8538SOL    HW226514   4.223   2.031   5.103
 8539SOL     OW26515   0.618   2.964   2.707
 8539SOL    HW126516   0.684   2.902   2.749
 8539SOL    HW226517   0.642   3.059   2.729
 8540SOL     OW26518   4.630   6.070   6.034
 8540SOL    HW126519   4.538   6.103   6.055
 8540SOL    HW226520   4.663   6.115   5.951
 8541SOL     OW26521   3.730   5.893   6.024
 8541SOL    HW126522   3.633   5.875   6.039
 8541SOL    HW226523   3.748   5.896   5.925
 8542SOL     OW26524   1.451   5.136   4.508
 8542SOL    HW126525   1.433   5.118   4.605
 8542SOL    HW226526   1.550   5.147   4.494
 8543SOL     OW26527   3.547   1.756   5.565
 8543SOL    HW126528   3.505   1.803   5.643
 8543SOL    HW226529   3.640   1.793   5.551
 8544SOL     OW26530   5.019   3.994   5.199
 8544SOL    HW126531   5.069   4.077   5.223
 8544SOL    HW226532   4.973   4.007   5.111
 8545SOL     OW26533   2.016   0.964   6.539
 8545SOL    HW126534   2.015   0.928   6.446
 8545SOL    HW226535   2.035   0.890   6.604
 8546SOL     OW26536   2.719   1.680   4.050
 8546SOL    HW126537   2.768   1.636   4.125
 8546SOL    HW226538   2.623   1.690   4.076
 8547SOL     OW26539   5.525   4.653   5.950
 8547SOL    HW126540   5.546   4.701   5.865
 8547SOL    HW226541   5.598   4.670   6.017
 8548SOL     OW26542   1.509   4.239   3.785
 8548SOL    HW126543   1.554   4.321   3.751
 8548SOL    HW226544   1.436   4.212   3.723
 8549SOL     OW26545   2.769   0.185   3.450
 8549SOL    HW126546   2.736   0.091   3.438
 8549SOL    HW226547   2.800   0.221   3.362
 8550SOL     OW26548   0.181   3.464   5.068
 8550SOL    HW126549   0.160   3.546   5.016
 8550SOL    HW226550   0.103   3.439   5.125
 8551SOL     OW26551   3.572   2.074   4.073
 8551SOL    HW126552   3.579   1.974   4.069
 8551SOL    HW226553   3.479   2.102   4.050
 8552SOL     OW26554   4.062   1.575   2.177
 8552SOL    HW126555   3.982   1.621   2.140
 8552SOL    HW226556   4.043   1.543   2.270
 8553SOL     OW26557   6.139   2.362   0.515
 8553SOL    HW126558   6.127   2.461   0.503
 8553SOL    HW226559   6.146   2.341   0.612
 8554SOL     OW26560   6.990   0.713   6.378
 8554SOL    HW126561   6.917   0.698   6.444
 8554SOL    HW226562   6.996   0.634   6.316
 8555SOL     OW26563   3.600   1.805   3.951
 8555SOL    HW126564   3.644   1.816   3.861
 8555SOL    HW226565   3.631   1.719   3.992
 8556SOL     OW26566   1.195   3.831   5.941
 8556SOL    HW126567   1.231   3.923   5.925
 8556SOL    HW226568   1.260   3.779   5.996
 8557SOL     OW26569   6.120   6.974   0.671
 8557SOL    HW126570   6.185   7.028   0.724
 8557SOL    HW226571   6.032   7.023   0.667
 8558SOL     OW26572   2.273   6.093   3.550
 8558SOL    HW126573   2.304   6.187   3.556
 8558SOL    HW226574   2.193   6.079   3.608
 8559SOL     OW26575   1.640   2.517   2.540
 8559SOL    HW126576   1.621   2.421   2.560
 8559SOL    HW226577   1.677   2.561   2.621
 8560SOL     OW26578   3.396   4.662   1.734
 8560SOL    HW126579   3.491   4.668   1.764
 8560SOL    HW226580   3.345   4.741   1.766
 8561SOL     OW26581   3.684   0.881   2.508
 8561SOL    HW126582   3.772   0.927   2.507
 8561SOL    HW226583   3.640   0.891   2.418
 8562SOL     OW26584   5.741   3.558   5.833
 8562SOL    HW126585   5.767   3.596   5.745
 8562SOL    HW226586   5.764   3.622   5.906
 8563SOL     OW26587   0.112   3.931   3.682
 8563SOL    HW126588   0.185   3.959   3.620
 8563SOL    HW226589   0.033   3.901   3.628
 8564SOL     OW26590   3.829   6.605   6.790
 8564SOL    HW126591   3.752   6.571   6.843
 8564SOL    HW226592   3.827   6.566   6.698
 8565SOL     OW26593   1.434   5.161   0.881
 8565SOL    HW126594   1.442   5.200   0.789
 8565SOL    HW226595   1.473   5.225   0.947
 8566SOL     OW26596   2.583   0.900   3.914
 8566SOL    HW126597   2.593   0.854   3.826
 8566SOL    HW226598   2.520   0.848   3.972
 8567SOL     OW26599   1.806   2.989   6.941
 8567SOL    HW126600   1.795   3.082   6.907
 8567SOL    HW226601   1.775   2.984   0.006
 8568SOL     OW26602   5.657   0.185   5.946
 8568SOL    HW126603   5.744   0.181   5.995
 8568SOL    HW226604   5.667   0.138   5.858
 8569SOL     OW26605   4.278   1.919   5.883
 8569SOL    HW126606   4.286   1.955   5.976
 8569SOL    HW226607   4.191   1.949   5.844
 8570SOL     OW26608   1.589   2.088   3.943
 8570SOL    HW126609   1.554   2.038   3.864
 8570SOL    HW226610   1.643   2.166   3.913
 8571SOL     OW26611   1.954   0.805   3.922
 8571SOL    HW126612   1.877   0.742   3.933
 8571SOL    HW226613   1.972   0.819   3.825
 8572SOL     OW26614   2.657   3.185   6.452
 8572SOL    HW126615   2.756   3.176   6.462
 8572SOL    HW226616   2.636   3.234   6.368
 8573SOL     OW26617   1.601   6.225   5.306
 8573SOL    HW126618   1.518   6.230   5.362
 8573SOL    HW226619   1.577   6.195   5.214
 8574SOL     OW26620   6.445   2.683   5.604
 8574SOL    HW126621   6.491   2.602   5.567
 8574SOL    HW226622   6.404   2.735   5.530
 8575SOL     OW26623   1.440   6.968   4.212
 8575SOL    HW126624   1.406   6.875   4.225
 8575SOL    HW226625   1.472   6.978   4.118
 8576SOL     OW26626   1.483   4.159   4.078
 8576SOL    HW126627   1.569   4.130   4.119
 8576SOL    HW226628   1.499   4.186   3.983
 8577SOL     OW26629   2.019   1.417   1.327
 8577SOL    HW126630   2.009   1.436   1.425
 8577SOL    HW226631   1.928   1.416   1.284
 8578SOL     OW26632   1.768   0.741   6.053
 8578SOL    HW126633   1.835   0.697   5.992
 8578SOL    HW226634   1.754   0.685   6.134
 8579SOL     OW26635   2.821   6.838   2.758
 8579SOL    HW126636   2.840   6.813   2.853
 8579SOL    HW226637   2.761   6.769   2.717
 8580SOL     OW26638   1.247   6.999   2.199
 8580SOL    HW126639   1.160   0.011   2.175
 8580SOL    HW226640   1.303   0.035   2.250
 8581SOL     OW26641   3.839   3.534   3.893
 8581SOL    HW126642   3.898   3.455   3.907
 8581SOL    HW226643   3.846   3.564   3.798
 8582SOL     OW26644   5.436   5.285   0.065
 8582SOL    HW126645   5.478   5.196   0.047
 8582SOL    HW226646   5.341   5.284   0.035
 8583SOL     OW26647   3.396   6.853   1.908
 8583SOL    HW126648   3.351   6.931   1.951
 8583SOL    HW226649   3.459   6.885   1.837
 8584SOL     OW26650   5.740   2.873   6.268
 8584SOL    HW126651   5.657   2.916   6.234
 8584SOL    HW226652   5.722   2.830   6.357
 8585SOL     OW26653   4.945   2.695   2.790
 8585SOL    HW126654   4.855   2.735   2.805
 8585SOL    HW226655   4.951   2.660   2.697
 8586SOL     OW26656   6.044   6.903   5.964
 8586SOL    HW126657   5.948   6.880   5.952
 8586SOL    HW226658   6.091   6.828   6.010
 8587SOL     OW26659   6.232   6.817   1.231
 8587SOL    HW126660   6.330   6.835   1.240
 8587SOL    HW226661   6.218   6.727   1.190
 8588SOL     OW26662   1.755   2.838   5.633
 8588SOL    HW126663   1.740   2.747   5.671
 8588SOL    HW226664   1.670   2.890   5.635
 8589SOL     OW26665   6.493   3.375   6.383
 8589SOL    HW126666   6.475   3.285   6.423
 8589SOL    HW226667   6.426   3.441   6.418
 8590SOL     OW26668   1.184   1.484   2.826
 8590SOL    HW126669   1.115   1.436   2.771
 8590SOL    HW226670   1.200   1.575   2.788
 8591SOL     OW26671   0.745   4.557   6.549
 8591SOL    HW126672   0.711   4.627   6.612
 8591SOL    HW226673   0.816   4.503   6.594
 8592SOL     OW26674   0.189   1.967   4.853
 8592SOL    HW126675   0.152   2.041   4.796
 8592SOL    HW226676   0.289   1.973   4.854
 8593SOL     OW26677   0.255   0.452   0.394
 8593SOL    HW126678   0.167   0.433   0.350
 8593SOL    HW226679   0.324   0.386   0.361
 8594SOL     OW26680   5.997   2.314   6.899
 8594SOL    HW126681   5.950   2.366   6.828
 8594SOL    HW226682   6.073   2.263   6.858
 8595SOL     OW26683   5.544   6.622   1.486
 8595SOL    HW126684   5.460   6.627   1.432
 8595SOL    HW226685   5.612   6.684   1.448
 8596SOL     OW26686   0.791   2.503   5.863
 8596SOL    HW126687   0.769   2.548   5.950
 8596SOL    HW226688   0.767   2.564   5.788
 8597SOL     OW26689   6.665   2.587   5.782
 8597SOL    HW126690   6.586   2.637   5.747
 8597SOL    HW226691   6.667   2.594   5.882
 8598SOL     OW26692   6.484   0.013   5.453
 8598SOL    HW126693   6.509   7.026   5.549
 8598SOL    HW226694   6.400   0.067   5.449
 8599SOL     OW26695   6.408   4.454   5.895
 8599SOL    HW126696   6.378   4.479   5.802
 8599SOL    HW226697   6.488   4.509   5.920
 8600SOL     OW26698   3.443   3.225   1.968
 8600SOL    HW126699   3.508   3.159   2.006
 8600SOL    HW226700   3.352   3.208   2.006
 8601SOL     OW26701   4.844   4.401   1.529
 8601SOL    HW126702   4.893   4.487   1.543
 8601SOL    HW226703   4.777   4.389   1.602
 8602SOL     OW26704   2.264   6.163   5.111
 8602SOL    HW126705   2.200   6.094   5.077
 8602SOL    HW226706   2.230   6.201   5.196
 8603SOL     OW26707   0.528   1.364   6.673
 8603SOL    HW126708   0.574   1.276   6.660
 8603SOL    HW226709   0.556   1.404   6.761
 8604SOL     OW26710   1.894   5.974   6.345
 8604SOL    HW126711   1.816   5.941   6.398
 8604SOL    HW226712   1.916   6.067   6.374
 8605SOL     OW26713   0.109   5.043   4.134
 8605SOL    HW126714   0.144   5.036   4.227
 8605SOL    HW226715   0.059   5.130   4.123
 8606SOL     OW26716   0.217   0.224   6.428
 8606SOL    HW126717   0.171   0.249   6.513
 8606SOL    HW226718   0.302   0.275   6.419
 8607SOL     OW26719   3.270   2.537   1.452
 8607SOL    HW126720   3.206   2.486   1.395
 8607SOL    HW226721   3.357   2.546   1.405
 8608SOL     OW26722   1.279   5.607   2.059
 8608SOL    HW126723   1.275   5.510   2.083
 8608SOL    HW226724   1.198   5.631   2.006
 8609SOL     OW26725   5.326   2.636   4.471
 8609SOL    HW126726   5.329   2.711   4.405
 8609SOL    HW226727   5.342   2.549   4.423
 8610SOL     OW26728   0.014   5.743   2.449
 8610SOL    HW126729   7.026   5.734   2.351
 8610SOL    HW226730   6.957   5.737   2.499
 8611SOL     OW26731   1.763   1.327   5.978
 8611SOL    HW126732   1.829   1.280   5.920
 8611SOL    HW226733   1.698   1.378   5.922
 8612SOL     OW26734   3.359   3.118   6.084
 8612SOL    HW126735   3.443   3.070   6.061
 8612SOL    HW226736   3.319   3.078   6.166
 8613SOL     OW26737   3.514   3.333   3.681
 8613SOL    HW126738   3.562   3.387   3.750
 8613SOL    HW226739   3.505   3.239   3.713
 8614SOL     OW26740   7.025   3.421   3.699
 8614SOL    HW126741   0.005   3.486   3.624
 8614SOL    HW226742   0.062   3.443   3.770
 8615SOL     OW26743   4.111   0.396   5.031
 8615SOL    HW126744   4.020   0.398   5.072
 8615SOL    HW226745   4.104   0.381   4.933
 8616SOL     OW26746   6.264   3.794   5.315
 8616SOL    HW126747   6.328   3.737   5.263
 8616SOL    HW226748   6.224   3.862   5.254
 8617SOL     OW26749   0.871   6.934   4.641
 8617SOL    HW126750   0.877   0.003   4.659
 8617SOL    HW226751   0.862   6.886   4.728
 8618SOL     OW26752   0.293   4.495   0.736
 8618SOL    HW126753   0.246   4.573   0.777
 8618SOL    HW226754   0.274   4.493   0.638
 8619SOL     OW26755   5.995   4.231   6.362
 8619SOL    HW126756   5.923   4.200   6.300
 8619SOL    HW226757   5.964   4.220   6.457
 8620SOL     OW26758   0.770   6.691   4.260
 8620SOL    HW126759   0.672   6.703   4.240
 8620SOL    HW226760   0.817   6.661   4.178
 8621SOL     OW26761   6.464   3.413   1.949
 8621SOL    HW126762   6.551   3.409   1.997
 8621SOL    HW226763   6.410   3.491   1.983
 8622SOL     OW26764   0.690   6.214   1.764
 8622SOL    HW126765   0.789   6.206   1.750
 8622SOL    HW226766   0.646   6.126   1.746
 8623SOL     OW26767   1.754   2.302   3.765
 8623SOL    HW126768   1.798   2.345   3.844
 8623SOL    HW226769   1.699   2.370   3.717
 8624SOL     OW26770   3.352   3.837   6.320
 8624SOL    HW126771   3.348   3.934   6.300
 8624SOL    HW226772   3.408   3.822   6.402
 8625SOL     OW26773   4.209   3.112   6.103
 8625SOL    HW126774   4.141   3.133   6.173
 8625SOL    HW226775   4.300   3.109   6.145
 8626SOL     OW26776   5.661   1.285   0.109
 8626SOL    HW126777   5.703   1.276   0.200
 8626SOL    HW226778   5.569   1.245   0.111
 8627SOL     OW26779   7.025   0.236   2.632
 8627SOL    HW126780   6.967   0.250   2.711
 8627SOL    HW226781   6.969   0.208   2.554
 8628SOL     OW26782   1.228   6.329   0.364
 8628SOL    HW126783   1.215   6.339   0.265
 8628SOL    HW226784   1.158   6.266   0.400
 8629SOL     OW26785   0.184   1.307   4.499
 8629SOL    HW126786   0.173   1.365   4.418
 8629SOL    HW226787   0.138   1.220   4.484
 8630SOL     OW26788   6.034   3.276   1.715
 8630SOL    HW126789   6.004   3.275   1.620
 8630SOL    HW226790   6.127   3.241   1.722
 8631SOL     OW26791   1.322   5.519   0.081
 8631SOL    HW126792   1.286   5.578   0.153
 8631SOL    HW226793   1.311   5.424   0.108
 8632SOL     OW26794   5.963   5.979   3.087
 8632SOL    HW126795   6.042   6.036   3.065
 8632SOL    HW226796   5.994   5.889   3.117
 8633SOL     OW26797   6.910   3.822   5.866
 8633SOL    HW126798   6.953   3.851   5.781
 8633SOL    HW226799   6.966   3.852   5.943
 8634SOL     OW26800   4.822   4.592   6.919
 8634SOL    HW126801   4.780   4.503   6.935
 8634SOL    HW226802   4.764   4.664   6.958
 8635SOL     OW26803   5.373   1.514   6.963
 8635SOL    HW126804   5.316   1.440   6.997
 8635SOL    HW226805   5.461   1.477   6.932
 8636SOL     OW26806   4.717   5.876   0.529
 8636SOL    HW126807   4.799   5.866   0.472
 8636SOL    HW226808   4.644   5.916   0.473
 8637SOL     OW26809   2.819   2.683   1.027
 8637SOL    HW126810   2.772   2.659   0.942
 8637SOL    HW226811   2.913   2.647   1.024
 8638SOL     OW26812   4.974   2.230   4.858
 8638SOL    HW126813   5.004   2.148   4.810
 8638SOL    HW226814   4.977   2.214   4.957
 8639SOL     OW26815   4.118   4.155   0.305
 8639SOL    HW126816   4.045   4.179   0.241
 8639SOL    HW226817   4.091   4.073   0.356
 8640SOL     OW26818   2.823   2.894   0.150
 8640SOL    HW126819   2.794   2.819   0.210
 8640SOL    HW226820   2.918   2.881   0.123
 8641SOL     OW26821   3.392   4.917   3.116
 8641SOL    HW126822   3.473   4.946   3.168
 8641SOL    HW226823   3.414   4.915   3.019
 8642SOL     OW26824   2.712   6.686   3.226
 8642SOL    HW126825   2.772   6.616   3.186
 8642SOL    HW226826   2.691   6.661   3.321
 8643SOL     OW26827   3.570   6.383   1.112
 8643SOL    HW126828   3.584   6.465   1.168
 8643SOL    HW226829   3.647   6.372   1.050
 8644SOL     OW26830   5.008   2.546   6.618
 8644SOL    HW126831   5.097   2.549   6.573
 8644SOL    HW226832   4.952   2.473   6.578
 8645SOL     OW26833   4.489   5.050   2.972
 8645SOL    HW126834   4.518   5.010   2.884
 8645SOL    HW226835   4.505   4.984   3.045
 8646SOL     OW26836   5.896   2.019   3.943
 8646SOL    HW126837   5.832   2.030   3.867
 8646SOL    HW226838   5.988   2.043   3.913
 8647SOL     OW26839   1.965   4.811   1.996
 8647SOL    HW126840   1.997   4.797   1.902
 8647SOL    HW226841   2.025   4.762   2.059
 8648SOL     OW26842   5.608   5.889   6.283
 8648SOL    HW126843   5.659   5.823   6.337
 8648SOL    HW226844   5.665   5.921   6.207
 8649SOL     OW26845   5.174   3.109   2.014
 8649SOL    HW126846   5.182   3.160   1.928
 8649SOL    HW226847   5.240   3.145   2.080
 8650SOL     OW26848   1.177   1.219   5.065
 8650SOL    HW126849   1.143   1.237   5.158
 8650SOL    HW226850   1.177   1.304   5.012
 8651SOL     OW26851   5.002   1.439   1.261
 8651SOL    HW126852   4.906   1.464   1.246
 8651SOL    HW226853   5.027   1.460   1.356
 8652SOL     OW26854   6.246   3.271   4.946
 8652SOL    HW126855   6.162   3.264   5.000
 8652SOL    HW226856   6.226   3.251   4.850
 8653SOL     OW26857   4.342   1.094   6.456
 8653SOL    HW126858   4.335   1.142   6.369
 8653SOL    HW226859   4.253   1.054   6.480
 8654SOL     OW26860   6.577   4.546   3.594
 8654SOL    HW126861   6.660   4.579   3.548
 8654SOL    HW226862   6.537   4.471   3.541
 8655SOL     OW26863   1.886   6.868   4.493
 8655SOL    HW126864   1.958   6.830   4.552
 8655SOL    HW226865   1.876   6.810   4.412
 8656SOL     OW26866   4.063   6.809   0.139
 8656SOL    HW126867   4.121   6.881   0.099
 8656SOL    HW226868   4.102   6.779   0.226
 8657SOL     OW26869   2.817   1.768   2.366
 8657SOL    HW126870   2.762   1.755   2.448
 8657SOL    HW226871   2.853   1.862   2.365
 8658SOL     OW26872   6.025   3.757   0.808
 8658SOL    HW126873   5.999   3.733   0.902
 8658SOL    HW226874   6.062   3.676   0.762
 8659SOL     OW26875   3.013   6.793   3.241
 8659SOL    HW126876   2.941   6.760   3.301
 8659SOL    HW226877   3.080   6.844   3.295
 8660SOL     OW26878   6.560   4.305   0.929
 8660SOL    HW126879   6.579   4.390   0.880
 8660SOL    HW226880   6.477   4.263   0.891
 8661SOL     OW26881   6.036   2.581   1.127
 8661SOL    HW126882   5.986   2.585   1.041
 8661SOL    HW226883   5.985   2.632   1.197
 8662SOL     OW26884   1.677   3.075   1.863
 8662SOL    HW126885   1.771   3.055   1.837
 8662SOL    HW226886   1.658   3.035   1.952
 8663SOL     OW26887   3.406   5.807   1.809
 8663SOL    HW126888   3.405   5.780   1.905
 8663SOL    HW226889   3.328   5.767   1.762
 8664SOL     OW26890   3.381   5.877   4.725
 8664SOL    HW126891   3.377   5.807   4.797
 8664SOL    HW226892   3.430   5.957   4.759
 8665SOL     OW26893   0.766   3.116   6.182
 8665SOL    HW126894   0.738   3.196   6.129
 8665SOL    HW226895   0.709   3.108   6.264
 8666SOL     OW26896   3.902   6.882   2.251
 8666SOL    HW126897   3.803   6.894   2.261
 8666SOL    HW226898   3.947   6.907   2.337
 8667SOL     OW26899   4.431   1.881   2.007
 8667SOL    HW126900   4.355   1.936   2.043
 8667SOL    HW226901   4.423   1.787   2.042
 8668SOL     OW26902   3.348   2.061   3.624
 8668SOL    HW126903   3.431   2.100   3.665
 8668SOL    HW226904   3.373   2.011   3.541
 8669SOL     OW26905   0.130   6.043   6.390
 8669SOL    HW126906   0.057   5.999   6.338
 8669SOL    HW226907   0.090   6.106   6.456
 8670SOL     OW26908   6.548   4.961   5.099
 8670SOL    HW126909   6.455   4.926   5.098
 8670SOL    HW226910   6.593   4.933   5.184
 8671SOL     OW26911   6.900   3.780   3.090
 8671SOL    HW126912   6.853   3.866   3.110
 8671SOL    HW226913   6.928   3.778   2.994
 8672SOL     OW26914   6.326   0.771   1.966
 8672SOL    HW126915   6.255   0.833   1.934
 8672SOL    HW226916   6.324   0.687   1.912
 8673SOL     OW26917   0.230   0.970   2.218
 8673SOL    HW126918   0.231   1.039   2.146
 8673SOL    HW226919   0.160   0.901   2.197
 8674SOL     OW26920   0.324   2.831   4.093
 8674SOL    HW126921   0.283   2.881   4.016
 8674SOL    HW226922   0.387   2.762   4.058
 8675SOL     OW26923   5.475   2.408   4.310
 8675SOL    HW126924   5.481   2.353   4.393
 8675SOL    HW226925   5.398   2.376   4.255
 8676SOL     OW26926   5.300   2.683   0.890
 8676SOL    HW126927   5.275   2.725   0.803
 8676SOL    HW226928   5.375   2.618   0.875
 8677SOL     OW26929   2.894   1.653   6.883
 8677SOL    HW126930   2.921   1.618   6.973
 8677SOL    HW226931   2.822   1.722   6.895
 8678SOL     OW26932   2.494   2.353   0.032
 8678SOL    HW126933   2.485   2.317   0.125
 8678SOL    HW226934   2.404   2.356   7.019
 8679SOL     OW26935   2.041   2.197   6.787
 8679SOL    HW126936   1.959   2.213   6.841
 8679SOL    HW226937   2.085   2.285   6.766
 8680SOL     OW26938   0.088   0.231   1.183
 8680SOL    HW126939   0.136   0.170   1.245
 8680SOL    HW226940   0.032   0.295   1.237
 8681SOL     OW26941   5.840   5.382   1.432
 8681SOL    HW126942   5.741   5.395   1.420
 8681SOL    HW226943   5.889   5.456   1.386
 8682SOL     OW26944   1.436   2.059   1.387
 8682SOL    HW126945   1.421   2.136   1.448
 8682SOL    HW226946   1.486   2.089   1.306
 8683SOL     OW26947   2.570   5.048   4.266
 8683SOL    HW126948   2.657   5.050   4.314
 8683SOL    HW226949   2.506   4.988   4.315
 8684SOL     OW26950   2.566   4.579   3.728
 8684SOL    HW126951   2.520   4.499   3.688
 8684SOL    HW226952   2.636   4.612   3.665
 8685SOL     OW26953   4.241   3.257   5.432
 8685SOL    HW126954   4.156   3.304   5.409
 8685SOL    HW226955   4.221   3.171   5.479
 8686SOL     OW26956   0.542   4.835   2.563
 8686SOL    HW126957   0.531   4.845   2.662
 8686SOL    HW226958   0.638   4.815   2.541
 8687SOL     OW26959   5.509   3.099   5.796
 8687SOL    HW126960   5.580   3.039   5.833
 8687SOL    HW226961   5.419   3.059   5.812
 8688SOL     OW26962   1.321   3.248   4.210
 8688SOL    HW126963   1.327   3.151   4.235
 8688SOL    HW226964   1.253   3.293   4.268
 8689SOL     OW26965   5.284   3.563   1.015
 8689SOL    HW126966   5.315   3.655   1.038
 8689SOL    HW226967   5.359   3.512   0.971
 8690SOL     OW26968   1.150   2.560   2.548
 8690SOL    HW126969   1.090   2.618   2.492
 8690SOL    HW226970   1.099   2.529   2.629
 8691SOL     OW26971   4.032   1.160   6.664
 8691SOL    HW126972   4.058   1.198   6.753
 8691SOL    HW226973   3.932   1.164   6.654
 8692SOL     OW26974   5.620   2.045   4.709
 8692SOL    HW126975   5.600   1.968   4.771
 8692SOL    HW226976   5.639   2.127   4.763
 8693SOL     OW26977   0.851   0.653   4.992
 8693SOL    HW126978   0.874   0.556   4.993
 8693SOL    HW226979   0.751   0.663   4.991
 8694SOL     OW26980   2.974   3.209   6.052
 8694SOL    HW126981   2.940   3.119   6.081
 8694SOL    HW226982   2.899   3.261   6.011
 8695SOL     OW26983   4.107   4.011   1.424
 8695SOL    HW126984   4.028   4.008   1.485
 8695SOL    HW226985   4.136   3.918   1.403
 8696SOL     OW26986   2.605   4.210   6.573
 8696SOL    HW126987   2.648   4.176   6.657
 8696SOL    HW226988   2.675   4.230   6.505
 8697SOL     OW26989   0.745   3.213   4.638
 8697SOL    HW126990   0.670   3.195   4.701
 8697SOL    HW226991   0.710   3.256   4.555
 8698SOL     OW26992   5.273   4.408   6.750
 8698SOL    HW126993   5.234   4.448   6.667
 8698SOL    HW226994   5.372   4.404   6.742
 8699SOL     OW26995   2.125   1.815   1.605
 8699SOL    HW126996   2.219   1.827   1.574
 8699SOL    HW226997   2.098   1.892   1.663
 8700SOL     OW26998   0.588   2.484   4.908
 8700SOL    HW126999   0.623   2.400   4.865
 8700SOL    HW227000   0.659   2.554   4.907
 8701SOL     OW27001   2.631   3.282   0.448
 8701SOL    HW127002   2.583   3.358   0.492
 8701SOL    HW227003   2.684   3.232   0.517
 8702SOL     OW27004   4.951   4.450   0.493
 8702SOL    HW127005   4.965   4.426   0.397
 8702SOL    HW227006   4.887   4.385   0.534
 8703SOL     OW27007   2.279   5.524   0.663
 8703SOL    HW127008   2.222   5.554   0.739
 8703SOL    HW227009   2.222   5.506   0.583
 8704SOL     OW27010   6.398   1.586   3.922
 8704SOL    HW127011   6.370   1.681   3.914
 8704SOL    HW227012   6.374   1.551   4.013
 8705SOL     OW27013   3.458   2.421   0.676
 8705SOL    HW127014   3.428   2.356   0.606
 8705SOL    HW227015   3.425   2.391   0.766
 8706SOL     OW27016   5.283   3.176   5.062
 8706SOL    HW127017   5.229   3.241   5.009
 8706SOL    HW227018   5.270   3.084   5.025
 8707SOL     OW27019   1.761   0.717   3.206
 8707SOL    HW127020   1.726   0.634   3.248
 8707SOL    HW227021   1.860   0.710   3.193
 8708SOL     OW27022   5.168   2.049   0.252
 8708SOL    HW127023   5.111   1.999   0.186
 8708SOL    HW227024   5.115   2.124   0.292
 8709SOL     OW27025   6.233   6.059   4.198
 8709SOL    HW127026   6.214   6.100   4.288
 8709SOL    HW227027   6.179   5.976   4.187
 8710SOL     OW27028   2.045   2.625   3.568
 8710SOL    HW127029   1.970   2.690   3.556
 8710SOL    HW227030   2.083   2.602   3.479
 8711SOL     OW27031   0.863   2.125   2.347
 8711SOL    HW127032   0.781   2.113   2.291
 8711SOL    HW227033   0.904   2.035   2.364
 8712SOL     OW27034   1.408   3.925   4.255
 8712SOL    HW127035   1.422   3.988   4.179
 8712SOL    HW227036   1.311   3.917   4.275
 8713SOL     OW27037   0.706   4.358   4.598
 8713SOL    HW127038   0.797   4.317   4.599
 8713SOL    HW227039   0.674   4.372   4.692
 8714SOL     OW27040   1.360   3.689   6.126
 8714SOL    HW127041   1.450   3.675   6.087
 8714SOL    HW227042   1.313   3.601   6.135
 8715SOL     OW27043   2.453   4.888   1.603
 8715SOL    HW127044   2.371   4.885   1.659
 8715SOL    HW227045   2.533   4.900   1.662
 8716SOL     OW27046   5.503   6.883   2.707
 8716SOL    HW127047   5.416   6.848   2.739
 8716SOL    HW227048   5.510   6.872   2.608
 8717SOL     OW27049   4.781   1.561   6.438
 8717SOL    HW127050   4.696   1.611   6.419
 8717SOL    HW227051   4.806   1.573   6.534
 8718SOL     OW27052   2.769   5.155   6.128
 8718SOL    HW127053   2.845   5.205   6.170
 8718SOL    HW227054   2.685   5.207   6.139
 8719SOL     OW27055   2.973   1.897   4.413
 8719SOL    HW127056   3.066   1.863   4.424
 8719SOL    HW227057   2.973   1.975   4.350
 8720SOL     OW27058   0.201   6.748   5.016
 8720SOL    HW127059   0.257   6.773   5.095
 8720SOL    HW227060   0.142   6.825   4.992
 8721SOL     OW27061   0.388   0.667   1.752
 8721SOL    HW127062   0.418   0.746   1.805
 8721SOL    HW227063   0.319   0.696   1.685
 8722SOL     OW27064   3.675   1.220   0.629
 8722SOL    HW127065   3.581   1.255   0.626
 8722SOL    HW227066   3.673   1.120   0.625
 8723SOL     OW27067   2.891   6.441   3.488
 8723SOL    HW127068   2.852   6.351   3.508
 8723SOL    HW227069   2.898   6.453   3.389
 8724SOL     OW27070   5.807   6.783   5.121
 8724SOL    HW127071   5.831   6.705   5.178
 8724SOL    HW227072   5.709   6.802   5.130
 8725SOL     OW27073   6.673   1.087   2.694
 8725SOL    HW127074   6.670   1.021   2.769
 8725SOL    HW227075   6.661   1.039   2.607
 8726SOL     OW27076   6.624   7.027   1.047
 8726SOL    HW127077   6.719   0.017   1.022
 8726SOL    HW227078   6.581   6.975   0.974
 8727SOL     OW27079   4.924   5.074   6.176
 8727SOL    HW127080   4.837   5.085   6.225
 8727SOL    HW227081   4.940   4.977   6.158
 8728SOL     OW27082   4.857   0.069   4.073
 8728SOL    HW127083   4.907   0.031   4.150
 8728SOL    HW227084   4.897   0.157   4.048
 8729SOL     OW27085   5.458   5.714   6.083
 8729SOL    HW127086   5.436   5.714   6.180
 8729SOL    HW227087   5.492   5.624   6.056
 8730SOL     OW27088   4.111   4.687   1.812
 8730SOL    HW127089   4.125   4.591   1.789
 8730SOL    HW227090   4.199   4.728   1.838
 8731SOL     OW27091   0.255   2.931   3.824
 8731SOL    HW127092   0.211   2.931   3.734
 8731SOL    HW227093   0.343   2.882   3.817
 8732SOL     OW27094   5.440   6.607   5.684
 8732SOL    HW127095   5.363   6.624   5.745
 8732SOL    HW227096   5.451   6.509   5.669
 8733SOL     OW27097   5.915   4.046   2.091
 8733SOL    HW127098   5.901   4.089   2.001
 8733SOL    HW227099   5.864   4.096   2.160
 8734SOL     OW27100   6.920   6.447   1.330
 8734SOL    HW127101   6.855   6.463   1.404
 8734SOL    HW227102   6.890   6.498   1.249
 8735SOL     OW27103   1.447   1.692   6.665
 8735SOL    HW127104   1.394   1.777   6.663
 8735SOL    HW227105   1.464   1.665   6.760
 8736SOL     OW27106   0.298   6.011   3.933
 8736SOL    HW127107   0.227   6.039   3.998
 8736SOL    HW227108   0.264   5.936   3.877
 8737SOL     OW27109   0.765   5.660   6.275
 8737SOL    HW127110   0.755   5.756   6.249
 8737SOL    HW227111   0.732   5.601   6.202
 8738SOL     OW27112   1.533   2.068   2.268
 8738SOL    HW127113   1.593   2.002   2.315
 8738SOL    HW227114   1.588   2.131   2.213
 8739SOL     OW27115   5.012   4.983   3.456
 8739SOL    HW127116   4.969   4.903   3.414
 8739SOL    HW227117   4.951   5.020   3.526
 8740SOL     OW27118   2.031   0.736   3.136
 8740SOL    HW127119   2.080   0.812   3.093
 8740SOL    HW227120   2.096   0.679   3.186
 8741SOL     OW27121   1.966   2.848   2.438
 8741SOL    HW127122   1.935   2.893   2.522
 8741SOL    HW227123   1.888   2.801   2.395
 8742SOL     OW27124   1.439   3.522   0.348
 8742SOL    HW127125   1.375   3.460   0.392
 8742SOL    HW227126   1.450   3.604   0.404
 8743SOL     OW27127   1.950   3.048   0.282
 8743SOL    HW127128   1.915   3.081   0.194
 8743SOL    HW227129   1.881   2.989   0.325
 8744SOL     OW27130   2.651   4.002   5.753
 8744SOL    HW127131   2.708   3.934   5.800
 8744SOL    HW227132   2.692   4.024   5.664
 8745SOL     OW27133   5.453   0.914   6.977
 8745SOL    HW127134   5.534   0.938   0.001
 8745SOL    HW227135   5.440   0.982   6.905
 8746SOL     OW27136   4.400   4.613   4.556
 8746SOL    HW127137   4.425   4.568   4.642
 8746SOL    HW227138   4.311   4.657   4.566
 8747SOL     OW27139   7.025   6.706   1.445
 8747SOL    HW127140   6.981   6.722   1.357
 8747SOL    HW227141   7.021   6.790   1.500
 8748SOL     OW27142   5.758   2.178   5.183
 8748SOL    HW127143   5.720   2.117   5.113
 8748SOL    HW227144   5.837   2.134   5.226
 8749SOL     OW27145   1.532   1.523   4.024
 8749SOL    HW127146   1.584   1.439   4.012
 8749SOL    HW227147   1.564   1.571   4.106
 8750SOL     OW27148   3.725   4.021   2.397
 8750SOL    HW127149   3.669   4.056   2.322
 8750SOL    HW227150   3.808   3.979   2.360
 8751SOL     OW27151   1.576   6.809   6.844
 8751SOL    HW127152   1.612   6.827   6.935
 8751SOL    HW227153   1.478   6.789   6.850
 8752SOL     OW27154   1.319   2.452   6.515
 8752SOL    HW127155   1.244   2.493   6.462
 8752SOL    HW227156   1.384   2.523   6.540
 8753SOL     OW27157   2.349   1.898   1.236
 8753SOL    HW127158   2.412   1.934   1.306
 8753SOL    HW227159   2.280   1.967   1.216
 8754SOL     OW27160   1.587   6.244   6.972
 8754SOL    HW127161   1.635   6.243   0.029
 8754SOL    HW227162   1.650   6.216   6.899
 8755SOL     OW27163   6.426   1.128   1.824
 8755SOL    HW127164   6.380   1.175   1.749
 8755SOL    HW227165   6.512   1.090   1.791
 8756SOL     OW27166   1.757   1.344   2.226
 8756SOL    HW127167   1.734   1.357   2.130
 8756SOL    HW227168   1.674   1.333   2.280
 8757SOL     OW27169   5.458   5.537   5.701
 8757SOL    HW127170   5.365   5.508   5.721
 8757SOL    HW227171   5.480   5.513   5.606
 8758SOL     OW27172   3.748   5.154   6.313
 8758SOL    HW127173   3.744   5.095   6.394
 8758SOL    HW227174   3.712   5.244   6.336
 8759SOL     OW27175   6.609   0.663   1.716
 8759SOL    HW127176   6.673   0.586   1.720
 8759SOL    HW227177   6.655   0.747   1.742
 8760SOL     OW27178   1.486   2.327   4.139
 8760SOL    HW127179   1.526   2.239   4.113
 8760SOL    HW227180   1.403   2.342   4.086
 8761SOL     OW27181   5.133   2.499   4.279
 8761SOL    HW127182   5.068   2.573   4.292
 8761SOL    HW227183   5.149   2.453   4.367
 8762SOL     OW27184   3.803   6.454   2.307
 8762SOL    HW127185   3.743   6.487   2.380
 8762SOL    HW227186   3.837   6.363   2.330
 8763SOL     OW27187   6.543   1.665   5.533
 8763SOL    HW127188   6.463   1.668   5.593
 8763SOL    HW227189   6.605   1.741   5.557
 8764SOL     OW27190   2.154   5.591   5.825
 8764SOL    HW127191   2.112   5.524   5.764
 8764SOL    HW227192   2.222   5.644   5.774
 8765SOL     OW27193   4.806   0.265   3.370
 8765SOL    HW127194   4.716   0.222   3.366
 8765SOL    HW227195   4.873   0.205   3.324
 8766SOL     OW27196   6.467   0.579   5.094
 8766SOL    HW127197   6.561   0.602   5.068
 8766SOL    HW227198   6.414   0.558   5.012
 8767SOL     OW27199   1.940   1.244   4.966
 8767SOL    HW127200   1.977   1.262   4.874
 8767SOL    HW227201   1.943   1.146   4.983
 8768SOL     OW27202   0.114   2.340   0.307
 8768SOL    HW127203   0.104   2.301   0.399
 8768SOL    HW227204   0.122   2.266   0.240
 8769SOL     OW27205   0.207   0.631   6.932
 8769SOL    HW127206   0.178   0.669   6.845
 8769SOL    HW227207   0.300   0.661   6.952
 8770SOL     OW27208   4.427   1.708   0.737
 8770SOL    HW127209   4.431   1.777   0.809
 8770SOL    HW227210   4.332   1.698   0.706
 8771SOL     OW27211   1.066   2.772   0.039
 8771SOL    HW127212   1.039   2.865   0.065
 8771SOL    HW227213   1.038   2.708   0.110
 8772SOL     OW27214   6.764   0.153   3.641
 8772SOL    HW127215   6.684   0.101   3.672
 8772SOL    HW227216   6.759   0.246   3.677
 8773SOL     OW27217   6.250   1.691   4.328
 8773SOL    HW127218   6.164   1.741   4.322
 8773SOL    HW227219   6.262   1.635   4.246
 8774SOL     OW27220   0.987   2.152   6.734
 8774SOL    HW127221   1.071   2.127   6.685
 8774SOL    HW227222   0.913   2.089   6.707
 8775SOL     OW27223   4.582   1.980   2.423
 8775SOL    HW127224   4.623   1.995   2.333
 8775SOL    HW227225   4.485   1.958   2.413
 8776SOL     OW27226   6.172   3.170   0.794
 8776SOL    HW127227   6.205   3.170   0.889
 8776SOL    HW227228   6.231   3.228   0.739
 8777SOL     OW27229   6.628   2.343   4.462
 8777SOL    HW127230   6.606   2.357   4.559
 8777SOL    HW227231   6.546   2.317   4.413
 8778SOL     OW27232   1.885   4.601   5.535
 8778SOL    HW127233   1.836   4.663   5.474
 8778SOL    HW227234   1.911   4.518   5.485
 8779SOL     OW27235   2.941   6.718   3.515
 8779SOL    HW127236   2.975   6.763   3.598
 8779SOL    HW227237   2.922   6.621   3.535
 8780SOL     OW27238   1.021   3.339   4.081
 8780SOL    HW127239   1.063   3.262   4.129
 8780SOL    HW227240   0.954   3.383   4.141
 8781SOL     OW27241   3.933   0.671   2.428
 8781SOL    HW127242   3.919   0.731   2.349
 8781SOL    HW227243   3.856   0.682   2.492
 8782SOL     OW27244   0.486   2.784   0.094
 8782SOL    HW127245   0.535   2.704   0.058
 8782SOL    HW227246   0.481   2.855   0.024
 8783SOL     OW27247   3.352   4.203   6.866
 8783SOL    HW127248   3.442   4.235   6.894
 8783SOL    HW227249   3.358   4.162   6.775
 8784SOL     OW27250   4.563   2.340   5.673
 8784SOL    HW127251   4.475   2.346   5.625
 8784SOL    HW227252   4.564   2.407   5.747
 8785SOL     OW27253   6.724   0.053   5.869
 8785SOL    HW127254   6.686   7.028   5.944
 8785SOL    HW227255   6.775   0.130   5.906
 8786SOL     OW27256   4.358   2.247   3.180
 8786SOL    HW127257   4.448   2.214   3.151
 8786SOL    HW227258   4.300   2.259   3.099
 8787SOL     OW27259   2.849   5.903   2.210
 8787SOL    HW127260   2.879   5.869   2.121
 8787SOL    HW227261   2.874   5.838   2.282
 8788SOL     OW27262   6.356   0.392   3.279
 8788SOL    HW127263   6.422   0.420   3.209
 8788SOL    HW227264   6.382   0.302   3.315
 8789SOL     OW27265   2.130   4.166   0.221
 8789SOL    HW127266   2.187   4.210   0.290
 8789SOL    HW227267   2.101   4.234   0.153
 8790SOL     OW27268   5.092   3.434   5.195
 8790SOL    HW127269   5.187   3.454   5.217
 8790SOL    HW227270   5.039   3.425   5.280
 8791SOL     OW27271   3.438   6.750   5.143
 8791SOL    HW127272   3.406   6.830   5.091
 8791SOL    HW227273   3.490   6.690   5.082
 8792SOL     OW27274   4.909   4.163   0.877
 8792SOL    HW127275   4.866   4.232   0.818
 8792SOL    HW227276   4.873   4.073   0.854
 8793SOL     OW27277   6.611   0.926   4.847
 8793SOL    HW127278   6.652   0.997   4.905
 8793SOL    HW227279   6.667   0.843   4.851
 8794SOL     OW27280   1.160   3.025   2.772
 8794SOL    HW127281   1.177   3.078   2.689
 8794SOL    HW227282   1.165   2.927   2.751
 8795SOL     OW27283   1.440   0.402   6.721
 8795SOL    HW127284   1.432   0.307   6.691
 8795SOL    HW227285   1.372   0.458   6.673
 8796SOL     OW27286   6.094   5.352   3.912
 8796SOL    HW127287   6.017   5.296   3.883
 8796SOL    HW227288   6.176   5.295   3.920
 8797SOL     OW27289   5.779   5.388   6.110
 8797SOL    HW127290   5.719   5.436   6.046
 8797SOL    HW227291   5.851   5.451   6.141
 8798SOL     OW27292   2.512   4.716   0.444
 8798SOL    HW127293   2.499   4.781   0.369
 8798SOL    HW227294   2.459   4.633   0.425
 8799SOL     OW27295   0.632   5.847   2.389
 8799SOL    HW127296   0.665   5.755   2.411
 8799SOL    HW227297   0.663   5.912   2.458
 8800SOL     OW27298   6.877   6.720   4.745
 8800SOL    HW127299   6.943   6.675   4.685
 8800SOL    HW227300   6.924   6.784   4.805
 8801SOL     OW27301   5.977   2.946   5.900
 8801SOL    HW127302   5.946   3.025   5.953
 8801SOL    HW227303   5.928   2.864   5.930
 8802SOL     OW27304   1.134   6.564   6.789
 8802SOL    HW127305   1.152   6.469   6.817
 8802SOL    HW227306   1.145   6.572   6.690
 8803SOL     OW27307   4.590   4.911   4.920
 8803SOL    HW127308   4.510   4.972   4.920
 8803SOL    HW227309   4.663   4.952   4.975
 8804SOL     OW27310   2.036   5.932   1.273
 8804SOL    HW127311   2.016   5.834   1.286
 8804SOL    HW227312   2.044   5.951   1.175
 8805SOL     OW27313   4.758   5.273   0.807
 8805SOL    HW127314   4.686   5.284   0.739
 8805SOL    HW227315   4.785   5.177   0.812
 8806SOL     OW27316   1.715   1.272   1.859
 8806SOL    HW127317   1.746   1.184   1.896
 8806SOL    HW227318   1.621   1.289   1.886
 8807SOL     OW27319   5.271   1.214   1.595
 8807SOL    HW127320   5.177   1.242   1.612
 8807SOL    HW227321   5.298   1.243   1.502
 8808SOL     OW27322   2.069   1.732   0.868
 8808SOL    HW127323   2.022   1.778   0.793
 8808SOL    HW227324   2.018   1.746   0.953
 8809SOL     OW27325   1.319   3.354   2.613
 8809SOL    HW127326   1.356   3.261   2.613
 8809SOL    HW227327   1.391   3.418   2.585
 8810SOL     OW27328   6.582   2.474   3.746
 8810SOL    HW127329   6.578   2.391   3.802
 8810SOL    HW227330   6.515   2.541   3.781
 8811SOL     OW27331   3.506   6.118   2.418
 8811SOL    HW127332   3.484   6.133   2.514
 8811SOL    HW227333   3.588   6.061   2.411
 8812SOL     OW27334   5.715   0.537   6.882
 8812SOL    HW127335   5.719   0.634   6.856
 8812SOL    HW227336   5.714   0.530   6.982
 8813SOL     OW27337   1.783   2.297   1.054
 8813SOL    HW127338   1.877   2.323   1.030
 8813SOL    HW227339   1.721   2.372   1.033
 8814SOL     OW27340   6.020   0.689   4.265
 8814SOL    HW127341   5.955   0.624   4.303
 8814SOL    HW227342   6.097   0.639   4.224
 8815SOL     OW27343   4.785   0.793   1.336
 8815SOL    HW127344   4.695   0.749   1.335
 8815SOL    HW227345   4.829   0.778   1.425
 8816SOL     OW27346   6.483   1.479   2.739
 8816SOL    HW127347   6.522   1.502   2.828
 8816SOL    HW227348   6.552   1.434   2.683
 8817SOL     OW27349   0.934   2.259   4.320
 8817SOL    HW127350   1.016   2.233   4.371
 8817SOL    HW227351   0.891   2.338   4.365
 8818SOL     OW27352   1.449   5.441   6.493
 8818SOL    HW127353   1.541   5.407   6.473
 8818SOL    HW227354   1.415   5.492   6.414
 8819SOL     OW27355   5.478   5.907   6.813
 8819SOL    HW127356   5.407   5.870   6.874
 8819SOL    HW227357   5.498   6.002   6.839
 8820SOL     OW27358   3.686   6.626   5.414
 8820SOL    HW127359   3.610   6.608   5.352
 8820SOL    HW227360   3.675   6.716   5.455
 8821SOL     OW27361   1.553   5.227   5.533
 8821SOL    HW127362   1.628   5.198   5.593
 8821SOL    HW227363   1.504   5.146   5.501
 8822SOL     OW27364   6.991   1.091   5.186
 8822SOL    HW127365   7.003   1.059   5.280
 8822SOL    HW227366   6.960   1.014   5.129
 8823SOL     OW27367   4.473   2.434   3.353
 8823SOL    HW127368   4.516   2.516   3.317
 8823SOL    HW227369   4.432   2.382   3.278
 8824SOL     OW27370   1.206   0.554   3.167
 8824SOL    HW127371   1.137   0.627   3.168
 8824SOL    HW227372   1.283   0.581   3.226
 8825SOL     OW27373   1.670   6.422   6.503
 8825SOL    HW127374   1.758   6.444   6.461
 8825SOL    HW227375   1.669   6.457   6.597
 8826SOL     OW27376   0.992   2.768   6.789
 8826SOL    HW127377   0.904   2.729   6.815
 8826SOL    HW227378   1.039   2.801   6.871
 8827SOL     OW27379   5.130   6.288   4.245
 8827SOL    HW127380   5.119   6.342   4.161
 8827SOL    HW227381   5.168   6.346   4.317
 8828SOL     OW27382   4.862   2.787   5.704
 8828SOL    HW127383   4.845   2.848   5.627
 8828SOL    HW227384   4.947   2.736   5.688
 8829SOL     OW27385   6.317   0.586   2.925
 8829SOL    HW127386   6.303   0.679   2.959
 8829SOL    HW227387   6.392   0.543   2.976
 8830SOL     OW27388   2.472   2.191   2.733
 8830SOL    HW127389   2.442   2.261   2.798
 8830SOL    HW227390   2.393   2.149   2.690
 8831SOL     OW27391   0.496   2.470   2.486
 8831SOL    HW127392   0.420   2.535   2.491
 8831SOL    HW227393   0.487   2.403   2.559
 8832SOL     OW27394   6.238   7.004   5.096
 8832SOL    HW127395   6.217   0.003   5.190
 8832SOL    HW227396   6.294   6.922   5.098
 8833SOL     OW27397   4.919   2.757   1.187
 8833SOL    HW127398   4.822   2.777   1.196
 8833SOL    HW227399   4.934   2.700   1.106
 8834SOL     OW27400   6.723   4.168   5.786
 8834SOL    HW127401   6.691   4.177   5.880
 8834SOL    HW227402   6.701   4.251   5.734
 8835SOL     OW27403   5.978   1.474   5.345
 8835SOL    HW127404   6.059   1.532   5.346
 8835SOL    HW227405   5.927   1.489   5.261
 8836SOL     OW27406   4.198   1.331   7.010
 8836SOL    HW127407   4.269   1.306   0.046
 8836SOL    HW227408   4.232   1.404   6.950
 8837SOL     OW27409   5.835   5.388   1.029
 8837SOL    HW127410   5.860   5.296   1.061
 8837SOL    HW227411   5.895   5.455   1.072
 8838SOL     OW27412   0.861   2.778   1.958
 8838SOL    HW127413   0.808   2.745   1.880
 8838SOL    HW227414   0.892   2.700   2.013
 8839SOL     OW27415   4.776   4.401   1.931
 8839SOL    HW127416   4.701   4.374   1.992
 8839SOL    HW227417   4.754   4.374   1.838
 8840SOL     OW27418   0.372   6.609   1.112
 8840SOL    HW127419   0.299   6.671   1.143
 8840SOL    HW227420   0.366   6.524   1.163
 8841SOL     OW27421   5.010   1.846   0.513
 8841SOL    HW127422   4.984   1.926   0.566
 8841SOL    HW227423   5.110   1.844   0.503
 8842SOL     OW27424   3.035   3.154   3.117
 8842SOL    HW127425   2.945   3.195   3.132
 8842SOL    HW227426   3.059   3.096   3.195
 8843SOL     OW27427   2.755   6.391   5.048
 8843SOL    HW127428   2.659   6.417   5.058
 8843SOL    HW227429   2.808   6.428   5.125
 8844SOL     OW27430   3.986   2.609   5.364
 8844SOL    HW127431   4.066   2.609   5.305
 8844SOL    HW227432   4.014   2.622   5.459
 8845SOL     OW27433   0.189   3.764   2.474
 8845SOL    HW127434   0.250   3.765   2.395
 8845SOL    HW227435   0.243   3.750   2.557
 8846SOL     OW27436   5.294   5.473   4.191
 8846SOL    HW127437   5.309   5.376   4.176
 8846SOL    HW227438   5.212   5.487   4.246
 8847SOL     OW27439   1.159   3.266   3.559
 8847SOL    HW127440   1.122   3.296   3.647
 8847SOL    HW227441   1.160   3.344   3.496
 8848SOL     OW27442   5.936   2.724   1.367
 8848SOL    HW127443   5.952   2.717   1.465
 8848SOL    HW227444   5.846   2.765   1.350
 8849SOL     OW27445   3.731   5.328   4.662
 8849SOL    HW127446   3.756   5.423   4.648
 8849SOL    HW227447   3.637   5.322   4.696
 8850SOL     OW27448   4.720   1.495   1.176
 8850SOL    HW127449   4.712   1.429   1.101
 8850SOL    HW227450   4.730   1.587   1.139
 8851SOL     OW27451   6.556   4.910   3.361
 8851SOL    HW127452   6.528   4.815   3.372
 8851SOL    HW227453   6.484   4.970   3.396
 8852SOL     OW27454   5.926   4.647   4.513
 8852SOL    HW127455   5.883   4.576   4.568
 8852SOL    HW227456   5.913   4.736   4.557
 8853SOL     OW27457   4.368   1.495   4.540
 8853SOL    HW127458   4.373   1.586   4.581
 8853SOL    HW227459   4.409   1.428   4.602
 8854SOL     OW27460   2.530   0.665   6.514
 8854SOL    HW127461   2.578   0.579   6.498
 8854SOL    HW227462   2.593   0.731   6.555
 8855SOL     OW27463   6.670   4.674   6.293
 8855SOL    HW127464   6.641   4.579   6.308
 8855SOL    HW227465   6.770   4.678   6.291
 8856SOL     OW27466   5.142   1.672   5.898
 8856SOL    HW127467   5.106   1.584   5.865
 8856SOL    HW227468   5.230   1.690   5.855
 8857SOL     OW27469   1.669   3.417   4.323
 8857SOL    HW127470   1.579   3.377   4.340
 8857SOL    HW227471   1.667   3.515   4.346
 8858SOL     OW27472   1.510   3.173   5.693
 8858SOL    HW127473   1.565   3.221   5.762
 8858SOL    HW227474   1.477   3.239   5.625
 8859SOL     OW27475   2.780   5.164   4.711
 8859SOL    HW127476   2.682   5.183   4.714
 8859SOL    HW227477   2.796   5.066   4.717
 8860SOL     OW27478   2.517   1.104   1.787
 8860SOL    HW127479   2.432   1.088   1.736
 8860SOL    HW227480   2.536   1.203   1.790
 8861SOL     OW27481   2.466   1.041   6.938
 8861SOL    HW127482   2.373   1.058   6.972
 8861SOL    HW227483   2.518   1.126   6.937
 8862SOL     OW27484   0.672   3.780   3.811
 8862SOL    HW127485   0.666   3.691   3.857
 8862SOL    HW227486   0.626   3.849   3.865
 8863SOL     OW27487   1.750   5.819   5.164
 8863SOL    HW127488   1.680   5.826   5.235
 8863SOL    HW227489   1.737   5.734   5.112
 8864SOL     OW27490   2.204   3.778   5.149
 8864SOL    HW127491   2.155   3.712   5.090
 8864SOL    HW227492   2.251   3.844   5.091
 8865SOL     OW27493   3.200   1.988   5.664
 8865SOL    HW127494   3.225   2.040   5.582
 8865SOL    HW227495   3.120   2.030   5.706
 8866SOL     OW27496   5.798   0.076   5.325
 8866SOL    HW127497   5.850   7.026   5.294
 8866SOL    HW227498   5.705   0.048   5.347
 8867SOL     OW27499   5.408   1.225   2.989
 8867SOL    HW127500   5.426   1.324   2.990
 8867SOL    HW227501   5.386   1.197   2.896
 8868SOL     OW27502   6.217   2.641   0.486
 8868SOL    HW127503   6.163   2.725   0.473
 8868SOL    HW227504   6.294   2.641   0.423
 8869SOL     OW27505   1.262   1.399   3.902
 8869SOL    HW127506   1.269   1.498   3.911
 8869SOL    HW227507   1.225   1.377   3.811
 8870SOL     OW27508   3.349   6.681   1.503
 8870SOL    HW127509   3.387   6.653   1.591
 8870SOL    HW227510   3.297   6.605   1.463
 8871SOL     OW27511   0.961   2.408   3.814
 8871SOL    HW127512   1.003   2.320   3.835
 8871SOL    HW227513   0.972   2.427   3.716
 8872SOL     OW27514   1.042   1.072   2.491
 8872SOL    HW127515   1.001   1.092   2.401
 8872SOL    HW227516   1.001   0.990   2.528
 8873SOL     OW27517   0.208   5.850   4.693
 8873SOL    HW127518   0.145   5.774   4.682
 8873SOL    HW227519   0.292   5.819   4.738
 8874SOL     OW27520   0.722   1.208   5.968
 8874SOL    HW127521   0.687   1.252   6.050
 8874SOL    HW227522   0.765   1.277   5.909
 8875SOL     OW27523   1.271   0.861   4.219
 8875SOL    HW127524   1.239   0.799   4.291
 8875SOL    HW227525   1.192   0.901   4.172
 8876SOL     OW27526   3.347   1.100   4.265
 8876SOL    HW127527   3.384   1.180   4.311
 8876SOL    HW227528   3.330   1.122   4.169
 8877SOL     OW27529   2.510   6.532   5.763
 8877SOL    HW127530   2.596   6.484   5.779
 8877SOL    HW227531   2.435   6.465   5.758
 8878SOL     OW27532   5.642   4.334   5.431
 8878SOL    HW127533   5.648   4.290   5.521
 8878SOL    HW227534   5.724   4.311   5.378
 8879SOL     OW27535   6.298   5.959   4.627
 8879SOL    HW127536   6.340   6.041   4.589
 8879SOL    HW227537   6.226   5.986   4.691
 8880SOL     OW27538   1.473   0.170   5.169
 8880SOL    HW127539   1.386   0.173   5.121
 8880SOL    HW227540   1.548   0.170   5.103
 8881SOL     OW27541   6.104   1.007   1.542
 8881SOL    HW127542   6.036   0.978   1.474
 8881SOL    HW227543   6.192   1.021   1.497
 8882SOL     OW27544   5.206   1.691   0.045
 8882SOL    HW127545   5.156   1.746   7.008
 8882SOL    HW227546   5.272   1.633   7.027
 8883SOL     OW27547   5.826   1.407   5.847
 8883SOL    HW127548   5.842   1.489   5.902
 8883SOL    HW227549   5.826   1.431   5.750
 8884SOL     OW27550   0.775   1.321   6.411
 8884SOL    HW127551   0.776   1.221   6.413
 8884SOL    HW227552   0.802   1.357   6.500
 8885SOL     OW27553   5.989   3.864   1.584
 8885SOL    HW127554   6.059   3.805   1.625
 8885SOL    HW227555   5.956   3.823   1.500
 8886SOL     OW27556   3.267   6.309   6.154
 8886SOL    HW127557   3.356   6.353   6.145
 8886SOL    HW227558   3.223   6.338   6.239
 8887SOL     OW27559   1.741   1.320   0.224
 8887SOL    HW127560   1.691   1.282   0.302
 8887SOL    HW227561   1.679   1.327   0.146
 8888SOL     OW27562   1.656   1.891   3.059
 8888SOL    HW127563   1.597   1.970   3.048
 8888SOL    HW227564   1.637   1.847   3.147
 8889SOL     OW27565   3.326   0.953   5.706
 8889SOL    HW127566   3.351   0.874   5.650
 8889SOL    HW227567   3.229   0.973   5.693
 8890SOL     OW27568   6.273   5.759   3.095
 8890SOL    HW127569   6.175   5.741   3.106
 8890SOL    HW227570   6.326   5.690   3.143
 8891SOL     OW27571   3.491   2.220   6.209
 8891SOL    HW127572   3.567   2.157   6.225
 8891SOL    HW227573   3.409   2.183   6.252
 8892SOL     OW27574   0.934   0.725   3.805
 8892SOL    HW127575   0.914   0.673   3.888
 8892SOL    HW227576   0.983   0.667   3.740
 8893SOL     OW27577   0.272   0.402   0.688
 8893SOL    HW127578   0.365   0.370   0.709
 8893SOL    HW227579   0.278   0.486   0.633
 8894SOL     OW27580   5.073   3.089   5.321
 8894SOL    HW127581   5.053   3.001   5.363
 8894SOL    HW227582   5.135   3.076   5.244
 8895SOL     OW27583   1.071   1.249   3.528
 8895SOL    HW127584   1.103   1.343   3.544
 8895SOL    HW227585   0.982   1.237   3.571
 8896SOL     OW27586   1.646   3.914   4.380
 8896SOL    HW127587   1.559   3.905   4.332
 8896SOL    HW227588   1.713   3.852   4.340
 8897SOL     OW27589   0.601   1.895   2.173
 8897SOL    HW127590   0.645   1.958   2.109
 8897SOL    HW227591   0.553   1.824   2.123
 8898SOL     OW27592   1.309   2.128   5.319
 8898SOL    HW127593   1.363   2.162   5.242
 8898SOL    HW227594   1.212   2.129   5.294
 8899SOL     OW27595   4.124   6.994   3.320
 8899SOL    HW127596   4.199   0.015   3.362
 8899SOL    HW227597   4.044   0.024   3.312
 8900SOL     OW27598   6.080   1.684   3.587
 8900SOL    HW127599   5.989   1.691   3.628
 8900SOL    HW227600   6.127   1.772   3.597
 8901SOL     OW27601   0.991   0.031   2.116
 8901SOL    HW127602   0.988   6.962   2.096
 8901SOL    HW227603   0.959   0.046   2.209
 8902SOL     OW27604   4.433   6.621   5.767
 8902SOL    HW127605   4.334   6.629   5.754
 8902SOL    HW227606   4.473   6.713   5.772
 8903SOL     OW27607   5.980   1.478   2.843
 8903SOL    HW127608   5.974   1.492   2.942
 8903SOL    HW227609   5.990   1.380   2.824
 8904SOL     OW27610   2.163   4.312   4.077
 8904SOL    HW127611   2.248   4.353   4.112
 8904SOL    HW227612   2.085   4.351   4.126
 8905SOL     OW27613   2.151   4.407   4.932
 8905SOL    HW127614   2.205   4.366   4.858
 8905SOL    HW227615   2.160   4.351   5.014
 8906SOL     OW27616   1.562   4.898   4.185
 8906SOL    HW127617   1.640   4.930   4.131
 8906SOL    HW227618   1.553   4.799   4.175
 8907SOL     OW27619   3.968   2.962   6.902
 8907SOL    HW127620   4.043   2.946   6.838
 8907SOL    HW227621   3.962   3.059   6.923
 8908SOL     OW27622   0.996   3.094   3.005
 8908SOL    HW127623   0.977   3.192   2.995
 8908SOL    HW227624   1.064   3.067   2.937
 8909SOL     OW27625   3.502   6.992   4.488
 8909SOL    HW127626   3.414   6.976   4.532
 8909SOL    HW227627   3.517   0.060   4.476
 8910SOL     OW27628   4.359   3.142   6.990
 8910SOL    HW127629   4.276   3.103   7.029
 8910SOL    HW227630   4.423   3.068   6.967
 8911SOL     OW27631   5.273   3.835   4.736
 8911SOL    HW127632   5.342   3.877   4.677
 8911SOL    HW227633   5.192   3.811   4.682
 8912SOL     OW27634   3.862   0.882   0.285
 8912SOL    HW127635   3.953   0.873   0.244
 8912SOL    HW227636   3.859   0.966   0.339
 8913SOL     OW27637   3.823   3.579   1.708
 8913SOL    HW127638   3.815   3.551   1.804
 8913SOL    HW227639   3.788   3.506   1.649
 8914SOL     OW27640   5.656   4.370   3.190
 8914SOL    HW127641   5.613   4.285   3.160
 8914SOL    HW227642   5.602   4.411   3.263
 8915SOL     OW27643   1.199   5.665   1.612
 8915SOL    HW127644   1.283   5.638   1.564
 8915SOL    HW227645   1.155   5.740   1.563
 8916SOL     OW27646   5.394   2.430   1.233
 8916SOL    HW127647   5.295   2.445   1.236
 8916SOL    HW227648   5.417   2.347   1.284
 8917SOL     OW27649   5.833   3.818   5.934
 8917SOL    HW127650   5.867   3.887   5.997
 8917SOL    HW227651   5.827   3.856   5.842
 8918SOL     OW27652   5.221   5.005   5.475
 8918SOL    HW127653   5.135   4.982   5.430
 8918SOL    HW227654   5.233   5.104   5.478
 8919SOL     OW27655   1.872   3.148   0.990
 8919SOL    HW127656   1.825   3.060   0.994
 8919SOL    HW227657   1.902   3.175   1.081
 8920SOL     OW27658   5.901   5.525   5.552
 8920SOL    HW127659   5.863   5.433   5.548
 8920SOL    HW227660   5.852   5.578   5.621
 8921SOL     OW27661   0.393   5.405   3.230
 8921SOL    HW127662   0.479   5.445   3.261
 8921SOL    HW227663   0.358   5.457   3.152
 8922SOL     OW27664   1.371   2.788   0.679
 8922SOL    HW127665   1.300   2.821   0.617
 8922SOL    HW227666   1.331   2.774   0.770
 8923SOL     OW27667   2.057   5.356   4.142
 8923SOL    HW127668   2.033   5.372   4.046
 8923SOL    HW227669   1.975   5.327   4.193
 8924SOL     OW27670   1.749   6.473   4.364
 8924SOL    HW127671   1.654   6.444   4.380
 8924SOL    HW227672   1.805   6.393   4.343
 8925SOL     OW27673   4.571   5.489   1.363
 8925SOL    HW127674   4.647   5.552   1.383
 8925SOL    HW227675   4.577   5.460   1.267
 8926SOL     OW27676   5.277   6.665   0.183
 8926SOL    HW127677   5.328   6.712   0.255
 8926SOL    HW227678   5.179   6.668   0.204
 8927SOL     OW27679   2.964   1.921   4.883
 8927SOL    HW127680   3.011   1.934   4.970
 8927SOL    HW227681   3.029   1.890   4.814
 8928SOL     OW27682   2.047   0.126   5.923
 8928SOL    HW127683   2.116   0.132   5.994
 8928SOL    HW227684   1.973   0.067   5.953
 8929SOL     OW27685   4.781   4.073   3.170
 8929SOL    HW127686   4.821   4.165   3.174
 8929SOL    HW227687   4.699   4.076   3.114
 8930SOL     OW27688   0.442   5.678   5.344
 8930SOL    HW127689   0.357   5.731   5.346
 8930SOL    HW227690   0.520   5.739   5.334
 8931SOL     OW27691   5.632   0.915   2.023
 8931SOL    HW127692   5.691   0.978   2.073
 8931SOL    HW227693   5.642   0.822   2.061
 8932SOL     OW27694   3.548   0.307   6.441
 8932SOL    HW127695   3.546   0.400   6.478
 8932SOL    HW227696   3.457   0.283   6.407
 8933SOL     OW27697   1.506   0.606   5.514
 8933SOL    HW127698   1.590   0.571   5.473
 8933SOL    HW227699   1.528   0.683   5.574
 8934SOL     OW27700   2.497   6.274   3.161
 8934SOL    HW127701   2.495   6.346   3.230
 8934SOL    HW227702   2.456   6.308   3.076
 8935SOL     OW27703   4.925   2.304   2.134
 8935SOL    HW127704   4.918   2.208   2.107
 8935SOL    HW227705   4.962   2.309   2.227
 8936SOL     OW27706   0.990   3.642   2.690
 8936SOL    HW127707   0.986   3.636   2.790
 8936SOL    HW227708   1.041   3.564   2.654
 8937SOL     OW27709   3.552   5.989   5.116
 8937SOL    HW127710   3.570   5.891   5.119
 8937SOL    HW227711   3.500   6.016   5.197
 8938SOL     OW27712   4.327   6.416   2.389
 8938SOL    HW127713   4.320   6.382   2.482
 8938SOL    HW227714   4.354   6.342   2.328
 8939SOL     OW27715   6.941   3.288   5.668
 8939SOL    HW127716   6.883   3.262   5.590
 8939SOL    HW227717   6.883   3.304   5.748
 8940SOL     OW27718   6.027   3.827   2.782
 8940SOL    HW127719   5.935   3.789   2.774
 8940SOL    HW227720   6.060   3.815   2.876
 8941SOL     OW27721   5.848   2.518   3.952
 8941SOL    HW127722   5.840   2.493   3.855
 8941SOL    HW227723   5.893   2.607   3.960
 8942SOL     OW27724   4.952   6.257   4.563
 8942SOL    HW127725   4.869   6.301   4.528
 8942SOL    HW227726   5.001   6.215   4.487
 8943SOL     OW27727   4.416   3.157   0.729
 8943SOL    HW127728   4.360   3.077   0.750
 8943SOL    HW227729   4.453   3.149   0.637
 8944SOL     OW27730   4.548   5.778   5.735
 8944SOL    HW127731   4.537   5.876   5.748
 8944SOL    HW227732   4.641   5.751   5.759
 8945SOL     OW27733   6.697   4.033   2.032
 8945SOL    HW127734   6.659   4.098   1.966
 8945SOL    HW227735   6.634   3.956   2.044
 8946SOL     OW27736   4.044   1.883   3.802
 8946SOL    HW127737   4.035   1.979   3.774
 8946SOL    HW227738   4.126   1.872   3.857
 8947SOL     OW27739   3.267   5.422   0.670
 8947SOL    HW127740   3.366   5.413   0.659
 8947SOL    HW227741   3.243   5.412   0.766
 8948SOL     OW27742   5.722   6.816   2.867
 8948SOL    HW127743   5.779   6.759   2.808
 8948SOL    HW227744   5.643   6.849   2.816
 8949SOL     OW27745   3.808   6.008   0.964
 8949SOL    HW127746   3.768   6.034   0.876
 8949SOL    HW227747   3.819   5.908   0.967
 8950SOL     OW27748   3.255   3.442   3.565
 8950SOL    HW127749   3.349   3.435   3.598
 8950SOL    HW227750   3.247   3.396   3.476
 8951SOL     OW27751   0.642   0.679   3.952
 8951SOL    HW127752   0.628   0.685   4.051
 8951SOL    HW227753   0.725   0.627   3.933
 8952SOL     OW27754   1.947   4.083   4.808
 8952SOL    HW127755   2.046   4.074   4.801
 8952SOL    HW227756   1.904   3.998   4.776
 8953SOL     OW27757   2.115   5.146   0.670
 8953SOL    HW127758   2.057   5.226   0.686
 8953SOL    HW227759   2.103   5.115   0.576
 8954SOL     OW27760   1.991   3.741   5.587
 8954SOL    HW127761   1.939   3.818   5.625
 8954SOL    HW227762   2.000   3.751   5.488
 8955SOL     OW27763   6.529   2.668   6.451
 8955SOL    HW127764   6.618   2.650   6.493
 8955SOL    HW227765   6.517   2.610   6.370
 8956SOL     OW27766   0.930   6.259   0.801
 8956SOL    HW127767   0.957   6.235   0.708
 8956SOL    HW227768   0.969   6.193   0.866
 8957SOL     OW27769   0.504   0.065   4.060
 8957SOL    HW127770   0.577   0.106   4.114
 8957SOL    HW227771   0.416   0.090   4.099
 8958SOL     OW27772   0.186   2.915   4.323
 8958SOL    HW127773   0.236   2.914   4.409
 8958SOL    HW227774   0.247   2.889   4.248
 8959SOL     OW27775   5.498   1.123   3.567
 8959SOL    HW127776   5.570   1.153   3.629
 8959SOL    HW227777   5.409   1.134   3.610
 8960SOL     OW27778   3.393   6.606   1.752
 8960SOL    HW127779   3.413   6.684   1.811
 8960SOL    HW227780   3.478   6.557   1.732
 8961SOL     OW27781   2.546   2.327   5.481
 8961SOL    HW127782   2.488   2.384   5.423
 8961SOL    HW227783   2.631   2.306   5.434
 8962SOL     OW27784   6.741   5.541   0.639
 8962SOL    HW127785   6.823   5.485   0.624
 8962SOL    HW227786   6.720   5.592   0.555
 8963SOL     OW27787   2.334   5.454   5.433
 8963SOL    HW127788   2.279   5.532   5.401
 8963SOL    HW227789   2.275   5.392   5.485
 8964SOL     OW27790   1.649   3.709   4.137
 8964SOL    HW127791   1.639   3.785   4.073
 8964SOL    HW227792   1.744   3.678   4.136
 8965SOL     OW27793   2.895   7.026   6.165
 8965SOL    HW127794   2.897   0.050   6.081
 8965SOL    HW227795   2.977   0.016   6.219
 8966SOL     OW27796   4.179   6.540   5.400
 8966SOL    HW127797   4.216   6.465   5.345
 8966SOL    HW227798   4.237   6.621   5.389
 8967SOL     OW27799   2.035   7.002   3.074
 8967SOL    HW127800   2.080   6.942   3.139
 8967SOL    HW227801   2.102   0.034   3.033
 8968SOL     OW27802   2.609   5.692   2.538
 8968SOL    HW127803   2.695   5.664   2.581
 8968SOL    HW227804   2.533   5.666   2.597
 8969SOL     OW27805   6.672   0.691   1.273
 8969SOL    HW127806   6.640   0.764   1.213
 8969SOL    HW227807   6.733   0.630   1.222
 8970SOL     OW27808   2.737   2.072   4.656
 8970SOL    HW127809   2.673   2.140   4.691
 8970SOL    HW227810   2.816   2.119   4.615
 8971SOL     OW27811   2.794   6.046   1.003
 8971SOL    HW127812   2.813   6.097   1.086
 8971SOL    HW227813   2.766   5.953   1.026
 8972SOL     OW27814   6.878   4.145   0.206
 8972SOL    HW127815   6.943   4.156   0.282
 8972SOL    HW227816   6.870   4.231   0.157
 8973SOL     OW27817   2.524   2.108   3.066
 8973SOL    HW127818   2.607   2.101   3.121
 8973SOL    HW227819   2.514   2.026   3.010
 8974SOL     OW27820   0.597   4.913   5.397
 8974SOL    HW127821   0.579   4.950   5.305
 8974SOL    HW227822   0.694   4.924   5.418
 8975SOL     OW27823   1.064   3.693   6.310
 8975SOL    HW127824   1.022   3.649   6.231
 8975SOL    HW227825   1.158   3.719   6.288
 8976SOL     OW27826   5.163   6.822   1.438
 8976SOL    HW127827   5.250   6.870   1.420
 8976SOL    HW227828   5.127   6.851   1.527
 8977SOL     OW27829   0.704   5.199   6.379
 8977SOL    HW127830   0.746   5.112   6.356
 8977SOL    HW227831   0.689   5.204   6.478
 8978SOL     OW27832   6.715   5.195   4.652
 8978SOL    HW127833   6.617   5.186   4.633
 8978SOL    HW227834   6.762   5.112   4.622
 8979SOL     OW27835   1.877   4.930   2.917
 8979SOL    HW127836   1.958   4.941   2.860
 8979SOL    HW227837   1.905   4.916   3.012
 8980SOL     OW27838   5.001   1.285   6.576
 8980SOL    HW127839   4.968   1.260   6.485
 8980SOL    HW227840   4.926   1.328   6.627
 8981SOL     OW27841   3.933   2.419   6.688
 8981SOL    HW127842   3.885   2.481   6.750
 8981SOL    HW227843   3.971   2.343   6.740
 8982SOL     OW27844   0.132   0.987   3.650
 8982SOL    HW127845   0.140   1.036   3.564
 8982SOL    HW227846   0.059   0.918   3.643
 8983SOL     OW27847   1.341   6.763   2.272
 8983SOL    HW127848   1.280   6.703   2.325
 8983SOL    HW227849   1.292   6.846   2.248
 8984SOL     OW27850   6.390   1.035   3.594
 8984SOL    HW127851   6.362   0.944   3.564
 8984SOL    HW227852   6.485   1.031   3.625
 8985SOL     OW27853   5.266   0.346   0.092
 8985SOL    HW127854   5.249   0.426   0.149
 8985SOL    HW227855   5.361   0.315   0.105
 8986SOL     OW27856   1.275   0.195   6.218
 8986SOL    HW127857   1.266   0.226   6.313
 8986SOL    HW227858   1.201   0.234   6.164
 8987SOL     OW27859   3.190   6.465   3.237
 8987SOL    HW127860   3.233   6.474   3.147
 8987SOL    HW227861   3.249   6.507   3.306
 8988SOL     OW27862   1.535   6.298   1.340
 8988SOL    HW127863   1.615   6.354   1.315
 8988SOL    HW227864   1.545   6.207   1.299
 8989SOL     OW27865   6.292   1.634   2.352
 8989SOL    HW127866   6.303   1.670   2.445
 8989SOL    HW227867   6.196   1.635   2.326
 8990SOL     OW27868   3.842   2.022   3.238
 8990SOL    HW127869   3.849   1.930   3.276
 8990SOL    HW227870   3.887   2.025   3.149
 8991SOL     OW27871   2.108   2.042   1.050
 8991SOL    HW127872   2.074   2.009   1.138
 8991SOL    HW227873   2.054   2.002   0.976
 8992SOL     OW27874   0.834   5.457   5.179
 8992SOL    HW127875   0.736   5.443   5.171
 8992SOL    HW227876   0.858   5.548   5.146
 8993SOL     OW27877   5.378   4.223   3.783
 8993SOL    HW127878   5.389   4.289   3.857
 8993SOL    HW227879   5.467   4.185   3.759
 8994SOL     OW27880   1.359   5.956   3.082
 8994SOL    HW127881   1.357   5.987   3.176
 8994SOL    HW227882   1.282   5.997   3.032
 8995SOL     OW27883   1.705   3.971   3.183
 8995SOL    HW127884   1.773   4.007   3.248
 8995SOL    HW227885   1.740   3.887   3.142
 8996SOL     OW27886   3.185   4.100   1.487
 8996SOL    HW127887   3.229   4.034   1.546
 8996SOL    HW227888   3.143   4.172   1.542
 8997SOL     OW27889   4.293   1.327   5.016
 8997SOL    HW127890   4.313   1.266   5.093
 8997SOL    HW227891   4.239   1.279   4.948
 8998SOL     OW27892   0.887   1.662   6.036
 8998SOL    HW127893   0.810   1.698   6.089
 8998SOL    HW227894   0.965   1.646   6.096
 8999SOL     OW27895   6.784   2.824   4.993
 8999SOL    HW127896   6.840   2.826   4.910
 8999SOL    HW227897   6.708   2.761   4.980
 9000SOL     OW27898   4.175   5.279   1.557
 9000SOL    HW127899   4.189   5.191   1.511
 9000SOL    HW227900   4.253   5.339   1.539
 9001SOL     OW27901   1.260   3.499   3.753
 9001SOL    HW127902   1.173   3.534   3.718
 9001SOL    HW227903   1.243   3.418   3.810
 9002SOL     OW27904   4.584   3.038   6.537
 9002SOL    HW127905   4.608   2.984   6.456
 9002SOL    HW227906   4.668   3.075   6.578
 9003SOL     OW27907   0.529   3.426   0.460
 9003SOL    HW127908   0.476   3.371   0.525
 9003SOL    HW227909   0.622   3.437   0.493
 9004SOL     OW27910   5.586   5.778   1.039
 9004SOL    HW127911   5.598   5.784   0.940
 9004SOL    HW227912   5.494   5.747   1.060
 9005SOL     OW27913   4.665   4.318   3.865
 9005SOL    HW127914   4.669   4.242   3.930
 9005SOL    HW227915   4.753   4.365   3.863
 9006SOL     OW27916   3.109   6.291   2.617
 9006SOL    HW127917   3.084   6.380   2.653
 9006SOL    HW227918   3.143   6.300   2.524
 9007SOL     OW27919   2.034   0.175   5.435
 9007SOL    HW127920   2.127   0.206   5.411
 9007SOL    HW227921   2.002   0.226   5.514
 9008SOL     OW27922   6.877   5.053   1.644
 9008SOL    HW127923   6.930   4.972   1.619
 9008SOL    HW227924   6.934   5.115   1.698
 9009SOL     OW27925   4.218   6.623   6.736
 9009SOL    HW127926   4.288   6.642   6.805
 9009SOL    HW227927   4.163   6.706   6.721
 9010SOL     OW27928   6.741   6.299   4.746
 9010SOL    HW127929   6.811   6.299   4.674
 9010SOL    HW227930   6.699   6.209   4.751
 9011SOL     OW27931   4.688   2.475   2.457
 9011SOL    HW127932   4.616   2.504   2.394
 9011SOL    HW227933   4.704   2.377   2.445
 9012SOL     OW27934   4.055   4.834   2.195
 9012SOL    HW127935   4.044   4.831   2.295
 9012SOL    HW227936   4.105   4.753   2.165
 9013SOL     OW27937   2.967   6.486   0.787
 9013SOL    HW127938   2.919   6.399   0.786
 9013SOL    HW227939   3.060   6.472   0.822
 9014SOL     OW27940   1.937   1.485   2.614
 9014SOL    HW127941   1.920   1.390   2.588
 9014SOL    HW227942   1.985   1.488   2.701
 9015SOL     OW27943   6.347   2.391   4.807
 9015SOL    HW127944   6.326   2.295   4.790
 9015SOL    HW227945   6.344   2.410   4.905
 9016SOL     OW27946   0.159   4.690   0.008
 9016SOL    HW127947   0.128   4.597   7.018
 9016SOL    HW227948   0.151   4.707   0.106
 9017SOL     OW27949   6.075   2.940   2.075
 9017SOL    HW127950   6.100   3.037   2.079
 9017SOL    HW227951   6.155   2.886   2.052
 9018SOL     OW27952   5.527   2.434   6.375
 9018SOL    HW127953   5.468   2.434   6.456
 9018SOL    HW227954   5.621   2.453   6.404
 9019SOL     OW27955   1.903   5.832   0.250
 9019SOL    HW127956   1.807   5.813   0.274
 9019SOL    HW227957   1.928   5.922   0.285
 9020SOL     OW27958   0.788   5.357   4.866
 9020SOL    HW127959   0.788   5.291   4.942
 9020SOL    HW227960   0.860   5.333   4.802
 9021SOL     OW27961   6.663   5.326   4.892
 9021SOL    HW127962   6.710   5.280   4.817
 9021SOL    HW227963   6.602   5.397   4.855
 9022SOL     OW27964   1.120   6.929   5.957
 9022SOL    HW127965   1.133   7.018   5.915
 9022SOL    HW227966   1.113   6.940   6.057
 9023SOL     OW27967   3.600   3.844   3.981
 9023SOL    HW127968   3.555   3.843   4.070
 9023SOL    HW227969   3.660   3.765   3.972
 9024SOL     OW27970   1.621   0.108   0.574
 9024SOL    HW127971   1.590   0.110   0.479
 9024SOL    HW227972   1.719   0.090   0.577
 9025SOL     OW27973   0.278   2.543   0.665
 9025SOL    HW127974   0.294   2.641   0.677
 9025SOL    HW227975   0.352   2.492   0.710
 9026SOL     OW27976   2.622   4.543   6.270
 9026SOL    HW127977   2.667   4.584   6.190
 9026SOL    HW227978   2.552   4.479   6.240
 9027SOL     OW27979   0.888   3.506   1.707
 9027SOL    HW127980   0.887   3.407   1.714
 9027SOL    HW227981   0.982   3.538   1.694
 9028SOL     OW27982   2.004   3.793   5.325
 9028SOL    HW127983   2.079   3.770   5.262
 9028SOL    HW227984   1.931   3.839   5.275
 9029SOL     OW27985   4.908   5.449   3.255
 9029SOL    HW127986   4.918   5.372   3.192
 9029SOL    HW227987   4.946   5.531   3.213
 9030SOL     OW27988   5.142   2.671   2.207
 9030SOL    HW127989   5.059   2.682   2.262
 9030SOL    HW227990   5.124   2.702   2.113
 9031SOL     OW27991   2.502   0.578   2.356
 9031SOL    HW127992   2.591   0.618   2.380
 9031SOL    HW227993   2.451   0.643   2.299
 9032SOL     OW27994   0.644   4.018   2.804
 9032SOL    HW127995   0.689   3.949   2.746
 9032SOL    HW227996   0.660   3.996   2.900
 9033SOL     OW27997   0.573   2.988   2.433
 9033SOL    HW127998   0.590   2.948   2.523
 9033SOL    HW227999   0.512   2.929   2.380
 9034SOL     OW28000   1.132   6.617   0.887
 9034SOL    HW128001   1.080   6.595   0.804
 9034SOL    HW228002   1.229   6.627   0.864
 9035SOL     OW28003   5.933   1.189   4.406
 9035SOL    HW128004   5.873   1.269   4.401
 9035SOL    HW228005   5.887   1.111   4.364
 9036SOL     OW28006   6.899   1.948   4.183
 9036SOL    HW128007   6.993   1.925   4.208
 9036SOL    HW228008   6.835   1.902   4.245
 9037SOL     OW28009   2.763   4.327   6.361
 9037SOL    HW128010   2.839   4.359   6.417
 9037SOL    HW228011   2.702   4.403   6.340
 9038SOL     OW28012   3.837   6.020   5.534
 9038SOL    HW128013   3.824   6.026   5.435
 9038SOL    HW228014   3.749   5.997   5.578
 9039SOL     OW28015   2.689   5.043   0.095
 9039SOL    HW128016   2.721   4.960   0.140
 9039SOL    HW228017   2.637   5.019   0.013
 9040SOL     OW28018   3.439   1.510   2.669
 9040SOL    HW128019   3.394   1.517   2.580
 9040SOL    HW228020   3.370   1.494   2.740
 9041SOL     OW28021   2.368   2.863   5.316
 9041SOL    HW128022   2.330   2.803   5.246
 9041SOL    HW228023   2.399   2.948   5.275
 9042SOL     OW28024   1.602   5.341   2.510
 9042SOL    HW128025   1.661   5.284   2.453
 9042SOL    HW228026   1.522   5.289   2.539
 9043SOL     OW28027   0.601   1.609   6.590
 9043SOL    HW128028   0.581   1.512   6.592
 9043SOL    HW228029   0.608   1.644   6.684
 9044SOL     OW28030   0.782   4.210   1.295
 9044SOL    HW128031   0.821   4.298   1.320
 9044SOL    HW228032   0.683   4.211   1.311
 9045SOL     OW28033   1.785   4.710   5.083
 9045SOL    HW128034   1.722   4.756   5.145
 9045SOL    HW228035   1.734   4.649   5.022
 9046SOL     OW28036   4.080   4.562   6.121
 9046SOL    HW128037   4.140   4.603   6.190
 9046SOL    HW228038   3.991   4.608   6.123
 9047SOL     OW28039   0.600   5.098   4.046
 9047SOL    HW128040   0.687   5.074   4.089
 9047SOL    HW228041   0.525   5.057   4.097
 9048SOL     OW28042   1.279   2.056   5.800
 9048SOL    HW128043   1.326   2.015   5.878
 9048SOL    HW228044   1.343   2.067   5.724
 9049SOL     OW28045   4.141   5.619   5.335
 9049SOL    HW128046   4.178   5.710   5.318
 9049SOL    HW228047   4.103   5.615   5.428
 9050SOL     OW28048   0.585   3.553   0.039
 9050SOL    HW128049   0.609   3.641   7.028
 9050SOL    HW228050   0.500   3.562   0.090
 9051SOL     OW28051   6.971   5.515   6.394
 9051SOL    HW128052   6.946   5.454   6.319
 9051SOL    HW228053   6.999   5.604   6.357
 9052SOL     OW28054   2.081   4.669   4.270
 9052SOL    HW128055   2.087   4.767   4.288
 9052SOL    HW228056   2.008   4.653   4.202
 9053SOL     OW28057   0.835   0.403   2.770
 9053SOL    HW128058   0.754   0.429   2.823
 9053SOL    HW228059   0.833   0.450   2.682
 9054SOL     OW28060   1.427   7.024   1.997
 9054SOL    HW128061   1.402   6.994   1.905
 9054SOL    HW228062   1.350   7.008   2.059
 9055SOL     OW28063   1.486   3.070   5.314
 9055SOL    HW128064   1.396   3.083   5.271
 9055SOL    HW228065   1.476   3.015   5.396
 9056SOL     OW28066   5.354   2.342   2.036
 9056SOL    HW128067   5.265   2.376   2.006
 9056SOL    HW228068   5.426   2.384   1.980
 9057SOL     OW28069   3.605   0.263   5.992
 9057SOL    HW128070   3.552   0.338   5.953
 9057SOL    HW228071   3.640   0.205   5.918
 9058SOL     OW28072   2.241   2.919   3.884
 9058SOL    HW128073   2.280   2.831   3.855
 9058SOL    HW228074   2.270   2.991   3.821
 9059SOL     OW28075   0.599   6.950   2.306
 9059SOL    HW128076   0.519   6.918   2.356
 9059SOL    HW228077   0.570   7.000   2.225
 9060SOL     OW28078   0.366   4.893   0.392
 9060SOL    HW128079   0.394   4.850   0.307
 9060SOL    HW228080   0.442   4.894   0.456
 9061SOL     OW28081   3.867   4.868   2.570
 9061SOL    HW128082   3.936   4.795   2.567
 9061SOL    HW228083   3.894   4.936   2.638
 9062SOL     OW28084   6.811   6.228   2.941
 9062SOL    HW128085   6.908   6.251   2.933
 9062SOL    HW228086   6.780   6.185   2.856
 9063SOL     OW28087   5.906   6.670   0.803
 9063SOL    HW128088   5.983   6.729   0.778
 9063SOL    HW228089   5.842   6.722   0.860
 9064SOL     OW28090   1.492   6.307   3.306
 9064SOL    HW128091   1.435   6.226   3.322
 9064SOL    HW228092   1.537   6.299   3.217
 9065SOL     OW28093   3.150   4.185   0.019
 9065SOL    HW128094   3.080   4.119   7.022
 9065SOL    HW228095   3.217   4.195   6.975
 9066SOL     OW28096   5.158   5.330   3.874
 9066SOL    HW128097   5.177   5.423   3.908
 9066SOL    HW228098   5.126   5.336   3.780
 9067SOL     OW28099   2.068   0.245   3.749
 9067SOL    HW128100   1.973   0.275   3.738
 9067SOL    HW228101   2.129   0.311   3.705
 9068SOL     OW28102   5.567   0.607   4.695
 9068SOL    HW128103   5.570   0.684   4.759
 9068SOL    HW228104   5.624   0.533   4.729
 9069SOL     OW28105   4.690   2.460   1.228
 9069SOL    HW128106   4.653   2.505   1.147
 9069SOL    HW228107   4.634   2.380   1.250
 9070SOL     OW28108   0.713   0.617   6.419
 9070SOL    HW128109   0.691   0.580   6.329
 9070SOL    HW228110   0.635   0.670   6.453
 9071SOL     OW28111   5.735   2.530   0.422
 9071SOL    HW128112   5.757   2.504   0.328
 9071SOL    HW228113   5.750   2.452   0.482
 9072SOL     OW28114   6.025   0.477   1.412
 9072SOL    HW128115   6.039   0.405   1.344
 9072SOL    HW228116   5.995   0.560   1.366
 9073SOL     OW28117   4.863   3.132   6.080
 9073SOL    HW128118   4.793   3.197   6.051
 9073SOL    HW228119   4.862   3.052   6.021
 9074SOL     OW28120   2.282   0.519   3.203
 9074SOL    HW128121   2.231   0.484   3.126
 9074SOL    HW228122   2.367   0.467   3.214
 9075SOL     OW28123   4.945   5.882   1.284
 9075SOL    HW128124   4.987   5.830   1.359
 9075SOL    HW228125   4.870   5.937   1.321
 9076SOL     OW28126   0.984   6.760   2.567
 9076SOL    HW128127   0.972   6.844   2.513
 9076SOL    HW228128   0.975   6.782   2.664
 9077SOL     OW28129   6.386   0.463   6.902
 9077SOL    HW128130   6.307   0.500   6.951
 9077SOL    HW228131   6.470   0.498   6.944
 9078SOL     OW28132   5.220   6.266   6.971
 9078SOL    HW128133   5.138   6.230   7.017
 9078SOL    HW228134   5.221   6.235   6.876
 9079SOL     OW28135   3.138   1.357   6.458
 9079SOL    HW128136   3.231   1.340   6.427
 9079SOL    HW228137   3.120   1.455   6.458
 9080SOL     OW28138   6.829   5.063   0.690
 9080SOL    HW128139   6.922   5.035   0.716
 9080SOL    HW228140   6.779   4.984   0.655
 9081SOL     OW28141   5.049   2.094   6.082
 9081SOL    HW128142   4.951   2.075   6.074
 9081SOL    HW228143   5.097   2.010   6.107
 9082SOL     OW28144   2.729   4.501   6.732
 9082SOL    HW128145   2.756   4.566   6.661
 9082SOL    HW228146   2.705   4.551   6.816
 9083SOL     OW28147   3.676   0.356   0.890
 9083SOL    HW128148   3.702   0.307   0.973
 9083SOL    HW228149   3.613   0.299   0.837
 9084SOL     OW28150   0.406   4.344   4.491
 9084SOL    HW128151   0.426   4.380   4.582
 9084SOL    HW228152   0.399   4.244   4.495
 9085SOL     OW28153   3.562   4.978   2.206
 9085SOL    HW128154   3.583   4.896   2.154
 9085SOL    HW228155   3.491   4.958   2.274
 9086SOL     OW28156   0.517   1.501   0.285
 9086SOL    HW128157   0.444   1.433   0.277
 9086SOL    HW228158   0.477   1.591   0.305
 9087SOL     OW28159   4.720   1.765   0.038
 9087SOL    HW128160   4.758   1.686   7.019
 9087SOL    HW228161   4.655   1.813   7.008
 9088SOL     OW28162   5.641   6.714   0.522
 9088SOL    HW128163   5.602   6.696   0.612
 9088SOL    HW228164   5.606   6.646   0.457
 9089SOL     OW28165   4.610   5.427   3.234
 9089SOL    HW128166   4.613   5.527   3.221
 9089SOL    HW228167   4.697   5.396   3.271
 9090SOL     OW28168   6.699   4.883   4.890
 9090SOL    HW128169   6.641   4.933   4.954
 9090SOL    HW228170   6.650   4.802   4.857
 9091SOL     OW28171   1.682   1.675   2.181
 9091SOL    HW128172   1.773   1.702   2.150
 9091SOL    HW228173   1.680   1.576   2.195
 9092SOL     OW28174   3.678   1.798   5.175
 9092SOL    HW128175   3.738   1.808   5.096
 9092SOL    HW228176   3.696   1.871   5.241
 9093SOL     OW28177   1.737   4.056   1.012
 9093SOL    HW128178   1.682   3.996   0.953
 9093SOL    HW228179   1.808   4.001   1.057
 9094SOL     OW28180   0.720   2.699   6.792
 9094SOL    HW128181   0.712   2.618   6.734
 9094SOL    HW228182   0.734   2.780   6.736
 9095SOL     OW28183   2.720   2.251   0.873
 9095SOL    HW128184   2.707   2.189   0.796
 9095SOL    HW228185   2.785   2.211   0.937
 9096SOL     OW28186   0.050   4.149   3.233
 9096SOL    HW128187   0.058   4.125   3.137
 9096SOL    HW228188   0.073   4.069   3.289
 9097SOL     OW28189   6.598   5.716   5.755
 9097SOL    HW128190   6.509   5.762   5.748
 9097SOL    HW228191   6.652   5.758   5.828
 9098SOL     OW28192   3.365   3.322   5.378
 9098SOL    HW128193   3.348   3.399   5.440
 9098SOL    HW228194   3.371   3.237   5.430
 9099SOL     OW28195   2.131   2.579   6.029
 9099SOL    HW128196   2.149   2.605   6.124
 9099SOL    HW228197   2.204   2.518   5.997
 9100SOL     OW28198   1.842   2.027   0.857
 9100SOL    HW128199   1.901   2.005   0.779
 9100SOL    HW228200   1.822   2.125   0.857
 9101SOL     OW28201   2.590   2.109   0.446
 9101SOL    HW128202   2.526   2.037   0.421
 9101SOL    HW228203   2.543   2.177   0.502
 9102SOL     OW28204   4.379   6.237   2.616
 9102SOL    HW128205   4.470   6.203   2.637
 9102SOL    HW228206   4.330   6.256   2.701
 9103SOL     OW28207   1.447   3.836   6.488
 9103SOL    HW128208   1.414   3.871   6.400
 9103SOL    HW228209   1.511   3.902   6.528
 9104SOL     OW28210   4.910   6.858   3.212
 9104SOL    HW128211   4.834   6.798   3.239
 9104SOL    HW228212   4.941   6.832   3.120
 9105SOL     OW28213   3.154   2.343   5.906
 9105SOL    HW128214   3.086   2.270   5.900
 9105SOL    HW228215   3.242   2.310   5.875
 9106SOL     OW28216   6.562   5.431   1.383
 9106SOL    HW128217   6.509   5.463   1.462
 9106SOL    HW228218   6.649   5.393   1.414
 9107SOL     OW28219   4.580   0.089   6.965
 9107SOL    HW128220   4.565   7.028   7.004
 9107SOL    HW228221   4.493   0.128   6.936
 9108SOL     OW28222   3.632   5.609   0.916
 9108SOL    HW128223   3.608   5.653   1.003
 9108SOL    HW228224   3.582   5.651   0.841
 9109SOL     OW28225   3.260   1.803   4.459
 9109SOL    HW128226   3.349   1.825   4.420
 9109SOL    HW228227   3.271   1.736   4.532
 9110SOL     OW28228   0.335   3.978   3.508
 9110SOL    HW128229   0.381   4.047   3.452
 9110SOL    HW228230   0.401   3.936   3.570
 9111SOL     OW28231   3.760   4.544   1.691
 9111SOL    HW128232   3.698   4.583   1.759
 9111SOL    HW228233   3.735   4.576   1.600
 9112SOL     OW28234   0.773   6.632   2.493
 9112SOL    HW128235   0.802   6.539   2.471
 9112SOL    HW228236   0.852   6.686   2.522
 9113SOL     OW28237   2.147   6.672   1.159
 9113SOL    HW128238   2.110   6.760   1.129
 9113SOL    HW228239   2.206   6.635   1.087
 9114SOL     OW28240   2.910   3.688   1.902
 9114SOL    HW128241   2.916   3.717   1.806
 9114SOL    HW228242   2.971   3.745   1.958
 9115SOL     OW28243   1.203   4.698   3.926
 9115SOL    HW128244   1.153   4.625   3.974
 9115SOL    HW228245   1.283   4.724   3.980
 9116SOL     OW28246   3.878   2.474   0.016
 9116SOL    HW128247   3.830   2.562   0.017
 9116SOL    HW228248   3.971   2.488   7.012
 9117SOL     OW28249   1.265   2.483   0.261
 9117SOL    HW128250   1.361   2.476   0.233
 9117SOL    HW228251   1.206   2.486   0.180
 9118SOL     OW28252   0.741   6.856   1.906
 9118SOL    HW128253   0.766   6.783   1.968
 9118SOL    HW228254   0.656   6.899   1.938
 9119SOL     OW28255   6.214   0.319   0.360
 9119SOL    HW128256   6.158   0.310   0.442
 9119SOL    HW228257   6.311   0.326   0.385
 9120SOL     OW28258   6.125   6.788   6.375
 9120SOL    HW128259   6.037   6.813   6.335
 9120SOL    HW228260   6.133   6.688   6.376
 9121SOL     OW28261   1.067   0.564   6.215
 9121SOL    HW128262   1.092   0.625   6.140
 9121SOL    HW228263   1.052   0.619   6.298
 9122SOL     OW28264   0.076   3.290   1.071
 9122SOL    HW128265   0.010   3.216   1.083
 9122SOL    HW228266   0.124   3.306   1.157
 9123SOL     OW28267   1.565   6.987   5.622
 9123SOL    HW128268   1.575   0.009   5.537
 9123SOL    HW228269   1.640   6.921   5.630
 9124SOL     OW28270   0.592   4.393   5.132
 9124SOL    HW128271   0.590   4.432   5.224
 9124SOL    HW228272   0.680   4.349   5.117
 9125SOL     OW28273   4.774   6.126   1.783
 9125SOL    HW128274   4.804   6.178   1.703
 9125SOL    HW228275   4.836   6.048   1.797
 9126SOL     OW28276   5.206   0.838   3.564
 9126SOL    HW128277   5.269   0.764   3.541
 9126SOL    HW228278   5.203   0.850   3.663
 9127SOL     OW28279   5.968   4.884   5.908
 9127SOL    HW128280   5.931   4.956   5.968
 9127SOL    HW228281   5.897   4.815   5.892
 9128SOL     OW28282   4.755   2.965   5.080
 9128SOL    HW128283   4.835   2.907   5.098
 9128SOL    HW228284   4.758   3.045   5.139
 9129SOL     OW28285   3.428   0.861   0.757
 9129SOL    HW128286   3.465   0.771   0.783
 9129SOL    HW228287   3.338   0.872   0.797
 9130SOL     OW28288   5.926   5.283   1.687
 9130SOL    HW128289   5.910   5.322   1.596
 9130SOL    HW228290   5.967   5.353   1.745
 9131SOL     OW28291   0.616   4.871   3.821
 9131SOL    HW128292   0.629   4.969   3.813
 9131SOL    HW228293   0.677   4.834   3.891
 9132SOL     OW28294   1.193   2.870   4.096
 9132SOL    HW128295   1.202   2.777   4.059
 9132SOL    HW228296   1.146   2.867   4.184
 9133SOL     OW28297   1.689   4.975   0.870
 9133SOL    HW128298   1.706   5.015   0.780
 9133SOL    HW228299   1.608   5.018   0.910
 9134SOL     OW28300   3.174   5.172   6.317
 9134SOL    HW128301   3.079   5.168   6.347
 9134SOL    HW228302   3.197   5.266   6.290
 9135SOL     OW28303   1.208   0.279   2.642
 9135SOL    HW128304   1.253   0.366   2.664
 9135SOL    HW228305   1.118   0.297   2.602
 9136SOL     OW28306   3.741   5.521   6.047
 9136SOL    HW128307   3.740   5.586   5.971
 9136SOL    HW228308   3.796   5.558   6.122
 9137SOL     OW28309   3.130   0.418   2.654
 9137SOL    HW128310   3.183   0.383   2.577
 9137SOL    HW228311   3.176   0.498   2.692
 9138SOL     OW28312   3.883   4.713   1.185
 9138SOL    HW128313   3.830   4.669   1.112
 9138SOL    HW228314   3.875   4.812   1.177
 9139SOL     OW28315   4.504   0.794   5.459
 9139SOL    HW128316   4.593   0.836   5.476
 9139SOL    HW228317   4.451   0.791   5.544
 9140SOL     OW28318   6.404   2.347   4.259
 9140SOL    HW128319   6.349   2.341   4.176
 9140SOL    HW228320   6.357   2.403   4.327
 9141SOL     OW28321   5.372   1.459   5.063
 9141SOL    HW128322   5.400   1.392   5.131
 9141SOL    HW228323   5.284   1.499   5.091
 9142SOL     OW28324   2.003   2.643   6.530
 9142SOL    HW128325   2.078   2.692   6.575
 9142SOL    HW228326   1.949   2.708   6.476
 9143SOL     OW28327   6.828   3.971   0.773
 9143SOL    HW128328   6.870   3.882   0.755
 9143SOL    HW228329   6.881   4.043   0.728
 9144SOL     OW28330   1.280   5.989   3.987
 9144SOL    HW128331   1.188   5.993   3.947
 9144SOL    HW228332   1.299   5.895   4.015
 9145SOL     OW28333   1.705   3.268   6.841
 9145SOL    HW128334   1.771   3.336   6.875
 9145SOL    HW228335   1.686   3.287   6.744
 9146SOL     OW28336   0.781   1.468   1.716
 9146SOL    HW128337   0.848   1.399   1.744
 9146SOL    HW228338   0.780   1.543   1.782
 9147SOL     OW28339   4.399   5.556   6.713
 9147SOL    HW128340   4.318   5.499   6.722
 9147SOL    HW228341   4.480   5.503   6.740
 9148SOL     OW28342   3.725   4.973   2.895
 9148SOL    HW128343   3.772   4.954   2.980
 9148SOL    HW228344   3.788   5.014   2.830
 9149SOL     OW28345   6.328   3.506   4.811
 9149SOL    HW128346   6.250   3.565   4.833
 9149SOL    HW228347   6.317   3.418   4.858
 9150SOL     OW28348   3.527   1.437   3.154
 9150SOL    HW128349   3.604   1.424   3.091
 9150SOL    HW228350   3.446   1.389   3.119
 9151SOL     OW28351   6.085   3.535   1.804
 9151SOL    HW128352   6.053   3.443   1.781
 9151SOL    HW228353   6.041   3.564   1.889
 9152SOL     OW28354   1.823   4.711   2.383
 9152SOL    HW128355   1.747   4.753   2.334
 9152SOL    HW228356   1.906   4.764   2.367
 9153SOL     OW28357   2.319   2.666   0.523
 9153SOL    HW128358   2.413   2.630   0.521
 9153SOL    HW228359   2.319   2.761   0.491
 9154SOL     OW28360   0.726   5.077   0.657
 9154SOL    HW128361   0.711   5.018   0.578
 9154SOL    HW228362   0.817   5.058   0.695
 9155SOL     OW28363   2.180   4.917   0.007
 9155SOL    HW128364   2.163   4.823   7.005
 9155SOL    HW228365   2.107   4.945   0.068
 9156SOL     OW28366   4.762   2.496   2.012
 9156SOL    HW128367   4.811   2.434   2.072
 9156SOL    HW228368   4.768   2.589   2.048
 9157SOL     OW28369   5.335   3.914   5.432
 9157SOL    HW128370   5.312   3.838   5.371
 9157SOL    HW228371   5.304   3.893   5.525
 9158SOL     OW28372   0.754   4.512   3.785
 9158SOL    HW128373   0.746   4.466   3.696
 9158SOL    HW228374   0.831   4.576   3.782
 9159SOL     OW28375   0.156   5.709   1.775
 9159SOL    HW128376   0.226   5.693   1.845
 9159SOL    HW228377   0.123   5.803   1.782
 9160SOL     OW28378   0.809   6.390   0.368
 9160SOL    HW128379   0.744   6.464   0.383
 9160SOL    HW228380   0.862   6.408   0.285
 9161SOL     OW28381   5.087   2.834   1.991
 9161SOL    HW128382   5.109   2.927   2.021
 9161SOL    HW228383   5.006   2.836   1.933
 9162SOL     OW28384   5.609   2.875   3.605
 9162SOL    HW128385   5.646   2.797   3.657
 9162SOL    HW228386   5.519   2.899   3.641
 9163SOL     OW28387   3.875   0.839   4.933
 9163SOL    HW128388   3.794   0.868   4.984
 9163SOL    HW228389   3.944   0.804   4.997
 9164SOL     OW28390   2.742   0.269   0.853
 9164SOL    HW128391   2.765   0.349   0.797
 9164SOL    HW228392   2.812   0.199   0.841
 9165SOL     OW28393   5.266   6.064   1.357
 9165SOL    HW128394   5.289   6.029   1.266
 9165SOL    HW228395   5.167   6.065   1.369
 9166SOL     OW28396   3.621   4.960   1.137
 9166SOL    HW128397   3.714   4.997   1.140
 9166SOL    HW228398   3.557   5.030   1.169
 9167SOL     OW28399   1.053   3.625   4.560
 9167SOL    HW128400   1.057   3.533   4.520
 9167SOL    HW228401   1.029   3.618   4.657
 9168SOL     OW28402   4.334   0.928   0.331
 9168SOL    HW128403   4.328   0.981   0.416
 9168SOL    HW228404   4.377   0.840   0.350
 9169SOL     OW28405   0.814   0.057   4.055
 9169SOL    HW128406   0.853   0.024   4.141
 9169SOL    HW228407   0.820   7.015   3.986
 9170SOL     OW28408   6.263   5.465   0.573
 9170SOL    HW128409   6.207   5.409   0.634
 9170SOL    HW228410   6.353   5.479   0.614
 9171SOL     OW28411   4.019   5.727   4.435
 9171SOL    HW128412   4.062   5.676   4.509
 9171SOL    HW228413   4.036   5.679   4.348
 9172SOL     OW28414   1.868   1.873   3.898
 9172SOL    HW128415   1.917   1.953   3.861
 9172SOL    HW228416   1.934   1.804   3.926
 9173SOL     OW28417   6.544   5.224   5.181
 9173SOL    HW128418   6.520   5.147   5.122
 9173SOL    HW228419   6.642   5.243   5.173
 9174SOL     OW28420   0.148   5.393   6.098
 9174SOL    HW128421   0.096   5.476   6.116
 9174SOL    HW228422   0.131   5.326   6.171
 9175SOL     OW28423   1.905   6.494   6.423
 9175SOL    HW128424   1.991   6.489   6.474
 9175SOL    HW228425   1.894   6.587   6.388
 9176SOL     OW28426   1.392   2.691   5.985
 9176SOL    HW128427   1.315   2.673   5.923
 9176SOL    HW228428   1.362   2.677   6.079
 9177SOL     OW28429   1.891   4.403   2.681
 9177SOL    HW128430   1.902   4.502   2.685
 9177SOL    HW228431   1.819   4.379   2.615
 9178SOL     OW28432   1.570   3.964   0.177
 9178SOL    HW128433   1.498   3.940   0.112
 9178SOL    HW228434   1.552   3.921   0.265
 9179SOL     OW28435   3.109   4.343   5.292
 9179SOL    HW128436   3.171   4.410   5.333
 9179SOL    HW228437   3.028   4.390   5.256
 9180SOL     OW28438   5.109   1.315   2.004
 9180SOL    HW128439   5.195   1.338   1.959
 9180SOL    HW228440   5.127   1.248   2.077
 9181SOL     OW28441   3.729   1.192   2.551
 9181SOL    HW128442   3.706   1.191   2.454
 9181SOL    HW228443   3.648   1.218   2.604
 9182SOL     OW28444   2.343   6.865   1.357
 9182SOL    HW128445   2.390   6.777   1.352
 9182SOL    HW228446   2.248   6.850   1.382
 9183SOL     OW28447   5.208   4.800   5.153
 9183SOL    HW128448   5.299   4.807   5.112
 9183SOL    HW228449   5.217   4.771   5.249
 9184SOL     OW28450   5.420   0.058   0.063
 9184SOL    HW128451   5.360   0.061   7.013
 9184SOL    HW228452   5.449   6.994   0.080
 9185SOL     OW28453   5.294   1.306   4.827
 9185SOL    HW128454   5.198   1.334   4.830
 9185SOL    HW228455   5.348   1.366   4.887
 9186SOL     OW28456   4.995   0.932   5.705
 9186SOL    HW128457   5.032   0.945   5.797
 9186SOL    HW228458   5.071   0.922   5.640
 9187SOL     OW28459   2.049   6.390   3.132
 9187SOL    HW128460   1.969   6.346   3.094
 9187SOL    HW228461   2.095   6.327   3.196
 9188SOL     OW28462   3.129   5.483   0.449
 9188SOL    HW128463   3.039   5.446   0.472
 9188SOL    HW228464   3.186   5.486   0.530
 9189SOL     OW28465   5.452   4.652   1.790
 9189SOL    HW128466   5.551   4.663   1.784
 9189SOL    HW228467   5.420   4.596   1.714
 9190SOL     OW28468   1.474   5.880   0.142
 9190SOL    HW128469   1.380   5.853   0.162
 9190SOL    HW228470   1.496   5.856   0.047
 9191SOL     OW28471   6.484   0.335   6.689
 9191SOL    HW128472   6.432   0.360   6.770
 9191SOL    HW228473   6.421   0.321   6.612
 9192SOL     OW28474   1.162   3.237   4.832
 9192SOL    HW128475   1.193   3.246   4.737
 9192SOL    HW228476   1.134   3.142   4.849
 9193SOL     OW28477   4.392   3.797   0.320
 9193SOL    HW128478   4.293   3.785   0.311
 9193SOL    HW228479   4.413   3.895   0.315
 9194SOL     OW28480   3.238   0.423   4.441
 9194SOL    HW128481   3.154   0.414   4.388
 9194SOL    HW228482   3.317   0.411   4.380
 9195SOL     OW28483   1.736   1.647   3.807
 9195SOL    HW128484   1.783   1.717   3.861
 9195SOL    HW228485   1.643   1.636   3.841
 9196SOL     OW28486   5.235   1.169   5.681
 9196SOL    HW128487   5.137   1.188   5.677
 9196SOL    HW228488   5.280   1.237   5.739
 9197SOL     OW28489   2.878   3.507   0.365
 9197SOL    HW128490   2.859   3.603   0.342
 9197SOL    HW228491   2.874   3.451   0.283
 9198SOL     OW28492   1.266   4.146   5.024
 9198SOL    HW128493   1.364   4.165   5.016
 9198SOL    HW228494   1.235   4.095   4.944
 9199SOL     OW28495   6.285   5.192   4.750
 9199SOL    HW128496   6.305   5.288   4.731
 9199SOL    HW228497   6.304   5.172   4.846
 9200SOL     OW28498   3.200   6.145   1.034
 9200SOL    HW128499   3.259   6.067   1.011
 9200SOL    HW228500   3.140   6.164   0.957
 9201SOL     OW28501   2.369   4.920   1.326
 9201SOL    HW128502   2.408   4.869   1.249
 9201SOL    HW228503   2.408   4.885   1.412
 9202SOL     OW28504   2.741   1.316   3.873
 9202SOL    HW128505   2.789   1.377   3.937
 9202SOL    HW228506   2.645   1.310   3.899
 9203SOL     OW28507   6.668   6.556   1.172
 9203SOL    HW128508   6.617   6.614   1.108
 9203SOL    HW228509   6.658   6.460   1.146
 9204SOL     OW28510   5.763   0.327   5.224
 9204SOL    HW128511   5.744   0.232   5.247
 9204SOL    HW228512   5.681   0.368   5.183
 9205SOL     OW28513   6.955   5.101   2.812
 9205SOL    HW128514   7.027   5.148   2.863
 9205SOL    HW228515   6.866   5.121   2.854
 9206SOL     OW28516   4.108   0.333   6.921
 9206SOL    HW128517   4.076   0.428   6.911
 9206SOL    HW228518   4.130   0.296   6.831
 9207SOL     OW28519   5.276   5.450   6.302
 9207SOL    HW128520   5.197   5.442   6.363
 9207SOL    HW228521   5.246   5.488   6.214
 9208SOL     OW28522   1.107   3.588   2.078
 9208SOL    HW128523   1.073   3.497   2.100
 9208SOL    HW228524   1.207   3.587   2.080
 9209SOL     OW28525   2.268   6.240   6.676
 9209SOL    HW128526   2.242   6.206   6.586
 9209SOL    HW228527   2.225   6.329   6.692
 9210SOL     OW28528   6.441   0.429   3.944
 9210SOL    HW128529   6.484   0.479   3.868
 9210SOL    HW228530   6.361   0.380   3.910
 9211SOL     OW28531   0.809   1.284   3.280
 9211SOL    HW128532   0.862   1.322   3.355
 9211SOL    HW228533   0.869   1.234   3.218
 9212SOL     OW28534   4.726   4.742   4.764
 9212SOL    HW128535   4.659   4.668   4.763
 9212SOL    HW228536   4.694   4.815   4.826
 9213SOL     OW28537   6.098   3.507   0.695
 9213SOL    HW128538   6.197   3.512   0.702
 9213SOL    HW228539   6.072   3.473   0.604
 9214SOL     OW28540   0.099   5.291   0.759
 9214SOL    HW128541   0.195   5.276   0.784
 9214SOL    HW228542   0.051   5.332   0.837
 9215SOL     OW28543   0.908   1.459   1.254
 9215SOL    HW128544   0.812   1.433   1.259
 9215SOL    HW228545   0.959   1.391   1.202
 9216SOL     OW28546   1.498   6.983   3.937
 9216SOL    HW128547   1.486   6.919   3.861
 9216SOL    HW228548   1.553   0.031   3.907
 9217SOL     OW28549   0.370   1.977   1.080
 9217SOL    HW128550   0.332   2.056   1.033
 9217SOL    HW228551   0.444   1.938   1.024
 9218SOL     OW28552   2.851   0.937   1.028
 9218SOL    HW128553   2.792   0.922   1.108
 9218SOL    HW228554   2.898   0.851   1.005
 9219SOL     OW28555   5.666   1.006   0.789
 9219SOL    HW128556   5.627   0.936   0.850
 9219SOL    HW228557   5.688   1.088   0.842
 9220SOL     OW28558   3.910   6.187   0.488
 9220SOL    HW128559   3.838   6.195   0.558
 9220SOL    HW228560   3.870   6.149   0.404
 9221SOL     OW28561   2.981   5.002   4.921
 9221SOL    HW128562   3.070   5.003   4.966
 9221SOL    HW228563   2.912   4.968   4.985
 9222SOL     OW28564   3.144   2.436   6.920
 9222SOL    HW128565   3.166   2.338   6.913
 9222SOL    HW228566   3.112   2.469   6.831
 9223SOL     OW28567   2.724   3.149   5.310
 9223SOL    HW128568   2.723   3.244   5.279
 9223SOL    HW228569   2.636   3.106   5.289
 9224SOL     OW28570   2.350   4.560   5.247
 9224SOL    HW128571   2.318   4.476   5.290
 9224SOL    HW228572   2.449   4.570   5.262
 9225SOL     OW28573   1.317   5.725   6.670
 9225SOL    HW128574   1.305   5.707   6.768
 9225SOL    HW228575   1.261   5.803   6.643
 9226SOL     OW28576   5.033   6.182   0.550
 9226SOL    HW128577   5.123   6.211   0.517
 9226SOL    HW228578   4.962   6.217   0.489
 9227SOL     OW28579   1.270   6.204   1.885
 9227SOL    HW128580   1.248   6.118   1.932
 9227SOL    HW228581   1.358   6.238   1.917
 9228SOL     OW28582   1.135   5.948   6.627
 9228SOL    HW128583   1.036   5.956   6.635
 9228SOL    HW228584   1.173   6.035   6.597
 9229SOL     OW28585   1.117   5.846   4.959
 9229SOL    HW128586   1.148   5.921   5.017
 9229SOL    HW228587   1.157   5.760   4.991
 9230SOL     OW28588   4.846   1.112   3.401
 9230SOL    HW128589   4.758   1.083   3.364
 9230SOL    HW228590   4.920   1.082   3.340
 9231SOL     OW28591   2.171   3.137   3.442
 9231SOL    HW128592   2.086   3.086   3.453
 9231SOL    HW228593   2.247   3.074   3.426
 9232SOL     OW28594   4.382   5.243   1.034
 9232SOL    HW128595   4.332   5.265   0.950
 9232SOL    HW228596   4.336   5.167   1.081
 9233SOL     OW28597   6.450   4.312   0.572
 9233SOL    HW128598   6.417   4.395   0.525
 9233SOL    HW228599   6.395   4.296   0.654
 9234SOL     OW28600   1.236   6.392   3.921
 9234SOL    HW128601   1.258   6.470   3.979
 9234SOL    HW228602   1.212   6.423   3.829
 9235SOL     OW28603   1.119   2.764   3.128
 9235SOL    HW128604   1.027   2.733   3.105
 9235SOL    HW228605   1.114   2.834   3.200
 9236SOL     OW28606   3.474   2.505   6.632
 9236SOL    HW128607   3.417   2.536   6.556
 9236SOL    HW228608   3.566   2.482   6.598
 9237SOL     OW28609   1.575   3.760   2.830
 9237SOL    HW128610   1.647   3.828   2.812
 9237SOL    HW228611   1.500   3.774   2.766
 9238SOL     OW28612   4.208   4.193   6.907
 9238SOL    HW128613   4.209   4.259   6.982
 9238SOL    HW228614   4.152   4.229   6.832
 9239SOL     OW28615   2.113   3.362   6.786
 9239SOL    HW128616   2.032   3.400   6.832
 9239SOL    HW228617   2.084   3.313   6.704
 9240SOL     OW28618   4.625   0.581   2.339
 9240SOL    HW128619   4.542   0.533   2.367
 9240SOL    HW228620   4.671   0.617   2.421
 9241SOL     OW28621   0.757   5.790   5.368
 9241SOL    HW128622   0.792   5.750   5.453
 9241SOL    HW228623   0.826   5.779   5.296
 9242SOL     OW28624   5.045   6.920   1.715
 9242SOL    HW128625   5.001   7.008   1.734
 9242SOL    HW228626   5.035   6.860   1.795
 9243SOL     OW28627   5.719   0.292   4.307
 9243SOL    HW128628   5.634   0.342   4.289
 9243SOL    HW228629   5.706   0.195   4.285
 9244SOL     OW28630   3.549   6.388   0.465
 9244SOL    HW128631   3.477   6.368   0.531
 9244SOL    HW228632   3.624   6.437   0.511
 9245SOL     OW28633   0.377   6.833   2.414
 9245SOL    HW128634   0.331   6.748   2.389
 9245SOL    HW228635   0.310   6.900   2.444
 9246SOL     OW28636   6.621   5.668   3.819
 9246SOL    HW128637   6.598   5.733   3.746
 9246SOL    HW228638   6.720   5.651   3.818
 9247SOL     OW28639   0.545   0.822   2.744
 9247SOL    HW128640   0.585   0.850   2.832
 9247SOL    HW228641   0.463   0.876   2.726
 9248SOL     OW28642   4.381   1.667   6.250
 9248SOL    HW128643   4.308   1.609   6.215
 9248SOL    HW228644   4.468   1.641   6.206
 9249SOL     OW28645   3.822   6.584   4.168
 9249SOL    HW128646   3.810   6.682   4.155
 9249SOL    HW228647   3.912   6.567   4.208
 9250SOL     OW28648   4.887   3.649   3.335
 9250SOL    HW128649   4.884   3.739   3.378
 9250SOL    HW228650   4.917   3.658   3.240
 9251SOL     OW28651   4.320   1.943   2.403
 9251SOL    HW128652   4.242   2.005   2.402
 9251SOL    HW228653   4.299   1.864   2.460
 9252SOL     OW28654   1.672   6.900   5.093
 9252SOL    HW128655   1.713   6.988   5.067
 9252SOL    HW228656   1.680   6.836   5.017
 9253SOL     OW28657   1.195   6.677   5.834
 9253SOL    HW128658   1.150   6.757   5.874
 9253SOL    HW228659   1.269   6.707   5.775
 9254SOL     OW28660   4.632   2.459   0.740
 9254SOL    HW128661   4.662   2.370   0.775
 9254SOL    HW228662   4.700   2.494   0.676
 9255SOL     OW28663   0.131   4.811   0.252
 9255SOL    HW128664   0.208   4.865   0.286
 9255SOL    HW228665   0.065   4.795   0.326
 9256SOL     OW28666   3.852   5.416   2.838
 9256SOL    HW128667   3.837   5.494   2.899
 9256SOL    HW228668   3.773   5.355   2.842
 9257SOL     OW28669   0.804   3.785   0.713
 9257SOL    HW128670   0.748   3.812   0.791
 9257SOL    HW228671   0.854   3.864   0.678
 9258SOL     OW28672   3.252   2.852   5.150
 9258SOL    HW128673   3.167   2.892   5.185
 9258SOL    HW228674   3.256   2.755   5.173
 9259SOL     OW28675   1.862   2.780   0.738
 9259SOL    HW128676   1.919   2.699   0.724
 9259SOL    HW228677   1.914   2.862   0.713
 9260SOL     OW28678   6.577   3.931   0.615
 9260SOL    HW128679   6.650   3.975   0.668
 9260SOL    HW228680   6.597   3.938   0.518
 9261SOL     OW28681   2.173   6.655   5.401
 9261SOL    HW128682   2.184   6.607   5.314
 9261SOL    HW228683   2.111   6.732   5.389
 9262SOL     OW28684   5.950   6.947   6.578
 9262SOL    HW128685   5.886   6.901   6.640
 9262SOL    HW228686   5.975   6.886   6.504
 9263SOL     OW28687   5.679   3.877   2.599
 9263SOL    HW128688   5.697   3.972   2.572
 9263SOL    HW228689   5.716   3.861   2.691
 9264SOL     OW28690   5.453   2.085   0.307
 9264SOL    HW128691   5.499   2.173   0.296
 9264SOL    HW228692   5.363   2.088   0.263
 9265SOL     OW28693   1.651   1.452   5.745
 9265SOL    HW128694   1.747   1.440   5.719
 9265SOL    HW228695   1.599   1.489   5.667
 9266SOL     OW28696   2.909   6.709   2.989
 9266SOL    HW128697   2.916   6.703   3.089
 9266SOL    HW228698   2.974   6.646   2.947
 9267SOL     OW28699   3.015   4.593   6.268
 9267SOL    HW128700   2.988   4.673   6.322
 9267SOL    HW228701   3.055   4.623   6.182
 9268SOL     OW28702   1.001   1.188   3.116
 9268SOL    HW128703   0.964   1.151   3.031
 9268SOL    HW228704   1.031   1.113   3.175
 9269SOL     OW28705   4.097   1.530   5.112
 9269SOL    HW128706   4.033   1.545   5.037
 9269SOL    HW228707   4.169   1.468   5.082
 9270SOL     OW28708   1.721   0.465   5.387
 9270SOL    HW128709   1.807   0.500   5.425
 9270SOL    HW228710   1.726   0.463   5.288
 9271SOL     OW28711   0.165   5.601   5.625
 9271SOL    HW128712   0.241   5.558   5.576
 9271SOL    HW228713   0.078   5.565   5.590
 9272SOL     OW28714   2.307   5.145   0.070
 9272SOL    HW128715   2.250   5.066   0.045
 9272SOL    HW228716   2.349   5.183   7.017
 9273SOL     OW28717   3.301   5.265   5.906
 9273SOL    HW128718   3.338   5.326   5.976
 9273SOL    HW228719   3.368   5.194   5.884
 9274SOL     OW28720   4.896   1.538   1.730
 9274SOL    HW128721   4.855   1.500   1.812
 9274SOL    HW228722   4.950   1.619   1.753
 9275SOL     OW28723   6.782   0.258   6.385
 9275SOL    HW128724   6.818   0.196   6.455
 9275SOL    HW228725   6.695   0.224   6.351
 9276SOL     OW28726   5.215   0.481   4.037
 9276SOL    HW128727   5.228   0.569   4.083
 9276SOL    HW228728   5.259   0.484   3.948
 9277SOL     OW28729   5.270   2.527   6.497
 9277SOL    HW128730   5.247   2.443   6.448
 9277SOL    HW228731   5.312   2.504   6.585
 9278SOL     OW28732   1.326   2.137   1.095
 9278SOL    HW128733   1.277   2.050   1.092
 9278SOL    HW228734   1.270   2.208   1.054
 9279SOL     OW28735   2.253   0.251   0.821
 9279SOL    HW128736   2.333   0.209   0.865
 9279SOL    HW228737   2.273   0.268   0.725
 9280SOL     OW28738   1.839   0.697   2.041
 9280SOL    HW128739   1.814   0.749   1.959
 9280SOL    HW228740   1.757   0.665   2.087
 9281SOL     OW28741   1.656   2.418   0.576
 9281SOL    HW128742   1.732   2.364   0.612
 9281SOL    HW228743   1.687   2.470   0.496
 9282SOL     OW28744   4.111   0.552   5.921
 9282SOL    HW128745   4.019   0.516   5.938
 9282SOL    HW228746   4.136   0.537   5.826
 9283SOL     OW28747   5.681   2.621   3.307
 9283SOL    HW128748   5.735   2.582   3.382
 9283SOL    HW228749   5.743   2.660   3.239
 9284SOL     OW28750   3.893   3.838   2.235
 9284SOL    HW128751   3.986   3.813   2.207
 9284SOL    HW228752   3.837   3.852   2.154
 9285SOL     OW28753   6.431   2.635   6.880
 9285SOL    HW128754   6.425   2.712   6.817
 9285SOL    HW228755   6.514   2.582   6.861
 9286SOL     OW28756   5.549   5.495   4.455
 9286SOL    HW128757   5.564   5.485   4.357
 9286SOL    HW228758   5.457   5.531   4.471
 9287SOL     OW28759   3.420   0.018   2.488
 9287SOL    HW128760   3.516   0.047   2.486
 9287SOL    HW228761   3.405   6.979   2.417
 9288SOL     OW28762   4.350   1.804   6.932
 9288SOL    HW128763   4.421   1.871   6.911
 9288SOL    HW228764   4.308   1.827   7.020
 9289SOL     OW28765   5.375   3.586   3.452
 9289SOL    HW128766   5.465   3.552   3.427
 9289SOL    HW228767   5.346   3.546   3.538
 9290SOL     OW28768   4.026   2.197   4.386
 9290SOL    HW128769   3.955   2.201   4.316
 9290SOL    HW228770   4.113   2.228   4.348
 9291SOL     OW28771   0.532   3.144   4.815
 9291SOL    HW128772   0.485   3.188   4.892
 9291SOL    HW228773   0.530   3.045   4.827
 9292SOL     OW28774   1.553   4.363   0.025
 9292SOL    HW128775   1.483   4.293   0.012
 9292SOL    HW228776   1.582   4.398   6.966
 9293SOL     OW28777   5.276   3.523   6.209
 9293SOL    HW128778   5.272   3.424   6.217
 9293SOL    HW228779   5.244   3.550   6.118
 9294SOL     OW28780   5.536   5.485   6.861
 9294SOL    HW128781   5.592   5.565   6.839
 9294SOL    HW228782   5.549   5.460   6.956
 9295SOL     OW28783   4.829   2.796   3.297
 9295SOL    HW128784   4.866   2.789   3.205
 9295SOL    HW228785   4.853   2.885   3.336
 9296SOL     OW28786   5.988   0.493   4.803
 9296SOL    HW128787   5.888   0.496   4.813
 9296SOL    HW228788   6.030   0.533   4.884
 9297SOL     OW28789   0.376   6.725   1.740
 9297SOL    HW128790   0.331   6.726   1.829
 9297SOL    HW228791   0.428   6.640   1.730
 9298SOL     OW28792   7.013   6.792   4.271
 9298SOL    HW128793   6.933   6.732   4.278
 9298SOL    HW228794   6.983   6.887   4.274
 9299SOL     OW28795   1.597   2.395   4.672
 9299SOL    HW128796   1.565   2.376   4.580
 9299SOL    HW228797   1.677   2.456   4.668
 9300SOL     OW28798   5.988   4.847   4.113
 9300SOL    HW128799   5.957   4.775   4.175
 9300SOL    HW228800   5.911   4.903   4.085
 9301SOL     OW28801   6.545   4.772   1.359
 9301SOL    HW128802   6.456   4.726   1.351
 9301SOL    HW228803   6.576   4.799   1.268
 9302SOL     OW28804   1.198   2.183   2.735
 9302SOL    HW128805   1.162   2.209   2.645
 9302SOL    HW228806   1.235   2.090   2.730
 9303SOL     OW28807   4.771   4.243   0.529
 9303SOL    HW128808   4.714   4.262   0.449
 9303SOL    HW228809   4.823   4.159   0.513
 9304SOL     OW28810   4.928   3.536   0.760
 9304SOL    HW128811   4.855   3.471   0.782
 9304SOL    HW228812   4.954   3.587   0.842
 9305SOL     OW28813   4.709   4.054   1.716
 9305SOL    HW128814   4.659   3.985   1.665
 9305SOL    HW228815   4.646   4.124   1.749
 9306SOL     OW28816   0.297   6.343   2.788
 9306SOL    HW128817   0.388   6.326   2.750
 9306SOL    HW228818   0.303   6.353   2.887
 9307SOL     OW28819   2.021   0.776   6.323
 9307SOL    HW128820   2.073   0.695   6.347
 9307SOL    HW228821   1.924   0.754   6.320
 9308SOL     OW28822   0.370   2.058   0.221
 9308SOL    HW128823   0.412   2.088   0.307
 9308SOL    HW228824   0.408   2.111   0.145
 9309SOL     OW28825   4.163   3.005   0.085
 9309SOL    HW128826   4.102   2.946   0.033
 9309SOL    HW228827   4.110   3.053   0.156
 9310SOL     OW28828   3.859   6.171   1.177
 9310SOL    HW128829   3.789   6.156   1.246
 9310SOL    HW228830   3.839   6.115   1.096
 9311SOL     OW28831   0.454   3.265   1.245
 9311SOL    HW128832   0.429   3.233   1.336
 9311SOL    HW228833   0.534   3.213   1.212
 9312SOL     OW28834   1.906   3.802   4.772
 9312SOL    HW128835   1.836   3.820   4.702
 9312SOL    HW228836   1.992   3.779   4.727
 9313SOL     OW28837   6.521   0.469   3.061
 9313SOL    HW128838   6.518   0.380   3.015
 9313SOL    HW228839   6.602   0.519   3.031
 9314SOL     OW28840   6.949   3.702   0.413
 9314SOL    HW128841   0.019   3.715   0.406
 9314SOL    HW228842   6.920   3.632   0.349
 9315SOL     OW28843   0.346   6.022   6.065
 9315SOL    HW128844   0.269   6.063   6.017
 9315SOL    HW228845   0.359   6.068   6.152
 9316SOL     OW28846   2.940   4.896   4.625
 9316SOL    HW128847   2.951   4.869   4.721
 9316SOL    HW228848   3.030   4.903   4.582
 9317SOL     OW28849   3.645   4.422   5.812
 9317SOL    HW128850   3.664   4.447   5.906
 9317SOL    HW228851   3.591   4.337   5.810
 9318SOL     OW28852   0.051   6.880   5.933
 9318SOL    HW128853   0.063   6.978   5.919
 9318SOL    HW228854   7.023   6.842   5.861
 9319SOL     OW28855   6.708   3.862   4.248
 9319SOL    HW128856   6.668   3.818   4.168
 9319SOL    HW228857   6.654   3.840   4.329
 9320SOL     OW28858   3.726   3.238   5.612
 9320SOL    HW128859   3.776   3.159   5.577
 9320SOL    HW228860   3.633   3.211   5.635
 9321SOL     OW28861   5.351   0.047   4.277
 9321SOL    HW128862   5.343   0.146   4.281
 9321SOL    HW228863   5.335   0.016   4.183
 9322SOL     OW28864   0.620   5.857   1.128
 9322SOL    HW128865   0.581   5.942   1.163
 9322SOL    HW228866   0.691   5.878   1.060
 9323SOL     OW28867   0.871   1.412   5.871
 9323SOL    HW128868   0.963   1.405   5.835
 9323SOL    HW228869   0.868   1.484   5.941
 9324SOL     OW28870   1.315   5.166   6.988
 9324SOL    HW128871   1.249   5.180   6.915
 9324SOL    HW228872   1.399   5.217   6.969
 9325SOL     OW28873   0.376   3.125   6.734
 9325SOL    HW128874   0.385   3.135   6.635
 9325SOL    HW228875   0.309   3.192   6.768
 9326SOL     OW28876   2.471   6.062   1.793
 9326SOL    HW128877   2.542   6.018   1.848
 9326SOL    HW228878   2.500   6.066   1.697
 9327SOL     OW28879   2.037   1.954   4.497
 9327SOL    HW128880   2.055   1.987   4.404
 9327SOL    HW228881   2.120   1.957   4.551
 9328SOL     OW28882   2.324   1.652   2.163
 9328SOL    HW128883   2.297   1.643   2.067
 9328SOL    HW228884   2.418   1.687   2.167
 9329SOL     OW28885   0.963   3.832   1.600
 9329SOL    HW128886   0.962   3.911   1.539
 9329SOL    HW228887   1.010   3.756   1.554
 9330SOL     OW28888   5.453   5.755   6.584
 9330SOL    HW128889   5.446   5.813   6.665
 9330SOL    HW228890   5.364   5.749   6.539
 9331SOL     OW28891   0.778   0.999   0.409
 9331SOL    HW128892   0.727   0.947   0.477
 9331SOL    HW228893   0.874   1.006   0.437
 9332SOL     OW28894   3.853   4.099   4.903
 9332SOL    HW128895   3.868   4.143   4.991
 9332SOL    HW228896   3.939   4.093   4.853
 9333SOL     OW28897   5.190   6.404   1.148
 9333SOL    HW128898   5.123   6.332   1.163
 9333SOL    HW228899   5.259   6.373   1.082
 9334SOL     OW28900   2.011   6.356   4.966
 9334SOL    HW128901   1.924   6.341   4.918
 9334SOL    HW228902   2.017   6.451   4.997
 9335SOL     OW28903   0.587   1.792   2.601
 9335SOL    HW128904   0.586   1.775   2.700
 9335SOL    HW228905   0.559   1.886   2.583
 9336SOL     OW28906   3.367   0.502   5.221
 9336SOL    HW128907   3.437   0.570   5.242
 9336SOL    HW228908   3.374   0.476   5.124
 9337SOL     OW28909   5.113   6.630   3.573
 9337SOL    HW128910   5.135   6.551   3.515
 9337SOL    HW228911   5.089   6.708   3.515
 9338SOL     OW28912   1.792   6.443   2.699
 9338SOL    HW128913   1.715   6.381   2.707
 9338SOL    HW228914   1.878   6.392   2.708
 9339SOL     OW28915   3.751   5.483   1.560
 9339SOL    HW128916   3.698   5.414   1.511
 9339SOL    HW228917   3.692   5.530   1.626
 9340SOL     OW28918   6.931   2.728   6.868
 9340SOL    HW128919   7.000   2.799   6.880
 9340SOL    HW228920   6.963   2.662   6.800
 9341SOL     OW28921   0.683   3.938   5.643
 9341SOL    HW128922   0.736   4.021   5.628
 9341SOL    HW228923   0.732   3.878   5.706
 9342SOL     OW28924   1.571   0.394   0.136
 9342SOL    HW128925   1.506   0.332   0.179
 9342SOL    HW228926   1.639   0.342   0.085
 9343SOL     OW28927   6.123   6.568   3.213
 9343SOL    HW128928   6.025   6.560   3.195
 9343SOL    HW228929   6.138   6.580   3.311
 9344SOL     OW28930   5.419   6.439   0.956
 9344SOL    HW128931   5.366   6.523   0.952
 9344SOL    HW228932   5.490   6.448   1.025
 9345SOL     OW28933   0.713   2.107   0.590
 9345SOL    HW128934   0.753   2.036   0.533
 9345SOL    HW228935   0.784   2.170   0.620
 9346SOL     OW28936   6.001   0.522   0.891
 9346SOL    HW128937   5.925   0.564   0.940
 9346SOL    HW228938   6.065   0.481   0.956
 9347SOL     OW28939   1.848   6.275   2.997
 9347SOL    HW128940   1.796   6.192   3.018
 9347SOL    HW228941   1.785   6.350   2.977
 9348SOL     OW28942   2.859   5.098   0.443
 9348SOL    HW128943   2.916   5.100   0.361
 9348SOL    HW228944   2.852   5.191   0.479
 9349SOL     OW28945   1.151   6.364   2.897
 9349SOL    HW128946   1.248   6.386   2.881
 9349SOL    HW228947   1.103   6.446   2.928
 9350SOL     OW28948   0.409   3.120   5.326
 9350SOL    HW128949   0.394   3.021   5.324
 9350SOL    HW228950   0.505   3.139   5.346
 9351SOL     OW28951   3.006   6.528   7.025
 9351SOL    HW128952   2.927   6.567   0.043
 9351SOL    HW228953   3.076   6.502   0.062
 9352SOL     OW28954   2.635   4.891   6.116
 9352SOL    HW128955   2.682   4.978   6.106
 9352SOL    HW228956   2.627   4.847   6.027
 9353SOL     OW28957   6.988   0.008   0.812
 9353SOL    HW128958   6.972   0.041   0.719
 9353SOL    HW228959   0.049   6.997   0.818
 9354SOL     OW28960   1.094   1.321   5.302
 9354SOL    HW128961   1.090   1.333   5.401
 9354SOL    HW228962   1.086   1.411   5.257
 9355SOL     OW28963   1.050   1.592   5.324
 9355SOL    HW128964   1.080   1.643   5.243
 9355SOL    HW228965   1.082   1.639   5.406
 9356SOL     OW28966   4.005   0.727   3.262
 9356SOL    HW128967   4.045   0.714   3.171
 9356SOL    HW228968   3.967   0.640   3.294
 9357SOL     OW28969   2.069   2.587   0.612
 9357SOL    HW128970   2.163   2.607   0.584
 9357SOL    HW228971   2.062   2.491   0.640
 9358SOL     OW28972   1.118   1.703   0.453
 9358SOL    HW128973   1.159   1.762   0.384
 9358SOL    HW228974   1.184   1.684   0.525
 9359SOL     OW28975   0.499   0.820   5.794
 9359SOL    HW128976   0.505   0.836   5.696
 9359SOL    HW228977   0.502   0.908   5.842
 9360SOL     OW28978   6.526   6.988   5.715
 9360SOL    HW128979   6.514   6.898   5.756
 9360SOL    HW228980   6.596   0.009   5.766
 9361SOL     OW28981   2.164   5.593   4.833
 9361SOL    HW128982   2.146   5.523   4.902
 9361SOL    HW228983   2.092   5.589   4.763
 9362SOL     OW28984   1.785   0.578   2.498
 9362SOL    HW128985   1.839   0.627   2.430
 9362SOL    HW228986   1.802   0.480   2.491
 9363SOL     OW28987   1.107   2.838   2.102
 9363SOL    HW128988   1.177   2.772   2.075
 9363SOL    HW228989   1.033   2.837   2.034
 9364SOL     OW28990   0.808   1.946   6.718
 9364SOL    HW128991   0.853   1.915   6.634
 9364SOL    HW228992   0.850   1.902   6.797
 9365SOL     OW28993   2.795   0.822   5.168
 9365SOL    HW128994   2.786   0.908   5.118
 9365SOL    HW228995   2.713   0.767   5.156
 9366SOL     OW28996   3.340   5.872   2.377
 9366SOL    HW128997   3.247   5.877   2.411
 9366SOL    HW228998   3.389   5.957   2.399
 9367SOL     OW28999   6.974   6.911   1.607
 9367SOL    HW129000   6.974   7.006   1.578
 9367SOL    HW229001   6.986   6.907   1.706
 9368SOL     OW29002   2.251   1.013   3.359
 9368SOL    HW129003   2.331   0.953   3.349
 9368SOL    HW229004   2.268   1.099   3.311
 9369SOL     OW29005   3.553   5.113   0.828
 9369SOL    HW129006   3.553   5.092   0.730
 9369SOL    HW229007   3.612   5.191   0.845
 9370SOL     OW29008   4.830   2.516   5.230
 9370SOL    HW129009   4.815   2.585   5.300
 9370SOL    HW229010   4.839   2.426   5.273
 9371SOL     OW29011   4.055   4.958   0.529
 9371SOL    HW129012   4.138   5.013   0.520
 9371SOL    HW229013   4.071   4.867   0.492
 9372SOL     OW29014   5.475   6.785   0.814
 9372SOL    HW129015   5.541   6.756   0.883
 9372SOL    HW229016   5.498   6.878   0.783
 9373SOL     OW29017   7.014   1.110   1.424
 9373SOL    HW129018   0.076   1.135   1.455
 9373SOL    HW229019   7.020   1.071   1.332
 9374SOL     OW29020   6.882   5.447   6.147
 9374SOL    HW129021   6.875   5.429   6.049
 9374SOL    HW229022   6.801   5.498   6.177
 9375SOL     OW29023   1.823   1.570   6.898
 9375SOL    HW129024   1.857   1.503   6.965
 9375SOL    HW229025   1.724   1.581   6.909
 9376SOL     OW29026   3.324   4.160   0.602
 9376SOL    HW129027   3.305   4.181   0.506
 9376SOL    HW229028   3.239   4.160   0.654
 9377SOL     OW29029   0.532   0.791   3.447
 9377SOL    HW129030   0.587   0.771   3.527
 9377SOL    HW229031   0.502   0.886   3.450
 9378SOL     OW29032   4.313   1.170   5.254
 9378SOL    HW129033   4.294   1.074   5.233
 9378SOL    HW229034   4.248   1.202   5.323
 9379SOL     OW29035   3.634   0.206   4.396
 9379SOL    HW129036   3.664   0.299   4.374
 9379SOL    HW229037   3.633   0.151   4.312
 9380SOL     OW29038   5.053   6.385   1.590
 9380SOL    HW129039   5.005   6.443   1.524
 9380SOL    HW229040   5.134   6.432   1.624
 9381SOL     OW29041   4.468   1.461   4.811
 9381SOL    HW129042   4.555   1.411   4.804
 9381SOL    HW229043   4.409   1.416   4.877
 9382SOL     OW29044   2.657   5.938   6.334
 9382SOL    HW129045   2.594   5.921   6.410
 9382SOL    HW229046   2.746   5.896   6.355
 9383SOL     OW29047   5.925   3.899   1.080
 9383SOL    HW129048   5.994   3.937   1.141
 9383SOL    HW229049   5.918   3.800   1.094
 9384SOL     OW29050   4.569   0.548   0.350
 9384SOL    HW129051   4.541   0.587   0.438
 9384SOL    HW229052   4.641   0.606   0.310
 9385SOL     OW29053   4.262   2.263   4.253
 9385SOL    HW129054   4.228   2.280   4.160
 9385SOL    HW229055   4.343   2.204   4.248
 9386SOL     OW29056   5.549   0.269   0.967
 9386SOL    HW129057   5.547   0.365   0.997
 9386SOL    HW229058   5.457   0.244   0.935
 9387SOL     OW29059   3.327   2.264   6.639
 9387SOL    HW129060   3.277   2.250   6.554
 9387SOL    HW229061   3.383   2.346   6.632
 9388SOL     OW29062   2.288   6.217   5.556
 9388SOL    HW129063   2.340   6.259   5.629
 9388SOL    HW229064   2.312   6.120   5.549
 9389SOL     OW29065   2.179   3.733   1.848
 9389SOL    HW129066   2.172   3.666   1.921
 9389SOL    HW229067   2.181   3.825   1.887
 9390SOL     OW29068   5.831   5.232   3.965
 9390SOL    HW129069   5.834   5.213   4.063
 9390SOL    HW229070   5.761   5.176   3.922
 9391SOL     OW29071   0.403   5.211   4.595
 9391SOL    HW129072   0.438   5.212   4.688
 9391SOL    HW229073   0.381   5.118   4.567
 9392SOL     OW29074   3.432   5.393   2.804
 9392SOL    HW129075   3.510   5.334   2.824
 9392SOL    HW229076   3.347   5.343   2.819
 9393SOL     OW29077   2.071   4.975   0.466
 9393SOL    HW129078   1.971   4.969   0.470
 9393SOL    HW229079   2.110   4.884   0.478
 9394SOL     OW29080   4.849   0.120   0.051
 9394SOL    HW129081   4.753   0.124   0.024
 9394SOL    HW229082   4.888   0.033   0.021
 9395SOL     OW29083   0.391   0.702   1.207
 9395SOL    HW129084   0.363   0.689   1.112
 9395SOL    HW229085   0.474   0.758   1.210
 9396SOL     OW29086   0.967   0.642   6.488
 9396SOL    HW129087   0.873   0.624   6.460
 9396SOL    HW229088   0.966   0.683   6.579
 9397SOL     OW29089   3.438   1.897   5.787
 9397SOL    HW129090   3.397   1.850   5.865
 9397SOL    HW229091   3.370   1.956   5.744
 9398SOL     OW29092   0.016   3.016   6.823
 9398SOL    HW129093   7.029   3.107   6.862
 9398SOL    HW229094   0.098   2.977   6.865
 9399SOL     OW29095   1.374   2.612   4.511
 9399SOL    HW129096   1.370   2.592   4.609
 9399SOL    HW229097   1.410   2.704   4.497
 9400SOL     OW29098   5.215   1.382   0.745
 9400SOL    HW129099   5.313   1.372   0.764
 9400SOL    HW229100   5.199   1.470   0.700
 9401SOL     OW29101   6.534   1.741   3.666
 9401SOL    HW129102   6.592   1.659   3.671
 9401SOL    HW229103   6.480   1.739   3.582
 9402SOL     OW29104   3.849   5.405   5.376
 9402SOL    HW129105   3.900   5.474   5.428
 9402SOL    HW229106   3.786   5.357   5.437
 9403SOL     OW29107   5.677   2.346   1.089
 9403SOL    HW129108   5.657   2.284   1.013
 9403SOL    HW229109   5.618   2.323   1.167
 9404SOL     OW29110   2.480   2.294   0.630
 9404SOL    HW129111   2.439   2.346   0.704
 9404SOL    HW229112   2.536   2.355   0.573
 9405SOL     OW29113   5.561   5.711   5.101
 9405SOL    HW129114   5.541   5.730   5.005
 9405SOL    HW229115   5.558   5.796   5.154
 9406SOL     OW29116   1.428   0.845   0.683
 9406SOL    HW129117   1.333   0.863   0.659
 9406SOL    HW229118   1.432   0.771   0.750
 9407SOL     OW29119   1.673   4.525   4.915
 9407SOL    HW129120   1.757   4.491   4.873
 9407SOL    HW229121   1.594   4.486   4.866
 9408SOL     OW29122   5.613   5.474   3.773
 9408SOL    HW129123   5.626   5.422   3.689
 9408SOL    HW229124   5.701   5.494   3.815
 9409SOL     OW29125   5.935   5.069   1.955
 9409SOL    HW129126   5.955   5.158   1.914
 9409SOL    HW229127   6.019   5.016   1.963
 9410SOL     OW29128   4.816   0.600   0.735
 9410SOL    HW129129   4.785   0.548   0.656
 9410SOL    HW229130   4.837   0.537   0.810
 9411SOL     OW29131   3.680   3.795   5.117
 9411SOL    HW129132   3.620   3.826   5.043
 9411SOL    HW229133   3.629   3.732   5.176
 9412SOL     OW29134   3.675   6.756   1.582
 9412SOL    HW129135   3.714   6.766   1.673
 9412SOL    HW229136   3.733   6.695   1.528
 9413SOL     OW29137   4.141   4.906   3.129
 9413SOL    HW129138   4.136   4.999   3.167
 9413SOL    HW229139   4.198   4.907   3.047
 9414SOL     OW29140   2.243   0.892   2.123
 9414SOL    HW129141   2.339   0.866   2.132
 9414SOL    HW229142   2.187   0.811   2.108
 9415SOL     OW29143   4.658   0.797   0.930
 9415SOL    HW129144   4.692   0.746   0.851
 9415SOL    HW229145   4.608   0.877   0.899
 9416SOL     OW29146   6.626   4.957   6.257
 9416SOL    HW129147   6.672   4.877   6.296
 9416SOL    HW229148   6.694   5.024   6.227
 9417SOL     OW29149   4.194   6.245   3.127
 9417SOL    HW129150   4.281   6.214   3.165
 9417SOL    HW229151   4.126   6.173   3.136
 9418SOL     OW29152   2.652   2.096   5.092
 9418SOL    HW129153   2.559   2.109   5.124
 9418SOL    HW229154   2.703   2.040   5.157
 9419SOL     OW29155   3.001   2.171   5.739
 9419SOL    HW129156   2.932   2.224   5.788
 9419SOL    HW229157   3.034   2.223   5.660
 9420SOL     OW29158   4.945   3.884   5.494
 9420SOL    HW129159   5.029   3.831   5.481
 9420SOL    HW229160   4.889   3.877   5.411
 9421SOL     OW29161   3.610   6.907   7.001
 9421SOL    HW129162   3.573   6.873   6.915
 9421SOL    HW229163   3.705   6.936   6.988
 9422SOL     OW29164   1.872   6.115   6.009
 9422SOL    HW129165   1.782   6.071   6.011
 9422SOL    HW229166   1.903   6.130   6.102
 9423SOL     OW29167   5.215   4.629   1.122
 9423SOL    HW129168   5.237   4.532   1.137
 9423SOL    HW229169   5.278   4.667   1.055
 9424SOL     OW29170   5.843   6.720   4.163
 9424SOL    HW129171   5.829   6.802   4.108
 9424SOL    HW229172   5.932   6.726   4.210
 9425SOL     OW29173   0.176   5.908   1.066
 9425SOL    HW129174   0.159   5.839   1.137
 9425SOL    HW229175   0.260   5.885   1.017
 9426SOL     OW29176   4.984   1.227   5.989
 9426SOL    HW129177   5.057   1.284   6.026
 9426SOL    HW229178   5.015   1.131   5.987
 9427SOL     OW29179   3.178   5.832   2.113
 9427SOL    HW129180   3.144   5.925   2.116
 9427SOL    HW229181   3.236   5.815   2.193
 9428SOL     OW29182   6.898   6.428   4.481
 9428SOL    HW129183   6.955   6.502   4.519
 9428SOL    HW229184   6.906   6.427   4.382
 9429SOL     OW29185   3.072   2.199   4.068
 9429SOL    HW129186   3.056   2.180   4.164
 9429SOL    HW229187   3.158   2.156   4.039
 9430SOL     OW29188   1.178   0.443   4.043
 9430SOL    HW129189   1.265   0.425   4.088
 9430SOL    HW229190   1.153   0.366   3.985
 9431SOL     OW29191   1.331   4.781   5.402
 9431SOL    HW129192   1.263   4.767   5.473
 9431SOL    HW229193   1.316   4.716   5.328
 9432SOL     OW29194   6.765   2.238   2.940
 9432SOL    HW129195   6.829   2.191   3.002
 9432SOL    HW229196   6.717   2.310   2.990
 9433SOL     OW29197   4.208   5.688   1.467
 9433SOL    HW129198   4.157   5.722   1.389
 9433SOL    HW229199   4.145   5.667   1.542
 9434SOL     OW29200   4.950   6.103   4.769
 9434SOL    HW129201   4.940   6.173   4.699
 9434SOL    HW229202   5.025   6.041   4.744
 9435SOL     OW29203   6.787   4.024   7.020
 9435SOL    HW129204   6.804   4.080   0.071
 9435SOL    HW229205   6.724   3.950   0.014
 9436SOL     OW29206   2.855   2.024   2.392
 9436SOL    HW129207   2.872   2.017   2.490
 9436SOL    HW229208   2.871   2.118   2.362
 9437SOL     OW29209   4.540   1.209   3.660
 9437SOL    HW129210   4.519   1.239   3.567
 9437SOL    HW229211   4.578   1.116   3.657
 9438SOL     OW29212   4.377   0.411   2.720
 9438SOL    HW129213   4.290   0.365   2.702
 9438SOL    HW229214   4.415   0.445   2.634
 9439SOL     OW29215   1.682   5.105   0.626
 9439SOL    HW129216   1.637   5.194   0.619
 9439SOL    HW229217   1.737   5.090   0.544
 9440SOL     OW29218   1.742   5.060   4.052
 9440SOL    HW129219   1.813   5.055   3.982
 9440SOL    HW229220   1.778   5.108   4.132
 9441SOL     OW29221   6.860   6.143   4.515
 9441SOL    HW129222   6.902   6.227   4.479
 9441SOL    HW229223   6.812   6.096   4.440
 9442SOL     OW29224   6.435   2.541   0.832
 9442SOL    HW129225   6.356   2.482   0.819
 9442SOL    HW229226   6.429   2.586   0.921
 9443SOL     OW29227   1.022   5.070   1.371
 9443SOL    HW129228   1.041   4.986   1.320
 9443SOL    HW229229   0.995   5.142   1.307
 9444SOL     OW29230   2.030   5.854   6.143
 9444SOL    HW129231   1.970   5.806   6.079
 9444SOL    HW229232   1.977   5.887   6.220
 9445SOL     OW29233   1.164   1.137   4.216
 9445SOL    HW129234   1.100   1.064   4.190
 9445SOL    HW229235   1.257   1.101   4.214
 9446SOL     OW29236   4.963   5.906   3.338
 9446SOL    HW129237   4.966   5.877   3.434
 9446SOL    HW229238   4.878   5.956   3.321
 9447SOL     OW29239   5.855   5.397   2.352
 9447SOL    HW129240   5.839   5.303   2.321
 9447SOL    HW229241   5.889   5.395   2.446
 9448SOL     OW29242   4.895   3.145   0.410
 9448SOL    HW129243   4.882   3.215   0.480
 9448SOL    HW229244   4.941   3.185   0.330
 9449SOL     OW29245   4.100   0.407   3.092
 9449SOL    HW129246   4.076   0.412   3.189
 9449SOL    HW229247   4.046   0.335   3.048
 9450SOL     OW29248   0.842   0.471   1.929
 9450SOL    HW129249   0.883   0.381   1.914
 9450SOL    HW229250   0.747   0.470   1.898
 9451SOL     OW29251   4.176   5.085   0.178
 9451SOL    HW129252   4.217   4.997   0.154
 9451SOL    HW229253   4.090   5.069   0.227
 9452SOL     OW29254   6.118   3.215   5.374
 9452SOL    HW129255   6.185   3.289   5.367
 9452SOL    HW229256   6.077   3.215   5.465
 9453SOL     OW29257   6.225   4.817   3.001
 9453SOL    HW129258   6.281   4.820   2.917
 9453SOL    HW229259   6.132   4.845   2.980
 9454SOL     OW29260   5.552   5.440   1.122
 9454SOL    HW129261   5.537   5.446   1.221
 9454SOL    HW229262   5.649   5.421   1.104
 9455SOL     OW29263   4.532   0.682   1.305
 9455SOL    HW129264   4.511   0.631   1.389
 9455SOL    HW229265   4.449   0.725   1.271
 9456SOL     OW29266   6.637   2.577   1.572
 9456SOL    HW129267   6.651   2.594   1.474
 9456SOL    HW229268   6.675   2.653   1.625
 9457SOL     OW29269   6.631   6.391   4.399
 9457SOL    HW129270   6.706   6.434   4.450
 9457SOL    HW229271   6.663   6.305   4.359
 9458SOL     OW29272   0.141   4.198   6.916
 9458SOL    HW129273   0.071   4.159   6.855
 9458SOL    HW229274   0.208   4.127   6.938
 9459SOL     OW29275   6.411   4.622   4.981
 9459SOL    HW129276   6.376   4.528   4.989
 9459SOL    HW229277   6.467   4.629   4.898
 9460SOL     OW29278   2.196   3.083   2.638
 9460SOL    HW129279   2.190   3.142   2.718
 9460SOL    HW229280   2.254   3.005   2.659
 9461SOL     OW29281   1.371   1.320   1.047
 9461SOL    HW129282   1.301   1.300   0.979
 9461SOL    HW229283   1.348   1.403   1.096
 9462SOL     OW29284   7.017   1.009   5.465
 9462SOL    HW129285   0.000   0.911   5.481
 9462SOL    HW229286   0.076   1.056   5.466
 9463SOL     OW29287   0.799   4.905   1.061
 9463SOL    HW129288   0.861   4.953   0.998
 9463SOL    HW229289   0.763   4.969   1.128
 9464SOL     OW29290   1.525   0.956   2.237
 9464SOL    HW129291   1.451   0.902   2.278
 9464SOL    HW229292   1.501   0.979   2.143
 9465SOL     OW29293   1.506   5.406   6.932
 9465SOL    HW129294   1.440   5.447   6.995
 9465SOL    HW229295   1.521   5.468   6.854
 9466SOL     OW29296   3.817   4.355   5.615
 9466SOL    HW129297   3.748   4.374   5.684
 9466SOL    HW229298   3.783   4.383   5.525
 9467SOL     OW29299   1.297   3.586   1.458
 9467SOL    HW129300   1.313   3.497   1.414
 9467SOL    HW229301   1.384   3.635   1.465
 9468SOL     OW29302   7.004   2.134   1.153
 9468SOL    HW129303   0.011   2.196   1.085
 9468SOL    HW229304   0.038   2.126   1.229
 9469SOL     OW29305   5.831   6.704   1.962
 9469SOL    HW129306   5.763   6.672   2.027
 9469SOL    HW229307   5.839   6.803   1.969
 9470SOL     OW29308   3.338   3.450   1.264
 9470SOL    HW129309   3.416   3.497   1.224
 9470SOL    HW229310   3.327   3.477   1.359
 9471SOL     OW29311   0.232   3.191   4.923
 9471SOL    HW129312   0.215   3.157   4.831
 9471SOL    HW229313   0.158   3.162   4.984
 9472SOL     OW29314   2.458   4.488   5.885
 9472SOL    HW129315   2.505   4.430   5.819
 9472SOL    HW229316   2.365   4.453   5.900
 9473SOL     OW29317   2.840   3.317   1.883
 9473SOL    HW129318   2.815   3.398   1.936
 9473SOL    HW229319   2.803   3.326   1.790
 9474SOL     OW29320   5.763   4.312   0.955
 9474SOL    HW129321   5.692   4.303   1.025
 9474SOL    HW229322   5.719   4.322   0.865
 9475SOL     OW29323   6.167   3.550   6.910
 9475SOL    HW129324   6.223   3.586   6.836
 9475SOL    HW229325   6.078   3.523   6.873
 9476SOL     OW29326   4.296   3.424   1.323
 9476SOL    HW129327   4.259   3.379   1.243
 9476SOL    HW229328   4.228   3.424   1.397
 9477SOL     OW29329   0.746   5.644   1.277
 9477SOL    HW129330   0.696   5.659   1.362
 9477SOL    HW229331   0.689   5.671   1.200
 9478SOL     OW29332   0.346   3.537   5.307
 9478SOL    HW129333   0.299   3.533   5.219
 9478SOL    HW229334   0.400   3.621   5.313
 9479SOL     OW29335   4.202   0.660   2.134
 9479SOL    HW129336   4.282   0.716   2.154
 9479SOL    HW229337   4.198   0.583   2.197
 9480SOL     OW29338   5.344   1.211   1.277
 9480SOL    HW129339   5.311   1.286   1.219
 9480SOL    HW229340   5.274   1.141   1.284
 9481SOL     OW29341   4.769   6.967   3.638
 9481SOL    HW129342   4.763   6.879   3.685
 9481SOL    HW229343   4.688   6.979   3.580
 9482SOL     OW29344   5.816   4.159   6.201
 9482SOL    HW129345   5.865   4.086   6.154
 9482SOL    HW229346   5.726   4.125   6.229
 9483SOL     OW29347   5.807   4.966   0.442
 9483SOL    HW129348   5.891   4.964   0.387
 9483SOL    HW229349   5.754   5.047   0.419
 9484SOL     OW29350   1.360   5.564   4.015
 9484SOL    HW129351   1.446   5.601   4.052
 9484SOL    HW229352   1.380   5.479   3.967
 9485SOL     OW29353   6.580   1.720   5.859
 9485SOL    HW129354   6.558   1.753   5.951
 9485SOL    HW229355   6.504   1.741   5.797
 9486SOL     OW29356   6.167   5.343   6.294
 9486SOL    HW129357   6.126   5.402   6.363
 9486SOL    HW229358   6.267   5.355   6.295
 9487SOL     OW29359   2.955   3.652   3.877
 9487SOL    HW129360   3.048   3.664   3.843
 9487SOL    HW229361   2.941   3.709   3.958
 9488SOL     OW29362   0.736   1.171   2.735
 9488SOL    HW129363   0.725   1.209   2.827
 9488SOL    HW229364   0.670   1.212   2.673
 9489SOL     OW29365   0.424   4.349   6.985
 9489SOL    HW129366   0.427   4.286   0.032
 9489SOL    HW229367   0.333   4.346   6.943
 9490SOL     OW29368   5.469   3.875   5.099
 9490SOL    HW129369   5.471   3.901   5.196
 9490SOL    HW229370   5.537   3.804   5.083
 9491SOL     OW29371   5.135   0.277   2.161
 9491SOL    HW129372   5.197   0.199   2.149
 9491SOL    HW229373   5.144   0.339   2.083
 9492SOL     OW29374   4.805   3.010   4.104
 9492SOL    HW129375   4.887   2.962   4.071
 9492SOL    HW229376   4.725   2.977   4.056
 9493SOL     OW29377   2.453   6.908   3.496
 9493SOL    HW129378   2.449   6.960   3.582
 9493SOL    HW229379   2.484   6.815   3.515
 9494SOL     OW29380   4.897   2.624   2.516
 9494SOL    HW129381   4.807   2.589   2.493
 9494SOL    HW229382   4.921   2.699   2.455
 9495SOL     OW29383   6.283   2.338   0.781
 9495SOL    HW129384   6.249   2.273   0.849
 9495SOL    HW229385   6.369   2.305   0.743
 9496SOL     OW29386   6.253   3.301   0.547
 9496SOL    HW129387   6.319   3.231   0.519
 9496SOL    HW229388   6.293   3.357   0.619
 9497SOL     OW29389   6.003   4.630   5.082
 9497SOL    HW129390   6.001   4.725   5.113
 9497SOL    HW229391   5.939   4.576   5.137
 9498SOL     OW29392   0.952   5.984   5.758
 9498SOL    HW129393   0.875   5.993   5.822
 9498SOL    HW229394   0.955   6.064   5.699
 9499SOL     OW29395   5.559   6.259   3.378
 9499SOL    HW129396   5.596   6.189   3.318
 9499SOL    HW229397   5.631   6.323   3.404
 9500SOL     OW29398   2.372   1.911   0.445
 9500SOL    HW129399   2.390   1.851   0.523
 9500SOL    HW229400   2.274   1.922   0.432
 9501SOL     OW29401   1.589   3.154   4.783
 9501SOL    HW129402   1.546   3.151   4.873
 9501SOL    HW229403   1.676   3.105   4.786
 9502SOL     OW29404   5.550   4.731   3.738
 9502SOL    HW129405   5.579   4.642   3.702
 9502SOL    HW229406   5.470   4.719   3.797
 9503SOL     OW29407   6.859   0.734   0.253
 9503SOL    HW129408   6.924   0.800   0.290
 9503SOL    HW229409   6.888   0.708   0.160
 9504SOL     OW29410   6.102   4.633   2.735
 9504SOL    HW129411   6.142   4.721   2.708
 9504SOL    HW229412   6.145   4.602   2.820
 9505SOL     OW29413   5.014   2.843   7.023
 9505SOL    HW129414   5.086   2.851   0.063
 9505SOL    HW229415   4.992   2.934   6.988
 9506SOL     OW29416   4.022   0.600   1.843
 9506SOL    HW129417   4.072   0.684   1.864
 9506SOL    HW229418   3.937   0.623   1.795
 9507SOL     OW29419   6.734   6.191   1.306
 9507SOL    HW129420   6.718   6.124   1.379
 9507SOL    HW229421   6.820   6.239   1.323
 9508SOL     OW29422   4.971   1.690   2.213
 9508SOL    HW129423   5.042   1.759   2.208
 9508SOL    HW229424   4.980   1.638   2.297
 9509SOL     OW29425   5.455   1.494   4.046
 9509SOL    HW129426   5.446   1.577   3.990
 9509SOL    HW229427   5.462   1.519   4.142
 9510SOL     OW29428   1.720   3.684   2.459
 9510SOL    HW129429   1.706   3.779   2.484
 9510SOL    HW229430   1.648   3.628   2.499
 9511SOL     OW29431   0.836   1.167   0.875
 9511SOL    HW129432   0.796   1.078   0.851
 9511SOL    HW229433   0.858   1.168   0.972
 9512SOL     OW29434   6.223   2.595   1.389
 9512SOL    HW129435   6.280   2.612   1.470
 9512SOL    HW229436   6.243   2.504   1.354
 9513SOL     OW29437   4.932   3.554   4.430
 9513SOL    HW129438   4.948   3.641   4.384
 9513SOL    HW229439   4.969   3.479   4.374
 9514SOL     OW29440   3.881   3.312   1.057
 9514SOL    HW129441   3.924   3.223   1.073
 9514SOL    HW229442   3.782   3.300   1.050
 9515SOL     OW29443   6.297   6.822   2.977
 9515SOL    HW129444   6.355   6.816   3.058
 9515SOL    HW229445   6.324   6.751   2.912
 9516SOL     OW29446   1.385   2.676   6.963
 9516SOL    HW129447   1.410   2.580   6.948
 9516SOL    HW229448   1.351   2.687   0.027
 9517SOL     OW29449   0.131   6.489   2.576
 9517SOL    HW129450   0.183   6.428   2.517
 9517SOL    HW229451   0.193   6.531   2.643
 9518SOL     OW29452   5.830   6.886   0.938
 9518SOL    HW129453   5.798   6.970   0.895
 9518SOL    HW229454   5.920   6.900   0.978
 9519SOL     OW29455   1.498   2.659   5.479
 9519SOL    HW129456   1.422   2.620   5.426
 9519SOL    HW229457   1.471   2.749   5.514
 9520SOL     OW29458   3.791   6.721   1.848
 9520SOL    HW129459   3.821   6.657   1.919
 9520SOL    HW229460   3.761   6.806   1.890
 9521SOL     OW29461   5.473   5.193   3.138
 9521SOL    HW129462   5.497   5.277   3.090
 9521SOL    HW229463   5.516   5.194   3.229
 9522SOL     OW29464   3.553   4.973   5.494
 9522SOL    HW129465   3.475   5.009   5.545
 9522SOL    HW229466   3.628   4.956   5.557
 9523SOL     OW29467   1.330   7.004   4.589
 9523SOL    HW129468   1.318   7.025   4.686
 9523SOL    HW229469   1.357   0.057   4.540
 9524SOL     OW29470   5.967   3.197   0.362
 9524SOL    HW129471   5.912   3.205   0.445
 9524SOL    HW229472   5.908   3.168   0.286
 9525SOL     OW29473   4.303   0.525   4.302
 9525SOL    HW129474   4.284   0.481   4.214
 9525SOL    HW229475   4.259   0.473   4.375
 9526SOL     OW29476   4.937   5.468   0.829
 9526SOL    HW129477   4.867   5.398   0.827
 9526SOL    HW229478   4.905   5.549   0.780
 9527SOL     OW29479   7.029   1.055   0.190
 9527SOL    HW129480   6.964   1.132   0.193
 9527SOL    HW229481   0.088   1.088   0.158
 9528SOL     OW29482   5.581   1.281   2.026
 9528SOL    HW129483   5.548   1.213   1.960
 9528SOL    HW229484   5.670   1.253   2.061
 9529SOL     OW29485   1.300   2.519   5.335
 9529SOL    HW129486   1.311   2.480   5.243
 9529SOL    HW229487   1.214   2.569   5.340
 9530SOL     OW29488   2.695   1.444   3.584
 9530SOL    HW129489   2.636   1.522   3.561
 9530SOL    HW229490   2.759   1.471   3.655
 9531SOL     OW29491   2.328   6.396   3.889
 9531SOL    HW129492   2.277   6.482   3.890
 9531SOL    HW229493   2.426   6.415   3.891
 9532SOL     OW29494   3.412   1.098   1.822
 9532SOL    HW129495   3.431   1.196   1.812
 9532SOL    HW229496   3.321   1.078   1.788
 9533SOL     OW29497   0.019   1.608   3.960
 9533SOL    HW129498   0.119   1.604   3.972
 9533SOL    HW229499   7.013   1.687   4.009
 9534SOL     OW29500   4.923   1.589   4.134
 9534SOL    HW129501   4.999   1.604   4.198
 9534SOL    HW229502   4.836   1.602   4.182
 9535SOL     OW29503   2.894   1.573   4.738
 9535SOL    HW129504   2.809   1.520   4.743
 9535SOL    HW229505   2.871   1.671   4.731
 9536SOL     OW29506   2.115   5.719   6.615
 9536SOL    HW129507   2.165   5.750   6.534
 9536SOL    HW229508   2.179   5.682   6.682
 9537SOL     OW29509   2.147   0.677   0.111
 9537SOL    HW129510   2.232   0.637   0.076
 9537SOL    HW229511   2.072   0.655   0.050
 9538SOL     OW29512   5.570   3.887   3.219
 9538SOL    HW129513   5.668   3.890   3.238
 9538SOL    HW229514   5.546   3.798   3.180
 9539SOL     OW29515   1.539   2.595   0.761
 9539SOL    HW129516   1.575   2.547   0.682
 9539SOL    HW229517   1.473   2.664   0.730
 9540SOL     OW29518   6.398   3.489   5.549
 9540SOL    HW129519   6.340   3.512   5.471
 9540SOL    HW229520   6.436   3.397   5.536
 9541SOL     OW29521   6.098   2.465   2.962
 9541SOL    HW129522   6.083   2.525   2.884
 9541SOL    HW229523   6.091   2.370   2.933
 9542SOL     OW29524   4.955   3.789   4.288
 9542SOL    HW129525   4.932   3.740   4.204
 9542SOL    HW229526   5.054   3.802   4.293
 9543SOL     OW29527   4.152   2.210   0.111
 9543SOL    HW129528   4.109   2.193   0.022
 9543SOL    HW229529   4.234   2.265   0.098
 9544SOL     OW29530   4.967   6.893   0.930
 9544SOL    HW129531   4.982   6.909   1.028
 9544SOL    HW229532   5.054   6.902   0.881
 9545SOL     OW29533   1.001   0.495   4.389
 9545SOL    HW129534   0.965   0.427   4.326
 9545SOL    HW229535   0.975   0.471   4.483
 9546SOL     OW29536   3.090   4.298   1.745
 9546SOL    HW129537   3.166   4.339   1.694
 9546SOL    HW229538   3.037   4.371   1.788
 9547SOL     OW29539   5.443   0.042   2.478
 9547SOL    HW129540   5.518   0.051   2.544
 9547SOL    HW229541   5.356   0.039   2.527
 9548SOL     OW29542   6.410   6.596   1.648
 9548SOL    HW129543   6.450   6.594   1.557
 9548SOL    HW229544   6.421   6.506   1.691
 9549SOL     OW29545   2.029   6.143   0.272
 9549SOL    HW129546   2.025   6.243   0.275
 9549SOL    HW229547   2.107   6.112   0.328
 9550SOL     OW29548   1.575   1.076   0.641
 9550SOL    HW129549   1.499   1.130   0.606
 9550SOL    HW229550   1.539   0.993   0.683
 9551SOL     OW29551   1.366   5.638   4.471
 9551SOL    HW129552   1.329   5.610   4.383
 9551SOL    HW229553   1.336   5.574   4.542
 9552SOL     OW29554   6.739   5.622   3.286
 9552SOL    HW129555   6.791   5.551   3.333
 9552SOL    HW229556   6.686   5.581   3.211
 9553SOL     OW29557   5.205   4.845   6.601
 9553SOL    HW129558   5.178   4.891   6.516
 9553SOL    HW229559   5.192   4.908   6.678
 9554SOL     OW29560   1.543   2.824   1.710
 9554SOL    HW129561   1.615   2.888   1.685
 9554SOL    HW229562   1.499   2.854   1.794
 9555SOL     OW29563   0.900   2.324   6.456
 9555SOL    HW129564   0.835   2.392   6.425
 9555SOL    HW229565   0.855   2.260   6.519
 9556SOL     OW29566   5.446   1.616   1.801
 9556SOL    HW129567   5.419   1.679   1.728
 9556SOL    HW229568   5.529   1.650   1.845
 9557SOL     OW29569   5.038   1.899   1.040
 9557SOL    HW129570   5.078   1.991   1.041
 9557SOL    HW229571   5.111   1.831   1.045
 9558SOL     OW29572   6.843   3.599   1.685
 9558SOL    HW129573   6.768   3.655   1.720
 9558SOL    HW229574   6.899   3.654   1.623
 9559SOL     OW29575   6.987   4.777   3.220
 9559SOL    HW129576   6.943   4.862   3.248
 9559SOL    HW229577   6.932   4.700   3.251
 9560SOL     OW29578   3.532   2.337   5.771
 9560SOL    HW129579   3.466   2.403   5.735
 9560SOL    HW229580   3.620   2.382   5.784
 9561SOL     OW29581   3.078   5.283   6.720
 9561SOL    HW129582   3.004   5.221   6.747
 9561SOL    HW229583   3.162   5.230   6.705
 9562SOL     OW29584   6.095   5.786   4.189
 9562SOL    HW129585   6.175   5.727   4.179
 9562SOL    HW229586   6.012   5.730   4.189
 9563SOL     OW29587   0.666   1.286   5.668
 9563SOL    HW129588   0.751   1.305   5.716
 9563SOL    HW229589   0.650   1.357   5.599
 9564SOL     OW29590   6.800   0.236   6.064
 9564SOL    HW129591   6.814   0.215   6.161
 9564SOL    HW229592   6.745   0.318   6.055
 9565SOL     OW29593   2.943   5.542   5.413
 9565SOL    HW129594   2.896   5.621   5.450
 9565SOL    HW229595   2.999   5.499   5.484
 9566SOL     OW29596   2.613   6.100   5.342
 9566SOL    HW129597   2.565   6.046   5.411
 9566SOL    HW229598   2.629   6.192   5.377
 9567SOL     OW29599   5.500   5.849   3.090
 9567SOL    HW129600   5.524   5.853   3.187
 9567SOL    HW229601   5.472   5.939   3.059
 9568SOL     OW29602   6.459   3.564   4.584
 9568SOL    HW129603   6.483   3.477   4.542
 9568SOL    HW229604   6.396   3.548   4.660
 9569SOL     OW29605   5.290   0.255   0.881
 9569SOL    HW129606   5.232   0.207   0.816
 9569SOL    HW229607   5.245   0.257   0.971
 9570SOL     OW29608   0.841   3.633   6.587
 9570SOL    HW129609   0.841   3.542   6.628
 9570SOL    HW229610   0.836   3.624   6.487
 9571SOL     OW29611   3.519   2.030   0.803
 9571SOL    HW129612   3.482   1.990   0.719
 9571SOL    HW229613   3.558   1.959   0.861
 9572SOL     OW29614   0.913   3.654   1.069
 9572SOL    HW129615   0.998   3.647   1.121
 9572SOL    HW229616   0.933   3.673   0.973
 9573SOL     OW29617   4.452   2.112   1.539
 9573SOL    HW129618   4.517   2.040   1.562
 9573SOL    HW229619   4.363   2.071   1.517
 9574SOL     OW29620   1.917   1.390   3.124
 9574SOL    HW129621   1.926   1.291   3.125
 9574SOL    HW229622   1.830   1.415   3.081
 9575SOL     OW29623   3.090   1.668   2.639
 9575SOL    HW129624   3.082   1.766   2.621
 9575SOL    HW229625   3.160   1.629   2.579
 9576SOL     OW29626   4.456   2.850   5.868
 9576SOL    HW129627   4.423   2.861   5.774
 9576SOL    HW229628   4.390   2.797   5.920
 9577SOL     OW29629   0.605   5.911   3.630
 9577SOL    HW129630   0.557   5.986   3.675
 9577SOL    HW229631   0.612   5.833   3.693
 9578SOL     OW29632   6.597   4.020   1.681
 9578SOL    HW129633   6.565   4.035   1.775
 9578SOL    HW229634   6.632   4.106   1.644
 9579SOL     OW29635   1.617   4.952   2.624
 9579SOL    HW129636   1.601   4.897   2.542
 9579SOL    HW229637   1.684   5.024   2.603
 9580SOL     OW29638   3.765   3.831   4.788
 9580SOL    HW129639   3.811   3.915   4.760
 9580SOL    HW229640   3.721   3.845   4.877
 9581SOL     OW29641   0.338   0.014   6.714
 9581SOL    HW129642   0.265   7.020   6.777
 9581SOL    HW229643   0.344   0.114   6.706
 9582SOL     OW29644   4.451   5.360   2.847
 9582SOL    HW129645   4.535   5.323   2.886
 9582SOL    HW229646   4.395   5.286   2.810
 9583SOL     OW29647   1.400   5.196   2.595
 9583SOL    HW129648   1.407   5.147   2.508
 9583SOL    HW229649   1.309   5.181   2.634
 9584SOL     OW29650   5.298   4.789   0.379
 9584SOL    HW129651   5.377   4.815   0.436
 9584SOL    HW229652   5.233   4.737   0.434
 9585SOL     OW29653   5.726   1.879   2.142
 9585SOL    HW129654   5.816   1.915   2.167
 9585SOL    HW229655   5.738   1.795   2.088
 9586SOL     OW29656   3.938   5.293   2.564
 9586SOL    HW129657   3.978   5.374   2.608
 9586SOL    HW229658   3.929   5.309   2.466
 9587SOL     OW29659   4.041   6.516   1.736
 9587SOL    HW129660   4.125   6.527   1.683
 9587SOL    HW229661   4.005   6.423   1.722
 9588SOL     OW29662   5.854   1.378   3.483
 9588SOL    HW129663   5.775   1.437   3.468
 9588SOL    HW229664   5.866   1.362   3.581
 9589SOL     OW29665   4.360   1.981   4.836
 9589SOL    HW129666   4.351   2.046   4.911
 9589SOL    HW229667   4.283   1.993   4.773
 9590SOL     OW29668   6.754   4.867   5.317
 9590SOL    HW129669   6.813   4.945   5.295
 9590SOL    HW229670   6.789   4.784   5.275
 9591SOL     OW29671   0.020   4.154   2.251
 9591SOL    HW129672   0.029   4.056   2.266
 9591SOL    HW229673   6.962   4.172   2.205
 9592SOL     OW29674   3.814   5.247   1.029
 9592SOL    HW129675   3.734   5.293   1.068
 9592SOL    HW229676   3.837   5.167   1.084
 9593SOL     OW29677   2.280   2.860   3.525
 9593SOL    HW129678   2.305   2.837   3.432
 9593SOL    HW229679   2.199   2.808   3.553
 9594SOL     OW29680   5.925   0.432   0.252
 9594SOL    HW129681   5.972   0.416   0.339
 9594SOL    HW229682   5.894   0.345   0.215
 9595SOL     OW29683   2.006   4.490   5.285
 9595SOL    HW129684   2.100   4.456   5.289
 9595SOL    HW229685   2.004   4.578   5.237
 9596SOL     OW29686   5.407   4.516   2.368
 9596SOL    HW129687   5.331   4.503   2.432
 9596SOL    HW229688   5.466   4.589   2.401
 9597SOL     OW29689   1.598   4.014   2.001
 9597SOL    HW129690   1.669   3.956   2.042
 9597SOL    HW229691   1.568   3.973   1.914
 9598SOL     OW29692   0.709   6.327   4.970
 9598SOL    HW129693   0.711   6.241   4.920
 9598SOL    HW229694   0.617   6.364   4.969
 9599SOL     OW29695   4.281   2.313   5.616
 9599SOL    HW129696   4.183   2.332   5.613
 9599SOL    HW229697   4.307   2.284   5.708
 9600SOL     OW29698   1.673   5.202   6.850
 9600SOL    HW129699   1.624   5.276   6.897
 9600SOL    HW229700   1.684   5.125   6.913
 9601SOL     OW29701   1.074   0.444   5.463
 9601SOL    HW129702   1.149   0.393   5.506
 9601SOL    HW229703   1.017   0.485   5.534
 9602SOL     OW29704   0.696   5.525   5.993
 9602SOL    HW129705   0.638   5.606   6.006
 9602SOL    HW229706   0.639   5.447   5.968
 9603SOL     OW29707   1.155   5.117   2.013
 9603SOL    HW129708   1.119   5.048   1.951
 9603SOL    HW229709   1.097   5.198   2.011
 9604SOL     OW29710   6.009   0.266   5.920
 9604SOL    HW129711   6.072   0.323   5.972
 9604SOL    HW229712   5.964   0.323   5.850
 9605SOL     OW29713   3.559   5.291   0.224
 9605SOL    HW129714   3.626   5.336   0.165
 9605SOL    HW229715   3.467   5.322   0.198
 9606SOL     OW29716   0.029   1.491   4.670
 9606SOL    HW129717   0.087   1.444   4.603
 9606SOL    HW229718   0.050   1.589   4.669
 9607SOL     OW29719   6.544   3.826   3.639
 9607SOL    HW129720   6.469   3.827   3.704
 9607SOL    HW229721   6.625   3.869   3.680
 9608SOL     OW29722   5.933   0.704   1.268
 9608SOL    HW129723   5.925   0.756   1.183
 9608SOL    HW229724   5.875   0.622   1.262
 9609SOL     OW29725   0.830   1.917   3.565
 9609SOL    HW129726   0.730   1.911   3.570
 9609SOL    HW229727   0.862   1.990   3.626
 9610SOL     OW29728   5.413   1.303   6.163
 9610SOL    HW129729   5.439   1.210   6.187
 9610SOL    HW229730   5.486   1.346   6.109
 9611SOL     OW29731   5.093   5.377   1.662
 9611SOL    HW129732   5.085   5.297   1.602
 9611SOL    HW229733   5.110   5.346   1.755
 9612SOL     OW29734   4.683   4.348   3.423
 9612SOL    HW129735   4.664   4.424   3.484
 9612SOL    HW229736   4.723   4.272   3.475
 9613SOL     OW29737   4.005   1.381   4.605
 9613SOL    HW129738   3.905   1.379   4.602
 9613SOL    HW229739   4.041   1.403   4.514
 9614SOL     OW29740   3.496   2.677   6.906
 9614SOL    HW129741   3.456   2.751   6.851
 9614SOL    HW229742   3.488   2.591   6.857
 9615SOL     OW29743   6.308   6.562   3.631
 9615SOL    HW129744   6.327   6.469   3.601
 9615SOL    HW229745   6.247   6.606   3.566
 9616SOL     OW29746   0.097   2.089   0.177
 9616SOL    HW129747   0.048   2.028   0.238
 9616SOL    HW229748   0.195   2.074   0.186
 9617SOL     OW29749   1.529   3.491   3.713
 9617SOL    HW129750   1.580   3.490   3.798
 9617SOL    HW229751   1.433   3.511   3.732
 9618SOL     OW29752   5.267   4.123   1.638
 9618SOL    HW129753   5.365   4.102   1.629
 9618SOL    HW229754   5.256   4.219   1.662
 9619SOL     OW29755   1.753   1.415   0.840
 9619SOL    HW129756   1.849   1.436   0.820
 9619SOL    HW229757   1.733   1.436   0.936
 9620SOL     OW29758   3.231   1.010   6.324
 9620SOL    HW129759   3.255   1.103   6.296
 9620SOL    HW229760   3.131   0.999   6.322
 9621SOL     OW29761   0.031   0.266   0.344
 9621SOL    HW129762   7.009   0.273   0.259
 9621SOL    HW229763   7.008   0.305   0.419
 9622SOL     OW29764   6.589   0.291   4.814
 9622SOL    HW129765   6.646   0.316   4.736
 9622SOL    HW229766   6.549   0.201   4.799
 9623SOL     OW29767   2.397   5.661   6.206
 9623SOL    HW129768   2.480   5.605   6.212
 9623SOL    HW229769   2.327   5.611   6.156
 9624SOL     OW29770   4.356   5.243   6.854
 9624SOL    HW129771   4.453   5.232   6.873
 9624SOL    HW229772   4.333   5.195   6.769
 9625SOL     OW29773   5.186   3.852   5.960
 9625SOL    HW129774   5.187   3.753   5.949
 9625SOL    HW229775   5.113   3.892   5.903
 9626SOL     OW29776   2.727   2.702   0.327
 9626SOL    HW129777   2.735   2.698   0.426
 9626SOL    HW229778   2.720   2.609   0.290
 9627SOL     OW29779   0.019   5.272   0.360
 9627SOL    HW129780   6.955   5.238   0.368
 9627SOL    HW229781   0.082   5.202   0.392
 9628SOL     OW29782   6.084   1.882   5.648
 9628SOL    HW129783   6.005   1.833   5.610
 9628SOL    HW229784   6.069   1.980   5.638
 9629SOL     OW29785   0.664   5.809   4.050
 9629SOL    HW129786   0.635   5.895   4.009
 9629SOL    HW229787   0.730   5.764   3.991
 9630SOL     OW29788   6.133   0.408   5.491
 9630SOL    HW129789   6.052   0.440   5.442
 9630SOL    HW229790   6.198   0.483   5.500
 9631SOL     OW29791   4.492   5.987   0.245
 9631SOL    HW129792   4.410   5.931   0.233
 9631SOL    HW229793   4.505   6.007   0.342
 9632SOL     OW29794   2.474   5.611   2.990
 9632SOL    HW129795   2.473   5.710   2.976
 9632SOL    HW229796   2.565   5.575   2.971
 9633SOL     OW29797   2.450   2.952   5.761
 9633SOL    HW129798   2.356   2.947   5.726
 9633SOL    HW229799   2.488   2.860   5.767
 9634SOL     OW29800   5.687   4.808   3.296
 9634SOL    HW129801   5.742   4.792   3.214
 9634SOL    HW229802   5.598   4.843   3.270
 9635SOL     OW29803   0.998   5.252   3.949
 9635SOL    HW129804   1.007   5.297   4.038
 9635SOL    HW229805   0.901   5.250   3.922
 9636SOL     OW29806   4.915   3.609   3.656
 9636SOL    HW129807   4.889   3.567   3.569
 9636SOL    HW229808   4.866   3.696   3.667
 9637SOL     OW29809   3.264   2.735   6.197
 9637SOL    HW129810   3.313   2.718   6.111
 9637SOL    HW229811   3.291   2.665   6.264
 9638SOL     OW29812   1.342   3.945   6.242
 9638SOL    HW129813   1.326   4.007   6.165
 9638SOL    HW229814   1.381   3.859   6.208
 9639SOL     OW29815   5.686   2.742   1.042
 9639SOL    HW129816   5.659   2.777   0.953
 9639SOL    HW229817   5.605   2.714   1.094
 9640SOL     OW29818   2.800   5.817   3.429
 9640SOL    HW129819   2.749   5.768   3.500
 9640SOL    HW229820   2.748   5.815   3.344
 9641SOL     OW29821   0.793   2.825   4.257
 9641SOL    HW129822   0.713   2.812   4.315
 9641SOL    HW229823   0.778   2.779   4.169
 9642SOL     OW29824   0.894   2.944   4.612
 9642SOL    HW129825   0.823   3.015   4.623
 9642SOL    HW229826   0.851   2.857   4.589
 9643SOL     OW29827   6.589   5.542   4.719
 9643SOL    HW129828   6.577   5.603   4.797
 9643SOL    HW229829   6.640   5.589   4.647
 9644SOL     OW29830   1.136   5.029   3.800
 9644SOL    HW129831   1.134   5.015   3.701
 9644SOL    HW229832   1.107   5.122   3.821
 9645SOL     OW29833   0.361   4.889   0.900
 9645SOL    HW129834   0.452   4.852   0.920
 9645SOL    HW229835   0.353   4.982   0.937
 9646SOL     OW29836   2.138   4.904   0.785
 9646SOL    HW129837   2.172   4.859   0.703
 9646SOL    HW229838   2.123   5.001   0.767
 9647SOL     OW29839   5.001   0.208   2.606
 9647SOL    HW129840   4.969   0.186   2.698
 9647SOL    HW229841   4.925   0.248   2.553
 9648SOL     OW29842   4.064   1.829   1.101
 9648SOL    HW129843   4.157   1.845   1.135
 9648SOL    HW229844   4.023   1.916   1.075
 9649SOL     OW29845   0.022   5.297   0.085
 9649SOL    HW129846   0.006   5.201   0.065
 9649SOL    HW229847   0.039   5.309   0.183
 9650SOL     OW29848   6.930   5.222   5.473
 9650SOL    HW129849   6.928   5.160   5.551
 9650SOL    HW229850   6.905   5.172   5.390
 9651SOL     OW29851   3.925   0.929   0.743
 9651SOL    HW129852   3.991   0.981   0.797
 9651SOL    HW229853   3.833   0.942   0.780
 9652SOL     OW29854   0.572   3.870   6.943
 9652SOL    HW129855   0.646   3.937   6.933
 9652SOL    HW229856   0.492   3.915   6.982
 9653SOL     OW29857   5.924   3.413   5.210
 9653SOL    HW129858   5.950   3.332   5.157
 9653SOL    HW229859   5.829   3.404   5.240
 9654SOL     OW29860   3.660   3.407   4.487
 9654SOL    HW129861   3.646   3.506   4.498
 9654SOL    HW229862   3.727   3.376   4.555
 9655SOL     OW29863   4.734   0.746   0.245
 9655SOL    HW129864   4.701   0.803   0.321
 9655SOL    HW229865   4.730   0.798   0.160
 9656SOL     OW29866   5.257   4.900   4.821
 9656SOL    HW129867   5.356   4.900   4.805
 9656SOL    HW229868   5.211   4.944   4.744
 9657SOL     OW29869   5.117   4.626   2.517
 9657SOL    HW129870   5.105   4.526   2.519
 9657SOL    HW229871   5.114   4.657   2.422
 9658SOL     OW29872   4.998   1.362   2.988
 9658SOL    HW129873   5.014   1.302   2.910
 9658SOL    HW229874   5.026   1.315   3.072
 9659SOL     OW29875   4.507   3.094   0.488
 9659SOL    HW129876   4.562   3.014   0.510
 9659SOL    HW229877   4.467   3.084   0.397
 9660SOL     OW29878   2.332   0.441   1.594
 9660SOL    HW129879   2.419   0.434   1.547
 9660SOL    HW229880   2.319   0.534   1.628
 9661SOL     OW29881   3.636   3.495   2.249
 9661SOL    HW129882   3.690   3.416   2.220
 9661SOL    HW229883   3.682   3.541   2.325
 9662SOL     OW29884   4.058   0.676   4.793
 9662SOL    HW129885   3.981   0.736   4.815
 9662SOL    HW229886   4.046   0.589   4.841
 9663SOL     OW29887   1.180   5.946   1.972
 9663SOL    HW129888   1.093   5.899   1.957
 9663SOL    HW229889   1.214   5.923   2.064
 9664SOL     OW29890   1.546   4.809   2.368
 9664SOL    HW129891   1.478   4.737   2.357
 9664SOL    HW229892   1.538   4.874   2.293
 9665SOL     OW29893   5.980   3.667   0.111
 9665SOL    HW129894   5.992   3.760   0.078
 9665SOL    HW229895   6.069   3.624   0.124
 9666SOL     OW29896   5.180   4.266   1.395
 9666SOL    HW129897   5.102   4.319   1.428
 9666SOL    HW229898   5.196   4.188   1.455
 9667SOL     OW29899   5.803   6.117   0.108
 9667SOL    HW129900   5.847   6.044   0.056
 9667SOL    HW229901   5.851   6.129   0.195
 9668SOL     OW29902   2.214   0.579   0.681
 9668SOL    HW129903   2.126   0.614   0.650
 9668SOL    HW229904   2.209   0.556   0.778
 9669SOL     OW29905   3.523   0.079   0.630
 9669SOL    HW129906   3.621   0.062   0.631
 9669SOL    HW229907   3.503   0.159   0.573
 9670SOL     OW29908   0.802   0.131   2.620
 9670SOL    HW129909   0.838   0.185   2.697
 9670SOL    HW229910   0.704   0.114   2.636
 9671SOL     OW29911   1.158   5.332   6.814
 9671SOL    HW129912   1.138   5.430   6.807
 9671SOL    HW229913   1.200   5.300   6.729
 9672SOL     OW29914   0.625   4.159   4.387
 9672SOL    HW129915   0.626   4.233   4.454
 9672SOL    HW229916   0.605   4.197   4.296
 9673SOL     OW29917   1.938   2.756   5.337
 9673SOL    HW129918   1.935   2.720   5.430
 9673SOL    HW229919   1.969   2.685   5.274
 9674SOL     OW29920   2.036   0.896   3.511
 9674SOL    HW129921   2.123   0.903   3.463
 9674SOL    HW229922   1.962   0.924   3.450
 9675SOL     OW29923   7.025   3.918   6.095
 9675SOL    HW129924   0.077   3.925   6.152
 9675SOL    HW229925   6.957   3.984   6.126
 9676SOL     OW29926   0.814   2.839   6.198
 9676SOL    HW129927   0.747   2.800   6.262
 9676SOL    HW229928   0.814   2.938   6.206
 9677SOL     OW29929   0.598   4.955   3.430
 9677SOL    HW129930   0.666   5.012   3.383
 9677SOL    HW229931   0.644   4.900   3.500
 9678SOL     OW29932   4.758   2.753   6.630
 9678SOL    HW129933   4.677   2.714   6.673
 9678SOL    HW229934   4.836   2.692   6.647
 9679SOL     OW29935   1.854   1.150   4.470
 9679SOL    HW129936   1.953   1.157   4.481
 9679SOL    HW229937   1.824   1.058   4.494
 9680SOL     OW29938   4.318   6.519   2.916
 9680SOL    HW129939   4.257   6.458   2.866
 9680SOL    HW229940   4.404   6.471   2.936
 9681SOL     OW29941   0.798   2.718   0.992
 9681SOL    HW129942   0.703   2.712   0.960
 9681SOL    HW229943   0.799   2.732   1.091
 9682SOL     OW29944   3.858   6.549   4.983
 9682SOL    HW129945   3.941   6.514   4.940
 9682SOL    HW229946   3.883   6.603   5.064
 9683SOL     OW29947   2.815   5.867   3.847
 9683SOL    HW129948   2.749   5.794   3.867
 9683SOL    HW229949   2.767   5.954   3.842
 9684SOL     OW29950   1.354   2.616   6.235
 9684SOL    HW129951   1.279   2.627   6.301
 9684SOL    HW229952   1.434   2.666   6.268
 9685SOL     OW29953   3.889   4.824   1.862
 9685SOL    HW129954   3.960   4.767   1.821
 9685SOL    HW229955   3.799   4.789   1.835
 9686SOL     OW29956   1.406   1.956   6.033
 9686SOL    HW129957   1.408   1.947   6.132
 9686SOL    HW229958   1.492   1.922   5.995
 9687SOL     OW29959   5.748   0.298   3.700
 9687SOL    HW129960   5.785   0.229   3.762
 9687SOL    HW229961   5.690   0.255   3.631
 9688SOL     OW29962   0.758   5.305   2.403
 9688SOL    HW129963   0.787   5.239   2.473
 9688SOL    HW229964   0.832   5.319   2.338
 9689SOL     OW29965   1.637   5.757   0.807
 9689SOL    HW129966   1.558   5.697   0.792
 9689SOL    HW229967   1.638   5.787   0.903
 9690SOL     OW29968   6.235   4.534   3.601
 9690SOL    HW129969   6.286   4.449   3.596
 9690SOL    HW229970   6.247   4.575   3.691
 9691SOL     OW29971   4.130   3.710   2.236
 9691SOL    HW129972   4.120   3.726   2.138
 9691SOL    HW229973   4.227   3.705   2.259
 9692SOL     OW29974   6.770   5.464   0.305
 9692SOL    HW129975   6.672   5.478   0.321
 9692SOL    HW229976   6.802   5.387   0.361
 9693SOL     OW29977   4.278   3.978   0.023
 9693SOL    HW129978   4.242   4.044   6.987
 9693SOL    HW229979   4.311   4.027   0.104
 9694SOL     OW29980   2.312   5.939   1.176
 9694SOL    HW129981   2.348   6.007   1.240
 9694SOL    HW229982   2.222   5.909   1.207
 9695SOL     OW29983   1.447   2.798   3.338
 9695SOL    HW129984   1.388   2.742   3.395
 9695SOL    HW229985   1.450   2.891   3.375
 9696SOL     OW29986   4.576   4.385   3.173
 9696SOL    HW129987   4.586   4.337   3.260
 9696SOL    HW229988   4.637   4.345   3.106
 9697SOL     OW29989   6.754   6.915   3.212
 9697SOL    HW129990   6.795   6.824   3.213
 9697SOL    HW229991   6.752   6.952   3.305
 9698SOL     OW29992   0.742   2.709   1.275
 9698SOL    HW129993   0.714   2.783   1.337
 9698SOL    HW229994   0.800   2.645   1.325
 9699SOL     OW29995   1.858   0.276   2.529
 9699SOL    HW129996   1.872   0.239   2.438
 9699SOL    HW229997   1.762   0.262   2.557
 9700SOL     OW29998   6.448   0.363   6.100
 9700SOL    HW129999   6.484   0.340   6.010
 9700SOL    HW230000   6.350   0.382   6.093
 9701SOL     OW30001   5.743   3.741   6.647
 9701SOL    HW130002   5.680   3.740   6.569
 9701SOL    HW230003   5.833   3.709   6.617
 9702SOL     OW30004   2.875   3.502   2.103
 9702SOL    HW130005   2.797   3.521   2.163
 9702SOL    HW230006   2.891   3.581   2.043
 9703SOL     OW30007   6.111   4.681   3.403
 9703SOL    HW130008   6.056   4.746   3.455
 9703SOL    HW230009   6.141   4.607   3.463
 9704SOL     OW30010   0.477   5.162   2.044
 9704SOL    HW130011   0.400   5.221   2.020
 9704SOL    HW230012   0.459   5.117   2.131
 9705SOL     OW30013   6.983   4.315   5.089
 9705SOL    HW130014   6.908   4.362   5.136
 9705SOL    HW230015   6.977   4.217   5.106
 9706SOL     OW30016   0.151   6.968   2.751
 9706SOL    HW130017   0.131   0.023   2.701
 9706SOL    HW230018   0.067   6.916   2.763
 9707SOL     OW30019   1.211   4.441   1.432
 9707SOL    HW130020   1.199   4.369   1.364
 9707SOL    HW230021   1.271   4.512   1.395
 9708SOL     OW30022   2.923   0.525   1.856
 9708SOL    HW130023   2.984   0.484   1.788
 9708SOL    HW230024   2.932   0.624   1.854
 9709SOL     OW30025   3.509   1.799   2.175
 9709SOL    HW130026   3.423   1.809   2.227
 9709SOL    HW230027   3.572   1.872   2.202
 9710SOL     OW30028   5.143   4.820   4.213
 9710SOL    HW130029   5.177   4.742   4.265
 9710SOL    HW230030   5.197   4.831   4.129
 9711SOL     OW30031   3.131   0.208   6.508
 9711SOL    HW130032   3.184   0.171   6.432
 9711SOL    HW230033   3.186   0.204   6.592
 9712SOL     OW30034   4.893   6.474   5.430
 9712SOL    HW130035   4.913   6.522   5.345
 9712SOL    HW230036   4.877   6.377   5.411
 9713SOL     OW30037   0.650   0.951   2.959
 9713SOL    HW130038   0.593   0.987   3.033
 9713SOL    HW230039   0.734   0.913   2.997
 9714SOL     OW30040   2.412   2.738   3.747
 9714SOL    HW130041   2.502   2.699   3.729
 9714SOL    HW230042   2.384   2.794   3.669
 9715SOL     OW30043   0.703   1.838   6.181
 9715SOL    HW130044   0.731   1.767   6.245
 9715SOL    HW230045   0.606   1.859   6.195
 9716SOL     OW30046   1.343   6.042   1.051
 9716SOL    HW130047   1.357   6.128   1.002
 9716SOL    HW230048   1.284   6.058   1.130
 9717SOL     OW30049   4.276   1.957   6.159
 9717SOL    HW130050   4.333   1.893   6.211
 9717SOL    HW230051   4.216   2.007   6.221
 9718SOL     OW30052   2.886   2.740   6.807
 9718SOL    HW130053   2.837   2.677   6.746
 9718SOL    HW230054   2.822   2.809   6.841
 9719SOL     OW30055   4.954   0.132   6.483
 9719SOL    HW130056   5.003   0.089   6.407
 9719SOL    HW230057   4.881   0.072   6.514
 9720SOL     OW30058   2.136   2.283   2.087
 9720SOL    HW130059   2.233   2.283   2.059
 9720SOL    HW230060   2.082   2.232   2.020
 9721SOL     OW30061   0.199   1.447   1.153
 9721SOL    HW130062   0.103   1.425   1.137
 9721SOL    HW230063   0.212   1.468   1.250
 9722SOL     OW30064   3.516   2.753   5.848
 9722SOL    HW130065   3.552   2.738   5.756
 9722SOL    HW230066   3.428   2.707   5.857
 9723SOL     OW30067   5.769   1.415   4.405
 9723SOL    HW130068   5.784   1.493   4.344
 9723SOL    HW230069   5.716   1.345   4.357
 9724SOL     OW30070   1.317   5.248   1.553
 9724SOL    HW130071   1.288   5.156   1.578
 9724SOL    HW230072   1.416   5.257   1.566
 9725SOL     OW30073   5.827   5.495   4.931
 9725SOL    HW130074   5.798   5.525   4.840
 9725SOL    HW230075   5.747   5.468   4.983
 9726SOL     OW30076   6.664   0.068   2.638
 9726SOL    HW130077   6.700   0.042   2.728
 9726SOL    HW230078   6.576   0.023   2.623
 9727SOL     OW30079   6.763   3.265   0.784
 9727SOL    HW130080   6.786   3.341   0.846
 9727SOL    HW230081   6.674   3.227   0.810
 9728SOL     OW30082   5.212   2.668   5.406
 9728SOL    HW130083   5.262   2.751   5.429
 9728SOL    HW230084   5.219   2.652   5.308
 9729SOL     OW30085   6.900   3.409   2.857
 9729SOL    HW130086   6.883   3.480   2.789
 9729SOL    HW230087   6.866   3.439   2.946
 9730SOL     OW30088   0.304   6.912   3.343
 9730SOL    HW130089   0.254   6.870   3.418
 9730SOL    HW230090   0.283   7.010   3.340
 9731SOL     OW30091   6.372   0.789   1.539
 9731SOL    HW130092   6.451   0.787   1.599
 9731SOL    HW230093   6.356   0.698   1.501
 9732SOL     OW30094   6.795   2.774   2.605
 9732SOL    HW130095   6.823   2.869   2.594
 9732SOL    HW230096   6.876   2.715   2.607
 9733SOL     OW30097   4.856   6.035   0.711
 9733SOL    HW130098   4.826   5.969   0.643
 9733SOL    HW230099   4.928   6.093   0.673
 9734SOL     OW30100   3.844   3.800   0.288
 9734SOL    HW130101   3.827   3.722   0.228
 9734SOL    HW230102   3.913   3.776   0.356
 9735SOL     OW30103   0.935   2.658   0.269
 9735SOL    HW130104   0.938   2.604   0.353
 9735SOL    HW230105   0.921   2.754   0.291
 9736SOL     OW30106   6.259   2.663   5.850
 9736SOL    HW130107   6.274   2.756   5.883
 9736SOL    HW230108   6.303   2.651   5.761
 9737SOL     OW30109   5.200   3.707   5.266
 9737SOL    HW130110   5.223   3.717   5.169
 9737SOL    HW230111   5.102   3.693   5.277
 9738SOL     OW30112   2.437   6.010   1.431
 9738SOL    HW130113   2.532   6.039   1.430
 9738SOL    HW230114   2.378   6.088   1.412
 9739SOL     OW30115   5.482   5.967   1.596
 9739SOL    HW130116   5.501   6.063   1.576
 9739SOL    HW230117   5.422   5.930   1.525
 9740SOL     OW30118   6.914   0.030   1.074
 9740SOL    HW130119   6.969   0.095   1.126
 9740SOL    HW230120   6.951   0.022   0.981
 9741SOL     OW30121   2.162   2.541   3.014
 9741SOL    HW130122   2.117   2.604   2.950
 9741SOL    HW230123   2.143   2.447   2.988
 9742SOL     OW30124   5.120   6.804   6.676
 9742SOL    HW130125   5.186   6.853   6.619
 9742SOL    HW230126   5.062   6.747   6.618
 9743SOL     OW30127   5.879   3.964   4.595
 9743SOL    HW130128   5.810   3.892   4.604
 9743SOL    HW230129   5.970   3.924   4.605
 9744SOL     OW30130   1.695   2.971   2.156
 9744SOL    HW130131   1.604   2.931   2.167
 9744SOL    HW230132   1.735   2.989   2.246
 9745SOL     OW30133   1.468   0.037   5.866
 9745SOL    HW130134   1.505   0.004   5.780
 9745SOL    HW230135   1.381   0.082   5.850
 9746SOL     OW30136   3.975   5.603   5.842
 9746SOL    HW130137   4.032   5.524   5.861
 9746SOL    HW230138   4.031   5.675   5.800
 9747SOL     OW30139   4.656   1.551   3.606
 9747SOL    HW130140   4.667   1.529   3.703
 9747SOL    HW230141   4.623   1.645   3.598
 9748SOL     OW30142   0.307   1.531   1.787
 9748SOL    HW130143   0.230   1.520   1.724
 9748SOL    HW230144   0.372   1.597   1.749
 9749SOL     OW30145   6.714   6.874   1.568
 9749SOL    HW130146   6.811   6.852   1.572
 9749SOL    HW230147   6.674   6.839   1.484
 9750SOL     OW30148   5.141   3.005   4.861
 9750SOL    HW130149   5.044   3.016   4.839
 9750SOL    HW230150   5.195   3.067   4.803
 9751SOL     OW30151   3.041   4.958   0.774
 9751SOL    HW130152   2.993   4.887   0.722
 9751SOL    HW230153   3.109   5.001   0.715
 9752SOL     OW30154   4.502   4.478   0.898
 9752SOL    HW130155   4.482   4.567   0.857
 9752SOL    HW230156   4.552   4.491   0.984
 9753SOL     OW30157   5.760   6.259   3.061
 9753SOL    HW130158   5.762   6.196   2.983
 9753SOL    HW230159   5.836   6.239   3.123
 9754SOL     OW30160   3.503   1.128   2.072
 9754SOL    HW130161   3.464   1.212   2.110
 9754SOL    HW230162   3.463   1.110   1.982
 9755SOL     OW30163   4.022   4.280   1.287
 9755SOL    HW130164   3.951   4.251   1.351
 9755SOL    HW230165   3.980   4.330   1.211
 9756SOL     OW30166   4.868   0.521   6.833
 9756SOL    HW130167   4.925   0.600   6.853
 9756SOL    HW230168   4.916   0.437   6.858
 9757SOL     OW30169   5.116   4.149   3.739
 9757SOL    HW130170   5.210   4.183   3.736
 9757SOL    HW230171   5.060   4.213   3.792
 9758SOL     OW30172   2.983   0.597   0.628
 9758SOL    HW130173   2.968   0.686   0.584
 9758SOL    HW230174   2.894   0.554   0.647
 9759SOL     OW30175   6.393   0.859   0.520
 9759SOL    HW130176   6.333   0.781   0.537
 9759SOL    HW230177   6.362   0.908   0.438
 9760SOL     OW30178   4.678   0.501   5.773
 9760SOL    HW130179   4.703   0.596   5.755
 9760SOL    HW230180   4.701   0.478   5.868
 9761SOL     OW30181   0.802   2.281   1.702
 9761SOL    HW130182   0.711   2.299   1.663
 9761SOL    HW230183   0.829   2.187   1.682
 9762SOL     OW30184   3.973   1.465   5.331
 9762SOL    HW130185   4.019   1.475   5.243
 9762SOL    HW230186   4.008   1.532   5.396
 9763SOL     OW30187   6.436   1.999   0.632
 9763SOL    HW130188   6.352   1.994   0.686
 9763SOL    HW230189   6.458   2.094   0.612
 9764SOL     OW30190   6.764   2.531   3.185
 9764SOL    HW130191   6.859   2.546   3.159
 9764SOL    HW230192   6.710   2.612   3.162
 9765SOL     OW30193   0.114   1.950   0.841
 9765SOL    HW130194   0.126   2.032   0.897
 9765SOL    HW230195   0.051   1.887   0.886
 9766SOL     OW30196   0.740   3.217   2.784
 9766SOL    HW130197   0.765   3.284   2.714
 9766SOL    HW230198   0.791   3.237   2.868
 9767SOL     OW30199   3.730   1.347   4.552
 9767SOL    HW130200   3.713   1.398   4.468
 9767SOL    HW230201   3.654   1.360   4.615
 9768SOL     OW30202   4.187   3.588   6.783
 9768SOL    HW130203   4.159   3.615   6.691
 9768SOL    HW230204   4.264   3.523   6.776
 9769SOL     OW30205   2.908   0.687   5.847
 9769SOL    HW130206   2.950   0.775   5.869
 9769SOL    HW230207   2.835   0.668   5.912
 9770SOL     OW30208   1.876   3.360   4.832
 9770SOL    HW130209   1.870   3.265   4.861
 9770SOL    HW230210   1.800   3.412   4.872
 9771SOL     OW30211   3.730   0.030   1.299
 9771SOL    HW130212   3.770   0.110   1.255
 9771SOL    HW230213   3.698   0.054   1.391
 9772SOL     OW30214   0.218   0.515   1.560
 9772SOL    HW130215   0.268   0.543   1.642
 9772SOL    HW230216   0.282   0.484   1.491
 9773SOL     OW30217   4.196   6.279   2.836
 9773SOL    HW130218   4.106   6.304   2.800
 9773SOL    HW230219   4.185   6.226   2.920
 9774SOL     OW30220   1.344   5.074   5.431
 9774SOL    HW130221   1.291   5.107   5.353
 9774SOL    HW230222   1.335   4.975   5.439
 9775SOL     OW30223   1.191   1.501   3.632
 9775SOL    HW130224   1.261   1.550   3.581
 9775SOL    HW230225   1.144   1.565   3.694
 9776SOL     OW30226   0.616   5.650   1.523
 9776SOL    HW130227   0.574   5.731   1.562
 9776SOL    HW230228   0.631   5.582   1.594
 9777SOL     OW30229   5.244   2.909   5.193
 9777SOL    HW130230   5.297   2.899   5.277
 9777SOL    HW230231   5.305   2.906   5.114
 9778SOL     OW30232   1.891   2.808   2.998
 9778SOL    HW130233   1.975   2.804   2.944
 9778SOL    HW230234   1.908   2.862   3.081
 9779SOL     OW30235   1.937   0.896   2.634
 9779SOL    HW130236   1.885   0.841   2.699
 9779SOL    HW230237   2.033   0.901   2.664
 9780SOL     OW30238   1.753   1.915   1.248
 9780SOL    HW130239   1.695   1.986   1.209
 9780SOL    HW230240   1.826   1.957   1.302
 9781SOL     OW30241   0.960   0.962   2.245
 9781SOL    HW130242   0.939   0.865   2.250
 9781SOL    HW230243   1.033   0.977   2.179
 9782SOL     OW30244   0.540   2.580   6.945
 9782SOL    HW130245   0.457   2.557   6.895
 9782SOL    HW230246   0.607   2.619   6.881
 9783SOL     OW30247   5.511   1.574   2.181
 9783SOL    HW130248   5.580   1.506   2.158
 9783SOL    HW230249   5.490   1.569   2.279
 9784SOL     OW30250   2.391   1.298   0.277
 9784SOL    HW130251   2.361   1.228   0.212
 9784SOL    HW230252   2.361   1.275   0.369
 9785SOL     OW30253   1.940   3.817   4.456
 9785SOL    HW130254   2.028   3.794   4.497
 9785SOL    HW230255   1.932   3.916   4.449
 9786SOL     OW30256   3.055   4.276   0.411
 9786SOL    HW130257   3.019   4.309   0.324
 9786SOL    HW230258   3.019   4.334   0.485
 9787SOL     OW30259   2.850   3.418   0.987
 9787SOL    HW130260   2.945   3.443   1.006
 9787SOL    HW230261   2.789   3.484   1.031
 9788SOL     OW30262   2.928   0.189   3.810
 9788SOL    HW130263   2.890   0.096   3.811
 9788SOL    HW230264   2.854   0.255   3.805
 9789SOL     OW30265   4.415   1.632   0.370
 9789SOL    HW130266   4.330   1.633   0.423
 9789SOL    HW230267   4.493   1.624   0.432
 9790SOL     OW30268   4.576   5.625   5.491
 9790SOL    HW130269   4.640   5.681   5.439
 9790SOL    HW230270   4.552   5.672   5.577
 9791SOL     OW30271   0.278   0.752   0.736
 9791SOL    HW130272   0.222   0.739   0.654
 9791SOL    HW230273   0.285   0.850   0.756
 9792SOL     OW30274   3.012   3.602   7.005
 9792SOL    HW130275   3.014   3.513   0.021
 9792SOL    HW230276   2.917   3.628   6.988
 9793SOL     OW30277   5.532   0.632   1.918
 9793SOL    HW130278   5.594   0.622   1.996
 9793SOL    HW230279   5.489   0.722   1.921
 9794SOL     OW30280   4.035   5.789   5.611
 9794SOL    HW130281   4.132   5.804   5.591
 9794SOL    HW230282   3.992   5.876   5.636
 9795SOL     OW30283   1.897   4.078   3.326
 9795SOL    HW130284   1.981   4.039   3.288
 9795SOL    HW230285   1.903   4.081   3.425
 9796SOL     OW30286   3.810   3.530   5.053
 9796SOL    HW130287   3.769   3.619   5.073
 9796SOL    HW230288   3.909   3.541   5.039
 9797SOL     OW30289   3.922   5.065   0.331
 9797SOL    HW130290   3.961   5.037   0.419
 9797SOL    HW230291   3.827   5.093   0.344
 9798SOL     OW30292   0.764   4.209   5.721
 9798SOL    HW130293   0.852   4.180   5.758
 9798SOL    HW230294   0.710   4.254   5.792
 9799SOL     OW30295   3.354   0.250   6.162
 9799SOL    HW130296   3.351   0.168   6.104
 9799SOL    HW230297   3.423   0.313   6.128
 9800SOL     OW30298   0.445   4.826   4.584
 9800SOL    HW130299   0.425   4.761   4.658
 9800SOL    HW230300   0.410   4.790   4.497
 9801SOL     OW30301   4.117   6.308   0.926
 9801SOL    HW130302   4.064   6.274   1.004
 9801SOL    HW230303   4.166   6.231   0.884
 9802SOL     OW30304   4.013   2.197   0.351
 9802SOL    HW130305   4.059   2.270   0.400
 9802SOL    HW230306   4.048   2.191   0.258
 9803SOL     OW30307   2.565   3.594   0.360
 9803SOL    HW130308   2.636   3.537   0.320
 9803SOL    HW230309   2.551   3.569   0.456
 9804SOL     OW30310   0.899   3.582   3.203
 9804SOL    HW130311   0.958   3.662   3.218
 9804SOL    HW230312   0.835   3.573   3.279
 9805SOL     OW30313   6.877   4.626   5.221
 9805SOL    HW130314   6.889   4.576   5.307
 9805SOL    HW230315   6.820   4.573   5.159
 9806SOL     OW30316   3.371   1.075   0.334
 9806SOL    HW130317   3.389   1.172   0.315
 9806SOL    HW230318   3.457   1.026   0.342
 9807SOL     OW30319   3.858   3.362   4.674
 9807SOL    HW130320   3.803   3.343   4.755
 9807SOL    HW230321   3.894   3.456   4.680
 9808SOL     OW30322   2.554   6.863   2.517
 9808SOL    HW130323   2.520   6.775   2.550
 9808SOL    HW230324   2.645   6.850   2.478
 9809SOL     OW30325   0.108   3.670   1.171
 9809SOL    HW130326   0.126   3.602   1.242
 9809SOL    HW230327   0.181   3.667   1.103
 9810SOL     OW30328   4.055   2.892   1.160
 9810SOL    HW130329   4.093   2.809   1.201
 9810SOL    HW230330   4.017   2.950   1.232
 9811SOL     OW30331   5.332   3.496   3.729
 9811SOL    HW130332   5.235   3.490   3.750
 9811SOL    HW230333   5.385   3.457   3.804
 9812SOL     OW30334   3.107   5.446   6.513
 9812SOL    HW130335   3.068   5.377   6.574
 9812SOL    HW230336   3.191   5.410   6.471
 9813SOL     OW30337   4.581   0.407   2.103
 9813SOL    HW130338   4.491   0.368   2.127
 9813SOL    HW230339   4.593   0.494   2.150
 9814SOL     OW30340   6.575   1.453   6.410
 9814SOL    HW130341   6.482   1.478   6.386
 9814SOL    HW230342   6.638   1.525   6.381
 9815SOL     OW30343   5.419   2.911   4.919
 9815SOL    HW130344   5.486   2.943   4.852
 9815SOL    HW230345   5.335   2.885   4.872
 9816SOL     OW30346   4.161   0.809   0.132
 9816SOL    HW130347   4.182   0.713   0.149
 9816SOL    HW230348   4.211   0.866   0.197
 9817SOL     OW30349   5.961   0.174   1.132
 9817SOL    HW130350   6.002   0.085   1.149
 9817SOL    HW230351   6.031   0.237   1.099
 9818SOL     OW30352   4.151   2.167   5.011
 9818SOL    HW130353   4.052   2.164   4.997
 9818SOL    HW230354   4.181   2.262   5.017
 9819SOL     OW30355   2.740   0.095   1.835
 9819SOL    HW130356   2.648   0.128   1.812
 9819SOL    HW230357   2.761   0.118   1.930
 9820SOL     OW30358   4.342   2.816   0.225
 9820SOL    HW130359   4.322   2.758   0.304
 9820SOL    HW230360   4.257   2.852   0.187
 9821SOL     OW30361   0.748   6.337   6.708
 9821SOL    HW130362   0.782   6.280   6.633
 9821SOL    HW230363   0.782   6.301   6.795
 9822SOL     OW30364   7.016   2.092   2.254
 9822SOL    HW130365   6.980   2.112   2.346
 9822SOL    HW230366   6.978   2.006   2.221
 9823SOL     OW30367   2.699   6.319   2.824
 9823SOL    HW130368   2.691   6.238   2.882
 9823SOL    HW230369   2.735   6.292   2.734
 9824SOL     OW30370   2.294   3.952   5.425
 9824SOL    HW130371   2.205   3.910   5.410
 9824SOL    HW230372   2.342   3.962   5.338
 9825SOL     OW30373   4.585   4.470   5.426
 9825SOL    HW130374   4.489   4.481   5.452
 9825SOL    HW230375   4.626   4.396   5.479
 9826SOL     OW30376   6.024   0.261   5.119
 9826SOL    HW130377   5.953   0.221   5.176
 9826SOL    HW230378   5.992   0.348   5.082
 9827SOL     OW30379   0.974   5.808   4.719
 9827SOL    HW130380   1.037   5.820   4.795
 9827SOL    HW230381   0.904   5.741   4.744
 9828SOL     OW30382   2.635   1.422   0.307
 9828SOL    HW130383   2.678   1.460   0.225
 9828SOL    HW230384   2.547   1.381   0.282
 9829SOL     OW30385   3.431   4.481   1.420
 9829SOL    HW130386   3.385   4.533   1.349
 9829SOL    HW230387   3.520   4.521   1.439
 9830SOL     OW30388   5.921   0.830   0.998
 9830SOL    HW130389   5.933   0.928   0.981
 9830SOL    HW230390   5.845   0.796   0.943
 9831SOL     OW30391   6.929   5.859   0.968
 9831SOL    HW130392   7.021   5.891   0.989
 9831SOL    HW230393   6.893   5.806   1.045
 9832SOL     OW30394   2.929   3.897   1.608
 9832SOL    HW130395   2.887   3.933   1.525
 9832SOL    HW230396   2.957   3.973   1.667
 9833SOL     OW30397   4.921   4.328   0.246
 9833SOL    HW130398   4.884   4.245   0.205
 9833SOL    HW230399   4.966   4.383   0.176
 9834SOL     OW30400   2.152   3.152   3.715
 9834SOL    HW130401   2.179   3.229   3.773
 9834SOL    HW230402   2.183   3.168   3.621
 9835SOL     OW30403   5.046   2.726   4.878
 9835SOL    HW130404   5.074   2.673   4.798
 9835SOL    HW230405   5.098   2.811   4.881
 9836SOL     OW30406   5.347   5.052   1.353
 9836SOL    HW130407   5.431   5.017   1.396
 9836SOL    HW230408   5.356   5.047   1.254
 9837SOL     OW30409   2.051   5.078   5.251
 9837SOL    HW130410   2.123   5.055   5.184
 9837SOL    HW230411   2.034   4.998   5.309
 9838SOL     OW30412   6.782   6.563   5.024
 9838SOL    HW130413   6.843   6.641   5.033
 9838SOL    HW230414   6.832   6.479   5.046
 9839SOL     OW30415   5.886   3.018   3.075
 9839SOL    HW130416   5.806   3.078   3.079
 9839SOL    HW230417   5.968   3.071   3.095
 9840SOL     OW30418   6.155   0.072   0.236
 9840SOL    HW130419   6.158   0.154   0.292
 9840SOL    HW230420   6.106   0.000   0.285
 9841SOL     OW30421   1.614   3.069   4.058
 9841SOL    HW130422   1.714   3.070   4.063
 9841SOL    HW230423   1.582   3.153   4.015
 9842SOL     OW30424   3.032   3.342   4.025
 9842SOL    HW130425   2.993   3.415   4.082
 9842SOL    HW230426   2.999   3.352   3.931
 9843SOL     OW30427   5.613   4.502   3.596
 9843SOL    HW130428   5.697   4.526   3.547
 9843SOL    HW230429   5.534   4.529   3.540
 9844SOL     OW30430   3.885   0.181   1.510
 9844SOL    HW130431   3.875   0.270   1.555
 9844SOL    HW230432   3.954   0.188   1.437
 9845SOL     OW30433   1.366   1.536   4.544
 9845SOL    HW130434   1.369   1.515   4.446
 9845SOL    HW230435   1.449   1.584   4.570
 9846SOL     OW30436   2.856   3.499   4.196
 9846SOL    HW130437   2.908   3.553   4.262
 9846SOL    HW230438   2.812   3.422   4.243
 9847SOL     OW30439   2.405   4.392   4.189
 9847SOL    HW130440   2.432   4.435   4.103
 9847SOL    HW230441   2.451   4.438   4.265
 9848SOL     OW30442   0.246   4.465   0.217
 9848SOL    HW130443   0.279   4.515   0.297
 9848SOL    HW230444   0.312   4.472   0.143
 9849SOL     OW30445   6.805   5.925   5.330
 9849SOL    HW130446   6.744   5.852   5.362
 9849SOL    HW230447   6.885   5.884   5.285
 9850SOL     OW30448   5.501   6.882   3.712
 9850SOL    HW130449   5.406   6.908   3.733
 9850SOL    HW230450   5.518   6.900   3.615
 9851SOL     OW30451   5.381   2.450   5.033
 9851SOL    HW130452   5.290   2.454   5.074
 9851SOL    HW230453   5.450   2.464   5.104
 9852SOL     OW30454   5.433   2.034   3.679
 9852SOL    HW130455   5.456   2.081   3.764
 9852SOL    HW230456   5.482   2.078   3.603
 9853SOL     OW30457   6.920   5.251   1.191
 9853SOL    HW130458   6.935   5.323   1.124
 9853SOL    HW230459   6.893   5.292   1.279
 9854SOL     OW30460   3.026   0.166   4.335
 9854SOL    HW130461   3.022   0.199   4.240
 9854SOL    HW230462   2.958   0.094   4.347
 9855SOL     OW30463   2.475   4.537   1.229
 9855SOL    HW130464   2.417   4.516   1.309
 9855SOL    HW230465   2.448   4.625   1.190
 9856SOL     OW30466   3.610   3.325   1.480
 9856SOL    HW130467   3.590   3.408   1.428
 9856SOL    HW230468   3.525   3.278   1.502
 9857SOL     OW30469   5.824   5.075   3.140
 9857SOL    HW130470   5.740   5.071   3.194
 9857SOL    HW230471   5.849   5.170   3.124
 9858SOL     OW30472   3.546   0.932   1.457
 9858SOL    HW130473   3.477   1.004   1.456
 9858SOL    HW230474   3.604   0.942   1.537
 9859SOL     OW30475   0.363   6.368   1.278
 9859SOL    HW130476   0.453   6.369   1.323
 9859SOL    HW230477   0.301   6.429   1.327
 9860SOL     OW30478   0.894   0.877   3.043
 9860SOL    HW130479   0.867   0.863   3.138
 9860SOL    HW230480   0.968   0.814   3.019
 9861SOL     OW30481   2.086   6.296   3.860
 9861SOL    HW130482   2.184   6.307   3.838
 9861SOL    HW230483   2.035   6.369   3.815
 9862SOL     OW30484   0.248   1.625   0.302
 9862SOL    HW130485   0.200   1.647   0.387
 9862SOL    HW230486   0.194   1.559   0.249
 9863SOL     OW30487   4.976   0.719   0.367
 9863SOL    HW130488   5.023   0.806   0.380
 9863SOL    HW230489   4.883   0.736   0.333
 9864SOL     OW30490   3.826   5.409   4.209
 9864SOL    HW130491   3.900   5.345   4.232
 9864SOL    HW230492   3.738   5.361   4.211
 9865SOL     OW30493   2.100   3.660   3.631
 9865SOL    HW130494   2.114   3.639   3.728
 9865SOL    HW230495   2.146   3.592   3.575
 9866SOL     OW30496   2.814   4.698   3.285
 9866SOL    HW130497   2.745   4.754   3.240
 9866SOL    HW230498   2.831   4.615   3.231
 9867SOL     OW30499   3.642   6.516   5.878
 9867SOL    HW130500   3.543   6.529   5.877
 9867SOL    HW230501   3.674   6.494   5.786
 9868SOL     OW30502   1.432   5.339   6.163
 9868SOL    HW130503   1.353   5.400   6.165
 9868SOL    HW230504   1.401   5.244   6.157
 9869SOL     OW30505   0.756   5.108   3.259
 9869SOL    HW130506   0.741   5.183   3.324
 9869SOL    HW230507   0.834   5.129   3.200
 9870SOL     OW30508   4.282   5.693   1.914
 9870SOL    HW130509   4.323   5.602   1.926
 9870SOL    HW230510   4.325   5.738   1.836
 9871SOL     OW30511   2.272   2.617   5.713
 9871SOL    HW130512   2.238   2.582   5.625
 9871SOL    HW230513   2.243   2.556   5.786
 9872SOL     OW30514   1.306   3.559   3.004
 9872SOL    HW130515   1.317   3.652   3.039
 9872SOL    HW230516   1.393   3.510   3.012
 9873SOL     OW30517   2.024   2.347   1.810
 9873SOL    HW130518   2.118   2.358   1.777
 9873SOL    HW230519   1.960   2.372   1.737
 9874SOL     OW30520   1.150   3.876   4.441
 9874SOL    HW130521   1.096   3.959   4.451
 9874SOL    HW230522   1.101   3.798   4.481
 9875SOL     OW30523   1.193   1.393   3.122
 9875SOL    HW130524   1.149   1.303   3.123
 9875SOL    HW230525   1.203   1.424   3.028
 9876SOL     OW30526   6.640   6.392   2.455
 9876SOL    HW130527   6.551   6.437   2.453
 9876SOL    HW230528   6.684   6.401   2.366
 9877SOL     OW30529   4.278   0.140   1.167
 9877SOL    HW130530   4.352   0.207   1.179
 9877SOL    HW230531   4.295   0.086   1.085
 9878SOL     OW30532   6.775   1.509   4.706
 9878SOL    HW130533   6.830   1.498   4.623
 9878SOL    HW230534   6.808   1.589   4.757
 9879SOL     OW30535   5.297   5.279   5.468
 9879SOL    HW130536   5.262   5.297   5.560
 9879SOL    HW230537   5.387   5.321   5.458
 9880SOL     OW30538   1.031   2.461   3.549
 9880SOL    HW130539   0.972   2.421   3.479
 9880SOL    HW230540   1.124   2.426   3.537
 9881SOL     OW30541   0.097   1.724   5.837
 9881SOL    HW130542   0.107   1.636   5.792
 9881SOL    HW230543   0.085   1.796   5.769
 9882SOL     OW30544   1.730   2.580   3.411
 9882SOL    HW130545   1.661   2.602   3.341
 9882SOL    HW230546   1.810   2.540   3.366
 9883SOL     OW30547   3.081   1.369   2.336
 9883SOL    HW130548   3.055   1.368   2.239
 9883SOL    HW230549   3.115   1.279   2.363
 9884SOL     OW30550   3.115   0.634   3.774
 9884SOL    HW130551   3.020   0.605   3.788
 9884SOL    HW230552   3.124   0.731   3.798
 9885SOL     OW30553   6.735   3.283   4.529
 9885SOL    HW130554   6.798   3.306   4.456
 9885SOL    HW230555   6.766   3.323   4.615
 9886SOL     OW30556   6.849   2.608   1.921
 9886SOL    HW130557   6.810   2.519   1.942
 9886SOL    HW230558   6.787   2.680   1.953
 9887SOL     OW30559   4.357   6.145   5.683
 9887SOL    HW130560   4.452   6.118   5.698
 9887SOL    HW230561   4.329   6.209   5.754
 9888SOL     OW30562   6.452   5.519   5.168
 9888SOL    HW130563   6.462   5.564   5.256
 9888SOL    HW230564   6.475   5.422   5.177
 9889SOL     OW30565   0.549   5.641   0.825
 9889SOL    HW130566   0.491   5.717   0.855
 9889SOL    HW230567   0.635   5.677   0.790
 9890SOL     OW30568   0.835   3.127   1.096
 9890SOL    HW130569   0.846   3.226   1.110
 9890SOL    HW230570   0.818   3.109   0.999
 9891SOL     OW30571   5.119   1.550   2.603
 9891SOL    HW130572   5.101   1.647   2.587
 9891SOL    HW230573   5.096   1.498   2.521
 9892SOL     OW30574   1.167   0.256   6.491
 9892SOL    HW130575   1.182   0.355   6.490
 9892SOL    HW230576   1.070   0.238   6.506
 9893SOL     OW30577   2.108   1.741   0.208
 9893SOL    HW130578   2.040   1.670   0.224
 9893SOL    HW230579   2.185   1.703   0.159
 9894SOL     OW30580   2.372   1.155   1.462
 9894SOL    HW130581   2.387   1.253   1.455
 9894SOL    HW230582   2.313   1.135   1.540
 9895SOL     OW30583   4.318   2.906   5.634
 9895SOL    HW130584   4.344   2.894   5.538
 9895SOL    HW230585   4.230   2.953   5.638
 9896SOL     OW30586   6.439   6.751   5.890
 9896SOL    HW130587   6.529   6.709   5.882
 9896SOL    HW230588   6.434   6.803   5.976
 9897SOL     OW30589   6.011   4.938   5.033
 9897SOL    HW130590   6.051   4.981   4.953
 9897SOL    HW230591   6.014   5.002   5.110
 9898SOL     OW30592   2.444   6.928   6.732
 9898SOL    HW130593   2.465   6.994   6.660
 9898SOL    HW230594   2.493   6.953   6.816
 9899SOL     OW30595   0.297   4.596   0.434
 9899SOL    HW130596   0.198   4.610   0.444
 9899SOL    HW230597   0.346   4.673   0.475
 9900SOL     OW30598   2.400   5.014   3.233
 9900SOL    HW130599   2.401   4.935   3.171
 9900SOL    HW230600   2.483   5.013   3.289
 9901SOL     OW30601   1.968   3.164   5.222
 9901SOL    HW130602   1.991   3.121   5.309
 9901SOL    HW230603   2.042   3.149   5.157
 9902SOL     OW30604   3.307   4.480   1.148
 9902SOL    HW130605   3.243   4.557   1.150
 9902SOL    HW230606   3.264   4.400   1.191
 9903SOL     OW30607   5.471   1.255   5.219
 9903SOL    HW130608   5.560   1.225   5.252
 9903SOL    HW230609   5.415   1.175   5.197
 9904SOL     OW30610   6.181   1.442   0.392
 9904SOL    HW130611   6.227   1.450   0.481
 9904SOL    HW230612   6.091   1.485   0.397
 9905SOL     OW30613   5.186   6.973   0.184
 9905SOL    HW130614   5.268   7.023   0.157
 9905SOL    HW230615   5.161   6.909   0.111
 9906SOL     OW30616   3.028   3.364   5.322
 9906SOL    HW130617   2.937   3.364   5.281
 9906SOL    HW230618   3.026   3.313   5.408
 9907SOL     OW30619   1.629   5.866   1.922
 9907SOL    HW130620   1.600   5.773   1.945
 9907SOL    HW230621   1.630   5.922   2.005
 9908SOL     OW30622   5.199   3.476   1.725
 9908SOL    HW130623   5.256   3.394   1.716
 9908SOL    HW230624   5.245   3.542   1.784
 9909SOL     OW30625   1.889   0.234   4.689
 9909SOL    HW130626   1.908   0.320   4.737
 9909SOL    HW230627   1.795   0.205   4.707
 9910SOL     OW30628   0.398   4.721   4.342
 9910SOL    HW130629   0.359   4.640   4.300
 9910SOL    HW230630   0.488   4.699   4.380
 9911SOL     OW30631   2.471   6.622   2.610
 9911SOL    HW130632   2.549   6.631   2.672
 9911SOL    HW230633   2.478   6.535   2.560
 9912SOL     OW30634   5.165   0.843   5.431
 9912SOL    HW130635   5.124   0.902   5.361
 9912SOL    HW230636   5.241   0.891   5.474
 9913SOL     OW30637   4.988   3.399   1.061
 9913SOL    HW130638   5.074   3.432   1.022
 9913SOL    HW230639   4.941   3.342   0.994
 9914SOL     OW30640   0.595   3.511   4.353
 9914SOL    HW130641   0.534   3.522   4.274
 9914SOL    HW230642   0.557   3.560   4.431
 9915SOL     OW30643   4.278   1.144   3.760
 9915SOL    HW130644   4.376   1.146   3.743
 9915SOL    HW230645   4.234   1.222   3.715
 9916SOL     OW30646   1.426   3.289   1.401
 9916SOL    HW130647   1.449   3.241   1.486
 9916SOL    HW230648   1.398   3.223   1.331
 9917SOL     OW30649   6.486   4.851   5.957
 9917SOL    HW130650   6.409   4.817   6.010
 9917SOL    HW230651   6.453   4.900   5.876
 9918SOL     OW30652   5.024   3.033   2.467
 9918SOL    HW130653   5.107   2.994   2.507
 9918SOL    HW230654   5.043   3.060   2.372
 9919SOL     OW30655   5.249   5.911   0.025
 9919SOL    HW130656   5.246   5.844   0.099
 9919SOL    HW230657   5.227   5.866   6.968
 9920SOL     OW30658   4.569   0.926   2.417
 9920SOL    HW130659   4.523   1.014   2.411
 9920SOL    HW230660   4.627   0.914   2.337
 9921SOL     OW30661   4.205   4.986   6.136
 9921SOL    HW130662   4.210   4.943   6.045
 9921SOL    HW230663   4.133   4.941   6.189
 9922SOL     OW30664   0.075   6.212   1.361
 9922SOL    HW130665   0.096   6.248   1.452
 9922SOL    HW230666   0.042   6.286   1.303
 9923SOL     OW30667   6.249   3.890   0.284
 9923SOL    HW130668   6.174   3.900   0.218
 9923SOL    HW230669   6.255   3.973   0.340
 9924SOL     OW30670   1.585   4.718   4.656
 9924SOL    HW130671   1.662   4.655   4.646
 9924SOL    HW230672   1.597   4.771   4.740
 9925SOL     OW30673   4.658   2.690   4.343
 9925SOL    HW130674   4.636   2.640   4.427
 9925SOL    HW230675   4.752   2.722   4.347
 9926SOL     OW30676   3.030   5.532   1.672
 9926SOL    HW130677   3.042   5.455   1.735
 9926SOL    HW230678   2.974   5.503   1.594
 9927SOL     OW30679   5.461   0.650   4.217
 9927SOL    HW130680   5.464   0.743   4.182
 9927SOL    HW230681   5.546   0.602   4.194
 9928SOL     OW30682   5.102   4.216   2.430
 9928SOL    HW130683   5.039   4.264   2.369
 9928SOL    HW230684   5.180   4.182   2.377
 9929SOL     OW30685   0.782   4.128   3.559
 9929SOL    HW130686   0.735   4.043   3.580
 9929SOL    HW230687   0.846   4.113   3.483
 9930SOL     OW30688   5.574   0.901   2.712
 9930SOL    HW130689   5.596   0.903   2.809
 9930SOL    HW230690   5.493   0.846   2.696
 9931SOL     OW30691   1.383   5.641   5.299
 9931SOL    HW130692   1.390   5.564   5.363
 9931SOL    HW230693   1.444   5.714   5.328
 9932SOL     OW30694   0.310   5.906   4.385
 9932SOL    HW130695   0.330   5.875   4.292
 9932SOL    HW230696   0.254   5.837   4.431
 9933SOL     OW30697   6.649   6.804   2.855
 9933SOL    HW130698   6.594   6.767   2.930
 9933SOL    HW230699   6.606   6.782   2.767
 9934SOL     OW30700   0.116   2.675   4.726
 9934SOL    HW130701   0.190   2.654   4.790
 9934SOL    HW230702   0.106   2.601   4.660
 9935SOL     OW30703   1.873   6.989   6.010
 9935SOL    HW130704   1.809   6.976   6.086
 9935SOL    HW230705   1.868   6.910   5.949
 9936SOL     OW30706   1.956   4.091   3.597
 9936SOL    HW130707   2.001   4.180   3.599
 9936SOL    HW230708   1.924   4.068   3.689
 9937SOL     OW30709   6.731   3.248   5.888
 9937SOL    HW130710   6.659   3.213   5.947
 9937SOL    HW230711   6.790   3.310   5.940
 9938SOL     OW30712   6.349   5.972   2.560
 9938SOL    HW130713   6.301   5.945   2.644
 9938SOL    HW230714   6.353   6.071   2.554
 9939SOL     OW30715   3.138   3.053   3.450
 9939SOL    HW130716   3.223   2.999   3.450
 9939SOL    HW230717   3.119   3.083   3.544
 9940SOL     OW30718   0.089   1.186   1.096
 9940SOL    HW130719   0.091   1.089   1.121
 9940SOL    HW230720   0.155   1.203   1.023
 9941SOL     OW30721   3.533   5.754   5.457
 9941SOL    HW130722   3.554   5.753   5.359
 9941SOL    HW230723   3.487   5.669   5.483
 9942SOL     OW30724   2.986   6.152   3.761
 9942SOL    HW130725   2.890   6.150   3.734
 9942SOL    HW230726   3.007   6.072   3.817
 9943SOL     OW30727   0.442   6.291   4.765
 9943SOL    HW130728   0.449   6.364   4.832
 9943SOL    HW230729   0.486   6.320   4.680
 9944SOL     OW30730   1.703   4.543   5.766
 9944SOL    HW130731   1.785   4.538   5.709
 9944SOL    HW230732   1.623   4.525   5.710
 9945SOL     OW30733   0.262   5.534   6.723
 9945SOL    HW130734   0.219   5.549   6.634
 9945SOL    HW230735   0.331   5.605   6.739
 9946SOL     OW30736   5.512   0.620   3.802
 9946SOL    HW130737   5.547   0.542   3.853
 9946SOL    HW230738   5.588   0.666   3.755
 9947SOL     OW30739   6.041   4.341   3.831
 9947SOL    HW130740   6.007   4.303   3.917
 9947SOL    HW230741   6.040   4.441   3.836
 9948SOL     OW30742   5.324   4.261   3.367
 9948SOL    HW130743   5.265   4.216   3.300
 9948SOL    HW230744   5.386   4.194   3.408
 9949SOL     OW30745   5.770   4.921   2.095
 9949SOL    HW130746   5.800   4.826   2.082
 9949SOL    HW230747   5.810   4.978   2.024
 9950SOL     OW30748   3.920   6.401   0.221
 9950SOL    HW130749   3.858   6.325   0.205
 9950SOL    HW230750   3.925   6.420   0.319
 9951SOL     OW30751   5.790   3.042   2.571
 9951SOL    HW130752   5.824   3.011   2.659
 9951SOL    HW230753   5.782   2.964   2.509
 9952SOL     OW30754   0.967   4.726   6.353
 9952SOL    HW130755   0.907   4.660   6.399
 9952SOL    HW230756   0.929   4.749   6.263
 9953SOL     OW30757   5.682   3.494   3.712
 9953SOL    HW130758   5.636   3.582   3.720
 9953SOL    HW230759   5.653   3.434   3.787
 9954SOL     OW30760   5.488   0.821   4.844
 9954SOL    HW130761   5.462   0.916   4.824
 9954SOL    HW230762   5.419   0.780   4.903
 9955SOL     OW30763   0.812   5.118   5.074
 9955SOL    HW130764   0.858   5.124   5.163
 9955SOL    HW230765   0.847   5.040   5.024
 9956SOL     OW30766   0.752   5.886   0.038
 9956SOL    HW130767   0.657   5.888   0.008
 9956SOL    HW230768   0.812   5.912   6.992
 9957SOL     OW30769   5.863   5.809   2.540
 9957SOL    HW130770   5.779   5.856   2.566
 9957SOL    HW230771   5.923   5.873   2.492
 9958SOL     OW30772   2.675   4.450   0.955
 9958SOL    HW130773   2.653   4.415   1.046
 9958SOL    HW230774   2.708   4.544   0.962
 9959SOL     OW30775   3.840   3.943   0.969
 9959SOL    HW130776   3.760   3.887   0.944
 9959SOL    HW230777   3.860   4.006   0.894
 9960SOL     OW30778   0.495   0.985   1.917
 9960SOL    HW130779   0.441   1.069   1.915
 9960SOL    HW230780   0.519   0.963   2.012
 9961SOL     OW30781   1.881   4.378   4.799
 9961SOL    HW130782   1.893   4.279   4.803
 9961SOL    HW230783   1.962   4.423   4.837
 9962SOL     OW30784   6.254   6.552   4.458
 9962SOL    HW130785   6.318   6.623   4.430
 9962SOL    HW230786   6.280   6.465   4.416
 9963SOL     OW30787   3.524   2.104   0.216
 9963SOL    HW130788   3.509   2.129   0.312
 9963SOL    HW230789   3.533   2.188   0.161
 9964SOL     OW30790   5.325   6.193   4.703
 9964SOL    HW130791   5.380   6.167   4.624
 9964SOL    HW230792   5.284   6.283   4.687
 9965SOL     OW30793   4.656   0.182   1.695
 9965SOL    HW130794   4.730   0.148   1.753
 9965SOL    HW230795   4.568   0.147   1.729
 9966SOL     OW30796   6.442   1.323   2.332
 9966SOL    HW130797   6.354   1.363   2.354
 9966SOL    HW230798   6.431   1.255   2.259
 9967SOL     OW30799   0.934   5.380   0.479
 9967SOL    HW130800   0.847   5.360   0.524
 9967SOL    HW230801   1.010   5.359   0.541
 9968SOL     OW30802   3.319   2.891   2.979
 9968SOL    HW130803   3.349   2.893   2.884
 9968SOL    HW230804   3.231   2.937   2.988
 9969SOL     OW30805   1.627   3.005   1.170
 9969SOL    HW130806   1.578   2.927   1.210
 9969SOL    HW230807   1.652   2.984   1.076
 9970SOL     OW30808   6.899   4.225   2.747
 9970SOL    HW130809   6.873   4.226   2.651
 9970SOL    HW230810   6.982   4.170   2.758
 9971SOL     OW30811   2.979   6.685   6.578
 9971SOL    HW130812   2.920   6.666   6.656
 9971SOL    HW230813   3.073   6.659   6.601
 9972SOL     OW30814   0.075   4.853   1.690
 9972SOL    HW130815   0.022   4.844   1.774
 9972SOL    HW230816   0.168   4.881   1.712
 9973SOL     OW30817   4.888   6.601   3.745
 9973SOL    HW130818   4.959   6.582   3.677
 9973SOL    HW230819   4.905   6.690   3.787
 9974SOL     OW30820   2.614   1.241   4.180
 9974SOL    HW130821   2.540   1.290   4.133
 9974SOL    HW230822   2.647   1.166   4.122
 9975SOL     OW30823   6.523   3.493   1.548
 9975SOL    HW130824   6.553   3.588   1.552
 9975SOL    HW230825   6.423   3.489   1.543
 9976SOL     OW30826   3.269   6.461   4.594
 9976SOL    HW130827   3.220   6.374   4.588
 9976SOL    HW230828   3.216   6.532   4.548
 9977SOL     OW30829   6.795   4.935   3.868
 9977SOL    HW130830   6.836   4.865   3.809
 9977SOL    HW230831   6.792   4.901   3.962
 9978SOL     OW30832   0.319   3.284   4.132
 9978SOL    HW130833   0.241   3.258   4.075
 9978SOL    HW230834   0.368   3.202   4.161
 9979SOL     OW30835   0.788   3.308   5.319
 9979SOL    HW130836   0.869   3.300   5.378
 9979SOL    HW230837   0.765   3.404   5.308
 9980SOL     OW30838   3.146   6.856   5.683
 9980SOL    HW130839   3.195   6.900   5.608
 9980SOL    HW230840   3.048   6.852   5.662
 9981SOL     OW30841   3.203   1.774   3.107
 9981SOL    HW130842   3.195   1.781   3.206
 9981SOL    HW230843   3.140   1.704   3.074
 9982SOL     OW30844   5.914   0.295   2.504
 9982SOL    HW130845   5.991   0.250   2.460
 9982SOL    HW230846   5.948   0.370   2.561
 9983SOL     OW30847   6.597   0.351   0.883
 9983SOL    HW130848   6.590   0.451   0.883
 9983SOL    HW230849   6.686   0.323   0.919
 9984SOL     OW30850   3.283   0.495   6.783
 9984SOL    HW130851   3.292   0.410   6.731
 9984SOL    HW230852   3.188   0.525   6.782
 9985SOL     OW30853   1.438   1.967   0.671
 9985SOL    HW130854   1.482   1.907   0.738
 9985SOL    HW230855   1.472   2.060   0.682
 9986SOL     OW30856   5.406   4.310   5.052
 9986SOL    HW130857   5.350   4.347   4.978
 9986SOL    HW230858   5.462   4.235   5.017
 9987SOL     OW30859   0.330   4.712   4.816
 9987SOL    HW130860   0.247   4.705   4.762
 9987SOL    HW230861   0.348   4.624   4.861
 9988SOL     OW30862   6.071   1.408   4.051
 9988SOL    HW130863   6.049   1.493   4.004
 9988SOL    HW230864   5.989   1.350   4.056
 9989SOL     OW30865   1.372   2.477   5.068
 9989SOL    HW130866   1.375   2.378   5.054
 9989SOL    HW230867   1.383   2.523   4.980
 9990SOL     OW30868   1.059   4.832   1.227
 9990SOL    HW130869   0.967   4.797   1.247
 9990SOL    HW230870   1.090   4.796   1.139
 9991SOL     OW30871   3.830   2.137   3.931
 9991SOL    HW130872   3.744   2.088   3.946
 9991SOL    HW230873   3.849   2.142   3.833
 9992SOL     OW30874   6.742   4.582   6.566
 9992SOL    HW130875   6.721   4.620   6.476
 9992SOL    HW230876   6.687   4.629   6.636
 9993SOL     OW30877   1.480   0.969   1.725
 9993SOL    HW130878   1.393   0.931   1.692
 9993SOL    HW230879   1.520   1.026   1.654
 9994SOL     OW30880   5.865   4.458   3.433
 9994SOL    HW130881   5.889   4.458   3.336
 9994SOL    HW230882   5.933   4.405   3.484
 9995SOL     OW30883   5.316   2.003   4.540
 9995SOL    HW130884   5.397   1.945   4.533
 9995SOL    HW230885   5.271   2.009   4.451
 9996SOL     OW30886   3.087   2.872   1.337
 9996SOL    HW130887   3.173   2.912   1.306
 9996SOL    HW230888   3.101   2.826   1.425
 9997SOL     OW30889   2.989   0.838   4.678
 9997SOL    HW130890   3.047   0.761   4.651
 9997SOL    HW230891   3.039   0.924   4.669
 9998SOL     OW30892   6.448   6.039   5.421
 9998SOL    HW130893   6.412   6.129   5.395
 9998SOL    HW230894   6.530   6.050   5.477
 9999SOL     OW30895   0.323   0.857   5.461
 9999SOL    HW130896   0.306   0.780   5.524
 9999SOL    HW230897   0.289   0.833   5.370
10000SOL     OW30898   6.728   4.861   0.575
10000SOL    HW130899   6.677   4.883   0.492
10000SOL    HW230900   6.771   4.771   0.564
10001SOL     OW30901   3.828   0.895   4.036
10001SOL    HW130902   3.735   0.928   4.024
10001SOL    HW230903   3.884   0.923   3.957
10002SOL     OW30904   0.973   1.964   1.974
10002SOL    HW130905   1.027   1.902   1.918
10002SOL    HW230906   1.028   2.043   1.999
10003SOL     OW30907   5.713   3.452   1.313
10003SOL    HW130908   5.760   3.401   1.241
10003SOL    HW230909   5.615   3.433   1.309
10004SOL     OW30910   6.107   3.766   4.214
10004SOL    HW130911   6.106   3.682   4.161
10004SOL    HW230912   6.108   3.744   4.312
10005SOL     OW30913   4.557   6.975   3.086
10005SOL    HW130914   4.621   6.961   3.162
10005SOL    HW230915   4.470   7.007   3.123
10006SOL     OW30916   5.374   2.860   4.297
10006SOL    HW130917   5.417   2.913   4.224
10006SOL    HW230918   5.303   2.916   4.340
10007SOL     OW30919   5.089   5.864   4.064
10007SOL    HW130920   5.052   5.938   4.121
10007SOL    HW230921   5.144   5.904   3.990
10008SOL     OW30922   2.360   6.518   4.307
10008SOL    HW130923   2.451   6.543   4.341
10008SOL    HW230924   2.334   6.429   4.343
10009SOL     OW30925   2.504   4.262   1.828
10009SOL    HW130926   2.472   4.333   1.891
10009SOL    HW230927   2.598   4.283   1.800
10010SOL     OW30928   5.661   0.703   5.182
10010SOL    HW130929   5.579   0.760   5.183
10010SOL    HW230930   5.696   0.693   5.274
10011SOL     OW30931   6.345   6.841   3.461
10011SOL    HW130932   6.429   6.821   3.511
10011SOL    HW230933   6.363   6.910   3.391
10012SOL     OW30934   4.694   2.184   4.928
10012SOL    HW130935   4.793   2.197   4.914
10012SOL    HW230936   4.676   2.088   4.945
10013SOL     OW30937   2.001   0.646   1.208
10013SOL    HW130938   1.918   0.655   1.152
10013SOL    HW230939   2.015   0.730   1.259
10014SOL     OW30940   1.264   5.036   5.709
10014SOL    HW130941   1.225   5.118   5.667
10014SOL    HW230942   1.358   5.055   5.738
10015SOL     OW30943   2.652   6.228   6.306
10015SOL    HW130944   2.677   6.250   6.401
10015SOL    HW230945   2.632   6.130   6.299
10016SOL     OW30946   2.690   1.474   5.260
10016SOL    HW130947   2.774   1.528   5.263
10016SOL    HW230948   2.702   1.391   5.314
10017SOL     OW30949   6.277   2.187   2.678
10017SOL    HW130950   6.328   2.118   2.626
10017SOL    HW230951   6.193   2.146   2.714
10018SOL     OW30952   4.172   7.007   5.464
10018SOL    HW130953   4.164   0.053   5.529
10018SOL    HW230954   4.111   7.022   5.387
10019SOL     OW30955   0.256   0.724   3.674
10019SOL    HW130956   0.250   0.823   3.691
10019SOL    HW230957   0.241   0.706   3.577
10020SOL     OW30958   1.111   3.596   0.447
10020SOL    HW130959   1.028   3.635   0.406
10020SOL    HW230960   1.137   3.514   0.396
10021SOL     OW30961   5.061   2.923   0.829
10021SOL    HW130962   5.108   2.989   0.771
10021SOL    HW230963   5.124   2.892   0.901
10022SOL     OW30964   2.288   1.521   5.818
10022SOL    HW130965   2.376   1.565   5.830
10022SOL    HW230966   2.294   1.455   5.743
10023SOL     OW30967   1.032   3.147   0.652
10023SOL    HW130968   1.046   3.154   0.553
10023SOL    HW230969   0.983   3.228   0.684
10024SOL     OW30970   0.532   3.486   2.348
10024SOL    HW130971   0.587   3.569   2.361
10024SOL    HW230972   0.479   3.493   2.264
10025SOL     OW30973   1.570   1.526   0.404
10025SOL    HW130974   1.586   1.431   0.431
10025SOL    HW230975   1.653   1.563   0.362
10026SOL     OW30976   6.000   0.616   3.955
10026SOL    HW130977   5.995   0.716   3.950
10026SOL    HW230978   6.073   0.590   4.018
10027SOL     OW30979   6.552   2.937   5.848
10027SOL    HW130980   6.518   3.027   5.875
10027SOL    HW230981   6.482   2.889   5.795
10028SOL     OW30982   1.692   1.556   1.067
10028SOL    HW130983   1.612   1.590   1.116
10028SOL    HW230984   1.760   1.629   1.060
10029SOL     OW30985   3.745   1.395   4.947
10029SOL    HW130986   3.764   1.303   4.911
10029SOL    HW230987   3.671   1.389   5.014
10030SOL     OW30988   0.809   0.934   1.526
10030SOL    HW130989   0.826   0.853   1.584
10030SOL    HW230990   0.726   0.979   1.557
10031SOL     OW30991   0.168   5.217   3.227
10031SOL    HW130992   0.230   5.293   3.204
10031SOL    HW230993   0.112   5.243   3.306
10032SOL     OW30994   3.887   2.368   5.378
10032SOL    HW130995   3.922   2.461   5.372
10032SOL    HW230996   3.956   2.304   5.342
10033SOL     OW30997   6.346   2.941   4.189
10033SOL    HW130998   6.430   2.992   4.208
10033SOL    HW230999   6.270   2.983   4.238
10034SOL     OW31000   4.138   6.641   5.681
10034SOL    HW131001   4.051   6.652   5.728
10034SOL    HW231002   4.125   6.582   5.601
10035SOL     OW31003   0.080   6.068   4.095
10035SOL    HW131004   0.091   6.153   4.146
10035SOL    HW231005   7.014   6.058   4.066
10036SOL     OW31006   6.096   0.091   6.972
10036SOL    HW131007   6.028   0.024   6.943
10036SOL    HW231008   6.104   0.089   0.042
10037SOL     OW31009   6.983   0.590   1.542
10037SOL    HW131010   0.049   0.564   1.540
10037SOL    HW231011   6.975   0.690   1.536
10038SOL     OW31012   5.314   6.872   1.721
10038SOL    HW131013   5.216   6.886   1.734
10038SOL    HW231014   5.357   6.958   1.693
10039SOL     OW31015   3.349   1.031   3.161
10039SOL    HW131016   3.259   1.025   3.120
10039SOL    HW231017   3.359   0.959   3.230
10040SOL     OW31018   0.655   1.702   0.763
10040SOL    HW131019   0.708   1.637   0.818
10040SOL    HW231020   0.689   1.701   0.669
10041SOL     OW31021   0.348   6.706   0.020
10041SOL    HW131022   0.402   6.748   0.093
10041SOL    HW231023   0.387   6.732   6.961
10042SOL     OW31024   6.398   1.862   3.864
10042SOL    HW131025   6.479   1.831   3.814
10042SOL    HW231026   6.424   1.881   3.959
10043SOL     OW31027   2.276   3.228   5.280
10043SOL    HW131028   2.214   3.159   5.242
10043SOL    HW231029   2.365   3.186   5.299
10044SOL     OW31030   4.024   0.365   6.131
10044SOL    HW131031   3.931   0.373   6.166
10044SOL    HW231032   4.035   0.278   6.083
10045SOL     OW31033   2.344   6.600   0.933
10045SOL    HW131034   2.399   6.646   0.864
10045SOL    HW231035   2.349   6.501   0.918
10046SOL     OW31036   0.732   6.631   0.185
10046SOL    HW131037   0.696   6.677   0.104
10046SOL    HW231038   0.659   6.620   0.252
10047SOL     OW31039   1.840   3.947   1.252
10047SOL    HW131040   1.801   4.026   1.298
10047SOL    HW231041   1.865   3.878   1.319
10048SOL     OW31042   6.752   2.745   0.994
10048SOL    HW131043   6.658   2.779   0.990
10048SOL    HW231044   6.759   2.662   0.937
10049SOL     OW31045   6.942   2.218   4.512
10049SOL    HW131046   6.897   2.128   4.513
10049SOL    HW231047   6.934   2.258   4.421
10050SOL     OW31048   0.576   2.076   5.821
10050SOL    HW131049   0.646   2.142   5.795
10050SOL    HW231050   0.531   2.041   5.739
10051SOL     OW31051   1.487   0.568   2.292
10051SOL    HW131052   1.574   0.519   2.289
10051SOL    HW231053   1.484   0.625   2.374
10052SOL     OW31054   0.576   0.190   4.426
10052SOL    HW131055   0.494   0.177   4.481
10052SOL    HW231056   0.560   0.264   4.360
10053SOL     OW31057   5.981   5.786   1.872
10053SOL    HW131058   6.056   5.830   1.921
10053SOL    HW231059   5.960   5.838   1.789
10054SOL     OW31060   4.899   4.750   3.369
10054SOL    HW131061   4.834   4.734   3.295
10054SOL    HW231062   4.879   4.688   3.445
10055SOL     OW31063   1.988   1.895   6.949
10055SOL    HW131064   1.891   1.907   6.971
10055SOL    HW231065   2.000   1.902   6.850
10056SOL     OW31066   5.234   3.199   4.703
10056SOL    HW131067   5.291   3.272   4.666
10056SOL    HW231068   5.140   3.231   4.711
10057SOL     OW31069   6.049   4.343   4.995
10057SOL    HW131070   6.091   4.432   5.013
10057SOL    HW231071   6.114   4.285   4.947
10058SOL     OW31072   5.624   3.784   4.137
10058SOL    HW131073   5.701   3.805   4.077
10058SOL    HW231074   5.634   3.692   4.175
10059SOL     OW31075   5.405   6.417   5.982
10059SOL    HW131076   5.421   6.319   5.987
10059SOL    HW231077   5.492   6.465   5.972
10060SOL     OW31078   3.140   1.127   1.753
10060SOL    HW131079   3.116   1.086   1.841
10060SOL    HW231080   3.068   1.190   1.724
10061SOL     OW31081   3.637   0.165   2.932
10061SOL    HW131082   3.686   0.093   2.981
10061SOL    HW231083   3.621   0.242   2.993
10062SOL     OW31084   6.322   6.447   4.064
10062SOL    HW131085   6.248   6.400   4.017
10062SOL    HW231086   6.299   6.544   4.073
10063SOL     OW31087   4.371   2.391   2.707
10063SOL    HW131088   4.458   2.350   2.734
10063SOL    HW231089   4.384   2.490   2.695
10064SOL     OW31090   1.619   6.225   2.298
10064SOL    HW131091   1.691   6.165   2.332
10064SOL    HW231092   1.659   6.307   2.256
10065SOL     OW31093   6.455   1.889   1.187
10065SOL    HW131094   6.452   1.866   1.285
10065SOL    HW231095   6.446   1.988   1.177
10066SOL     OW31096   5.689   4.235   3.763
10066SOL    HW131097   5.676   4.230   3.862
10066SOL    HW231098   5.691   4.330   3.734
10067SOL     OW31099   5.680   3.344   5.286
10067SOL    HW131100   5.607   3.337   5.219
10067SOL    HW231101   5.647   3.394   5.366
10068SOL     OW31102   2.378   4.252   2.993
10068SOL    HW131103   2.392   4.307   3.076
10068SOL    HW231104   2.461   4.202   2.971
10069SOL     OW31105   3.197   5.457   0.944
10069SOL    HW131106   3.281   5.432   0.993
10069SOL    HW231107   3.120   5.405   0.981
10070SOL     OW31108   5.221   0.647   6.750
10070SOL    HW131109   5.235   0.554   6.784
10070SOL    HW231110   5.306   0.682   6.713
10071SOL     OW31111   5.392   1.378   4.483
10071SOL    HW131112   5.297   1.410   4.474
10071SOL    HW231113   5.408   1.302   4.420
10072SOL     OW31114   5.760   2.912   1.276
10072SOL    HW131115   5.750   2.864   1.189
10072SOL    HW231116   5.669   2.937   1.310
10073SOL     OW31117   5.713   5.201   5.156
10073SOL    HW131118   5.640   5.138   5.182
10073SOL    HW231119   5.674   5.284   5.117
10074SOL     OW31120   2.241   4.602   1.697
10074SOL    HW131121   2.146   4.624   1.672
10074SOL    HW231122   2.261   4.639   1.787
10075SOL     OW31123   0.710   3.783   1.313
10075SOL    HW131124   0.662   3.733   1.241
10075SOL    HW231125   0.726   3.877   1.283
10076SOL     OW31126   6.136   4.983   3.919
10076SOL    HW131127   6.178   5.070   3.946
10076SOL    HW231128   6.068   4.956   3.988
10077SOL     OW31129   4.462   4.243   6.746
10077SOL    HW131130   4.457   4.341   6.724
10077SOL    HW231131   4.374   4.212   6.782
10078SOL     OW31132   6.021   6.046   3.691
10078SOL    HW131133   5.993   6.072   3.599
10078SOL    HW231134   6.116   6.014   3.689
10079SOL     OW31135   6.000   5.362   3.406
10079SOL    HW131136   6.012   5.454   3.442
10079SOL    HW231137   6.088   5.327   3.373
10080SOL     OW31138   5.117   2.967   4.407
10080SOL    HW131139   5.069   3.030   4.347
10080SOL    HW231140   5.054   2.931   4.475
10081SOL     OW31141   1.748   5.394   0.483
10081SOL    HW131142   1.744   5.352   0.392
10081SOL    HW231143   1.676   5.464   0.490
10082SOL     OW31144   6.891   4.018   1.678
10082SOL    HW131145   6.907   3.963   1.596
10082SOL    HW231146   6.820   3.976   1.734
10083SOL     OW31147   3.142   5.445   2.661
10083SOL    HW131148   3.106   5.504   2.734
10083SOL    HW231149   3.224   5.486   2.622
10084SOL     OW31150   1.888   4.108   4.448
10084SOL    HW131151   1.822   4.097   4.523
10084SOL    HW231152   1.979   4.121   4.486
10085SOL     OW31153   2.946   6.378   1.483
10085SOL    HW131154   2.899   6.290   1.498
10085SOL    HW231155   3.030   6.380   1.537
10086SOL     OW31156   2.649   0.852   2.761
10086SOL    HW131157   2.601   0.910   2.827
10086SOL    HW231158   2.713   0.792   2.810
10087SOL     OW31159   1.683   5.542   0.106
10087SOL    HW131160   1.670   5.593   0.191
10087SOL    HW231161   1.600   5.548   0.051
10088SOL     OW31162   5.166   2.025   0.717
10088SOL    HW131163   5.200   2.082   0.642
10088SOL    HW231164   5.086   2.068   0.758
10089SOL     OW31165   3.360   0.205   3.605
10089SOL    HW131166   3.367   0.301   3.630
10089SOL    HW231167   3.264   0.177   3.604
10090SOL     OW31168   3.306   6.245   3.489
10090SOL    HW131169   3.261   6.261   3.401
10090SOL    HW231170   3.403   6.228   3.474
10091SOL     OW31171   4.414   6.493   3.320
10091SOL    HW131172   4.502   6.482   3.367
10091SOL    HW231173   4.416   6.577   3.265
10092SOL     OW31174   6.083   0.756   1.661
10092SOL    HW131175   6.176   0.721   1.653
10092SOL    HW231176   6.076   0.843   1.613
10093SOL     OW31177   4.400   4.311   6.266
10093SOL    HW131178   4.396   4.307   6.166
10093SOL    HW231179   4.495   4.323   6.294
10094SOL     OW31180   4.346   3.487   0.341
10094SOL    HW131181   4.290   3.475   0.259
10094SOL    HW231182   4.315   3.569   0.390
10095SOL     OW31183   4.382   2.728   5.293
10095SOL    HW131184   4.317   2.660   5.259
10095SOL    HW231185   4.452   2.745   5.224
10096SOL     OW31186   6.132   4.597   1.770
10096SOL    HW131187   6.168   4.670   1.711
10096SOL    HW231188   6.067   4.541   1.718
10097SOL     OW31189   0.760   0.220   0.880
10097SOL    HW131190   0.729   0.125   0.878
10097SOL    HW231191   0.856   0.225   0.853
10098SOL     OW31192   3.945   4.769   0.799
10098SOL    HW131193   3.848   4.746   0.805
10098SOL    HW231194   3.959   4.838   0.728
10099SOL     OW31195   0.039   6.333   2.955
10099SOL    HW131196   0.123   6.344   3.009
10099SOL    HW231197   0.035   6.403   2.884
10100SOL     OW31198   5.903   5.823   3.967
10100SOL    HW131199   5.986   5.820   4.023
10100SOL    HW231200   5.886   5.916   3.936
10101SOL     OW31201   0.031   2.437   6.330
10101SOL    HW131202   0.126   2.444   6.299
10101SOL    HW231203   0.016   2.349   6.374
10102SOL     OW31204   0.111   5.434   4.511
10102SOL    HW131205   0.081   5.339   4.500
10102SOL    HW231206   0.052   5.481   4.577
10103SOL     OW31207   0.816   0.456   6.852
10103SOL    HW131208   0.765   0.405   6.783
10103SOL    HW231209   0.797   0.418   6.943
10104SOL     OW31210   2.844   1.615   4.358
10104SOL    HW131211   2.871   1.546   4.424
10104SOL    HW231212   2.914   1.687   4.354
10105SOL     OW31213   3.412   1.360   4.377
10105SOL    HW131214   3.440   1.426   4.447
10105SOL    HW231215   3.318   1.380   4.349
10106SOL     OW31216   6.952   3.221   1.646
10106SOL    HW131217   6.993   3.203   1.736
10106SOL    HW231218   6.853   3.229   1.656
10107SOL     OW31219   4.668   5.739   4.842
10107SOL    HW131220   4.716   5.773   4.761
10107SOL    HW231221   4.669   5.810   4.913
10108SOL     OW31222   3.469   2.152   4.636
10108SOL    HW131223   3.416   2.146   4.721
10108SOL    HW231224   3.407   2.149   4.558
10109SOL     OW31225   1.297   2.783   0.965
10109SOL    HW131226   1.304   2.715   1.038
10109SOL    HW231227   1.201   2.810   0.953
10110SOL     OW31228   6.416   6.316   1.753
10110SOL    HW131229   6.483   6.368   1.805
10110SOL    HW231230   6.348   6.277   1.815
10111SOL     OW31231   0.249   2.178   0.961
10111SOL    HW131232   0.206   2.217   0.879
10111SOL    HW231233   0.289   2.252   1.015
10112SOL     OW31234   0.494   3.125   3.091
10112SOL    HW131235   0.466   3.055   3.025
10112SOL    HW231236   0.580   3.097   3.134
10113SOL     OW31237   7.023   6.572   6.136
10113SOL    HW131238   0.057   6.625   6.193
10113SOL    HW231239   6.966   6.635   6.084
10114SOL     OW31240   5.791   4.019   1.754
10114SOL    HW131241   5.840   4.105   1.769
10114SOL    HW231242   5.849   3.956   1.702
10115SOL     OW31243   2.640   1.675   6.599
10115SOL    HW131244   2.561   1.642   6.547
10115SOL    HW231245   2.724   1.646   6.554
10116SOL     OW31246   1.536   0.113   6.139
10116SOL    HW131247   1.525   0.049   6.063
10116SOL    HW231248   1.449   0.157   6.159
10117SOL     OW31249   0.922   4.612   0.828
10117SOL    HW131250   0.842   4.665   0.799
10117SOL    HW231251   0.893   4.537   0.887
10118SOL     OW31252   3.979   5.797   3.363
10118SOL    HW131253   3.982   5.802   3.264
10118SOL    HW231254   3.895   5.750   3.392
10119SOL     OW31255   5.975   5.602   6.871
10119SOL    HW131256   5.904   5.639   6.930
10119SOL    HW231257   6.046   5.671   6.858
10120SOL     OW31258   2.566   1.976   2.568
10120SOL    HW131259   2.629   1.901   2.588
10120SOL    HW231260   2.581   2.051   2.633
10121SOL     OW31261   6.890   6.227   1.766
10121SOL    HW131262   6.852   6.148   1.814
10121SOL    HW231263   6.835   6.247   1.685
10122SOL     OW31264   1.738   0.123   3.903
10122SOL    HW131265   1.816   0.061   3.906
10122SOL    HW231266   1.755   0.195   3.835
10123SOL     OW31267   6.427   6.048   6.517
10123SOL    HW131268   6.508   6.070   6.464
10123SOL    HW231269   6.346   6.081   6.469
10124SOL     OW31270   0.414   4.698   3.428
10124SOL    HW131271   0.335   4.705   3.488
10124SOL    HW231272   0.494   4.669   3.481
10125SOL     OW31273   2.495   2.651   4.249
10125SOL    HW131274   2.560   2.577   4.233
10125SOL    HW231275   2.546   2.737   4.260
10126SOL     OW31276   6.989   5.980   4.698
10126SOL    HW131277   6.933   6.032   4.633
10126SOL    HW231278   0.044   5.952   4.653
10127SOL     OW31279   2.207   0.872   5.562
10127SOL    HW131280   2.273   0.837   5.629
10127SOL    HW231281   2.119   0.826   5.575
10128SOL     OW31282   3.062   0.396   0.445
10128SOL    HW131283   3.010   0.414   0.362
10128SOL    HW231284   3.026   0.452   0.520
10129SOL     OW31285   6.840   2.525   5.581
10129SOL    HW131286   6.892   2.443   5.604
10129SOL    HW231287   6.793   2.559   5.662
10130SOL     OW31288   0.699   2.588   3.477
10130SOL    HW131289   0.745   2.653   3.538
10130SOL    HW231290   0.602   2.583   3.502
10131SOL     OW31291   2.623   0.708   4.986
10131SOL    HW131292   2.713   0.699   4.942
10131SOL    HW231293   2.559   0.749   4.922
10132SOL     OW31294   5.870   0.881   1.813
10132SOL    HW131295   5.954   0.840   1.775
10132SOL    HW231296   5.791   0.828   1.783
10133SOL     OW31297   4.771   5.223   1.150
10133SOL    HW131298   4.732   5.314   1.138
10133SOL    HW231299   4.871   5.229   1.152
10134SOL     OW31300   6.158   1.236   2.904
10134SOL    HW131301   6.256   1.226   2.887
10134SOL    HW231302   6.106   1.195   2.828
10135SOL     OW31303   5.816   6.740   3.287
10135SOL    HW131304   5.728   6.744   3.241
10135SOL    HW231305   5.863   6.828   3.278
10136SOL     OW31306   4.946   0.100   3.202
10136SOL    HW131307   4.935   0.137   3.110
10136SOL    HW231308   4.939   0.000   3.199
10137SOL     OW31309   5.933   6.230   2.042
10137SOL    HW131310   5.929   6.328   2.020
10137SOL    HW231311   5.969   6.218   2.134
10138SOL     OW31312   0.588   1.050   1.646
10138SOL    HW131313   0.616   1.142   1.672
10138SOL    HW231314   0.552   1.001   1.725
10139SOL     OW31315   4.487   2.114   0.293
10139SOL    HW131316   4.517   2.019   0.278
10139SOL    HW231317   4.436   2.120   0.378
10140SOL     OW31318   6.108   6.732   3.479
10140SOL    HW131319   6.035   6.783   3.435
10140SOL    HW231320   6.195   6.778   3.463
10141SOL     OW31321   0.675   1.975   5.438
10141SOL    HW131322   0.668   1.946   5.343
10141SOL    HW231323   0.583   1.990   5.475
10142SOL     OW31324   3.981   5.440   1.412
10142SOL    HW131325   4.053   5.391   1.461
10142SOL    HW231326   3.901   5.448   1.472
10143SOL     OW31327   0.956   3.354   6.456
10143SOL    HW131328   0.915   3.435   6.415
10143SOL    HW231329   0.983   3.374   6.550
10144SOL     OW31330   4.571   0.110   2.685
10144SOL    HW131331   4.586   0.137   2.590
10144SOL    HW231332   4.544   0.190   2.738
10145SOL     OW31333   6.182   0.923   5.377
10145SOL    HW131334   6.101   0.933   5.318
10145SOL    HW231335   6.256   0.880   5.325
10146SOL     OW31336   1.789   0.983   5.741
10146SOL    HW131337   1.703   0.936   5.722
10146SOL    HW231338   1.812   1.044   5.665
10147SOL     OW31339   3.910   4.865   6.765
10147SOL    HW131340   3.952   4.941   6.814
10147SOL    HW231341   3.976   4.790   6.755
10148SOL     OW31342   6.662   5.585   6.235
10148SOL    HW131343   6.584   5.568   6.176
10148SOL    HW231344   6.634   5.578   6.331
10149SOL     OW31345   3.443   3.321   4.775
10149SOL    HW131346   3.369   3.273   4.727
10149SOL    HW231347   3.436   3.419   4.758
10150SOL     OW31348   6.564   4.183   6.946
10150SOL    HW131349   6.632   4.225   7.006
10150SOL    HW231350   6.570   4.083   6.954
10151SOL     OW31351   0.459   0.357   6.997
10151SOL    HW131352   0.462   0.455   6.976
10151SOL    HW231353   0.429   0.306   6.917
10152SOL     OW31354   3.207   6.825   4.019
10152SOL    HW131355   3.257   6.892   4.073
10152SOL    HW231356   3.209   6.851   3.922
10153SOL     OW31357   4.104   4.722   0.335
10153SOL    HW131358   4.164   4.736   0.256
10153SOL    HW231359   4.095   4.624   0.352
10154SOL     OW31360   4.345   5.235   6.188
10154SOL    HW131361   4.389   5.266   6.272
10154SOL    HW231362   4.298   5.148   6.206
10155SOL     OW31363   4.703   2.881   4.638
10155SOL    HW131364   4.624   2.900   4.579
10155SOL    HW231365   4.679   2.809   4.703
10156SOL     OW31366   3.230   2.209   6.357
10156SOL    HW131367   3.161   2.138   6.346
10156SOL    HW231368   3.191   2.298   6.332
10157SOL     OW31369   0.211   5.445   2.717
10157SOL    HW131370   0.139   5.405   2.661
10157SOL    HW231371   0.219   5.543   2.697
10158SOL     OW31372   0.486   5.041   5.987
10158SOL    HW131373   0.429   4.961   5.967
10158SOL    HW231374   0.431   5.124   5.983
10159SOL     OW31375   3.977   2.894   1.667
10159SOL    HW131376   3.990   2.991   1.688
10159SOL    HW231377   4.060   2.844   1.694
10160SOL     OW31378   6.826   4.249   2.490
10160SOL    HW131379   6.887   4.327   2.506
10160SOL    HW231380   6.815   4.235   2.392
10161SOL     OW31381   6.363   2.583   0.132
10161SOL    HW131382   6.408   2.622   0.052
10161SOL    HW231383   6.375   2.644   0.211
10162SOL     OW31384   1.904   1.912   2.678
10162SOL    HW131385   1.857   1.983   2.626
10162SOL    HW231386   1.975   1.871   2.622
10163SOL     OW31387   4.318   5.316   4.434
10163SOL    HW131388   4.359   5.232   4.470
10163SOL    HW231389   4.262   5.294   4.354
10164SOL     OW31390   0.458   1.692   3.700
10164SOL    HW131391   0.503   1.656   3.781
10164SOL    HW231392   0.410   1.777   3.723
10165SOL     OW31393   1.717   2.759   3.816
10165SOL    HW131394   1.631   2.708   3.812
10165SOL    HW231395   1.745   2.769   3.912
10166SOL     OW31396   3.487   6.460   3.972
10166SOL    HW131397   3.493   6.380   4.032
10166SOL    HW231398   3.492   6.543   4.026
10167SOL     OW31399   3.711   2.015   0.028
10167SOL    HW131400   3.680   1.935   7.006
10167SOL    HW231401   3.638   2.044   0.090
10168SOL     OW31402   0.231   0.807   6.314
10168SOL    HW131403   0.252   0.869   6.239
10168SOL    HW231404   0.139   0.768   6.300
10169SOL     OW31405   4.868   4.822   2.539
10169SOL    HW131406   4.946   4.760   2.543
10169SOL    HW231407   4.841   4.848   2.632
10170SOL     OW31408   4.330   0.088   0.218
10170SOL    HW131409   4.414   0.142   0.209
10170SOL    HW231410   4.258   0.145   0.257
10171SOL     OW31411   0.897   4.934   3.022
10171SOL    HW131412   0.895   4.870   3.100
10171SOL    HW231413   0.991   4.964   3.006
10172SOL     OW31414   0.524   0.335   3.845
10172SOL    HW131415   0.463   0.408   3.878
10172SOL    HW231416   0.547   0.352   3.749
10173SOL     OW31417   4.760   2.728   3.861
10173SOL    HW131418   4.694   2.699   3.931
10173SOL    HW231419   4.780   2.652   3.800
10174SOL     OW31420   3.695   5.619   1.275
10174SOL    HW131421   3.788   5.622   1.240
10174SOL    HW231422   3.695   5.648   1.371
10175SOL     OW31423   6.886   6.812   5.030
10175SOL    HW131424   6.949   6.839   4.958
10175SOL    HW231425   6.902   6.868   5.112
10176SOL     OW31426   6.979   1.585   5.024
10176SOL    HW131427   0.033   1.599   4.973
10176SOL    HW231428   6.955   1.669   5.073
10177SOL     OW31429   3.139   1.047   4.562
10177SOL    HW131430   3.239   1.048   4.553
10177SOL    HW231431   3.098   1.021   4.475
10178SOL     OW31432   5.775   1.318   1.525
10178SOL    HW131433   5.773   1.418   1.524
10178SOL    HW231434   5.714   1.282   1.455
10179SOL     OW31435   6.456   6.015   1.076
10179SOL    HW131436   6.480   5.920   1.053
10179SOL    HW231437   6.359   6.030   1.059
10180SOL     OW31438   2.147   0.438   6.129
10180SOL    HW131439   2.225   0.489   6.093
10180SOL    HW231440   2.100   0.392   6.055
10181SOL     OW31441   0.216   4.223   2.579
10181SOL    HW131442   0.277   4.237   2.657
10181SOL    HW231443   0.186   4.312   2.543
10182SOL     OW31444   2.755   6.989   6.539
10182SOL    HW131445   2.753   6.906   6.596
10182SOL    HW231446   2.735   6.965   6.444
10183SOL     OW31447   3.727   6.214   6.370
10183SOL    HW131448   3.748   6.263   6.455
10183SOL    HW231449   3.812   6.188   6.325
10184SOL     OW31450   4.966   2.723   4.262
10184SOL    HW131451   4.978   2.776   4.346
10184SOL    HW231452   4.973   2.785   4.184
10185SOL     OW31453   2.653   4.774   1.840
10185SOL    HW131454   2.734   4.735   1.884
10185SOL    HW231455   2.626   4.857   1.887
10186SOL     OW31456   3.231   3.138   2.172
10186SOL    HW131457   3.131   3.136   2.167
10186SOL    HW231458   3.259   3.188   2.255
10187SOL     OW31459   1.552   3.410   4.655
10187SOL    HW131460   1.521   3.322   4.691
10187SOL    HW231461   1.573   3.471   4.731
10188SOL     OW31462   2.494   6.443   0.293
10188SOL    HW131463   2.573   6.494   0.328
10188SOL    HW231464   2.454   6.494   0.216
10189SOL     OW31465   1.537   1.209   5.806
10189SOL    HW131466   1.512   1.208   5.903
10189SOL    HW231467   1.574   1.299   5.783
10190SOL     OW31468   2.646   4.325   1.214
10190SOL    HW131469   2.594   4.405   1.245
10190SOL    HW231470   2.702   4.291   1.290
10191SOL     OW31471   6.874   0.081   6.583
10191SOL    HW131472   6.775   0.072   6.591
10191SOL    HW231473   6.918   0.044   6.665
10192SOL     OW31474   3.001   1.261   3.815
10192SOL    HW131475   2.907   1.290   3.827
10192SOL    HW231476   3.046   1.321   3.748
10193SOL     OW31477   3.427   2.940   4.394
10193SOL    HW131478   3.493   3.009   4.425
10193SOL    HW231479   3.466   2.890   4.317
10194SOL     OW31480   3.327   5.816   3.618
10194SOL    HW131481   3.233   5.832   3.588
10194SOL    HW231482   3.348   5.875   3.696
10195SOL     OW31483   5.196   6.567   1.748
10195SOL    HW131484   5.295   6.557   1.758
10195SOL    HW231485   5.164   6.641   1.807
10196SOL     OW31486   5.061   4.399   4.670
10196SOL    HW131487   5.054   4.358   4.579
10196SOL    HW231488   5.018   4.489   4.669
10197SOL     OW31489   5.967   2.137   2.332
10197SOL    HW131490   5.991   2.234   2.334
10197SOL    HW231491   5.971   2.104   2.238
10198SOL     OW31492   3.646   1.532   2.288
10198SOL    HW131493   3.626   1.589   2.367
10198SOL    HW231494   3.560   1.503   2.245
10199SOL     OW31495   1.681   1.863   6.817
10199SOL    HW131496   1.628   1.818   6.889
10199SOL    HW231497   1.669   1.814   6.732
10200SOL     OW31498   3.856   6.653   3.470
10200SOL    HW131499   3.936   6.662   3.410
10200SOL    HW231500   3.884   6.662   3.565
10201SOL     OW31501   0.284   4.752   2.519
10201SOL    HW131502   0.376   4.792   2.522
10201SOL    HW231503   0.221   4.808   2.572
10202SOL     OW31504   1.940   3.008   3.807
10202SOL    HW131505   1.985   2.925   3.772
10202SOL    HW231506   2.005   3.084   3.807
10203SOL     OW31507   6.360   2.154   1.082
10203SOL    HW131508   6.263   2.142   1.104
10203SOL    HW231509   6.385   2.250   1.098
10204SOL     OW31510   1.202   5.996   4.247
10204SOL    HW131511   1.251   6.036   4.169
10204SOL    HW231512   1.269   5.964   4.315
10205SOL     OW31513   3.281   6.826   1.258
10205SOL    HW131514   3.335   6.790   1.182
10205SOL    HW231515   3.316   6.790   1.344
10206SOL     OW31516   6.170   5.814   6.584
10206SOL    HW131517   6.130   5.820   6.675
10206SOL    HW231518   6.219   5.899   6.562
10207SOL     OW31519   2.873   1.464   1.503
10207SOL    HW131520   2.840   1.557   1.489
10207SOL    HW231521   2.897   1.423   1.415
10208SOL     OW31522   1.172   2.476   6.087
10208SOL    HW131523   1.192   2.389   6.043
10208SOL    HW231524   1.243   2.495   6.156
10209SOL     OW31525   4.056   6.440   0.698
10209SOL    HW131526   4.069   6.416   0.795
10209SOL    HW231527   4.073   6.359   0.642
10210SOL     OW31528   4.317   6.212   6.746
10210SOL    HW131529   4.274   6.288   6.794
10210SOL    HW231530   4.371   6.247   6.669
10211SOL     OW31531   3.570   5.026   4.775
10211SOL    HW131532   3.520   5.101   4.732
10211SOL    HW231533   3.588   5.049   4.871
10212SOL     OW31534   6.521   5.464   5.640
10212SOL    HW131535   6.579   5.388   5.669
10212SOL    HW231536   6.544   5.545   5.694
10213SOL     OW31537   3.382   0.682   4.866
10213SOL    HW131538   3.412   0.587   4.853
10213SOL    HW231539   3.400   0.735   4.783
10214SOL     OW31540   6.896   6.977   0.396
10214SOL    HW131541   6.934   0.001   0.320
10214SOL    HW231542   6.878   6.884   0.365
10215SOL     OW31543   4.865   2.254   6.853
10215SOL    HW131544   4.892   2.252   6.949
10215SOL    HW231545   4.945   2.238   6.795
10216SOL     OW31546   4.959   0.116   2.893
10216SOL    HW131547   4.897   0.041   2.915
10216SOL    HW231548   4.917   0.203   2.917
10217SOL     OW31549   2.430   1.949   6.161
10217SOL    HW131550   2.364   2.019   6.185
10217SOL    HW231551   2.385   1.859   6.161
10218SOL     OW31552   3.915   0.869   5.961
10218SOL    HW131553   4.003   0.869   5.913
10218SOL    HW231554   3.842   0.891   5.896
10219SOL     OW31555   6.584   5.205   1.111
10219SOL    HW131556   6.655   5.152   1.065
10219SOL    HW231557   6.627   5.266   1.178
10220SOL     OW31558   4.335   2.504   6.467
10220SOL    HW131559   4.261   2.560   6.506
10220SOL    HW231560   4.339   2.417   6.516
10221SOL     OW31561   2.146   0.150   4.571
10221SOL    HW131562   2.047   0.156   4.584
10221SOL    HW231563   2.166   0.082   4.501
10222SOL     OW31564   2.564   5.335   5.552
10222SOL    HW131565   2.621   5.283   5.489
10222SOL    HW231566   2.487   5.375   5.502
10223SOL     OW31567   2.497   5.805   5.826
10223SOL    HW131568   2.414   5.804   5.770
10223SOL    HW231569   2.481   5.861   5.907
10224SOL     OW31570   3.976   5.753   5.162
10224SOL    HW131571   3.911   5.714   5.097
10224SOL    HW231572   4.006   5.683   5.226
10225SOL     OW31573   5.000   0.635   5.548
10225SOL    HW131574   4.902   0.657   5.546
10225SOL    HW231575   5.052   0.711   5.510
10226SOL     OW31576   6.213   2.451   6.617
10226SOL    HW131577   6.261   2.402   6.690
10226SOL    HW231578   6.261   2.435   6.530
10227SOL     OW31579   4.686   4.904   5.292
10227SOL    HW131580   4.652   4.960   5.217
10227SOL    HW231581   4.670   4.808   5.272
10228SOL     OW31582   0.939   2.484   0.941
10228SOL    HW131583   0.997   2.487   1.022
10228SOL    HW231584   0.880   2.564   0.938
10229SOL     OW31585   2.540   0.679   1.775
10229SOL    HW131586   2.577   0.763   1.734
10229SOL    HW231587   2.612   0.610   1.781
10230SOL     OW31588   5.549   0.106   3.216
10230SOL    HW131589   5.469   0.148   3.173
10230SOL    HW231590   5.601   0.056   3.147
10231SOL     OW31591   5.717   0.419   4.843
10231SOL    HW131592   5.654   0.448   4.914
10231SOL    HW231593   5.707   0.321   4.828
10232SOL     OW31594   3.916   2.127   2.677
10232SOL    HW131595   3.984   2.187   2.637
10232SOL    HW231596   3.945   2.032   2.668
10233SOL     OW31597   4.956   7.023   5.022
10233SOL    HW131598   5.039   0.012   5.074
10233SOL    HW231599   4.972   0.012   4.925
10234SOL     OW31600   3.387   4.172   0.955
10234SOL    HW131601   3.308   4.232   0.964
10234SOL    HW231602   3.456   4.198   1.022
10235SOL     OW31603   4.968   6.413   0.017
10235SOL    HW131604   5.022   6.444   6.968
10235SOL    HW231605   5.013   6.333   0.058
10236SOL     OW31606   1.359   5.034   1.093
10236SOL    HW131607   1.393   5.091   1.169
10236SOL    HW231608   1.363   5.086   1.008
10237SOL     OW31609   5.696   1.732   1.904
10237SOL    HW131610   5.698   1.635   1.881
10237SOL    HW231611   5.740   1.784   1.831
10238SOL     OW31612   5.225   4.510   6.333
10238SOL    HW131613   5.182   4.528   6.421
10238SOL    HW231614   5.323   4.529   6.340
10239SOL     OW31615   5.709   4.151   3.447
10239SOL    HW131616   5.717   4.246   3.417
10239SOL    HW231617   5.614   4.121   3.438
10240SOL     OW31618   5.442   3.405   2.027
10240SOL    HW131619   5.419   3.492   1.984
10240SOL    HW231620   5.541   3.399   2.041
10241SOL     OW31621   0.872   2.053   2.674
10241SOL    HW131622   0.830   2.114   2.742
10241SOL    HW231623   0.869   2.096   2.584
10242SOL     OW31624   1.131   5.536   6.652
10242SOL    HW131625   1.068   5.555   6.578
10242SOL    HW231626   1.213   5.594   6.642
10243SOL     OW31627   6.870   6.187   3.385
10243SOL    HW131628   6.931   6.196   3.306
10243SOL    HW231629   6.879   6.095   3.422
10244SOL     OW31630   2.384   6.124   0.643
10244SOL    HW131631   2.432   6.187   0.581
10244SOL    HW231632   2.349   6.174   0.721
10245SOL     OW31633   3.998   3.134   0.669
10245SOL    HW131634   3.907   3.093   0.679
10245SOL    HW231635   4.002   3.219   0.722
10246SOL     OW31636   3.442   3.578   4.748
10246SOL    HW131637   3.531   3.617   4.723
10246SOL    HW231638   3.369   3.637   4.713
10247SOL     OW31639   1.101   5.232   6.351
10247SOL    HW131640   1.035   5.282   6.295
10247SOL    HW231641   1.177   5.202   6.293
10248SOL     OW31642   5.680   6.900   3.911
10248SOL    HW131643   5.765   6.855   3.883
10248SOL    HW231644   5.605   6.867   3.854
10249SOL     OW31645   4.618   1.571   5.781
10249SOL    HW131646   4.608   1.477   5.746
10249SOL    HW231647   4.699   1.576   5.839
10250SOL     OW31648   4.576   5.009   1.017
10250SOL    HW131649   4.493   5.025   1.070
10250SOL    HW231650   4.648   5.073   1.046
10251SOL     OW31651   4.408   4.047   1.183
10251SOL    HW131652   4.459   4.032   1.098
10251SOL    HW231653   4.467   4.027   1.261
10252SOL     OW31654   0.117   3.887   0.858
10252SOL    HW131655   0.097   3.966   0.800
10252SOL    HW231656   0.131   3.917   0.952
10253SOL     OW31657   5.240   3.753   6.972
10253SOL    HW131658   5.289   3.692   0.004
10253SOL    HW231659   5.193   3.823   7.025
10254SOL     OW31660   3.730   1.962   5.821
10254SOL    HW131661   3.630   1.961   5.817
10254SOL    HW231662   3.767   1.916   5.741
10255SOL     OW31663   2.797   4.742   4.171
10255SOL    HW131664   2.731   4.696   4.231
10255SOL    HW231665   2.748   4.793   4.100
10256SOL     OW31666   5.719   4.557   6.891
10256SOL    HW131667   5.711   4.634   6.826
10256SOL    HW231668   5.809   4.559   6.934
10257SOL     OW31669   1.560   4.192   4.934
10257SOL    HW131670   1.574   4.220   4.840
10257SOL    HW231671   1.589   4.097   4.945
10258SOL     OW31672   3.676   1.216   2.286
10258SOL    HW131673   3.655   1.311   2.263
10258SOL    HW231674   3.601   1.157   2.257
10259SOL     OW31675   5.910   3.237   3.427
10259SOL    HW131676   5.843   3.166   3.449
10259SOL    HW231677   5.997   3.194   3.401
10260SOL     OW31678   0.207   6.110   2.745
10260SOL    HW131679   0.240   6.205   2.747
10260SOL    HW231680   0.109   6.109   2.761
10261SOL     OW31681   2.051   0.358   2.699
10261SOL    HW131682   2.072   0.447   2.738
10261SOL    HW231683   1.970   0.365   2.641
10262SOL     OW31684   6.514   6.786   3.134
10262SOL    HW131685   6.537   6.695   3.168
10262SOL    HW231686   6.581   6.852   3.169
10263SOL     OW31687   7.021   3.666   4.984
10263SOL    HW131688   6.988   3.757   4.959
10263SOL    HW231689   6.955   3.622   5.045
10264SOL     OW31690   0.753   0.151   1.292
10264SOL    HW131691   0.759   0.222   1.223
10264SOL    HW231692   0.669   0.098   1.278
10265SOL     OW31693   5.106   2.573   4.626
10265SOL    HW131694   5.194   2.602   4.588
10265SOL    HW231695   5.099   2.473   4.620
10266SOL     OW31696   3.198   3.585   0.205
10266SOL    HW131697   3.222   3.556   0.112
10266SOL    HW231698   3.138   3.664   0.200
10267SOL     OW31699   6.908   0.463   6.260
10267SOL    HW131700   6.866   0.396   6.320
10267SOL    HW231701   6.837   0.512   6.209
10268SOL     OW31702   6.839   4.590   0.500
10268SOL    HW131703   6.787   4.578   0.415
10268SOL    HW231704   6.895   4.508   0.515
10269SOL     OW31705   3.723   1.461   5.775
10269SOL    HW131706   3.661   1.451   5.696
10269SOL    HW231707   3.747   1.370   5.810
10270SOL     OW31708   3.993   6.155   4.171
10270SOL    HW131709   3.956   6.077   4.121
10270SOL    HW231710   3.942   6.238   4.144
10271SOL     OW31711   1.114   4.798   0.706
10271SOL    HW131712   1.054   4.728   0.745
10271SOL    HW231713   1.161   4.761   0.626
10272SOL     OW31714   1.429   3.251   3.956
10272SOL    HW131715   1.384   3.244   4.045
10272SOL    HW231716   1.488   3.332   3.954
10273SOL     OW31717   4.743   0.431   4.473
10273SOL    HW131718   4.681   0.502   4.505
10273SOL    HW231719   4.701   0.381   4.398
10274SOL     OW31720   1.866   4.417   6.817
10274SOL    HW131721   1.814   4.340   6.779
10274SOL    HW231722   1.897   4.475   6.742
10275SOL     OW31723   6.804   5.983   1.873
10275SOL    HW131724   6.741   6.021   1.941
10275SOL    HW231725   6.788   5.885   1.864
10276SOL     OW31726   3.194   6.474   0.187
10276SOL    HW131727   3.218   6.463   0.283
10276SOL    HW231728   3.277   6.481   0.132
10277SOL     OW31729   5.946   6.155   2.289
10277SOL    HW131730   5.877   6.210   2.335
10277SOL    HW231731   6.005   6.112   2.357
10278SOL     OW31732   6.159   1.363   5.167
10278SOL    HW131733   6.083   1.379   5.230
10278SOL    HW231734   6.133   1.295   5.099
10279SOL     OW31735   3.712   6.900   3.638
10279SOL    HW131736   3.733   6.813   3.684
10279SOL    HW231737   3.797   6.947   3.617
10280SOL     OW31738   2.884   2.149   6.828
10280SOL    HW131739   2.958   2.090   6.794
10280SOL    HW231740   2.899   2.166   6.926
10281SOL     OW31741   3.779   1.577   4.329
10281SOL    HW131742   3.817   1.544   4.243
10281SOL    HW231743   3.845   1.637   4.374
10282SOL     OW31744   1.354   3.150   3.727
10282SOL    HW131745   1.322   3.225   3.668
10282SOL    HW231746   1.384   3.188   3.814
10283SOL     OW31747   2.085   5.929   6.864
10283SOL    HW131748   2.129   5.961   6.781
10283SOL    HW231749   2.153   5.885   6.923
10284SOL     OW31750   5.530   2.176   0.835
10284SOL    HW131751   5.502   2.226   0.752
10284SOL    HW231752   5.550   2.081   0.811
10285SOL     OW31753   5.043   1.441   0.040
10285SOL    HW131754   5.111   1.367   0.039
10285SOL    HW231755   5.084   1.523   0.079
10286SOL     OW31756   2.399   6.526   3.313
10286SOL    HW131757   2.332   6.559   3.379
10286SOL    HW231758   2.490   6.557   3.340
10287SOL     OW31759   2.299   4.717   1.931
10287SOL    HW131760   2.295   4.814   1.952
10287SOL    HW231761   2.246   4.666   1.999
10288SOL     OW31762   4.775   6.995   4.391
10288SOL    HW131763   4.750   6.911   4.344
10288SOL    HW231764   4.870   7.017   4.370
10289SOL     OW31765   2.683   1.730   2.596
10289SOL    HW131766   2.592   1.694   2.575
10289SOL    HW231767   2.727   1.672   2.664
10290SOL     OW31768   3.385   4.176   2.764
10290SOL    HW131769   3.378   4.216   2.672
10290SOL    HW231770   3.414   4.080   2.756
10291SOL     OW31771   3.927   0.462   3.363
10291SOL    HW131772   3.958   0.453   3.457
10291SOL    HW231773   3.843   0.409   3.350
10292SOL     OW31774   0.287   3.503   4.505
10292SOL    HW131775   0.360   3.567   4.529
10292SOL    HW231776   0.224   3.493   4.583
10293SOL     OW31777   1.776   5.588   3.590
10293SOL    HW131778   1.734   5.537   3.666
10293SOL    HW231779   1.720   5.667   3.569
10294SOL     OW31780   6.215   0.802   3.073
10294SOL    HW131781   6.266   0.888   3.081
10294SOL    HW231782   6.126   0.820   3.031
10295SOL     OW31783   1.445   4.198   3.336
10295SOL    HW131784   1.453   4.296   3.314
10295SOL    HW231785   1.532   4.153   3.315
10296SOL     OW31786   0.527   3.672   1.069
10296SOL    HW131787   0.502   3.628   1.156
10296SOL    HW231788   0.454   3.657   1.003
10297SOL     OW31789   3.466   4.254   6.367
10297SOL    HW131790   3.540   4.245   6.434
10297SOL    HW231791   3.452   4.167   6.320
10298SOL     OW31792   5.525   3.326   2.835
10298SOL    HW131793   5.444   3.346   2.890
10298SOL    HW231794   5.522   3.378   2.750
10299SOL     OW31795   3.915   5.166   3.238
10299SOL    HW131796   3.962   5.229   3.176
10299SOL    HW231797   3.862   5.100   3.186
10300SOL     OW31798   0.545   6.190   2.497
10300SOL    HW131799   0.570   6.255   2.569
10300SOL    HW231800   0.484   6.120   2.534
10301SOL     OW31801   4.435   0.724   1.887
10301SOL    HW131802   4.465   0.633   1.859
10301SOL    HW231803   4.444   0.732   1.986
10302SOL     OW31804   6.843   4.544   3.216
10302SOL    HW131805   6.788   4.582   3.142
10302SOL    HW231806   6.928   4.507   3.178
10303SOL     OW31807   4.603   3.071   0.934
10303SOL    HW131808   4.627   3.137   1.005
10303SOL    HW231809   4.526   3.105   0.881
10304SOL     OW31810   5.998   6.604   4.537
10304SOL    HW131811   6.007   6.665   4.616
10304SOL    HW231812   6.088   6.570   4.511
10305SOL     OW31813   0.740   5.487   0.967
10305SOL    HW131814   0.667   5.534   0.918
10305SOL    HW231815   0.733   5.388   0.952
10306SOL     OW31816   4.461   3.650   6.487
10306SOL    HW131817   4.416   3.583   6.429
10306SOL    HW231818   4.546   3.680   6.444
10307SOL     OW31819   2.462   2.346   6.094
10307SOL    HW131820   2.404   2.364   6.015
10307SOL    HW231821   2.423   2.390   6.175
10308SOL     OW31822   3.046   4.867   4.168
10308SOL    HW131823   2.966   4.807   4.171
10308SOL    HW231824   3.082   4.880   4.260
10309SOL     OW31825   6.696   6.715   3.896
10309SOL    HW131826   6.771   6.651   3.878
10309SOL    HW231827   6.704   6.751   3.989
10310SOL     OW31828   4.078   3.476   4.265
10310SOL    HW131829   4.095   3.512   4.357
10310SOL    HW231830   4.074   3.377   4.269
10311SOL     OW31831   1.775   1.265   0.575
10311SOL    HW131832   1.705   1.193   0.571
10311SOL    HW231833   1.790   1.291   0.670
10312SOL     OW31834   3.282   4.454   0.672
10312SOL    HW131835   3.247   4.538   0.631
10312SOL    HW231836   3.264   4.377   0.611
10313SOL     OW31837   6.470   5.937   3.035
10313SOL    HW131838   6.543   5.909   2.972
10313SOL    HW231839   6.390   5.878   3.022
10314SOL     OW31840   7.017   5.792   5.181
10314SOL    HW131841   6.979   5.699   5.180
10314SOL    HW231842   7.008   5.832   5.090
10315SOL     OW31843   4.588   5.315   5.012
10315SOL    HW131844   4.538   5.262   4.944
10315SOL    HW231845   4.525   5.378   5.058
10316SOL     OW31846   0.185   2.653   3.440
10316SOL    HW131847   0.121   2.718   3.399
10316SOL    HW231848   0.159   2.637   3.535
10317SOL     OW31849   6.299   3.943   6.146
10317SOL    HW131850   6.380   3.969   6.092
10317SOL    HW231851   6.325   3.873   6.212
10318SOL     OW31852   5.137   4.632   2.243
10318SOL    HW131853   5.052   4.626   2.191
10318SOL    HW231854   5.207   4.575   2.199
10319SOL     OW31855   5.982   6.585   3.689
10319SOL    HW131856   5.992   6.486   3.691
10319SOL    HW231857   6.021   6.621   3.605
10320SOL     OW31858   2.716   6.571   1.589
10320SOL    HW131859   2.722   6.524   1.677
10320SOL    HW231860   2.775   6.525   1.523
10321SOL     OW31861   5.088   6.262   5.743
10321SOL    HW131862   5.073   6.163   5.742
10321SOL    HW231863   5.098   6.295   5.650
10322SOL     OW31864   6.906   2.107   6.216
10322SOL    HW131865   6.962   2.113   6.299
10322SOL    HW231866   6.964   2.117   6.136
10323SOL     OW31867   6.744   1.834   5.622
10323SOL    HW131868   6.736   1.816   5.720
10323SOL    HW231869   6.749   1.933   5.606
10324SOL     OW31870   2.868   3.781   5.209
10324SOL    HW131871   2.774   3.805   5.234
10324SOL    HW231872   2.930   3.816   5.279
10325SOL     OW31873   0.492   2.839   3.763
10325SOL    HW131874   0.518   2.777   3.837
10325SOL    HW231875   0.566   2.846   3.697
10326SOL     OW31876   5.399   0.697   0.808
10326SOL    HW131877   5.308   0.705   0.849
10326SOL    HW231878   5.391   0.699   0.708
10327SOL     OW31879   6.628   2.199   3.886
10327SOL    HW131880   6.650   2.150   3.970
10327SOL    HW231881   6.710   2.205   3.829
10328SOL     OW31882   0.378   3.289   1.704
10328SOL    HW131883   0.320   3.239   1.769
10328SOL    HW231884   0.454   3.332   1.752
10329SOL     OW31885   2.393   5.923   2.613
10329SOL    HW131886   2.316   5.861   2.596
10329SOL    HW231887   2.458   5.916   2.537
10330SOL     OW31888   4.127   3.244   0.421
10330SOL    HW131889   4.096   3.210   0.509
10330SOL    HW231890   4.208   3.301   0.433
10331SOL     OW31891   4.551   1.634   3.994
10331SOL    HW131892   4.601   1.556   3.955
10331SOL    HW231893   4.614   1.694   4.042
10332SOL     OW31894   2.284   3.128   6.141
10332SOL    HW131895   2.317   3.218   6.115
10332SOL    HW231896   2.238   3.085   6.063
10333SOL     OW31897   0.181   3.980   5.833
10333SOL    HW131898   0.246   3.917   5.791
10333SOL    HW231899   0.215   4.010   5.921
10334SOL     OW31900   0.368   5.298   5.704
10334SOL    HW131901   0.380   5.369   5.634
10334SOL    HW231902   0.424   5.219   5.681
10335SOL     OW31903   2.852   5.218   2.906
10335SOL    HW131904   2.920   5.146   2.892
10335SOL    HW231905   2.822   5.253   2.817
10336SOL     OW31906   3.900   0.450   2.776
10336SOL    HW131907   3.929   0.545   2.791
10336SOL    HW231908   3.922   0.424   2.682
10337SOL     OW31909   2.186   3.110   6.401
10337SOL    HW131910   2.229   3.118   6.311
10337SOL    HW231911   2.234   3.041   6.455
10338SOL     OW31912   2.269   4.142   3.459
10338SOL    HW131913   2.254   4.043   3.468
10338SOL    HW231914   2.250   4.170   3.365
10339SOL     OW31915   3.199   6.930   6.811
10339SOL    HW131916   3.168   6.923   6.716
10339SOL    HW231917   3.179   6.844   6.858
10340SOL     OW31918   1.851   6.034   0.823
10340SOL    HW131919   1.753   6.015   0.821
10340SOL    HW231920   1.888   6.025   0.730
10341SOL     OW31921   0.282   2.608   1.989
10341SOL    HW131922   0.311   2.546   2.062
10341SOL    HW231923   0.339   2.595   1.909
10342SOL     OW31924   3.443   4.882   4.138
10342SOL    HW131925   3.423   4.908   4.233
10342SOL    HW231926   3.367   4.907   4.079
10343SOL     OW31927   2.913   2.268   4.580
10343SOL    HW131928   2.831   2.324   4.582
10343SOL    HW231929   2.965   2.281   4.665
10344SOL     OW31930   4.954   4.591   1.080
10344SOL    HW131931   4.943   4.534   0.998
10344SOL    HW231932   5.051   4.598   1.102
10345SOL     OW31933   2.610   2.143   6.129
10345SOL    HW131934   2.561   2.065   6.168
10345SOL    HW231935   2.545   2.215   6.106
10346SOL     OW31936   6.684   5.136   6.581
10346SOL    HW131937   6.625   5.213   6.560
10346SOL    HW231938   6.644   5.082   6.655
10347SOL     OW31939   3.196   6.253   2.364
10347SOL    HW131940   3.170   6.338   2.317
10347SOL    HW231941   3.295   6.239   2.356
10348SOL     OW31942   0.498   2.656   3.960
10348SOL    HW131943   0.594   2.643   3.985
10348SOL    HW231944   0.455   2.566   3.947
10349SOL     OW31945   6.375   1.467   0.206
10349SOL    HW131946   6.365   1.554   0.157
10349SOL    HW231947   6.295   1.452   0.264
10350SOL     OW31948   1.807   5.277   4.276
10350SOL    HW131949   1.722   5.325   4.257
10350SOL    HW231950   1.817   5.266   4.375
10351SOL     OW31951   3.997   5.530   5.569
10351SOL    HW131952   4.004   5.620   5.613
10351SOL    HW231953   3.978   5.460   5.638
10352SOL     OW31954   0.294   1.576   2.117
10352SOL    HW131955   0.298   1.582   2.217
10352SOL    HW231956   0.223   1.511   2.090
10353SOL     OW31957   5.275   2.902   3.614
10353SOL    HW131958   5.188   2.864   3.646
10353SOL    HW231959   5.261   2.996   3.583
10354SOL     OW31960   6.766   2.322   1.877
10354SOL    HW131961   6.838   2.372   1.830
10354SOL    HW231962   6.780   2.224   1.865
10355SOL     OW31963   6.773   1.787   0.203
10355SOL    HW131964   6.734   1.797   0.295
10355SOL    HW231965   6.703   1.751   0.141
10356SOL     OW31966   6.243   2.932   5.962
10356SOL    HW131967   6.239   2.890   6.053
10356SOL    HW231968   6.151   2.943   5.926
10357SOL     OW31969   0.896   6.622   6.374
10357SOL    HW131970   0.844   6.591   6.454
10357SOL    HW231971   0.867   6.570   6.293
10358SOL     OW31972   0.720   3.932   4.166
10358SOL    HW131973   0.675   3.966   4.084
10358SOL    HW231974   0.813   3.902   4.144
10359SOL     OW31975   0.456   2.833   1.864
10359SOL    HW131976   0.385   2.903   1.874
10359SOL    HW231977   0.459   2.777   1.947
10360SOL     OW31978   5.558   4.891   1.332
10360SOL    HW131979   5.626   4.835   1.285
10360SOL    HW231980   5.587   4.906   1.427
10361SOL     OW31981   5.539   2.014   4.150
10361SOL    HW131982   5.525   2.072   4.070
10361SOL    HW231983   5.566   2.070   4.228
10362SOL     OW31984   6.845   6.171   2.393
10362SOL    HW131985   6.827   6.073   2.383
10362SOL    HW231986   6.761   6.222   2.375
10363SOL     OW31987   4.920   5.223   6.781
10363SOL    HW131988   4.851   5.222   6.709
10363SOL    HW231989   5.008   5.194   6.743
10364SOL     OW31990   6.589   4.975   1.649
10364SOL    HW131991   6.682   4.978   1.685
10364SOL    HW231992   6.565   4.881   1.625
10365SOL     OW31993   6.612   5.736   6.508
10365SOL    HW131994   6.524   5.720   6.462
10365SOL    HW231995   6.608   5.700   6.601
10366SOL     OW31996   2.455   0.724   3.301
10366SOL    HW131997   2.392   0.685   3.233
10366SOL    HW231998   2.443   0.677   3.388
10367SOL     OW31999   3.970   6.349   2.692
10367SOL    HW132000   4.008   6.335   2.600
10367SOL    HW232001   3.915   6.432   2.693
10368SOL     OW32002   1.371   5.869   1.795
10368SOL    HW132003   1.455   5.889   1.846
10368SOL    HW232004   1.292   5.895   1.851
10369SOL     OW32005   3.112   1.492   5.123
10369SOL    HW132006   3.199   1.468   5.166
10369SOL    HW232007   3.092   1.589   5.139
10370SOL     OW32008   2.382   1.758   6.940
10370SOL    HW132009   2.306   1.699   6.915
10370SOL    HW232010   2.348   1.850   6.960
10371SOL     OW32011   3.396   5.611   2.320
10371SOL    HW132012   3.447   5.556   2.386
10371SOL    HW232013   3.384   5.704   2.355
10372SOL     OW32014   1.060   6.058   0.936
10372SOL    HW132015   1.105   6.101   1.015
10372SOL    HW232016   1.119   6.068   0.856
10373SOL     OW32017   6.717   0.762   5.393
10373SOL    HW132018   6.683   0.854   5.415
10373SOL    HW232019   6.640   0.698   5.393
10374SOL     OW32020   1.987   5.543   1.998
10374SOL    HW132021   1.957   5.637   1.985
10374SOL    HW232022   1.957   5.488   1.919
10375SOL     OW32023   2.303   5.108   6.685
10375SOL    HW132024   2.203   5.096   6.682
10375SOL    HW232025   2.345   5.024   6.719
10376SOL     OW32026   1.663   6.042   3.439
10376SOL    HW132027   1.676   5.995   3.352
10376SOL    HW232028   1.747   6.038   3.493
10377SOL     OW32029   3.251   1.159   4.006
10377SOL    HW132030   3.213   1.067   3.996
10377SOL    HW232031   3.204   1.221   3.944
10378SOL     OW32032   6.969   6.428   5.331
10378SOL    HW132033   6.921   6.344   5.304
10378SOL    HW232034   7.026   6.460   5.256
10379SOL     OW32035   0.419   5.086   3.627
10379SOL    HW132036   0.505   5.065   3.579
10379SOL    HW232037   0.343   5.082   3.562
10380SOL     OW32038   2.990   1.776   3.802
10380SOL    HW132039   3.037   1.695   3.837
10380SOL    HW232040   2.958   1.832   3.878
10381SOL     OW32041   2.195   6.746   4.333
10381SOL    HW132042   2.255   6.668   4.315
10381SOL    HW232043   2.103   6.713   4.353
10382SOL     OW32044   3.208   5.482   2.992
10382SOL    HW132045   3.261   5.447   3.069
10382SOL    HW232046   3.258   5.557   2.948
10383SOL     OW32047   0.376   6.872   0.255
10383SOL    HW132048   0.455   6.874   0.317
10383SOL    HW232049   0.367   6.961   0.210
10384SOL     OW32050   5.128   4.986   1.066
10384SOL    HW132051   5.071   4.928   1.008
10384SOL    HW232052   5.222   4.984   1.034
10385SOL     OW32053   3.603   4.328   6.953
10385SOL    HW132054   3.654   4.335   6.867
10385SOL    HW232055   3.601   4.418   6.998
10386SOL     OW32056   0.010   0.192   1.481
10386SOL    HW132057   7.003   0.265   1.422
10386SOL    HW232058   7.026   0.216   1.577
10387SOL     OW32059   5.318   0.920   2.323
10387SOL    HW132060   5.296   0.829   2.289
10387SOL    HW232061   5.411   0.920   2.361
10388SOL     OW32062   0.813   6.822   4.876
10388SOL    HW132063   0.860   6.781   4.954
10388SOL    HW232064   0.723   6.781   4.866
10389SOL     OW32065   0.674   3.850   0.956
10389SOL    HW132066   0.727   3.902   1.023
10389SOL    HW232067   0.617   3.783   1.003
10390SOL     OW32068   1.318   2.241   2.243
10390SOL    HW132069   1.389   2.173   2.229
10390SOL    HW232070   1.349   2.308   2.311
10391SOL     OW32071   6.223   0.669   3.310
10391SOL    HW132072   6.237   0.570   3.304
10391SOL    HW232073   6.213   0.706   3.218
10392SOL     OW32074   5.689   3.110   4.233
10392SOL    HW132075   5.753   3.115   4.157
10392SOL    HW232076   5.597   3.094   4.198
10393SOL     OW32077   1.522   2.469   1.373
10393SOL    HW132078   1.489   2.400   1.438
10393SOL    HW232079   1.606   2.509   1.407
10394SOL     OW32080   2.505   5.274   4.122
10394SOL    HW132081   2.503   5.204   4.193
10394SOL    HW232082   2.598   5.307   4.110
10395SOL     OW32083   0.886   0.939   1.251
10395SOL    HW132084   0.949   0.868   1.219
10395SOL    HW232085   0.867   0.926   1.348
10396SOL     OW32086   3.440   1.975   5.136
10396SOL    HW132087   3.496   1.910   5.086
10396SOL    HW232088   3.447   1.958   5.234
10397SOL     OW32089   4.707   1.021   4.070
10397SOL    HW132090   4.670   1.112   4.053
10397SOL    HW232091   4.753   0.988   3.987
10398SOL     OW32092   4.647   2.527   2.973
10398SOL    HW132093   4.657   2.583   2.891
10398SOL    HW232094   4.585   2.451   2.955
10399SOL     OW32095   0.776   2.359   1.994
10399SOL    HW132096   0.804   2.373   1.899
10399SOL    HW232097   0.677   2.348   1.998
10400SOL     OW32098   1.487   6.990   0.070
10400SOL    HW132099   1.541   7.014   0.150
10400SOL    HW232100   1.432   6.909   0.090
10401SOL     OW32101   6.371   1.120   5.422
10401SOL    HW132102   6.353   1.219   5.425
10401SOL    HW232103   6.288   1.072   5.394
10402SOL     OW32104   6.654   4.160   6.085
10402SOL    HW132105   6.720   4.124   6.150
10402SOL    HW232106   6.629   4.253   6.110
10403SOL     OW32107   3.471   0.122   1.753
10403SOL    HW132108   3.409   0.184   1.706
10403SOL    HW232109   3.474   0.034   1.704
10404SOL     OW32110   0.379   5.281   5.981
10404SOL    HW132111   0.379   5.307   5.884
10404SOL    HW232112   0.299   5.321   6.026
10405SOL     OW32113   0.277   1.325   6.926
10405SOL    HW132114   0.191   1.370   6.904
10405SOL    HW232115   0.354   1.376   6.887
10406SOL     OW32116   2.065   5.065   1.538
10406SOL    HW132117   2.144   5.100   1.588
10406SOL    HW232118   2.040   5.131   1.466
10407SOL     OW32119   1.953   6.327   0.835
10407SOL    HW132120   1.966   6.305   0.932
10407SOL    HW232121   2.037   6.364   0.798
10408SOL     OW32122   4.658   0.833   6.065
10408SOL    HW132123   4.680   0.904   6.131
10408SOL    HW232124   4.707   0.851   5.979
10409SOL     OW32125   6.355   3.769   0.686
10409SOL    HW132126   6.439   3.821   0.674
10409SOL    HW232127   6.314   3.750   0.597
10410SOL     OW32128   4.085   0.258   0.841
10410SOL    HW132129   4.029   0.197   0.896
10410SOL    HW232130   4.125   0.206   0.764
10411SOL     OW32131   1.558   4.781   3.776
10411SOL    HW132132   1.638   4.783   3.716
10411SOL    HW232133   1.475   4.795   3.721
10412SOL     OW32134   4.713   0.923   2.160
10412SOL    HW132135   4.675   0.994   2.100
10412SOL    HW232136   4.731   0.840   2.107
10413SOL     OW32137   6.301   3.584   2.288
10413SOL    HW132138   6.361   3.652   2.328
10413SOL    HW232139   6.292   3.600   2.190
10414SOL     OW32140   5.002   4.117   3.494
10414SOL    HW132141   5.076   4.109   3.428
10414SOL    HW232142   5.041   4.126   3.586
10415SOL     OW32143   0.484   1.042   6.546
10415SOL    HW132144   0.475   1.096   6.630
10415SOL    HW232145   0.578   1.045   6.513
10416SOL     OW32146   4.837   2.292   2.707
10416SOL    HW132147   4.875   2.379   2.678
10416SOL    HW232148   4.819   2.235   2.627
10417SOL     OW32149   1.938   4.055   2.306
10417SOL    HW132150   1.983   4.145   2.308
10417SOL    HW232151   2.001   3.986   2.342
10418SOL     OW32152   1.440   5.804   6.113
10418SOL    HW132153   1.493   5.724   6.142
10418SOL    HW232154   1.432   5.868   6.189
10419SOL     OW32155   0.898   0.903   6.215
10419SOL    HW132156   0.876   0.807   6.198
10419SOL    HW232157   0.885   0.955   6.131
10420SOL     OW32158   0.465   3.191   2.092
10420SOL    HW132159   0.426   3.253   2.160
10420SOL    HW232160   0.562   3.177   2.111
10421SOL     OW32161   0.628   2.285   2.731
10421SOL    HW132162   0.578   2.237   2.803
10421SOL    HW232163   0.663   2.371   2.768
10422SOL     OW32164   5.687   2.036   0.142
10422SOL    HW132165   5.697   1.952   0.089
10422SOL    HW232166   5.608   2.028   0.203
10423SOL     OW32167   4.138   5.711   2.807
10423SOL    HW132168   4.153   5.640   2.739
10423SOL    HW232169   4.197   5.790   2.787
10424SOL     OW32170   4.588   1.516   6.110
10424SOL    HW132171   4.601   1.479   6.019
10424SOL    HW232172   4.623   1.452   6.178
10425SOL     OW32173   1.507   6.699   1.842
10425SOL    HW132174   1.490   6.648   1.926
10425SOL    HW232175   1.599   6.738   1.846
10426SOL     OW32176   6.320   4.452   6.568
10426SOL    HW132177   6.383   4.374   6.563
10426SOL    HW232178   6.294   4.468   6.663
10427SOL     OW32179   4.664   0.850   0.488
10427SOL    HW132180   4.599   0.778   0.514
10427SOL    HW232181   4.721   0.874   0.566
10428SOL     OW32182   4.229   2.351   3.696
10428SOL    HW132183   4.210   2.385   3.603
10428SOL    HW232184   4.314   2.392   3.728
10429SOL     OW32185   5.785   5.669   2.245
10429SOL    HW132186   5.787   5.569   2.245
10429SOL    HW232187   5.798   5.703   2.338
10430SOL     OW32188   3.500   6.033   2.951
10430SOL    HW132189   3.497   6.098   3.027
10430SOL    HW232190   3.588   5.986   2.951
10431SOL     OW32191   3.188   1.713   5.657
10431SOL    HW132192   3.091   1.692   5.670
10431SOL    HW232193   3.200   1.812   5.651
10432SOL     OW32194   4.337   0.483   4.615
10432SOL    HW132195   4.272   0.517   4.683
10432SOL    HW232196   4.348   0.384   4.627
10433SOL     OW32197   1.638   5.882   1.070
10433SOL    HW132198   1.690   5.822   1.131
10433SOL    HW232199   1.545   5.892   1.105
10434SOL     OW32200   3.580   2.403   5.394
10434SOL    HW132201   3.678   2.410   5.373
10434SOL    HW232202   3.535   2.346   5.326
10435SOL     OW32203   5.751   4.799   6.748
10435SOL    HW132204   5.670   4.792   6.690
10435SOL    HW232205   5.773   4.896   6.763
10436SOL     OW32206   0.003   1.949   2.843
10436SOL    HW132207   0.073   1.893   2.887
10436SOL    HW232208   6.982   1.895   2.776
10437SOL     OW32209   1.447   2.991   0.895
10437SOL    HW132210   1.422   2.895   0.907
10437SOL    HW232211   1.368   3.042   0.862
10438SOL     OW32212   2.618   6.995   5.757
10438SOL    HW132213   2.561   0.024   5.814
10438SOL    HW232214   2.690   0.020   5.714
10439SOL     OW32215   3.663   0.605   5.831
10439SOL    HW132216   3.570   0.636   5.848
10439SOL    HW232217   3.719   0.621   5.913
10440SOL     OW32218   1.042   5.827   0.225
10440SOL    HW132219   0.998   5.741   0.199
10440SOL    HW232220   0.975   5.901   0.221
10441SOL     OW32221   4.763   6.286   0.948
10441SOL    HW132222   4.773   6.198   0.996
10441SOL    HW232223   4.849   6.309   0.902
10442SOL     OW32224   3.520   6.525   6.459
10442SOL    HW132225   3.596   6.540   6.521
10442SOL    HW232226   3.463   6.450   6.494
10443SOL     OW32227   0.362   3.162   4.589
10443SOL    HW132228   0.406   3.154   4.678
10443SOL    HW232229   0.430   3.189   4.521
10444SOL     OW32230   3.817   4.713   5.322
10444SOL    HW132231   3.833   4.769   5.241
10444SOL    HW232232   3.867   4.751   5.400
10445SOL     OW32233   6.602   6.474   1.854
10445SOL    HW132234   6.691   6.512   1.830
10445SOL    HW232235   6.573   6.511   1.943
10446SOL     OW32236   1.438   6.730   5.687
10446SOL    HW132237   1.454   6.786   5.606
10446SOL    HW232238   1.471   6.637   5.671
10447SOL     OW32239   5.381   2.833   6.822
10447SOL    HW132240   5.420   2.891   6.751
10447SOL    HW232241   5.421   2.856   6.910
10448SOL     OW32242   3.795   3.289   2.192
10448SOL    HW132243   3.858   3.361   2.222
10448SOL    HW232244   3.847   3.212   2.155
10449SOL     OW32245   1.251   5.295   5.265
10449SOL    HW132246   1.280   5.310   5.360
10449SOL    HW232247   1.215   5.380   5.227
10450SOL     OW32248   0.766   3.171   0.292
10450SOL    HW132249   0.698   3.139   0.359
10450SOL    HW232250   0.844   3.210   0.341
10451SOL     OW32251   1.694   4.503   2.499
10451SOL    HW132252   1.614   4.542   2.544
10451SOL    HW232253   1.761   4.575   2.481
10452SOL     OW32254   2.358   2.881   6.228
10452SOL    HW132255   2.329   2.966   6.184
10452SOL    HW232256   2.282   2.843   6.280
10453SOL     OW32257   5.055   0.800   2.161
10453SOL    HW132258   4.961   0.834   2.149
10453SOL    HW232259   5.063   0.757   2.251
10454SOL     OW32260   3.867   5.574   2.602
10454SOL    HW132261   3.861   5.530   2.692
10454SOL    HW232262   3.960   5.565   2.567
10455SOL     OW32263   1.468   4.951   3.443
10455SOL    HW132264   1.463   4.878   3.512
10455SOL    HW232265   1.450   5.039   3.487
10456SOL     OW32266   3.771   6.344   0.910
10456SOL    HW132267   3.769   6.386   0.819
10456SOL    HW232268   3.773   6.244   0.900
10457SOL     OW32269   3.396   2.937   3.522
10457SOL    HW132270   3.409   2.863   3.588
10457SOL    HW232271   3.476   2.942   3.461
10458SOL     OW32272   6.439   6.223   2.619
10458SOL    HW132273   6.501   6.262   2.550
10458SOL    HW232274   6.354   6.276   2.621
10459SOL     OW32275   0.007   5.589   1.983
10459SOL    HW132276   6.956   5.536   1.958
10459SOL    HW232277   0.036   5.644   1.905
10460SOL     OW32278   1.453   4.552   1.252
10460SOL    HW132279   1.497   4.473   1.293
10460SOL    HW232280   1.520   4.607   1.203
10461SOL     OW32281   3.943   0.112   6.392
10461SOL    HW132282   3.953   0.014   6.409
10461SOL    HW232283   3.996   0.137   6.310
10462SOL     OW32284   5.501   6.730   1.237
10462SOL    HW132285   5.571   6.740   1.166
10462SOL    HW232286   5.494   6.815   1.290
10463SOL     OW32287   4.464   3.059   0.209
10463SOL    HW132288   4.425   3.104   0.128
10463SOL    HW232289   4.451   2.960   0.202
10464SOL     OW32290   5.465   6.664   1.739
10464SOL    HW132291   5.406   6.744   1.736
10464SOL    HW232292   5.496   6.642   1.647
10465SOL     OW32293   0.191   4.591   5.918
10465SOL    HW132294   0.182   4.499   5.880
10465SOL    HW232295   0.232   4.651   5.850
10466SOL     OW32296   4.426   5.395   5.456
10466SOL    HW132297   4.367   5.411   5.377
10466SOL    HW232298   4.483   5.475   5.472
10467SOL     OW32299   4.101   1.513   4.308
10467SOL    HW132300   4.113   1.576   4.384
10467SOL    HW232301   4.187   1.504   4.258
10468SOL     OW32302   2.810   5.264   3.378
10468SOL    HW132303   2.881   5.245   3.310
10468SOL    HW232304   2.829   5.351   3.422
10469SOL     OW32305   0.726   4.965   5.958
10469SOL    HW132306   0.637   5.009   5.975
10469SOL    HW232307   0.743   4.964   5.859
10470SOL     OW32308   2.476   2.261   4.316
10470SOL    HW132309   2.457   2.259   4.217
10470SOL    HW232310   2.551   2.323   4.334
10471SOL     OW32311   4.588   3.574   6.754
10471SOL    HW132312   4.546   3.551   6.665
10471SOL    HW232313   4.553   3.663   6.785
10472SOL     OW32314   4.154   1.587   3.511
10472SOL    HW132315   4.192   1.630   3.429
10472SOL    HW232316   4.090   1.649   3.555
10473SOL     OW32317   4.747   4.661   0.619
10473SOL    HW132318   4.770   4.577   0.668
10473SOL    HW232319   4.677   4.711   0.671
10474SOL     OW32320   4.946   1.322   4.112
10474SOL    HW132321   4.934   1.421   4.114
10474SOL    HW232322   4.933   1.288   4.019
10475SOL     OW32323   4.456   6.055   1.002
10475SOL    HW132324   4.382   6.045   0.936
10475SOL    HW232325   4.428   6.121   1.073
10476SOL     OW32326   0.733   4.900   7.007
10476SOL    HW132327   0.742   4.802   6.987
10476SOL    HW232328   0.823   4.944   6.998
10477SOL     OW32329   5.245   4.623   4.371
10477SOL    HW132330   5.309   4.557   4.331
10477SOL    HW232331   5.185   4.575   4.435
10478SOL     OW32332   0.636   0.392   2.533
10478SOL    HW132333   0.569   0.358   2.599
10478SOL    HW232334   0.597   0.387   2.441
10479SOL     OW32335   1.001   3.679   2.959
10479SOL    HW132336   0.920   3.693   3.015
10479SOL    HW232337   1.077   3.651   3.018
10480SOL     OW32338   4.731   1.295   6.386
10480SOL    HW132339   4.687   1.250   6.464
10480SOL    HW232340   4.733   1.394   6.400
10481SOL     OW32341   3.440   1.864   3.449
10481SOL    HW132342   3.479   1.790   3.504
10481SOL    HW232343   3.514   1.920   3.411
10482SOL     OW32344   0.427   6.488   5.817
10482SOL    HW132345   0.484   6.536   5.884
10482SOL    HW232346   0.338   6.533   5.810
10483SOL     OW32347   0.790   6.125   0.317
10483SOL    HW132348   0.798   6.225   0.317
10483SOL    HW232349   0.726   6.096   0.246
10484SOL     OW32350   6.713   1.211   2.099
10484SOL    HW132351   6.753   1.134   2.149
10484SOL    HW232352   6.643   1.255   2.155
10485SOL     OW32353   3.534   3.927   4.925
10485SOL    HW132354   3.434   3.922   4.935
10485SOL    HW232355   3.563   4.022   4.932
10486SOL     OW32356   6.298   4.521   6.145
10486SOL    HW132357   6.353   4.486   6.069
10486SOL    HW232358   6.281   4.619   6.133
10487SOL     OW32359   5.219   3.970   2.549
10487SOL    HW132360   5.183   4.014   2.467
10487SOL    HW232361   5.266   4.038   2.605
10488SOL     OW32362   1.163   2.016   5.527
10488SOL    HW132363   1.228   2.083   5.490
10488SOL    HW232364   1.186   1.997   5.623
10489SOL     OW32365   5.780   5.043   2.782
10489SOL    HW132366   5.743   5.052   2.690
10489SOL    HW232367   5.705   5.044   2.848
10490SOL     OW32368   5.522   6.363   6.715
10490SOL    HW132369   5.569   6.411   6.641
10490SOL    HW232370   5.486   6.276   6.681
10491SOL     OW32371   1.973   1.544   5.500
10491SOL    HW132372   1.934   1.630   5.467
10491SOL    HW232373   1.965   1.475   5.428
10492SOL     OW32374   3.005   0.015   0.124
10492SOL    HW132375   3.088   0.069   0.129
10492SOL    HW232376   2.981   7.012   0.216
10493SOL     OW32377   4.472   6.876   0.385
10493SOL    HW132378   4.551   6.904   0.440
10493SOL    HW232379   4.394   6.933   0.410
10494SOL     OW32380   6.661   5.878   3.647
10494SOL    HW132381   6.590   5.943   3.675
10494SOL    HW232382   6.687   5.897   3.552
10495SOL     OW32383   6.305   6.397   0.051
10495SOL    HW132384   6.379   6.435   0.107
10495SOL    HW232385   6.230   6.463   0.046
10496SOL     OW32386   1.733   3.674   6.311
10496SOL    HW132387   1.782   3.712   6.389
10496SOL    HW232388   1.779   3.703   6.226
10497SOL     OW32389   4.062   0.225   0.169
10497SOL    HW132390   4.123   0.297   0.202
10497SOL    HW232391   4.063   0.225   0.069
10498SOL     OW32392   3.497   3.866   0.514
10498SOL    HW132393   3.594   3.892   0.513
10498SOL    HW232394   3.475   3.816   0.431
10499SOL     OW32395   4.111   4.775   4.108
10499SOL    HW132396   4.147   4.794   4.017
10499SOL    HW232397   4.181   4.798   4.176
10500SOL     OW32398   1.859   2.585   4.639
10500SOL    HW132399   1.864   2.678   4.602
10500SOL    HW232400   1.931   2.529   4.599
10501SOL     OW32401   3.916   5.096   2.732
10501SOL    HW132402   3.915   5.170   2.665
10501SOL    HW232403   4.010   5.066   2.748
10502SOL     OW32404   3.632   3.280   3.438
10502SOL    HW132405   3.607   3.322   3.351
10502SOL    HW232406   3.574   3.316   3.511
10503SOL     OW32407   6.758   6.061   0.923
10503SOL    HW132408   6.818   5.998   0.972
10503SOL    HW232409   6.690   6.097   0.986
10504SOL     OW32410   1.661   2.739   5.292
10504SOL    HW132411   1.749   2.774   5.324
10504SOL    HW232412   1.603   2.718   5.371
10505SOL     OW32413   5.019   6.622   1.156
10505SOL    HW132414   5.007   6.679   1.075
10505SOL    HW232415   5.076   6.543   1.133
10506SOL     OW32416   0.515   5.407   6.219
10506SOL    HW132417   0.540   5.331   6.279
10506SOL    HW232418   0.461   5.373   6.142
10507SOL     OW32419   2.343   6.310   5.796
10507SOL    HW132420   2.377   6.252   5.871
10507SOL    HW232421   2.251   6.342   5.817
10508SOL     OW32422   1.804   6.436   1.271
10508SOL    HW132423   1.800   6.341   1.238
10508SOL    HW232424   1.888   6.450   1.322
10509SOL     OW32425   4.959   3.373   1.744
10509SOL    HW132426   5.030   3.430   1.702
10509SOL    HW232427   4.920   3.312   1.675
10510SOL     OW32428   5.060   6.753   1.957
10510SOL    HW132429   5.138   6.767   2.019
10510SOL    HW232430   5.006   6.675   1.990
10511SOL     OW32431   3.943   1.710   0.894
10511SOL    HW132432   3.897   1.630   0.932
10511SOL    HW232433   3.988   1.761   0.967
10512SOL     OW32434   3.948   0.085   4.742
10512SOL    HW132435   4.036   0.131   4.731
10512SOL    HW232436   3.910   0.065   4.651
10513SOL     OW32437   4.253   3.929   0.856
10513SOL    HW132438   4.235   3.847   0.802
10513SOL    HW232439   4.245   4.010   0.798
10514SOL     OW32440   0.851   4.842   1.639
10514SOL    HW132441   0.787   4.811   1.710
10514SOL    HW232442   0.849   4.942   1.635
10515SOL     OW32443   2.157   3.270   4.580
10515SOL    HW132444   2.079   3.316   4.539
10515SOL    HW232445   2.178   3.188   4.528
10516SOL     OW32446   5.270   2.037   1.177
10516SOL    HW132447   5.303   1.991   1.095
10516SOL    HW232448   5.214   2.116   1.152
10517SOL     OW32449   6.374   1.505   1.799
10517SOL    HW132450   6.456   1.502   1.856
10517SOL    HW232451   6.381   1.438   1.726
10518SOL     OW32452   6.967   5.886   3.073
10518SOL    HW132453   6.875   5.913   3.101
10518SOL    HW232454   6.978   5.900   2.975
10519SOL     OW32455   1.570   6.828   0.685
10519SOL    HW132456   1.579   6.858   0.590
10519SOL    HW232457   1.631   6.881   0.743
10520SOL     OW32458   3.281   2.630   5.908
10520SOL    HW132459   3.236   2.693   5.845
10520SOL    HW232460   3.241   2.539   5.898
10521SOL     OW32461   5.721   1.587   1.539
10521SOL    HW132462   5.750   1.677   1.573
10521SOL    HW232463   5.644   1.598   1.477
10522SOL     OW32464   5.325   1.359   2.652
10522SOL    HW132465   5.290   1.268   2.675
10522SOL    HW232466   5.254   1.427   2.672
10523SOL     OW32467   7.025   3.786   1.572
10523SOL    HW132468   0.093   3.763   1.579
10523SOL    HW232469   6.997   3.785   1.476
10524SOL     OW32470   6.282   6.614   4.854
10524SOL    HW132471   6.229   6.699   4.846
10524SOL    HW232472   6.254   6.565   4.937
10525SOL     OW32473   4.929   2.255   3.990
10525SOL    HW132474   4.919   2.351   4.018
10525SOL    HW232475   4.958   2.251   3.895
10526SOL     OW32476   1.660   6.505   6.111
10526SOL    HW132477   1.621   6.593   6.083
10526SOL    HW232478   1.633   6.434   6.046
10527SOL     OW32479   0.956   6.633   5.345
10527SOL    HW132480   1.003   6.629   5.257
10527SOL    HW232481   1.004   6.576   5.411
10528SOL     OW32482   2.737   5.887   5.236
10528SOL    HW132483   2.675   5.826   5.185
10528SOL    HW232484   2.695   5.977   5.244
10529SOL     OW32485   6.980   5.494   6.653
10529SOL    HW132486   6.983   5.520   6.557
10529SOL    HW232487   6.910   5.424   6.667
10530SOL     OW32488   5.527   0.342   1.611
10530SOL    HW132489   5.579   0.405   1.554
10530SOL    HW232490   5.498   0.390   1.695
10531SOL     OW32491   3.285   0.756   6.589
10531SOL    HW132492   3.295   0.660   6.616
10531SOL    HW232493   3.314   0.815   6.664
10532SOL     OW32494   4.230   5.702   5.804
10532SOL    HW132495   4.306   5.716   5.740
10532SOL    HW232496   4.195   5.791   5.834
10533SOL     OW32497   4.100   6.523   4.256
10533SOL    HW132498   4.193   6.555   4.238
10533SOL    HW232499   4.104   6.432   4.297
10534SOL     OW32500   0.684   6.089   4.859
10534SOL    HW132501   0.628   6.096   4.776
10534SOL    HW232502   0.652   6.012   4.915
10535SOL     OW32503   3.801   1.619   2.079
10535SOL    HW132504   3.728   1.603   2.013
10535SOL    HW232505   3.772   1.589   2.170
10536SOL     OW32506   5.900   3.056   4.631
10536SOL    HW132507   5.884   2.961   4.603
10536SOL    HW232508   5.857   3.118   4.565
10537SOL     OW32509   2.410   1.231   2.191
10537SOL    HW132510   2.457   1.291   2.254
10537SOL    HW232511   2.355   1.165   2.242
10538SOL     OW32512   6.481   2.775   3.747
10538SOL    HW132513   6.445   2.737   3.662
10538SOL    HW232514   6.544   2.850   3.726
10539SOL     OW32515   6.672   0.273   1.543
10539SOL    HW132516   6.665   0.312   1.451
10539SOL    HW232517   6.636   0.179   1.543
10540SOL     OW32518   1.951   2.576   5.829
10540SOL    HW132519   1.856   2.580   5.859
10540SOL    HW232520   2.012   2.580   5.908
10541SOL     OW32521   4.131   2.510   6.969
10541SOL    HW132522   4.130   2.436   6.902
10541SOL    HW232523   4.196   2.581   6.941
10542SOL     OW32524   3.093   6.132   3.005
10542SOL    HW132525   3.023   6.193   2.969
10542SOL    HW232526   3.108   6.151   3.102
10543SOL     OW32527   0.723   2.871   3.621
10543SOL    HW132528   0.747   2.951   3.566
10543SOL    HW232529   0.770   2.876   3.709
10544SOL     OW32530   2.854   2.282   2.344
10544SOL    HW132531   2.758   2.294   2.367
10544SOL    HW232532   2.868   2.304   2.247
10545SOL     OW32533   0.858   3.239   1.713
10545SOL    HW132534   0.938   3.210   1.765
10545SOL    HW232535   0.778   3.188   1.745
10546SOL     OW32536   2.062   0.026   4.902
10546SOL    HW132537   1.986   0.072   4.855
10546SOL    HW232538   2.096   6.981   4.844
10547SOL     OW32539   2.919   5.823   6.300
10547SOL    HW132540   2.965   5.835   6.388
10547SOL    HW232541   2.974   5.866   6.228
10548SOL     OW32542   1.380   5.312   3.253
10548SOL    HW132543   1.472   5.345   3.230
10548SOL    HW232544   1.364   5.224   3.207
10549SOL     OW32545   6.572   1.726   2.353
10549SOL    HW132546   6.578   1.798   2.422
10549SOL    HW232547   6.477   1.696   2.344
10550SOL     OW32548   0.286   4.513   2.668
10550SOL    HW132549   0.236   4.567   2.601
10550SOL    HW232550   0.379   4.496   2.635
10551SOL     OW32551   4.777   1.021   4.776
10551SOL    HW132552   4.795   0.953   4.705
10551SOL    HW232553   4.826   1.106   4.754
10552SOL     OW32554   2.538   6.782   4.153
10552SOL    HW132555   2.605   6.724   4.199
10552SOL    HW232556   2.536   6.872   4.196
10553SOL     OW32557   5.678   5.190   1.693
10553SOL    HW132558   5.770   5.229   1.694
10553SOL    HW232559   5.612   5.258   1.723
10554SOL     OW32560   5.373   5.671   1.747
10554SOL    HW132561   5.310   5.705   1.816
10554SOL    HW232562   5.439   5.742   1.723
10555SOL     OW32563   3.353   3.171   2.717
10555SOL    HW132564   3.298   3.124   2.786
10555SOL    HW232565   3.331   3.269   2.718
10556SOL     OW32566   2.367   1.972   2.109
10556SOL    HW132567   2.441   1.943   2.170
10556SOL    HW232568   2.392   2.059   2.066
10557SOL     OW32569   1.177   4.914   3.084
10557SOL    HW132570   1.266   4.955   3.102
10557SOL    HW232571   1.177   4.874   2.992
10558SOL     OW32572   5.263   5.526   4.556
10558SOL    HW132573   5.179   5.519   4.502
10558SOL    HW232574   5.279   5.439   4.604
10559SOL     OW32575   3.864   5.850   1.803
10559SOL    HW132576   3.835   5.944   1.825
10559SOL    HW232577   3.783   5.793   1.792
10560SOL     OW32578   5.704   6.832   4.390
10560SOL    HW132579   5.731   6.804   4.298
10560SOL    HW232580   5.693   6.751   4.448
10561SOL     OW32581   0.947   5.320   5.642
10561SOL    HW132582   0.967   5.369   5.557
10561SOL    HW232583   0.884   5.244   5.622
10562SOL     OW32584   2.675   1.367   2.549
10562SOL    HW132585   2.714   1.431   2.482
10562SOL    HW232586   2.749   1.325   2.602
10563SOL     OW32587   1.588   5.487   2.290
10563SOL    HW132588   1.534   5.433   2.225
10563SOL    HW232589   1.606   5.432   2.372
10564SOL     OW32590   5.501   5.934   3.836
10564SOL    HW132591   5.565   5.978   3.773
10564SOL    HW232592   5.473   5.846   3.798
10565SOL     OW32593   0.418   1.423   4.648
10565SOL    HW132594   0.416   1.385   4.741
10565SOL    HW232595   0.324   1.441   4.618
10566SOL     OW32596   3.910   1.473   1.221
10566SOL    HW132597   3.907   1.424   1.134
10566SOL    HW232598   3.879   1.567   1.207
10567SOL     OW32599   3.235   1.571   5.898
10567SOL    HW132600   3.228   1.640   5.825
10567SOL    HW232601   3.331   1.564   5.927
10568SOL     OW32602   6.069   1.197   6.872
10568SOL    HW132603   6.154   1.153   6.904
10568SOL    HW232604   6.033   1.256   6.944
10569SOL     OW32605   3.935   0.671   1.426
10569SOL    HW132606   3.853   0.693   1.372
10569SOL    HW232607   3.908   0.620   1.508
10570SOL     OW32608   1.309   3.809   3.114
10570SOL    HW132609   1.386   3.795   3.176
10570SOL    HW232610   1.332   3.882   3.049
10571SOL     OW32611   1.198   4.050   4.750
10571SOL    HW132612   1.237   4.108   4.678
10571SOL    HW232613   1.252   3.966   4.758
10572SOL     OW32614   6.976   5.421   0.568
10572SOL    HW132615   7.011   5.388   0.480
10572SOL    HW232616   7.024   5.374   0.642
10573SOL     OW32617   5.834   2.158   2.759
10573SOL    HW132618   5.798   2.092   2.825
10573SOL    HW232619   5.758   2.204   2.713
10574SOL     OW32620   5.473   3.082   3.020
10574SOL    HW132621   5.504   3.137   2.941
10574SOL    HW232622   5.472   2.986   2.995
10575SOL     OW32623   4.724   6.649   3.258
10575SOL    HW132624   4.729   6.553   3.231
10575SOL    HW232625   4.629   6.672   3.280
10576SOL     OW32626   0.990   3.165   5.134
10576SOL    HW132627   0.951   3.194   5.046
10576SOL    HW232628   0.936   3.204   5.209
10577SOL     OW32629   4.395   5.069   6.601
10577SOL    HW132630   4.352   4.980   6.617
10577SOL    HW232631   4.494   5.059   6.602
10578SOL     OW32632   1.135   2.940   1.816
10578SOL    HW132633   1.147   2.848   1.777
10578SOL    HW232634   1.045   2.946   1.859
10579SOL     OW32635   0.163   3.153   0.460
10579SOL    HW132636   0.248   3.139   0.410
10579SOL    HW232637   0.136   3.249   0.453
10580SOL     OW32638   4.708   6.130   6.395
10580SOL    HW132639   4.713   6.210   6.456
10580SOL    HW232640   4.659   6.056   6.441
10581SOL     OW32641   3.503   0.627   2.778
10581SOL    HW132642   3.512   0.529   2.759
10581SOL    HW232643   3.565   0.651   2.853
10582SOL     OW32644   0.323   3.635   0.160
10582SOL    HW132645   0.282   3.604   0.245
10582SOL    HW232646   0.266   3.606   0.083
10583SOL     OW32647   3.806   2.196   5.946
10583SOL    HW132648   3.744   2.218   6.021
10583SOL    HW232649   3.765   2.124   5.889
10584SOL     OW32650   6.733   0.303   4.028
10584SOL    HW132651   6.687   0.381   4.070
10584SOL    HW232652   6.708   0.219   4.076
10585SOL     OW32653   1.717   0.816   4.741
10585SOL    HW132654   1.693   0.884   4.672
10585SOL    HW232655   1.716   0.725   4.699
10586SOL     OW32656   4.283   3.420   6.323
10586SOL    HW132657   4.204   3.361   6.336
10586SOL    HW232658   4.302   3.429   6.225
10587SOL     OW32659   1.898   5.102   6.088
10587SOL    HW132660   1.798   5.105   6.092
10587SOL    HW232661   1.928   5.007   6.094
10588SOL     OW32662   1.403   4.661   4.406
10588SOL    HW132663   1.467   4.664   4.483
10588SOL    HW232664   1.361   4.752   4.395
10589SOL     OW32665   6.443   0.717   3.504
10589SOL    HW132666   6.346   0.698   3.519
10589SOL    HW232667   6.495   0.632   3.509
10590SOL     OW32668   6.132   6.597   2.602
10590SOL    HW132669   6.063   6.659   2.639
10590SOL    HW232670   6.220   6.615   2.645
10591SOL     OW32671   6.413   4.306   2.780
10591SOL    HW132672   6.462   4.263   2.705
10591SOL    HW232673   6.422   4.249   2.862
10592SOL     OW32674   6.220   3.660   5.717
10592SOL    HW132675   6.278   3.718   5.773
10592SOL    HW232676   6.277   3.593   5.668
10593SOL     OW32677   3.474   5.856   3.354
10593SOL    HW132678   3.443   5.836   3.447
10593SOL    HW232679   3.400   5.900   3.303
10594SOL     OW32680   3.924   6.135   3.119
10594SOL    HW132681   3.951   6.110   3.025
10594SOL    HW232682   3.855   6.071   3.152
10595SOL     OW32683   6.148   5.682   1.511
10595SOL    HW132684   6.097   5.763   1.539
10595SOL    HW232685   6.089   5.623   1.456
10596SOL     OW32686   6.526   2.885   1.012
10596SOL    HW132687   6.437   2.865   0.973
10596SOL    HW232688   6.559   2.973   0.977
10597SOL     OW32689   1.038   6.734   5.104
10597SOL    HW132690   1.049   6.692   5.013
10597SOL    HW232691   1.119   6.789   5.125
10598SOL     OW32692   3.160   1.762   0.573
10598SOL    HW132693   3.249   1.724   0.546
10598SOL    HW232694   3.153   1.762   0.673
10599SOL     OW32695   1.016   1.723   1.281
10599SOL    HW132696   0.965   1.762   1.205
10599SOL    HW232697   0.989   1.628   1.294
10600SOL     OW32698   4.395   1.192   1.913
10600SOL    HW132699   4.353   1.273   1.871
10600SOL    HW232700   4.363   1.110   1.865
10601SOL     OW32701   1.735   2.222   5.367
10601SOL    HW132702   1.753   2.243   5.271
10601SOL    HW232703   1.723   2.307   5.419
10602SOL     OW32704   6.544   6.435   0.881
10602SOL    HW132705   6.597   6.414   0.799
10602SOL    HW232706   6.562   6.365   0.951
10603SOL     OW32707   5.730   0.047   3.000
10603SOL    HW132708   5.814   0.101   2.994
10603SOL    HW232709   5.750   6.982   2.977
10604SOL     OW32710   5.464   2.272   4.543
10604SOL    HW132711   5.464   2.266   4.643
10604SOL    HW232712   5.490   2.183   4.504
10605SOL     OW32713   4.672   1.393   1.672
10605SOL    HW132714   4.755   1.447   1.654
10605SOL    HW232715   4.618   1.386   1.588
10606SOL     OW32716   5.621   1.780   1.142
10606SOL    HW132717   5.605   1.878   1.152
10606SOL    HW232718   5.655   1.761   1.050
10607SOL     OW32719   1.725   5.049   1.359
10607SOL    HW132720   1.762   5.025   1.448
10607SOL    HW232721   1.627   5.067   1.367
10608SOL     OW32722   5.427   3.757   2.612
10608SOL    HW132723   5.518   3.797   2.601
10608SOL    HW232724   5.360   3.811   2.561
10609SOL     OW32725   5.698   5.680   6.797
10609SOL    HW132726   5.778   5.662   6.740
10609SOL    HW232727   5.642   5.751   6.754
10610SOL     OW32728   0.186   2.379   3.630
10610SOL    HW132729   0.157   2.471   3.657
10610SOL    HW232730   0.105   2.322   3.616
10611SOL     OW32731   4.211   5.797   6.758
10611SOL    HW132732   4.272   5.733   6.806
10611SOL    HW232733   4.153   5.746   6.695
10612SOL     OW32734   5.559   2.476   4.018
10612SOL    HW132735   5.619   2.444   4.091
10612SOL    HW232736   5.584   2.431   3.932
10613SOL     OW32737   4.661   5.080   6.278
10613SOL    HW132738   4.590   5.053   6.214
10613SOL    HW232739   4.625   5.076   6.371
10614SOL     OW32740   4.429   1.476   0.131
10614SOL    HW132741   4.393   1.533   0.057
10614SOL    HW232742   4.436   1.529   0.215
10615SOL     OW32743   4.238   3.210   5.851
10615SOL    HW132744   4.320   3.157   5.829
10615SOL    HW232745   4.208   3.189   5.943
10616SOL     OW32746   1.981   4.969   0.201
10616SOL    HW132747   1.916   4.895   0.188
10616SOL    HW232748   1.990   4.990   0.299
10617SOL     OW32749   2.523   3.514   0.608
10617SOL    HW132750   2.434   3.557   0.619
10617SOL    HW232751   2.530   3.435   0.668
10618SOL     OW32752   6.914   5.083   5.236
10618SOL    HW132753   7.002   5.118   5.269
10618SOL    HW232754   6.921   5.064   5.138
10619SOL     OW32755   1.612   1.874   0.935
10619SOL    HW132756   1.584   1.950   0.993
10619SOL    HW232757   1.696   1.899   0.886
10620SOL     OW32758   4.304   1.388   5.951
10620SOL    HW132759   4.388   1.334   5.955
10620SOL    HW232760   4.322   1.475   5.905
10621SOL     OW32761   0.893   5.577   4.502
10621SOL    HW132762   0.926   5.491   4.541
10621SOL    HW232763   0.970   5.640   4.490
10622SOL     OW32764   3.718   2.082   6.254
10622SOL    HW132765   3.744   1.997   6.208
10622SOL    HW232766   3.796   2.119   6.304
10623SOL     OW32767   5.539   4.908   4.793
10623SOL    HW132768   5.608   4.980   4.786
10623SOL    HW232769   5.584   4.818   4.787
10624SOL     OW32770   0.439   1.253   5.394
10624SOL    HW132771   0.416   1.350   5.410
10624SOL    HW232772   0.514   1.226   5.455
10625SOL     OW32773   6.410   5.223   6.776
10625SOL    HW132774   6.394   5.196   6.681
10625SOL    HW232775   6.496   5.183   6.808
10626SOL     OW32776   5.443   3.497   1.549
10626SOL    HW132777   5.373   3.547   1.600
10626SOL    HW232778   5.511   3.562   1.514
10627SOL     OW32779   4.955   5.628   5.693
10627SOL    HW132780   4.949   5.665   5.786
10627SOL    HW232781   4.997   5.695   5.632
10628SOL     OW32782   2.326   6.732   2.164
10628SOL    HW132783   2.325   6.787   2.081
10628SOL    HW232784   2.320   6.792   2.244
10629SOL     OW32785   4.534   5.871   4.230
10629SOL    HW132786   4.543   5.916   4.319
10629SOL    HW232787   4.456   5.809   4.232
10630SOL     OW32788   4.328   0.942   1.752
10630SOL    HW132789   4.363   0.976   1.665
10630SOL    HW232790   4.381   0.863   1.781
10631SOL     OW32791   3.580   5.935   2.160
10631SOL    HW132792   3.541   5.855   2.114
10631SOL    HW232793   3.510   5.979   2.216
10632SOL     OW32794   6.037   0.797   4.986
10632SOL    HW132795   6.114   0.834   5.037
10632SOL    HW232796   5.964   0.866   4.980
10633SOL     OW32797   2.792   3.811   0.294
10633SOL    HW132798   2.836   3.878   0.354
10633SOL    HW232799   2.695   3.806   0.318
10634SOL     OW32800   0.948   4.355   1.018
10634SOL    HW132801   0.957   4.365   1.117
10634SOL    HW232802   1.029   4.391   0.973
10635SOL     OW32803   3.194   5.153   0.600
10635SOL    HW132804   3.094   5.157   0.607
10635SOL    HW232805   3.230   5.246   0.596
10636SOL     OW32806   0.649   2.952   0.697
10636SOL    HW132807   0.724   2.914   0.643
10636SOL    HW232808   0.590   3.008   0.638
10637SOL     OW32809   1.786   6.441   5.300
10637SOL    HW132810   1.733   6.370   5.347
10637SOL    HW232811   1.833   6.498   5.367
10638SOL     OW32812   5.347   4.177   6.946
10638SOL    HW132813   5.299   4.213   6.866
10638SOL    HW232814   5.438   4.218   6.951
10639SOL     OW32815   0.168   5.307   6.542
10639SOL    HW132816   0.124   5.371   6.604
10639SOL    HW232817   0.250   5.349   6.503
10640SOL     OW32818   4.421   5.631   4.945
10640SOL    HW132819   4.409   5.582   5.032
10640SOL    HW232820   4.517   5.658   4.936
10641SOL     OW32821   1.036   1.048   3.348
10641SOL    HW132822   1.040   0.960   3.396
10641SOL    HW232823   1.065   1.121   3.411
10642SOL     OW32824   6.539   2.460   6.209
10642SOL    HW132825   6.601   2.499   6.141
10642SOL    HW232826   6.589   2.394   6.266
10643SOL     OW32827   3.581   5.497   5.026
10643SOL    HW132828   3.508   5.510   5.093
10643SOL    HW232829   3.545   5.511   4.934
10644SOL     OW32830   2.263   4.219   3.840
10644SOL    HW132831   2.182   4.224   3.782
10644SOL    HW232832   2.237   4.234   3.936
10645SOL     OW32833   1.949   2.964   3.211
10645SOL    HW132834   1.944   2.957   3.311
10645SOL    HW232835   1.991   3.051   3.186
10646SOL     OW32836   5.261   1.435   3.504
10646SOL    HW132837   5.265   1.501   3.579
10646SOL    HW232838   5.227   1.348   3.538
10647SOL     OW32839   4.700   6.006   4.690
10647SOL    HW132840   4.635   6.028   4.762
10647SOL    HW232841   4.791   6.041   4.715
10648SOL     OW32842   4.515   3.460   5.740
10648SOL    HW132843   4.417   3.446   5.729
10648SOL    HW232844   4.553   3.391   5.801
10649SOL     OW32845   6.192   3.474   3.522
10649SOL    HW132846   6.131   3.403   3.485
10649SOL    HW232847   6.284   3.460   3.487
10650SOL     OW32848   0.467   1.153   2.477
10650SOL    HW132849   0.412   1.107   2.546
10650SOL    HW232850   0.556   1.107   2.469
10651SOL     OW32851   2.714   5.691   4.961
10651SOL    HW132852   2.659   5.774   4.966
10651SOL    HW232853   2.653   5.611   4.955
10652SOL     OW32854   3.869   0.567   0.074
10652SOL    HW132855   3.902   0.628   0.002
10652SOL    HW232856   3.879   0.611   0.163
10653SOL     OW32857   5.967   6.080   4.928
10653SOL    HW132858   5.912   6.076   5.011
10653SOL    HW232859   5.962   5.993   4.879
10654SOL     OW32860   6.768   1.752   3.974
10654SOL    HW132861   6.792   1.797   4.060
10654SOL    HW232862   6.761   1.820   3.901
10655SOL     OW32863   6.360   4.732   0.705
10655SOL    HW132864   6.281   4.757   0.649
10655SOL    HW232865   6.344   4.759   0.800
10656SOL     OW32866   5.506   0.712   5.543
10656SOL    HW132867   5.474   0.807   5.544
10656SOL    HW232868   5.452   0.658   5.608
10657SOL     OW32869   5.354   0.311   5.650
10657SOL    HW132870   5.262   0.327   5.615
10657SOL    HW232871   5.350   0.248   5.728
10658SOL     OW32872   1.119   0.972   4.978
10658SOL    HW132873   1.177   1.039   5.024
10658SOL    HW232874   1.115   0.888   5.034
10659SOL     OW32875   0.475   5.726   6.684
10659SOL    HW132876   0.431   5.811   6.658
10659SOL    HW232877   0.518   5.684   6.603
10660SOL     OW32878   6.507   2.786   6.087
10660SOL    HW132879   6.418   2.782   6.134
10660SOL    HW232880   6.515   2.872   6.038
10661SOL     OW32881   4.156   5.929   5.909
10661SOL    HW132882   4.099   5.904   5.988
10661SOL    HW232883   4.113   6.005   5.860
10662SOL     OW32884   3.279   1.743   1.084
10662SOL    HW132885   3.356   1.786   1.132
10662SOL    HW232886   3.210   1.716   1.151
10663SOL     OW32887   6.795   3.402   3.911
10663SOL    HW132888   6.824   3.429   4.003
10663SOL    HW232889   6.854   3.446   3.843
10664SOL     OW32890   0.634   6.338   4.144
10664SOL    HW132891   0.700   6.398   4.188
10664SOL    HW232892   0.620   6.257   4.200
10665SOL     OW32893   4.800   3.823   1.000
10665SOL    HW132894   4.882   3.772   0.973
10665SOL    HW232895   4.758   3.780   1.079
10666SOL     OW32896   5.364   3.649   1.886
10666SOL    HW132897   5.419   3.726   1.853
10666SOL    HW232898   5.289   3.683   1.943
10667SOL     OW32899   5.767   2.880   4.412
10667SOL    HW132900   5.723   2.796   4.382
10667SOL    HW232901   5.736   2.957   4.356
10668SOL     OW32902   2.781   3.376   5.928
10668SOL    HW132903   2.855   3.408   5.869
10668SOL    HW232904   2.700   3.433   5.914
10669SOL     OW32905   6.935   2.289   1.627
10669SOL    HW132906   6.962   2.353   1.555
10669SOL    HW232907   6.843   2.255   1.607
10670SOL     OW32908   4.938   4.633   4.108
10670SOL    HW132909   4.861   4.626   4.172
10670SOL    HW232910   4.986   4.719   4.124
10671SOL     OW32911   1.880   3.242   4.252
10671SOL    HW132912   1.861   3.163   4.193
10671SOL    HW232913   1.798   3.299   4.259
10672SOL     OW32914   6.354   5.035   1.806
10672SOL    HW132915   6.441   5.019   1.759
10672SOL    HW232916   6.343   4.968   1.880
10673SOL     OW32917   3.239   0.861   1.621
10673SOL    HW132918   3.277   0.937   1.568
10673SOL    HW232919   3.311   0.819   1.677
10674SOL     OW32920   3.919   3.110   3.712
10674SOL    HW132921   3.950   3.197   3.675
10674SOL    HW232922   3.924   3.040   3.640
10675SOL     OW32923   3.716   6.388   5.601
10675SOL    HW132924   3.783   6.325   5.561
10675SOL    HW232925   3.716   6.474   5.550
10676SOL     OW32926   1.413   1.521   4.863
10676SOL    HW132927   1.316   1.521   4.842
10676SOL    HW232928   1.464   1.564   4.789
10677SOL     OW32929   0.102   1.257   6.599
10677SOL    HW132930   0.185   1.311   6.590
10677SOL    HW232931   0.083   1.210   6.513
10678SOL     OW32932   3.477   4.977   2.825
10678SOL    HW132933   3.562   4.986   2.877
10678SOL    HW232934   3.496   4.931   2.739
10679SOL     OW32935   5.539   3.970   6.947
10679SOL    HW132936   5.611   4.007   6.887
10679SOL    HW232937   5.461   4.032   6.948
10680SOL     OW32938   3.829   1.842   4.939
10680SOL    HW132939   3.740   1.833   4.895
10680SOL    HW232940   3.879   1.920   4.900
10681SOL     OW32941   2.307   3.398   5.645
10681SOL    HW132942   2.379   3.348   5.595
10681SOL    HW232943   2.231   3.417   5.583
10682SOL     OW32944   5.209   3.236   6.231
10682SOL    HW132945   5.248   3.229   6.140
10682SOL    HW232946   5.113   3.264   6.224
10683SOL     OW32947   1.971   6.631   3.236
10683SOL    HW132948   1.999   6.542   3.201
10683SOL    HW232949   1.906   6.673   3.172
10684SOL     OW32950   5.433   3.654   1.280
10684SOL    HW132951   5.367   3.581   1.262
10684SOL    HW232952   5.385   3.732   1.321
10685SOL     OW32953   0.494   0.846   2.460
10685SOL    HW132954   0.524   0.831   2.554
10685SOL    HW232955   0.562   0.900   2.411
10686SOL     OW32956   2.531   1.964   6.718
10686SOL    HW132957   2.475   2.036   6.757
10686SOL    HW232958   2.472   1.896   6.674
10687SOL     OW32959   0.689   3.211   3.561
10687SOL    HW132960   0.657   3.288   3.506
10687SOL    HW232961   0.611   3.164   3.602
10688SOL     OW32962   4.853   1.279   3.610
10688SOL    HW132963   4.822   1.373   3.595
10688SOL    HW232964   4.858   1.231   3.523
10689SOL     OW32965   1.526   1.056   2.987
10689SOL    HW132966   1.469   1.089   2.911
10689SOL    HW232967   1.487   1.087   3.074
10690SOL     OW32968   1.439   5.883   4.801
10690SOL    HW132969   1.352   5.925   4.775
10690SOL    HW232970   1.424   5.814   4.872
10691SOL     OW32971   3.659   6.605   1.233
10691SOL    HW132972   3.698   6.633   1.321
10691SOL    HW232973   3.647   6.685   1.174
10692SOL     OW32974   2.791   2.364   4.059
10692SOL    HW132975   2.768   2.402   3.969
10692SOL    HW232976   2.891   2.364   4.070
10693SOL     OW32977   1.189   4.107   0.245
10693SOL    HW132978   1.203   4.019   0.291
10693SOL    HW232979   1.257   4.118   0.173
10694SOL     OW32980   4.763   2.710   5.410
10694SOL    HW132981   4.774   2.809   5.421
10694SOL    HW232982   4.674   2.682   5.447
10695SOL     OW32983   4.672   4.641   1.744
10695SOL    HW132984   4.610   4.708   1.785
10695SOL    HW232985   4.643   4.549   1.769
10696SOL     OW32986   6.823   4.963   4.370
10696SOL    HW132987   6.819   4.961   4.470
10696SOL    HW232988   6.785   5.049   4.337
10697SOL     OW32989   2.535   5.088   5.097
10697SOL    HW132990   2.554   5.015   5.162
10697SOL    HW232991   2.505   5.169   5.146
10698SOL     OW32992   4.063   5.050   6.928
10698SOL    HW132993   4.004   5.004   6.994
10698SOL    HW232994   4.158   5.046   6.960
10699SOL     OW32995   4.768   3.832   1.521
10699SOL    HW132996   4.823   3.837   1.604
10699SOL    HW232997   4.678   3.795   1.543
10700SOL     OW32998   4.936   0.428   1.383
10700SOL    HW132999   4.966   0.515   1.343
10700SOL    HW233000   4.851   0.443   1.434
10701SOL     OW33001   3.377   0.076   5.751
10701SOL    HW133002   3.297   0.083   5.810
10701SOL    HW233003   3.402   0.166   5.716
10702SOL     OW33004   5.758   3.016   2.188
10702SOL    HW133005   5.710   2.992   2.104
10702SOL    HW233006   5.829   3.083   2.169
10703SOL     OW33007   0.891   2.137   5.484
10703SOL    HW133008   0.948   2.094   5.554
10703SOL    HW233009   0.803   2.092   5.480
10704SOL     OW33010   5.234   6.841   2.162
10704SOL    HW133011   5.303   6.821   2.092
10704SOL    HW233012   5.242   6.774   2.236
10705SOL     OW33013   4.723   3.445   1.404
10705SOL    HW133014   4.767   3.366   1.361
10705SOL    HW233015   4.640   3.468   1.354
10706SOL     OW33016   3.076   1.040   2.017
10706SOL    HW133017   2.989   1.002   2.046
10706SOL    HW233018   3.144   1.027   2.089
10707SOL     OW33019   3.501   6.912   3.455
10707SOL    HW133020   3.500   6.991   3.394
10707SOL    HW233021   3.586   6.913   3.509
10708SOL     OW33022   4.278   1.139   1.170
10708SOL    HW133023   4.374   1.165   1.159
10708SOL    HW233024   4.224   1.221   1.191
10709SOL     OW33025   5.910   4.392   3.117
10709SOL    HW133026   5.814   4.382   3.142
10709SOL    HW233027   5.932   4.489   3.105
10710SOL     OW33028   4.689   1.660   3.145
10710SOL    HW133029   4.776   1.709   3.150
10710SOL    HW233030   4.661   1.650   3.049
10711SOL     OW33031   2.242   6.589   3.099
10711SOL    HW133032   2.316   6.554   3.156
10711SOL    HW233033   2.176   6.516   3.080
10712SOL     OW33034   5.143   1.010   3.367
10712SOL    HW133035   5.203   1.008   3.287
10712SOL    HW233036   5.165   0.932   3.427
10713SOL     OW33037   1.253   4.251   1.212
10713SOL    HW133038   1.222   4.164   1.174
10713SOL    HW233039   1.257   4.320   1.139
10714SOL     OW33040   3.213   4.128   4.767
10714SOL    HW133041   3.135   4.189   4.752
10714SOL    HW233042   3.216   4.101   4.863
10715SOL     OW33043   6.811   0.445   1.701
10715SOL    HW133044   6.753   0.395   1.636
10715SOL    HW233045   6.869   0.509   1.651
10716SOL     OW33046   4.857   0.716   3.094
10716SOL    HW133047   4.823   0.623   3.112
10716SOL    HW233048   4.955   0.719   3.112
10717SOL     OW33049   3.474   3.159   0.392
10717SOL    HW133050   3.391   3.123   0.433
10717SOL    HW233051   3.539   3.084   0.377
10718SOL     OW33052   1.625   4.932   6.514
10718SOL    HW133053   1.537   4.965   6.548
10718SOL    HW233054   1.666   5.001   6.455
10719SOL     OW33055   6.939   4.403   5.485
10719SOL    HW133056   6.897   4.463   5.553
10719SOL    HW233057   7.017   4.357   5.526
10720SOL     OW33058   6.732   5.552   2.959
10720SOL    HW133059   6.757   5.468   3.006
10720SOL    HW233060   6.689   5.530   2.871
10721SOL     OW33061   4.873   2.932   6.472
10721SOL    HW133062   4.968   2.905   6.488
10721SOL    HW233063   4.814   2.880   6.534
10722SOL     OW33064   0.308   3.777   5.677
10722SOL    HW133065   0.346   3.828   5.600
10722SOL    HW233066   0.377   3.770   5.749
10723SOL     OW33067   5.803   5.892   1.424
10723SOL    HW133068   5.885   5.860   1.471
10723SOL    HW233069   5.803   5.859   1.329
10724SOL     OW33070   0.517   6.505   6.179
10724SOL    HW133071   0.600   6.449   6.182
10724SOL    HW233072   0.465   6.493   6.263
10725SOL     OW33073   2.404   0.057   6.376
10725SOL    HW133074   2.484   0.013   6.416
10725SOL    HW233075   2.339   7.017   6.346
10726SOL     OW33076   3.821   0.682   4.211
10726SOL    HW133077   3.836   0.761   4.152
10726SOL    HW233078   3.879   0.606   4.182
10727SOL     OW33079   1.930   6.424   0.045
10727SOL    HW133080   1.947   6.327   0.029
10727SOL    HW233081   1.863   6.435   0.118
10728SOL     OW33082   5.316   6.444   2.205
10728SOL    HW133083   5.286   6.516   2.267
10728SOL    HW233084   5.397   6.474   2.155
10729SOL     OW33085   6.337   1.749   0.286
10729SOL    HW133086   6.354   1.697   0.370
10729SOL    HW233087   6.281   1.829   0.308
10730SOL     OW33088   4.878   0.348   2.989
10730SOL    HW133089   4.952   0.413   2.970
10730SOL    HW233090   4.819   0.384   3.061
10731SOL     OW33091   3.502   6.814   0.606
10731SOL    HW133092   3.449   6.746   0.657
10731SOL    HW233093   3.486   6.904   0.646
10732SOL     OW33094   0.640   3.298   6.040
10732SOL    HW133095   0.573   3.263   5.974
10732SOL    HW233096   0.594   3.358   6.106
10733SOL     OW33097   6.345   0.190   6.977
10733SOL    HW133098   6.247   0.170   6.976
10733SOL    HW233099   6.359   0.289   6.968
10734SOL     OW33100   5.542   2.791   1.735
10734SOL    HW133101   5.443   2.780   1.740
10734SOL    HW233102   5.575   2.836   1.818
10735SOL     OW33103   6.839   5.579   2.551
10735SOL    HW133104   6.807   5.529   2.470
10735SOL    HW233105   6.765   5.584   2.618
10736SOL     OW33106   2.238   1.590   5.363
10736SOL    HW133107   2.174   1.513   5.372
10736SOL    HW233108   2.186   1.674   5.345
10737SOL     OW33109   0.238   1.587   6.236
10737SOL    HW133110   0.282   1.648   6.302
10737SOL    HW233111   0.284   1.594   6.148
10738SOL     OW33112   4.115   6.786   4.524
10738SOL    HW133113   4.202   6.762   4.482
10738SOL    HW233114   4.126   6.866   4.582
10739SOL     OW33115   1.461   1.290   2.026
10739SOL    HW133116   1.468   1.191   2.030
10739SOL    HW233117   1.368   1.316   2.002
10740SOL     OW33118   3.958   6.281   3.908
10740SOL    HW133119   3.875   6.284   3.964
10740SOL    HW233120   3.994   6.188   3.905
10741SOL     OW33121   2.371   0.672   2.591
10741SOL    HW133122   2.420   0.618   2.660
10741SOL    HW233123   2.423   0.673   2.506
10742SOL     OW33124   6.529   5.552   0.047
10742SOL    HW133125   6.449   5.588   7.028
10742SOL    HW233126   6.517   5.454   0.062
10743SOL     OW33127   3.356   1.357   5.166
10743SOL    HW133128   3.397   1.306   5.090
10743SOL    HW233129   3.412   1.438   5.186
10744SOL     OW33130   5.873   1.018   0.537
10744SOL    HW133131   5.922   1.097   0.574
10744SOL    HW233132   5.800   0.991   0.600
10745SOL     OW33133   6.645   6.128   6.351
10745SOL    HW133134   6.608   6.082   6.270
10745SOL    HW233135   6.740   6.154   6.334
10746SOL     OW33136   1.779   4.340   5.257
10746SOL    HW133137   1.789   4.298   5.166
10746SOL    HW233138   1.842   4.417   5.265
10747SOL     OW33139   2.984   2.224   4.859
10747SOL    HW133140   3.068   2.242   4.909
10747SOL    HW233141   2.951   2.132   4.882
10748SOL     OW33142   5.696   1.529   2.748
10748SOL    HW133143   5.772   1.577   2.792
10748SOL    HW233144   5.718   1.513   2.652
10749SOL     OW33145   3.805   0.259   0.306
10749SOL    HW133146   3.734   0.209   0.257
10749SOL    HW233147   3.889   0.259   0.252
10750SOL     OW33148   4.976   5.852   6.471
10750SOL    HW133149   4.893   5.831   6.522
10750SOL    HW233150   4.983   5.951   6.458
10751SOL     OW33151   2.361   6.346   2.934
10751SOL    HW133152   2.360   6.279   2.861
10751SOL    HW233153   2.316   6.430   2.903
10752SOL     OW33154   4.894   5.754   4.271
10752SOL    HW133155   4.980   5.804   4.265
10752SOL    HW233156   4.844   5.762   4.185
10753SOL     OW33157   5.851   4.122   4.358
10753SOL    HW133158   5.861   4.058   4.434
10753SOL    HW233159   5.762   4.167   4.364
10754SOL     OW33160   1.147   6.583   2.408
10754SOL    HW133161   1.197   6.523   2.471
10754SOL    HW233162   1.079   6.635   2.459
10755SOL     OW33163   5.989   5.924   1.610
10755SOL    HW133164   6.066   5.988   1.609
10755SOL    HW233165   5.907   5.970   1.644
10756SOL     OW33166   0.041   6.923   4.830
10756SOL    HW133167   0.007   7.016   4.849
10756SOL    HW233168   0.111   6.927   4.759
10757SOL     OW33169   2.844   2.564   1.709
10757SOL    HW133170   2.890   2.516   1.784
10757SOL    HW233171   2.811   2.497   1.642
10758SOL     OW33172   6.669   5.243   4.103
10758SOL    HW133173   6.584   5.276   4.144
10758SOL    HW233174   6.742   5.242   4.172
10759SOL     OW33175   6.574   0.835   6.825
10759SOL    HW133176   6.672   0.842   6.809
10759SOL    HW233177   6.525   0.836   6.738
10760SOL     OW33178   5.670   2.120   4.412
10760SOL    HW133179   5.702   2.051   4.478
10760SOL    HW233180   5.684   2.212   4.451
10761SOL     OW33181   3.700   5.648   5.785
10761SOL    HW133182   3.798   5.633   5.775
10761SOL    HW233183   3.655   5.636   5.697
10762SOL     OW33184   3.411   0.616   6.385
10762SOL    HW133185   3.334   0.555   6.367
10762SOL    HW233186   3.380   0.693   6.442
10763SOL     OW33187   4.911   5.200   4.390
10763SOL    HW133188   4.817   5.235   4.389
10763SOL    HW233189   4.965   5.252   4.456
10764SOL     OW33190   5.066   0.494   4.801
10764SOL    HW133191   5.035   0.483   4.896
10764SOL    HW233192   5.164   0.477   4.796
10765SOL     OW33193   7.013   3.827   7.013
10765SOL    HW133194   6.937   3.887   6.988
10765SOL    HW233195   0.024   3.858   0.069
10766SOL     OW33196   3.108   3.396   2.251
10766SOL    HW133197   3.052   3.343   2.314
10766SOL    HW233198   3.054   3.422   2.171
10767SOL     OW33199   4.630   2.041   2.150
10767SOL    HW133200   4.607   2.124   2.099
10767SOL    HW233201   4.561   1.971   2.133
10768SOL     OW33202   5.814   4.654   6.353
10768SOL    HW133203   5.875   4.629   6.428
10768SOL    HW233204   5.847   4.613   6.268
10769SOL     OW33205   2.132   3.613   4.418
10769SOL    HW133206   2.032   3.615   4.419
10769SOL    HW233207   2.163   3.519   4.401
10770SOL     OW33208   4.129   6.053   3.737
10770SOL    HW133209   4.221   6.064   3.776
10770SOL    HW233210   4.135   6.060   3.638
10771SOL     OW33211   2.503   2.213   3.708
10771SOL    HW133212   2.432   2.279   3.734
10771SOL    HW233213   2.473   2.121   3.733
10772SOL     OW33214   5.234   5.960   3.857
10772SOL    HW133215   5.208   5.952   3.760
10772SOL    HW233216   5.333   5.944   3.865
10773SOL     OW33217   5.854   5.284   2.815
10773SOL    HW133218   5.856   5.184   2.815
10773SOL    HW233219   5.765   5.315   2.848
10774SOL     OW33220   0.252   0.169   3.319
10774SOL    HW133221   0.244   0.269   3.324
10774SOL    HW233222   0.233   0.130   3.409
10775SOL     OW33223   0.319   2.361   1.136
10775SOL    HW133224   0.332   2.367   1.235
10775SOL    HW233225   0.226   2.389   1.113
10776SOL     OW33226   1.964   0.562   5.457
10776SOL    HW133227   1.954   0.653   5.497
10776SOL    HW233228   2.056   0.528   5.477
10777SOL     OW33229   3.180   5.744   1.674
10777SOL    HW133230   3.134   5.656   1.683
10777SOL    HW233231   3.215   5.753   1.581
10778SOL     OW33232   5.661   5.697   1.572
10778SOL    HW133233   5.720   5.681   1.651
10778SOL    HW233234   5.688   5.782   1.527
10779SOL     OW33235   4.861   2.951   3.721
10779SOL    HW133236   4.769   2.913   3.732
10779SOL    HW233237   4.924   2.879   3.693
10780SOL     OW33238   6.723   0.259   2.076
10780SOL    HW133239   6.697   0.308   2.159
10780SOL    HW233240   6.641   0.217   2.036
10781SOL     OW33241   3.104   0.468   4.184
10781SOL    HW133242   3.194   0.438   4.150
10781SOL    HW233243   3.055   0.515   4.111
10782SOL     OW33244   0.102   5.696   3.369
10782SOL    HW133245   0.054   5.783   3.383
10782SOL    HW233246   0.060   5.648   3.292
10783SOL     OW33247   6.514   2.573   2.810
10783SOL    HW133248   6.481   2.665   2.834
10783SOL    HW233249   6.451   2.531   2.746
10784SOL     OW33250   1.920   1.845   5.001
10784SOL    HW133251   1.888   1.910   5.070
10784SOL    HW233252   1.879   1.867   4.913
10785SOL     OW33253   1.573   3.301   6.120
10785SOL    HW133254   1.490   3.287   6.067
10785SOL    HW233255   1.552   3.352   6.204
10786SOL     OW33256   6.569   4.645   4.750
10786SOL    HW133257   6.663   4.623   4.725
10786SOL    HW233258   6.506   4.602   4.685
10787SOL     OW33259   1.859   2.143   5.971
10787SOL    HW133260   1.958   2.133   5.973
10787SOL    HW233261   1.834   2.217   5.908
10788SOL     OW33262   5.717   3.692   6.145
10788SOL    HW133263   5.745   3.766   6.084
10788SOL    HW233264   5.626   3.712   6.182
10789SOL     OW33265   4.807   0.983   6.575
10789SOL    HW133266   4.732   0.962   6.639
10789SOL    HW233267   4.888   0.930   6.600
10790SOL     OW33268   5.545   6.866   2.315
10790SOL    HW133269   5.480   6.804   2.270
10790SOL    HW233270   5.504   6.957   2.325
10791SOL     OW33271   0.892   5.916   2.810
10791SOL    HW133272   0.843   5.834   2.782
10791SOL    HW233273   0.834   5.972   2.868
10792SOL     OW33274   4.159   4.753   6.493
10792SOL    HW133275   4.070   4.741   6.449
10792SOL    HW233276   4.232   4.742   6.426
10793SOL     OW33277   5.572   4.189   4.342
10793SOL    HW133278   5.573   4.195   4.442
10793SOL    HW233279   5.479   4.207   4.308
10794SOL     OW33280   3.357   3.360   4.363
10794SOL    HW133281   3.452   3.345   4.391
10794SOL    HW233282   3.351   3.356   4.263
10795SOL     OW33283   7.001   4.663   2.739
10795SOL    HW133284   6.938   4.591   2.769
10795SOL    HW233285   7.014   4.729   2.813
10796SOL     OW33286   0.805   6.659   5.590
10796SOL    HW133287   0.847   6.652   5.499
10796SOL    HW233288   0.834   6.744   5.633
10797SOL     OW33289   4.062   2.550   0.255
10797SOL    HW133290   4.152   2.509   0.239
10797SOL    HW233291   3.998   2.517   0.186
10798SOL     OW33292   5.568   1.378   0.907
10798SOL    HW133293   5.599   1.455   0.852
10798SOL    HW233294   5.639   1.307   0.908
10799SOL     OW33295   5.264   1.674   1.332
10799SOL    HW133296   5.180   1.671   1.386
10799SOL    HW233297   5.240   1.685   1.235
10800SOL     OW33298   6.530   6.665   1.390
10800SOL    HW133299   6.494   6.751   1.352
10800SOL    HW233300   6.565   6.609   1.315
10801SOL     OW33301   2.376   0.763   1.346
10801SOL    HW133302   2.339   0.671   1.336
10801SOL    HW233303   2.476   0.760   1.345
10802SOL     OW33304   5.264   1.340   3.949
10802SOL    HW133305   5.192   1.392   3.904
10802SOL    HW233306   5.334   1.402   3.984
10803SOL     OW33307   2.243   5.014   5.052
10803SOL    HW133308   2.302   4.953   5.105
10803SOL    HW233309   2.290   5.040   4.968
10804SOL     OW33310   6.152   3.557   4.047
10804SOL    HW133311   6.175   3.534   3.952
10804SOL    HW233312   6.121   3.475   4.095
10805SOL     OW33313   6.957   6.779   6.476
10805SOL    HW133314   6.889   6.839   6.432
10805SOL    HW233315   0.008   6.833   6.500
10806SOL     OW33316   1.848   4.944   1.103
10806SOL    HW133317   1.819   4.993   1.186
10806SOL    HW233318   1.799   4.981   1.024
10807SOL     OW33319   3.184   5.202   5.266
10807SOL    HW133320   3.262   5.265   5.260
10807SOL    HW233321   3.103   5.245   5.228
10808SOL     OW33322   1.980   3.197   0.509
10808SOL    HW133323   1.961   3.131   0.435
10808SOL    HW233324   1.894   3.228   0.548
10809SOL     OW33325   1.304   0.908   4.781
10809SOL    HW133326   1.390   0.935   4.824
10809SOL    HW233327   1.233   0.900   4.851
10810SOL     OW33328   0.228   0.461   3.332
10810SOL    HW133329   0.132   0.457   3.303
10810SOL    HW233330   0.234   0.458   3.431
10811SOL     OW33331   5.325   5.494   4.939
10811SOL    HW133332   5.331   5.498   4.840
10811SOL    HW233333   5.271   5.571   4.972
10812SOL     OW33334   0.598   3.018   1.182
10812SOL    HW133335   0.551   2.979   1.104
10812SOL    HW233336   0.686   3.056   1.153
10813SOL     OW33337   1.285   3.628   6.846
10813SOL    HW133338   1.365   3.593   6.797
10813SOL    HW233339   1.209   3.639   6.782
10814SOL     OW33340   3.359   1.935   2.528
10814SOL    HW133341   3.372   1.956   2.625
10814SOL    HW233342   3.371   2.018   2.474
10815SOL     OW33343   5.536   1.061   4.528
10815SOL    HW133344   5.492   1.055   4.617
10815SOL    HW233345   5.611   1.128   4.532
10816SOL     OW33346   2.913   3.204   5.536
10816SOL    HW133347   2.857   3.205   5.618
10816SOL    HW233348   2.858   3.174   5.458
10817SOL     OW33349   1.737   6.366   4.882
10817SOL    HW133350   1.708   6.279   4.842
10817SOL    HW233351   1.741   6.436   4.811
10818SOL     OW33352   4.804   3.777   0.619
10818SOL    HW133353   4.829   3.690   0.663
10818SOL    HW233354   4.733   3.823   0.672
10819SOL     OW33355   6.517   5.625   5.416
10819SOL    HW133356   6.464   5.710   5.416
10819SOL    HW233357   6.490   5.570   5.495
10820SOL     OW33358   1.652   4.922   6.070
10820SOL    HW133359   1.599   4.898   5.989
10820SOL    HW233360   1.689   4.839   6.112
10821SOL     OW33361   4.358   5.672   4.160
10821SOL    HW133362   4.347   5.701   4.064
10821SOL    HW233363   4.282   5.612   4.185
10822SOL     OW33364   5.220   0.101   2.994
10822SOL    HW133365   5.239   0.010   3.031
10822SOL    HW233366   5.129   0.102   2.953
10823SOL     OW33367   5.509   6.647   2.531
10823SOL    HW133368   5.531   6.625   2.626
10823SOL    HW233369   5.572   6.716   2.497
10824SOL     OW33370   1.822   2.055   3.611
10824SOL    HW133371   1.909   2.040   3.565
10824SOL    HW233372   1.804   2.153   3.619
10825SOL     OW33373   0.054   1.516   0.129
10825SOL    HW133374   0.045   1.616   0.119
10825SOL    HW233375   0.057   1.474   0.039
10826SOL     OW33376   6.739   3.540   3.055
10826SOL    HW133377   6.649   3.582   3.070
10826SOL    HW233378   6.811   3.605   3.077
10827SOL     OW33379   0.613   2.894   3.321
10827SOL    HW133380   0.675   2.843   3.381
10827SOL    HW233381   0.665   2.957   3.265
10828SOL     OW33382   6.971   4.342   4.771
10828SOL    HW133383   0.003   4.302   4.838
10828SOL    HW233384   6.956   4.277   4.697
10829SOL     OW33385   3.886   3.014   5.526
10829SOL    HW133386   3.804   3.000   5.470
10829SOL    HW233387   3.881   2.955   5.607
10830SOL     OW33388   5.347   1.756   3.803
10830SOL    HW133389   5.297   1.835   3.767
10830SOL    HW233390   5.445   1.767   3.785
10831SOL     OW33391   4.116   0.073   2.991
10831SOL    HW133392   4.189   0.053   3.056
10831SOL    HW233393   4.033   0.097   3.041
10832SOL     OW33394   6.703   3.496   6.533
10832SOL    HW133395   6.635   3.552   6.581
10832SOL    HW233396   6.657   3.434   6.470
10833SOL     OW33397   0.983   1.169   6.680
10833SOL    HW133398   0.959   1.127   6.592
10833SOL    HW233399   1.081   1.188   6.682
10834SOL     OW33400   6.878   6.456   2.633
10834SOL    HW133401   6.977   6.470   2.628
10834SOL    HW233402   6.851   6.385   2.568
10835SOL     OW33403   6.753   2.935   5.626
10835SOL    HW133404   6.660   2.931   5.662
10835SOL    HW233405   6.817   2.900   5.694
10836SOL     OW33406   6.781   1.849   3.313
10836SOL    HW133407   6.849   1.849   3.240
10836SOL    HW233408   6.733   1.937   3.313
10837SOL     OW33409   0.405   3.024   3.457
10837SOL    HW133410   0.479   2.975   3.409
10837SOL    HW233411   0.445   3.093   3.516
10838SOL     OW33412   0.293   6.666   2.690
10838SOL    HW133413   0.385   6.629   2.691
10838SOL    HW233414   0.297   6.766   2.681
10839SOL     OW33415   4.686   2.405   6.993
10839SOL    HW133416   4.741   2.342   6.939
10839SOL    HW233417   4.735   2.492   7.003
10840SOL     OW33418   3.074   0.605   2.089
10840SOL    HW133419   3.012   0.558   2.027
10840SOL    HW233420   3.110   0.541   2.157
10841SOL     OW33421   2.275   5.673   4.453
10841SOL    HW133422   2.241   5.593   4.404
10841SOL    HW233423   2.345   5.719   4.399
10842SOL     OW33424   6.709   4.746   1.784
10842SOL    HW133425   6.765   4.672   1.820
10842SOL    HW233426   6.622   4.710   1.751
10843SOL     OW33427   2.708   1.541   1.163
10843SOL    HW133428   2.644   1.468   1.190
10843SOL    HW233429   2.672   1.629   1.194
10844SOL     OW33430   1.566   5.400   4.262
10844SOL    HW133431   1.582   5.487   4.216
10844SOL    HW233432   1.469   5.389   4.280
10845SOL     OW33433   3.941   0.664   4.474
10845SOL    HW133434   4.003   0.731   4.517
10845SOL    HW233435   3.920   0.693   4.381
10846SOL     OW33436   5.621   6.814   6.141
10846SOL    HW133437   5.527   6.801   6.107
10846SOL    HW233438   5.631   6.906   6.177
10847SOL     OW33439   3.339   0.057   6.955
10847SOL    HW133440   3.287   7.013   6.913
10847SOL    HW233441   3.426   0.021   6.988
10848SOL     OW33442   1.426   2.827   2.203
10848SOL    HW133443   1.401   2.736   2.171
10848SOL    HW233444   1.434   2.826   2.303
10849SOL     OW33445   1.185   6.802   3.798
10849SOL    HW133446   1.135   6.745   3.732
10849SOL    HW233447   1.144   6.792   3.888
10850SOL     OW33448   4.759   4.166   0.090
10850SOL    HW133449   4.809   4.088   0.053
10850SOL    HW233450   4.739   4.230   0.016
10851SOL     OW33451   1.473   4.607   0.809
10851SOL    HW133452   1.408   4.651   0.870
10851SOL    HW233453   1.556   4.583   0.860
10852SOL     OW33454   2.977   0.587   1.234
10852SOL    HW133455   3.044   0.535   1.181
10852SOL    HW233456   3.020   0.670   1.271
10853SOL     OW33457   2.985   0.839   6.182
10853SOL    HW133458   2.901   0.796   6.151
10853SOL    HW233459   3.006   0.808   6.275
10854SOL     OW33460   3.087   6.443   5.951
10854SOL    HW133461   3.063   6.355   5.912
10854SOL    HW233462   3.129   6.430   6.041
10855SOL     OW33463   4.545   0.868   6.354
10855SOL    HW133464   4.558   0.934   6.280
10855SOL    HW233465   4.450   0.836   6.354
10856SOL     OW33466   0.489   0.266   0.772
10856SOL    HW133467   0.476   0.168   0.758
10856SOL    HW233468   0.582   0.284   0.802
10857SOL     OW33469   6.180   1.446   1.363
10857SOL    HW133470   6.222   1.531   1.397
10857SOL    HW233471   6.158   1.387   1.440
10858SOL     OW33472   2.241   6.482   2.031
10858SOL    HW133473   2.146   6.464   2.056
10858SOL    HW233474   2.267   6.574   2.061
10859SOL     OW33475   1.828   4.755   3.654
10859SOL    HW133476   1.907   4.723   3.706
10859SOL    HW233477   1.857   4.775   3.560
10860SOL     OW33478   0.723   3.723   3.025
10860SOL    HW133479   0.624   3.716   3.017
10860SOL    HW233480   0.750   3.705   3.119
10861SOL     OW33481   4.291   3.506   5.322
10861SOL    HW133482   4.229   3.531   5.248
10861SOL    HW233483   4.279   3.409   5.345
10862SOL     OW33484   1.014   0.469   5.876
10862SOL    HW133485   1.087   0.464   5.808
10862SOL    HW233486   0.996   0.565   5.898
10863SOL     OW33487   1.660   6.774   4.268
10863SOL    HW133488   1.694   6.728   4.186
10863SOL    HW233489   1.596   6.846   4.241
10864SOL     OW33490   3.070   6.888   3.746
10864SOL    HW133491   3.001   6.946   3.787
10864SOL    HW233492   3.126   6.941   3.682
10865SOL     OW33493   6.585   0.797   6.040
10865SOL    HW133494   6.649   0.868   6.068
10865SOL    HW233495   6.495   0.839   6.023
10866SOL     OW33496   6.472   4.801   6.888
10866SOL    HW133497   6.417   4.729   6.930
10866SOL    HW233498   6.493   4.777   6.793
10867SOL     OW33499   2.951   1.522   0.100
10867SOL    HW133500   2.996   1.433   0.105
10867SOL    HW233501   3.009   1.591   0.145
10868SOL     OW33502   1.553   2.461   3.588
10868SOL    HW133503   1.623   2.516   3.542
10868SOL    HW233504   1.511   2.515   3.661
10869NA      NA33505   6.723   2.260   5.178
10870NA      NA33506   4.486   4.547   5.190
10871NA      NA33507   2.033   3.412   1.998
10872NA      NA33508   4.992   3.449   4.976
10873NA      NA33509   4.367   2.379   5.198
10874NA      NA33510   3.852   4.896   2.102
10875NA      NA33511   6.578   6.446   4.877
10876NA      NA33512   3.649   3.326   5.075
10877NA      NA33513   4.811   6.146   6.182
10878NA      NA33514   2.884   6.779   4.896
10879NA      NA33515   0.420   4.889   3.280
10880NA      NA33516   2.014   0.555   1.962
10881NA      NA33517   4.168   4.120   1.208
10882NA      NA33518   3.859   3.452   3.160
   7.02978   7.02978   7.02978
