Generated by trjconv : CNT in water t= 159.00000
33518
    1C        C    1   2.842   2.770   4.747
    1C        C    2   2.898   2.720   4.867
    1C        C    3   2.839   2.772   4.982
    1C        C    4   2.850   2.772   4.262
    1C        C    5   2.903   2.727   4.385
    1C        C    6   2.845   2.771   4.506
    1C        C    7   3.012   2.640   4.629
    1C        C    8   2.893   2.716   4.627
    1C        C    9   3.075   2.602   4.750
    1C        C   10   3.009   2.632   4.871
    1C        C   11   3.185   2.497   4.980
    1C        C   12   3.065   2.570   4.983
    1C        C   13   2.846   2.769   3.773
    1C        C   14   2.896   2.721   3.896
    1C        C   15   2.841   2.765   4.019
    1C        C   16   3.019   2.648   4.139
    1C        C   17   2.896   2.718   4.140
    1C        C   18   3.082   2.617   4.261
    1C        C   19   3.022   2.651   4.384
    1C        C   20   3.211   2.566   4.504
    1C        C   21   3.077   2.608   4.508
    1C        C   22   3.280   2.545   4.626
    1C        C   23   3.208   2.550   4.747
    1C        C   24   3.414   2.489   4.869
    1C        C   25   3.272   2.510   4.867
    1C        C   26   3.491   2.484   4.986
    1C        C   27   2.847   2.762   3.284
    1C        C   28   2.901   2.718   3.408
    1C        C   29   2.851   2.771   3.529
    1C        C   30   3.019   2.645   3.653
    1C        C   31   2.901   2.723   3.652
    1C        C   32   3.078   2.608   3.775
    1C        C   33   3.013   2.642   3.896
    1C        C   34   3.210   2.557   4.016
    1C        C   35   3.079   2.609   4.017
    1C        C   36   3.279   2.537   4.138
    1C        C   37   3.211   2.559   4.260
    1C        C   38   3.417   2.510   4.387
    1C        C   39   3.279   2.540   4.382
    1C        C   40   3.489   2.509   4.508
    1C        C   41   3.418   2.513   4.630
    1C        C   42   3.633   2.492   4.748
    1C        C   43   3.490   2.492   4.749
    1C        C   44   3.707   2.490   4.869
    1C        C   45   3.630   2.481   4.986
    1C        C   46   2.839   2.754   2.796
    1C        C   47   2.897   2.714   2.918
    1C        C   48   2.843   2.762   3.040
    1C        C   49   3.015   2.637   3.164
    1C        C   50   2.898   2.716   3.161
    1C        C   51   3.080   2.609   3.287
    1C        C   52   3.020   2.642   3.410
    1C        C   53   3.212   2.551   3.529
    1C        C   54   3.082   2.607   3.532
    1C        C   55   3.278   2.532   3.653
    1C        C   56   3.209   2.555   3.774
    1C        C   57   3.419   2.512   3.898
    1C        C   58   3.280   2.536   3.895
    1C        C   59   3.489   2.504   4.020
    1C        C   60   3.419   2.514   4.143
    1C        C   61   3.630   2.503   4.264
    1C        C   62   3.488   2.504   4.265
    1C        C   63   3.702   2.513   4.385
    1C        C   64   3.630   2.505   4.506
    1C        C   65   3.840   2.541   4.624
    1C        C   66   3.703   2.507   4.627
    1C        C   67   3.905   2.566   4.747
    1C        C   68   3.843   2.528   4.868
    1C        C   69   4.057   2.585   4.981
    1C        C   70   3.927   2.531   4.980
    1C        C   71   2.827   2.739   2.310
    1C        C   72   2.884   2.693   2.431
    1C        C   73   2.831   2.742   2.552
    1C        C   74   3.007   2.625   2.673
    1C        C   75   2.891   2.705   2.674
    1C        C   76   3.073   2.600   2.795
    1C        C   77   3.015   2.637   2.919
    1C        C   78   3.209   2.552   3.039
    1C        C   79   3.077   2.603   3.042
    1C        C   80   3.278   2.532   3.161
    1C        C   81   3.211   2.556   3.283
    1C        C   82   3.416   2.505   3.404
    1C        C   83   3.277   2.530   3.405
    1C        C   84   3.485   2.501   3.527
    1C        C   85   3.417   2.507   3.651
    1C        C   86   3.627   2.514   3.773
    1C        C   87   3.486   2.504   3.774
    1C        C   88   3.698   2.518   3.895
    1C        C   89   3.630   2.506   4.019
    1C        C   90   3.836   2.548   4.139
    1C        C   91   3.700   2.511   4.141
    1C        C   92   3.905   2.574   4.260
    1C        C   93   3.839   2.548   4.382
    1C        C   94   4.033   2.634   4.502
    1C        C   95   3.909   2.567   4.503
    1C        C   96   4.097   2.666   4.624
    1C        C   97   4.035   2.623   4.743
    1C        C   98   4.197   2.761   4.863
    1C        C   99   4.105   2.651   4.864
    1C        C  100   4.214   2.841   4.976
    1C        C  101   2.823   2.728   2.071
    1C        C  102   2.990   2.593   2.192
    1C        C  103   2.874   2.677   2.191
    1C        C  104   3.066   2.576   2.311
    1C        C  105   3.006   2.622   2.430
    1C        C  106   3.201   2.536   2.551
    1C        C  107   3.070   2.588   2.552
    1C        C  108   3.272   2.529   2.673
    1C        C  109   3.204   2.549   2.796
    1C        C  110   3.414   2.505   2.915
    1C        C  111   3.275   2.530   2.916
    1C        C  112   3.485   2.498   3.037
    1C        C  113   3.417   2.509   3.160
    1C        C  114   3.629   2.502   3.283
    1C        C  115   3.488   2.496   3.282
    1C        C  116   3.696   2.513   3.407
    1C        C  117   3.626   2.504   3.529
    1C        C  118   3.835   2.548   3.648
    1C        C  119   3.697   2.516   3.650
    1C        C  120   3.901   2.570   3.771
    1C        C  121   3.837   2.546   3.895
    1C        C  122   4.028   2.638   4.014
    1C        C  123   3.902   2.574   4.017
    1C        C  124   4.088   2.678   4.135
    1C        C  125   4.029   2.642   4.259
    1C        C  126   4.203   2.762   4.380
    1C        C  127   4.093   2.674   4.381
    1C        C  128   4.255   2.812   4.502
    1C        C  129   4.203   2.759   4.622
    1C        C  130   4.326   2.936   4.741
    1C        C  131   4.250   2.816   4.743
    1C        C  132   4.358   3.004   4.861
    1C        C  133   4.291   2.957   4.975
    1C        C  134   3.175   2.472   2.082
    1C        C  135   3.039   2.504   2.091
    1C        C  136   3.261   2.476   2.192
    1C        C  137   3.195   2.517   2.310
    1C        C  138   3.407   2.486   2.430
    1C        C  139   3.267   2.500   2.431
    1C        C  140   3.482   2.487   2.550
    1C        C  141   3.410   2.503   2.671
    1C        C  142   3.623   2.503   2.793
    1C        C  143   3.482   2.494   2.792
    1C        C  144   3.695   2.511   2.914
    1C        C  145   3.627   2.498   3.037
    1C        C  146   3.835   2.537   3.158
    1C        C  147   3.697   2.507   3.159
    1C        C  148   3.902   2.557   3.281
    1C        C  149   3.835   2.538   3.404
    1C        C  150   4.031   2.627   3.524
    1C        C  151   3.902   2.570   3.525
    1C        C  152   4.092   2.663   3.647
    1C        C  153   4.026   2.635   3.768
    1C        C  154   4.196   2.762   3.888
    1C        C  155   4.083   2.678   3.890
    1C        C  156   4.250   2.809   4.010
    1C        C  157   4.199   2.765   4.134
    1C        C  158   4.343   2.919   4.254
    1C        C  159   4.253   2.810   4.257
    1C        C  160   4.378   2.984   4.375
    1C        C  161   4.333   2.929   4.497
    1C        C  162   4.442   3.113   4.618
    1C        C  163   4.372   2.990   4.619
    1C        C  164   4.480   3.179   4.736
    1C        C  165   4.438   3.120   4.858
    1C        C  166   4.517   3.319   4.973
    1C        C  167   4.486   3.184   4.973
    1C        C  168   3.478   2.434   2.074
    1C        C  169   3.401   2.457   2.189
    1C        C  170   3.618   2.469   2.308
    1C        C  171   3.476   2.467   2.308
    1C        C  172   3.693   2.486   2.427
    1C        C  173   3.623   2.487   2.550
    1C        C  174   3.831   2.539   2.668
    1C        C  175   3.694   2.506   2.671
    1C        C  176   3.900   2.558   2.790
    1C        C  177   3.834   2.538   2.913
    1C        C  178   4.029   2.619   3.035
    1C        C  179   3.902   2.557   3.035
    1C        C  180   4.087   2.661   3.157
    1C        C  181   4.024   2.627   3.279
    1C        C  182   4.197   2.751   3.401
    1C        C  183   4.089   2.661   3.400
    1C        C  184   4.250   2.802   3.522
    1C        C  185   4.205   2.748   3.644
    1C        C  186   4.340   2.915   3.768
    1C        C  187   4.253   2.803   3.765
    1C        C  188   4.376   2.978   3.889
    1C        C  189   4.339   2.919   4.011
    1C        C  190   4.449   3.102   4.129
    1C        C  191   4.386   2.975   4.132
    1C        C  192   4.473   3.170   4.250
    1C        C  193   4.442   3.110   4.374
    1C        C  194   4.505   3.314   4.493
    1C        C  195   4.465   3.179   4.495
    1C        C  196   4.518   3.388   4.613
    1C        C  197   4.515   3.317   4.736
    1C        C  198   4.552   3.535   4.852
    1C        C  199   4.535   3.392   4.855
    1C        C  200   4.584   3.621   4.961
    1C        C  201   3.618   2.423   2.073
    1C        C  202   3.825   2.521   2.183
    1C        C  203   3.692   2.470   2.187
    1C        C  204   3.899   2.541   2.303
    1C        C  205   3.830   2.517   2.425
    1C        C  206   4.024   2.615   2.548
    1C        C  207   3.897   2.553   2.544
    1C        C  208   4.087   2.653   2.668
    1C        C  209   4.026   2.622   2.792
    1C        C  210   4.200   2.746   2.910
    1C        C  211   4.089   2.658   2.914
    1C        C  212   4.247   2.798   3.032
    1C        C  213   4.197   2.750   3.156
    1C        C  214   4.336   2.909   3.273
    1C        C  215   4.249   2.798   3.278
    1C        C  216   4.376   2.968   3.395
    1C        C  217   4.340   2.911   3.519
    1C        C  218   4.435   3.097   3.639
    1C        C  219   4.377   2.969   3.642
    1C        C  220   4.465   3.167   3.759
    1C        C  221   4.442   3.103   3.883
    1C        C  222   4.502   3.305   4.004
    1C        C  223   4.471   3.167   4.006
    1C        C  224   4.514   3.377   4.125
    1C        C  225   4.506   3.308   4.248
    1C        C  226   4.519   3.521   4.367
    1C        C  227   4.516   3.380   4.368
    1C        C  228   4.512   3.595   4.487
    1C        C  229   4.530   3.528   4.610
    1C        C  230   4.496   3.741   4.728
    1C        C  231   4.533   3.604   4.729
    1C        C  232   4.498   3.822   4.843
    1C        C  233   4.548   3.756   4.956
    1C        C  234   4.023   2.606   2.065
    1C        C  235   3.896   2.550   2.066
    1C        C  236   4.089   2.640   2.184
    1C        C  237   4.026   2.603   2.305
    1C        C  238   4.201   2.730   2.422
    1C        C  239   4.088   2.644   2.425
    1C        C  240   4.251   2.783   2.543
    1C        C  241   4.197   2.742   2.667
    1C        C  242   4.341   2.901   2.785
    1C        C  243   4.251   2.792   2.787
    1C        C  244   4.383   2.959   2.907
    1C        C  245   4.341   2.903   3.030
    1C        C  246   4.440   3.093   3.150
    1C        C  247   4.378   2.966   3.151
    1C        C  248   4.458   3.161   3.272
    1C        C  249   4.437   3.096   3.396
    1C        C  250   4.494   3.301   3.514
    1C        C  251   4.463   3.163   3.517
    1C        C  252   4.506   3.371   3.635
    1C        C  253   4.499   3.303   3.759
    1C        C  254   4.519   3.515   3.880
    1C        C  255   4.514   3.373   3.881
    1C        C  256   4.513   3.587   4.001
    1C        C  257   4.514   3.518   4.124
    1C        C  258   4.487   3.730   4.242
    1C        C  259   4.513   3.591   4.245
    1C        C  260   4.463   3.802   4.362
    1C        C  261   4.478   3.732   4.484
    1C        C  262   4.420   3.938   4.605
    1C        C  263   4.466   3.804   4.605
    1C        C  264   4.396   4.010   4.724
    1C        C  265   4.436   3.949   4.845
    1C        C  266   4.319   4.134   4.960
    1C        C  267   4.390   4.014   4.960
    1C        C  268   4.268   2.770   2.067
    1C        C  269   4.202   2.725   2.182
    1C        C  270   4.351   2.884   2.304
    1C        C  271   4.257   2.777   2.301
    1C        C  272   4.386   2.950   2.424
    1C        C  273   4.343   2.890   2.544
    1C        C  274   4.449   3.082   2.661
    1C        C  275   4.383   2.957   2.662
    1C        C  276   4.478   3.149   2.782
    1C        C  277   4.450   3.084   2.904
    1C        C  278   4.506   3.289   3.028
    1C        C  279   4.472   3.152   3.026
    1C        C  280   4.511   3.364   3.148
    1C        C  281   4.495   3.297   3.271
    1C        C  282   4.516   3.512   3.392
    1C        C  283   4.506   3.371   3.392
    1C        C  284   4.511   3.582   3.514
    1C        C  285   4.512   3.512   3.637
    1C        C  286   4.485   3.723   3.754
    1C        C  287   4.516   3.585   3.758
    1C        C  288   4.469   3.794   3.875
    1C        C  289   4.491   3.727   3.998
    1C        C  290   4.421   3.929   4.116
    1C        C  291   4.473   3.797   4.119
    1C        C  292   4.392   3.996   4.236
    1C        C  293   4.414   3.935   4.362
    1C        C  294   4.322   4.127   4.480
    1C        C  295   4.387   4.002   4.483
    1C        C  296   4.288   4.193   4.601
    1C        C  297   4.328   4.135   4.723
    1C        C  298   4.192   4.311   4.842
    1C        C  299   4.283   4.200   4.842
    1C        C  300   4.166   4.401   4.950
    1C        C  301   4.350   2.882   2.065
    1C        C  302   4.467   3.067   2.179
    1C        C  303   4.395   2.943   2.183
    1C        C  304   4.486   3.140   2.300
    1C        C  305   4.454   3.074   2.421
    1C        C  306   4.511   3.284   2.538
    1C        C  307   4.480   3.146   2.540
    1C        C  308   4.518   3.356   2.659
    1C        C  309   4.506   3.288   2.782
    1C        C  310   4.522   3.499   2.902
    1C        C  311   4.517   3.357   2.905
    1C        C  312   4.516   3.573   3.022
    1C        C  313   4.515   3.505   3.146
    1C        C  314   4.488   3.717   3.265
    1C        C  315   4.514   3.578   3.267
    1C        C  316   4.476   3.788   3.386
    1C        C  317   4.494   3.722   3.510
    1C        C  318   4.426   3.925   3.629
    1C        C  319   4.471   3.791   3.632
    1C        C  320   4.392   3.989   3.750
    1C        C  321   4.416   3.925   3.874
    1C        C  322   4.320   4.117   3.991
    1C        C  323   4.389   3.994   3.994
    1C        C  324   4.279   4.175   4.113
    1C        C  325   4.324   4.120   4.235
    1C        C  326   4.185   4.282   4.356
    1C        C  327   4.281   4.179   4.356
    1C        C  328   4.135   4.338   4.476
    1C        C  329   4.190   4.294   4.598
    1C        C  330   4.026   4.438   4.717
    1C        C  331   4.139   4.352   4.717
    1C        C  332   3.968   4.492   4.834
    1C        C  333   4.048   4.476   4.948
    1C        C  334   4.550   3.269   2.063
    1C        C  335   4.532   3.130   2.069
    1C        C  336   4.539   3.350   2.177
    1C        C  337   4.517   3.279   2.297
    1C        C  338   4.523   3.495   2.413
    1C        C  339   4.521   3.354   2.416
    1C        C  340   4.517   3.568   2.534
    1C        C  341   4.520   3.497   2.656
    1C        C  342   4.489   3.706   2.776
    1C        C  343   4.517   3.568   2.779
    1C        C  344   4.470   3.778   2.897
    1C        C  345   4.483   3.710   3.020
    1C        C  346   4.423   3.916   3.139
    1C        C  347   4.466   3.781   3.141
    1C        C  348   4.396   3.981   3.261
    1C        C  349   4.423   3.919   3.385
    1C        C  350   4.321   4.107   3.504
    1C        C  351   4.396   3.987   3.505
    1C        C  352   4.276   4.168   3.624
    1C        C  353   4.318   4.110   3.745
    1C        C  354   4.180   4.272   3.870
    1C        C  355   4.276   4.168   3.867
    1C        C  356   4.128   4.326   3.990
    1C        C  357   4.178   4.274   4.111
    1C        C  358   4.010   4.401   4.234
    1C        C  359   4.125   4.320   4.234
    1C        C  360   3.953   4.448   4.354
    1C        C  361   4.021   4.422   4.475
    1C        C  362   3.831   4.522   4.593
    1C        C  363   3.960   4.465   4.595
    1C        C  364   3.763   4.550   4.713
    1C        C  365   3.838   4.548   4.832
    1C        C  366   3.627   4.593   4.949
    1C        C  367   3.766   4.579   4.948
    1C        C  368   4.512   3.566   2.056
    1C        C  369   4.528   3.490   2.173
    1C        C  370   4.498   3.707   2.289
    1C        C  371   4.516   3.567   2.291
    1C        C  372   4.479   3.776   2.410
    1C        C  373   4.496   3.708   2.533
    1C        C  374   4.418   3.906   2.651
    1C        C  375   4.473   3.775   2.654
    1C        C  376   4.390   3.972   2.773
    1C        C  377   4.423   3.911   2.896
    1C        C  378   4.319   4.099   3.016
    1C        C  379   4.395   3.979   3.016
    1C        C  380   4.276   4.154   3.138
    1C        C  381   4.320   4.100   3.262
    1C        C  382   4.175   4.260   3.380
    1C        C  383   4.274   4.159   3.382
    1C        C  384   4.123   4.311   3.501
    1C        C  385   4.177   4.268   3.625
    1C        C  386   4.008   4.395   3.744
    1C        C  387   4.125   4.316   3.747
    1C        C  388   3.945   4.434   3.864
    1C        C  389   4.008   4.401   3.986
    1C        C  390   3.824   4.498   4.109
    1C        C  391   3.951   4.436   4.110
    1C        C  392   3.755   4.522   4.230
    1C        C  393   3.824   4.506   4.352
    1C        C  394   3.618   4.556   4.474
    1C        C  395   3.757   4.537   4.473
    1C        C  396   3.546   4.568   4.595
    1C        C  397   3.622   4.566   4.715
    1C        C  398   3.410   4.556   4.841
    1C        C  399   3.549   4.582   4.834
    1C        C  400   3.339   4.520   4.956
    1C        C  401   4.506   3.705   2.051
    1C        C  402   4.449   3.915   2.168
    1C        C  403   4.491   3.780   2.168
    1C        C  404   4.410   3.977   2.289
    1C        C  405   4.436   3.911   2.411
    1C        C  406   4.328   4.099   2.529
    1C        C  407   4.396   3.975   2.530
    1C        C  408   4.280   4.154   2.649
    1C        C  409   4.320   4.095   2.771
    1C        C  410   4.179   4.254   2.891
    1C        C  411   4.277   4.152   2.892
    1C        C  412   4.126   4.303   3.012
    1C        C  413   4.177   4.255   3.134
    1C        C  414   4.002   4.375   3.253
    1C        C  415   4.121   4.299   3.256
    1C        C  416   3.943   4.418   3.374
    1C        C  417   4.008   4.393   3.498
    1C        C  418   3.816   4.479   3.622
    1C        C  419   3.947   4.427   3.620
    1C        C  420   3.749   4.509   3.743
    1C        C  421   3.816   4.491   3.866
    1C        C  422   3.612   4.539   3.988
    1C        C  423   3.751   4.516   3.989
    1C        C  424   3.543   4.547   4.111
    1C        C  425   3.616   4.544   4.232
    1C        C  426   3.404   4.554   4.359
    1C        C  427   3.545   4.560   4.353
    1C        C  428   3.332   4.550   4.480
    1C        C  429   3.406   4.556   4.600
    1C        C  430   3.194   4.526   4.724
    1C        C  431   3.334   4.547   4.722
    1C        C  432   3.124   4.501   4.845
    1C        C  433   3.202   4.496   4.961
    1C        C  434   4.389   4.125   2.052
    1C        C  435   4.445   3.997   2.055
    1C        C  436   4.308   4.165   2.163
    1C        C  437   4.336   4.098   2.285
    1C        C  438   4.186   4.252   2.402
    1C        C  439   4.290   4.156   2.405
    1C        C  440   4.130   4.299   2.523
    1C        C  441   4.180   4.254   2.647
    1C        C  442   4.011   4.384   2.768
    1C        C  443   4.124   4.300   2.769
    1C        C  444   3.946   4.420   2.888
    1C        C  445   4.008   4.382   3.009
    1C        C  446   3.815   4.472   3.133
    1C        C  447   3.943   4.413   3.131
    1C        C  448   3.747   4.495   3.255
    1C        C  449   3.813   4.473   3.378
    1C        C  450   3.610   4.531   3.499
    1C        C  451   3.748   4.500   3.500
    1C        C  452   3.541   4.542   3.622
    1C        C  453   3.611   4.538   3.744
    1C        C  454   3.399   4.551   3.866
    1C        C  455   3.540   4.548   3.866
    1C        C  456   3.335   4.532   3.991
    1C        C  457   3.402   4.536   4.115
    1C        C  458   3.196   4.501   4.237
    1C        C  459   3.334   4.532   4.238
    1C        C  460   3.128   4.485   4.360
    1C        C  461   3.197   4.509   4.481
    1C        C  462   3.001   4.430   4.604
    1C        C  463   3.128   4.492   4.603
    1C        C  464   2.934   4.401   4.724
    1C        C  465   2.992   4.446   4.846
    1C        C  466   2.799   4.341   4.961
    1C        C  467   2.906   4.432   4.960
    1C        C  468   4.124   4.285   2.043
    1C        C  469   4.191   4.247   2.160
    1C        C  470   4.011   4.372   2.280
    1C        C  471   4.132   4.297   2.280
    1C        C  472   3.948   4.407   2.401
    1C        C  473   4.011   4.375   2.523
    1C        C  474   3.818   4.466   2.643
    1C        C  475   3.949   4.413   2.644
    1C        C  476   3.751   4.499   2.763
    1C        C  477   3.815   4.474   2.886
    1C        C  478   3.611   4.519   3.011
    1C        C  479   3.749   4.492   3.009
    1C        C  480   3.538   4.529   3.132
    1C        C  481   3.608   4.521   3.254
    1C        C  482   3.397   4.533   3.379
    1C        C  483   3.538   4.530   3.377
    1C        C  484   3.326   4.532   3.501
    1C        C  485   3.400   4.544   3.621
    1C        C  486   3.194   4.503   3.746
    1C        C  487   3.330   4.543   3.743
    1C        C  488   3.130   4.476   3.869
    1C        C  489   3.198   4.497   3.991
    1C        C  490   3.005   4.414   4.115
    1C        C  491   3.130   4.480   4.114
    1C        C  492   2.945   4.382   4.239
    1C        C  493   3.002   4.423   4.362
    1C        C  494   2.830   4.298   4.486
    1C        C  495   2.939   4.388   4.484
    1C        C  496   2.772   4.259   4.608
    1C        C  497   2.820   4.315   4.729
    1C        C  498   2.659   4.170   4.845
    1C        C  499   2.751   4.277   4.846
    1C        C  500   2.599   4.115   4.959
    1C        C  501   4.003   4.354   2.040
    1C        C  502   3.819   4.464   2.157
    1C        C  503   3.946   4.401   2.158
    1C        C  504   3.747   4.480   2.278
    1C        C  505   3.816   4.457   2.399
    1C        C  506   3.610   4.509   2.522
    1C        C  507   3.749   4.484   2.521
    1C        C  508   3.540   4.517   2.645
    1C        C  509   3.611   4.520   2.767
    1C        C  510   3.399   4.528   2.889
    1C        C  511   3.541   4.530   2.889
    1C        C  512   3.326   4.523   3.010
    1C        C  513   3.397   4.533   3.131
    1C        C  514   3.192   4.491   3.257
    1C        C  515   3.329   4.526   3.255
    1C        C  516   3.124   4.468   3.379
    1C        C  517   3.190   4.493   3.501
    1C        C  518   3.000   4.409   3.626
    1C        C  519   3.127   4.473   3.626
    1C        C  520   2.942   4.374   3.750
    1C        C  521   3.004   4.412   3.871
    1C        C  522   2.835   4.286   3.994
    1C        C  523   2.944   4.376   3.994
    1C        C  524   2.790   4.237   4.119
    1C        C  525   2.835   4.293   4.240
    1C        C  526   2.693   4.138   4.365
    1C        C  527   2.783   4.247   4.363
    1C        C  528   2.651   4.081   4.487
    1C        C  529   2.683   4.149   4.606
    1C        C  530   2.584   3.963   4.728
    1C        C  531   2.636   4.095   4.728
    1C        C  532   2.550   3.899   4.851
    1C        C  533   2.532   3.992   4.958
    1C        C  534   3.622   4.554   2.041
    1C        C  535   3.754   4.507   2.041
    1C        C  536   3.540   4.532   2.156
    1C        C  537   3.607   4.506   2.278
    1C        C  538   3.397   4.513   2.402
    1C        C  539   3.538   4.516   2.401
    1C        C  540   3.327   4.508   2.525
    1C        C  541   3.399   4.516   2.646
    1C        C  542   3.191   4.478   2.767
    1C        C  543   3.328   4.513   2.768
    1C        C  544   3.125   4.460   2.890
    1C        C  545   3.190   4.484   3.013
    1C        C  546   3.002   4.393   3.134
    1C        C  547   3.126   4.460   3.137
    1C        C  548   2.943   4.361   3.258
    1C        C  549   2.998   4.404   3.381
    1C        C  550   2.833   4.277   3.506
    1C        C  551   2.938   4.372   3.505
    1C        C  552   2.783   4.230   3.629
    1C        C  553   2.836   4.281   3.749
    1C        C  554   2.702   4.120   3.878
    1C        C  555   2.786   4.233   3.873
    1C        C  556   2.664   4.063   4.002
    1C        C  557   2.707   4.123   4.122
    1C        C  558   2.601   3.943   4.246
    1C        C  559   2.661   4.071   4.245
    1C        C  560   2.573   3.879   4.369
    1C        C  561   2.593   3.952   4.489
    1C        C  562   2.532   3.750   4.613
    1C        C  563   2.564   3.887   4.611
    1C        C  564   2.520   3.682   4.736
    1C        C  565   2.524   3.758   4.856
    1C        C  566   2.531   3.547   4.981
    1C        C  567   2.524   3.686   4.976
    1C        C  568   3.334   4.471   2.042
    1C        C  569   3.399   4.511   2.159
    1C        C  570   3.186   4.474   2.279
    1C        C  571   3.325   4.504   2.281
    1C        C  572   3.121   4.453   2.402
    1C        C  573   3.189   4.479   2.524
    1C        C  574   2.992   4.401   2.648
    1C        C  575   3.120   4.460   2.646
    1C        C  576   2.933   4.362   2.770
    1C        C  577   3.000   4.392   2.891
    1C        C  578   2.824   4.275   3.016
    1C        C  579   2.937   4.359   3.013
    1C        C  580   2.778   4.223   3.139
    1C        C  581   2.832   4.273   3.260
    1C        C  582   2.700   4.112   3.386
    1C        C  583   2.785   4.225   3.384
    1C        C  584   2.662   4.057   3.510
    1C        C  585   2.695   4.119   3.633
    1C        C  586   2.597   3.935   3.759
    1C        C  587   2.660   4.061   3.756
    1C        C  588   2.572   3.871   3.882
    1C        C  589   2.601   3.937   4.004
    1C        C  590   2.537   3.736   4.127
    1C        C  591   2.574   3.873   4.127
    1C        C  592   2.522   3.670   4.251
    1C        C  593   2.540   3.742   4.371
    1C        C  594   2.514   3.533   4.496
    1C        C  595   2.523   3.674   4.494
    1C        C  596   2.519   3.463   4.619
    1C        C  597   2.518   3.540   4.738
    1C        C  598   2.539   3.332   4.865
    1C        C  599   2.526   3.473   4.862
    1C        C  600   2.524   3.251   4.979
    1C        C  601   3.201   4.432   2.047
    1C        C  602   2.983   4.393   2.158
    1C        C  603   3.118   4.442   2.159
    1C        C  604   2.928   4.358   2.285
    1C        C  605   2.992   4.395   2.405
    1C        C  606   2.821   4.271   2.529
    1C        C  607   2.931   4.358   2.527
    1C        C  608   2.772   4.221   2.652
    1C        C  609   2.822   4.276   2.773
    1C        C  610   2.684   4.114   2.893
    1C        C  611   2.771   4.226   2.895
    1C        C  612   2.651   4.056   3.018
    1C        C  613   2.691   4.112   3.142
    1C        C  614   2.599   3.923   3.268
    1C        C  615   2.660   4.051   3.265
    1C        C  616   2.576   3.863   3.394
    1C        C  617   2.598   3.931   3.515
    1C        C  618   2.536   3.730   3.639
    1C        C  619   2.570   3.867   3.638
    1C        C  620   2.522   3.663   3.762
    1C        C  621   2.532   3.735   3.883
    1C        C  622   2.508   3.525   4.009
    1C        C  623   2.520   3.666   4.006
    1C        C  624   2.518   3.456   4.132
    1C        C  625   2.516   3.529   4.253
    1C        C  626   2.544   3.321   4.381
    1C        C  627   2.518   3.460   4.376
    1C        C  628   2.561   3.253   4.504
    1C        C  629   2.543   3.324   4.625
    1C        C  630   2.592   3.119   4.746
    1C        C  631   2.553   3.256   4.748
    1C        C  632   2.615   3.051   4.869
    1C        C  633   2.564   3.117   4.986
    1C        C  634   2.783   4.305   2.053
    1C        C  635   2.891   4.395   2.049
    1C        C  636   2.750   4.230   2.167
    1C        C  637   2.811   4.278   2.285
    1C        C  638   2.678   4.114   2.409
    1C        C  639   2.765   4.226   2.408
    1C        C  640   2.642   4.052   2.531
    1C        C  641   2.685   4.110   2.653
    1C        C  642   2.588   3.920   2.775
    1C        C  643   2.644   4.050   2.774
    1C        C  644   2.567   3.860   2.901
    1C        C  645   2.595   3.927   3.022
    1C        C  646   2.530   3.726   3.147
    1C        C  647   2.571   3.861   3.145
    1C        C  648   2.516   3.659   3.271
    1C        C  649   2.534   3.728   3.393
    1C        C  650   2.513   3.519   3.517
    1C        C  651   2.518   3.661   3.516
    1C        C  652   2.515   3.452   3.641
    1C        C  653   2.507   3.522   3.764
    1C        C  654   2.537   3.315   3.892
    1C        C  655   2.509   3.454   3.887
    1C        C  656   2.556   3.248   4.014
    1C        C  657   2.541   3.317   4.136
    1C        C  658   2.605   3.117   4.259
    1C        C  659   2.561   3.251   4.259
    1C        C  660   2.640   3.059   4.383
    1C        C  661   2.603   3.119   4.506
    1C        C  662   2.707   2.934   4.628
    1C        C  663   2.628   3.051   4.628
    1C        C  664   2.748   2.877   4.750
    1C        C  665   2.694   2.932   4.869
    1C        C  666   2.744   2.874   4.987
    1C        C  667   2.676   4.028   2.053
    1C        C  668   2.680   4.108   2.168
    1C        C  669   2.597   3.912   2.290
    1C        C  670   2.644   4.046   2.290
    1C        C  671   2.560   3.850   2.411
    1C        C  672   2.585   3.923   2.530
    1C        C  673   2.531   3.718   2.658
    1C        C  674   2.565   3.854   2.652
    1C        C  675   2.517   3.651   2.782
    1C        C  676   2.530   3.723   2.903
    1C        C  677   2.507   3.514   3.031
    1C        C  678   2.520   3.654   3.026
    1C        C  679   2.511   3.443   3.153
    1C        C  680   2.510   3.518   3.273
    1C        C  681   2.540   3.308   3.402
    1C        C  682   2.516   3.448   3.396
    1C        C  683   2.559   3.243   3.525
    1C        C  684   2.541   3.313   3.646
    1C        C  685   2.602   3.113   3.772
    1C        C  686   2.557   3.247   3.770
    1C        C  687   2.633   3.049   3.894
    1C        C  688   2.609   3.117   4.016
    1C        C  689   2.717   2.934   4.141
    1C        C  690   2.638   3.051   4.138
    1C        C  691   2.759   2.880   4.265
    1C        C  692   2.715   2.939   4.385
    1C        C  693   2.755   2.879   4.507
    1C        C  694   2.627   3.897   2.058
    1C        C  695   2.522   3.705   2.175
    1C        C  696   2.578   3.834   2.174
    1C        C  697   2.506   3.638   2.298
    1C        C  698   2.522   3.714   2.417
    1C        C  699   2.500   3.504   2.544
    1C        C  700   2.512   3.644   2.539
    1C        C  701   2.512   3.435   2.666
    1C        C  702   2.509   3.510   2.786
    1C        C  703   2.533   3.302   2.912
    1C        C  704   2.512   3.441   2.909
    1C        C  705   2.545   3.232   3.035
    1C        C  706   2.533   3.304   3.156
    1C        C  707   2.596   3.104   3.282
    1C        C  708   2.553   3.239   3.280
    1C        C  709   2.628   3.042   3.404
    1C        C  710   2.606   3.109   3.526
    1C        C  711   2.711   2.930   3.649
    1C        C  712   2.633   3.048   3.651
    1C        C  713   2.758   2.880   3.772
    1C        C  714   2.712   2.932   3.895
    1C        C  715   2.754   2.875   4.018
    1C        C  716   2.448   3.500   2.064
    1C        C  717   2.493   3.632   2.059
    1C        C  718   2.469   3.420   2.181
    1C        C  719   2.479   3.498   2.300
    1C        C  720   2.517   3.293   2.424
    1C        C  721   2.487   3.431   2.423
    1C        C  722   2.541   3.225   2.546
    1C        C  723   2.530   3.295   2.669
    1C        C  724   2.590   3.094   2.793
    1C        C  725   2.544   3.228   2.792
    1C        C  726   2.621   3.032   2.916
    1C        C  727   2.592   3.099   3.038
    1C        C  728   2.704   2.921   3.161
    1C        C  729   2.622   3.036   3.161
    1C        C  730   2.753   2.868   3.282
    1C        C  731   2.709   2.926   3.403
    1C        C  732   2.751   2.871   3.527
    1C        C  733   2.489   3.195   2.073
    1C        C  734   2.496   3.280   2.184
    1C        C  735   2.584   3.084   2.306
    1C        C  736   2.529   3.216   2.307
    1C        C  737   2.620   3.023   2.428
    1C        C  738   2.593   3.094   2.547
    1C        C  739   2.692   2.909   2.673
    1C        C  740   2.622   3.031   2.671
    1C        C  741   2.736   2.851   2.794
    1C        C  742   2.698   2.914   2.915
    1C        C  743   2.745   2.864   3.039
    1C        C  744   2.544   3.067   2.072
    1C        C  745   2.687   2.898   2.185
    1C        C  746   2.604   3.012   2.187
    1C        C  747   2.731   2.844   2.308
    1C        C  748   2.691   2.901   2.431
    1C        C  749   2.736   2.847   2.554
    1C        C  750   2.738   2.838   2.069
    1C        C  751   3.685   2.320   1.991
    1C        O  752   3.710   2.207   2.040
    1C        O  753   3.677   2.314   1.851
    1C        C  754   4.620   3.061   1.971
    1C        O  755   4.576   3.016   1.861
    1C        O  756   4.745   3.007   2.001
    1C        C  757   4.462   4.229   1.975
    1C        O  758   4.540   4.314   2.027
    1C        O  759   4.445   4.229   1.837
    1C        C  760   3.588   4.644   1.929
    1C        O  761   3.630   4.762   1.916
    1C        O  762   3.534   4.591   1.810
    1C        C  763   2.863   4.504   1.954
    1C        O  764   2.949   4.539   1.868
    1C        O  765   2.815   4.626   2.004
    1C        C  766   2.327   3.476   1.981
    1C        O  767   2.330   3.462   1.856
    1C        O  768   2.197   3.496   2.029
    1C        C  769   4.692   3.589   5.058
    1C        O  770   4.656   3.601   5.178
    1C        O  771   4.828   3.617   5.039
    1C        C  772   4.279   4.474   5.013
    1C        O  773   4.297   4.450   5.135
    1C        O  774   4.299   4.612   5.010
    1C        C  775   4.141   2.543   5.096
    1C        O  776   4.193   2.429   5.093
    1C        O  777   4.125   2.585   5.228
    1C        C  778   2.902   4.542   5.059
    1C        O  779   2.809   4.627   5.057
    1C        O  780   2.955   4.523   5.187
    1C        C  781   2.474   3.044   5.078
    1C        O  782   2.410   2.941   5.046
    1C        O  783   2.496   3.054   5.215
    1C        C  784   2.412   3.980   5.044
    1C        O  785   2.297   4.013   5.005
    1C        O  786   2.416   3.974   5.183
    1C        C  787   2.950   2.446   1.988
    1C        O  788   2.989   2.448   1.869
    1C        O  789   2.877   2.329   2.012
    1C        C  790   3.180   2.372   5.059
    1C        O  791   3.123   2.266   5.022
    1C        O  792   3.177   2.381   5.199
    1C        H  793   4.294   3.006   5.070
    1C        H  794   4.154   2.828   5.064
    1C        H  795   4.541   3.119   5.037
    1C        H  796   4.543   3.366   5.066
    1C        H  797   4.569   3.817   5.041
    1C        H  798   4.369   3.957   5.048
    1C        H  799   4.294   4.181   5.053
    1C        H  800   4.018   4.525   5.038
    1C        H  801   3.802   4.541   5.041
    1C        H  802   3.589   4.654   5.028
    1C        H  803   3.396   4.495   5.044
    1C        H  804   3.170   4.421   5.030
    1C        H  805   3.879   2.522   5.075
    1C        H  806   3.681   2.446   5.073
    1C        H  807   3.012   2.569   5.075
    1C        H  808   3.453   2.530   5.075
    1C        H  809   2.855   2.725   5.077
    1C        H  810   2.725   2.916   5.084
    1C        H  811   2.465   3.285   5.061
    1C        H  812   2.528   3.498   5.076
    1C        H  813   2.559   3.731   5.067
    1C        H  814   2.629   4.147   5.057
    1C        H  815   2.751   4.324   5.055
    1C        H  816   2.722   2.888   1.976
    1C        H  817   2.806   2.658   1.992
    1C        H  818   3.222   2.500   1.990
    1C        H  819   3.430   2.450   1.980
    1C        H  820   3.849   2.553   1.970
    1C        H  821   4.088   2.568   1.988
    1C        H  822   4.280   2.702   1.985
    1C        H  823   4.337   2.944   1.978
    1C        H  824   4.550   3.311   1.964
    1C        H  825   4.489   3.519   1.963
    1C        H  826   4.485   3.748   1.956
    1C        H  827   3.811   4.537   1.955
    1C        H  828   3.934   4.325   1.964
    1C        H  829   4.145   4.225   1.956
    1C        H  830   4.504   3.971   1.970
    1C        H  831   2.658   3.835   1.977
    1C        H  832   2.744   4.045   1.972
    1C        H  833   2.716   4.290   1.971
    1C        H  834   3.390   4.467   1.951
    1C        H  835   3.164   4.401   1.951
    1C        H  836   2.473   2.999   2.030
    1C        H  837   2.402   3.201   2.011
    1C        H  838   2.479   3.683   1.965
    2V3OU   H29  839   2.796   3.551   1.688
    2V3OU   C27  840   2.785   3.509   1.791
    2V3OU   H27  841   2.725   3.573   1.860
    2V3OU   H28  842   2.729   3.412   1.781
    2V3OU   O11  843   2.914   3.476   1.842
    2V3OU   C15  844   2.922   3.396   1.954
    2V3OU   C13  845   3.049   3.374   2.013
    2V3OU   C14  846   3.077   3.274   2.107
    2V3OU   C16  847   2.973   3.191   2.149
    2V3OU    H6  848   2.994   3.112   2.223
    2V3OU   C12  849   3.214   3.232   2.145
    2V3OU    O2  850   3.238   3.132   2.216
    2V3OU   C10  851   3.328   3.310   2.095
    2V3OU    C8  852   3.458   3.268   2.118
    2V3OU   O10  853   3.491   3.156   2.187
    2V3OU   H26  854   3.405   3.112   2.198
    2V3OU    C6  855   3.568   3.346   2.070
    2V3OU    C5  856   3.539   3.466   2.006
    2V3OU    C4  857   3.707   3.294   2.060
    2V3OU    H4  858   3.734   3.231   2.150
    2V3OU    H5  859   3.718   3.230   1.967
    2V3OU    C2  860   3.817   3.400   2.062
    2V3OU    O6  861   3.810   3.479   2.182
    2V3OU   H21  862   3.773   3.563   2.148
    2V3OU    C3  863   3.782   3.493   1.946
    2V3OU    H2  864   3.859   3.573   1.927
    2V3OU    H3  865   3.778   3.435   1.850
    2V3OU   C25  866   3.952   3.332   2.042
    2V3OU    O7  867   3.997   3.294   1.934
    2V3OU   C26  868   4.031   3.292   2.166
    2V3OU   H22  869   4.064   3.380   2.226
    2V3OU   H23  870   4.116   3.225   2.137
    2V3OU    O8  871   3.965   3.208   2.258
    2V3OU   H24  872   3.924   3.270   2.320
    2V3OU    C1  873   3.649   3.562   1.969
    2V3OU    H1  874   3.625   3.623   1.877
    2V3OU    O3  875   3.656   3.655   2.077
    2V3OU   C19  876   3.621   3.792   2.058
    2V3OU    H9  877   3.518   3.809   2.015
    2V3OU    O4  878   3.719   3.848   1.974
    2V3OU   C20  879   3.847   3.877   2.029
    2V3OU   H10  880   3.898   3.776   2.033
    2V3OU   C24  881   3.609   3.853   2.198
    2V3OU   H16  882   3.542   3.794   2.266
    2V3OU   H17  883   3.564   3.953   2.173
    2V3OU   C23  884   3.747   3.877   2.259
    2V3OU   H15  885   3.789   3.773   2.282
    2V3OU    N1  886   3.739   3.951   2.383
    2V3OU   H19  887   3.803   3.917   2.452
    2V3OU   H20  888   3.652   3.930   2.427
    2V3OU   C21  889   3.850   3.947   2.165
    2V3OU   H11  890   3.952   3.925   2.208
    2V3OU    O5  891   3.829   4.088   2.159
    2V3OU   H18  892   3.785   4.112   2.242
    2V3OU   C22  893   3.912   3.948   1.911
    2V3OU   H12  894   3.865   4.049   1.898
    2V3OU   H13  895   3.904   3.884   1.819
    2V3OU   H14  896   4.020   3.966   1.935
    2V3OU   C11  897   3.158   3.471   1.995
    2V3OU    O1  898   3.138   3.589   1.958
    2V3OU    C9  899   3.296   3.431   2.029
    2V3OU    C7  900   3.404   3.508   1.987
    2V3OU    O9  901   3.385   3.619   1.907
    2V3OU   H25  902   3.290   3.633   1.890
    2V3OU   C17  903   2.818   3.316   2.004
    2V3OU    H7  904   2.715   3.351   1.994
    2V3OU   C18  905   2.847   3.215   2.095
    2V3OU    H8  906   2.770   3.164   2.155
    3SOL     OW  907   2.479   4.388   0.884
    3SOL    HW1  908   2.456   4.362   0.791
    3SOL    HW2  909   2.499   4.306   0.938
    4SOL     OW  910   6.625   5.393   1.895
    4SOL    HW1  911   6.528   5.385   1.917
    4SOL    HW2  912   6.679   5.376   1.978
    5SOL     OW  913   3.522   0.870   2.663
    5SOL    HW1  914   3.524   0.945   2.730
    5SOL    HW2  915   3.480   0.790   2.705
    6SOL     OW  916   3.720   0.826   2.226
    6SOL    HW1  917   3.811   0.795   2.255
    6SOL    HW2  918   3.676   0.756   2.171
    7SOL     OW  919   6.254   3.266   2.027
    7SOL    HW1  920   6.272   3.184   1.971
    7SOL    HW2  921   6.300   3.257   2.115
    8SOL     OW  922   2.467   0.026   5.293
    8SOL    HW1  923   2.398   0.048   5.223
    8SOL    HW2  924   2.457   0.089   5.370
    9SOL     OW  925   0.972   5.602   6.206
    9SOL    HW1  926   0.986   5.590   6.108
    9SOL    HW2  927   0.983   5.699   6.229
   10SOL     OW  928   1.306   4.836   5.554
   10SOL    HW1  929   1.229   4.775   5.536
   10SOL    HW2  930   1.337   4.877   5.468
   11SOL     OW  931   2.736   0.431   0.330
   11SOL    HW1  932   2.765   0.524   0.309
   11SOL    HW2  933   2.800   0.390   0.395
   12SOL     OW  934   3.985   5.667   4.464
   12SOL    HW1  935   3.924   5.658   4.385
   12SOL    HW2  936   3.939   5.630   4.545
   13SOL     OW  937   3.643   6.051   4.258
   13SOL    HW1  938   3.713   5.981   4.244
   13SOL    HW2  939   3.558   6.006   4.288
   14SOL     OW  940   4.633   5.595   6.808
   14SOL    HW1  941   4.691   5.540   6.749
   14SOL    HW2  942   4.627   5.552   6.898
   15SOL     OW  943   1.519   5.273   0.792
   15SOL    HW1  944   1.423   5.296   0.809
   15SOL    HW2  945   1.564   5.351   0.748
   16SOL     OW  946   5.753   2.538   5.958
   16SOL    HW1  947   5.726   2.633   5.944
   16SOL    HW2  948   5.847   2.525   5.925
   17SOL     OW  949   6.397   6.107   4.888
   17SOL    HW1  950   6.378   6.011   4.907
   17SOL    HW2  951   6.343   6.137   4.809
   18SOL     OW  952   3.019   1.183   6.881
   18SOL    HW1  953   2.975   1.266   6.848
   18SOL    HW2  954   3.118   1.189   6.868
   19SOL     OW  955   0.503   0.117   2.891
   19SOL    HW1  956   0.450   0.037   2.865
   19SOL    HW2  957   0.601   0.097   2.881
   20SOL     OW  958   3.278   2.062   3.954
   20SOL    HW1  959   3.194   2.117   3.947
   20SOL    HW2  960   3.254   1.965   3.943
   21SOL     OW  961   3.257   1.892   2.231
   21SOL    HW1  962   3.297   1.803   2.208
   21SOL    HW2  963   3.273   1.956   2.157
   22SOL     OW  964   2.260   0.412   0.165
   22SOL    HW1  965   2.196   0.399   0.241
   22SOL    HW2  966   2.352   0.387   0.194
   23SOL     OW  967   4.210   6.634   3.693
   23SOL    HW1  968   4.180   6.610   3.600
   23SOL    HW2  969   4.292   6.582   3.715
   24SOL     OW  970   5.123   1.638   3.985
   24SOL    HW1  971   5.181   1.562   4.015
   24SOL    HW2  972   5.102   1.697   4.062
   25SOL     OW  973   2.932   6.028   5.788
   25SOL    HW1  974   2.966   6.109   5.836
   25SOL    HW2  975   2.843   6.002   5.826
   26SOL     OW  976   6.149   1.188   0.921
   26SOL    HW1  977   6.196   1.248   0.985
   26SOL    HW2  978   6.052   1.183   0.944
   27SOL     OW  979   0.307   1.495   2.045
   27SOL    HW1  980   0.210   1.519   2.042
   27SOL    HW2  981   0.362   1.576   2.026
   28SOL     OW  982   3.818   0.791   0.163
   28SOL    HW1  983   3.810   0.860   0.091
   28SOL    HW2  984   3.728   0.772   0.202
   29SOL     OW  985   5.674   2.424   2.033
   29SOL    HW1  986   5.632   2.387   2.116
   29SOL    HW2  987   5.695   2.521   2.046
   30SOL     OW  988   4.000   6.936   5.553
   30SOL    HW1  989   4.001   7.020   5.499
   30SOL    HW2  990   4.046   6.863   5.503
   31SOL     OW  991   0.817   2.117   5.963
   31SOL    HW1  992   0.901   2.170   5.956
   31SOL    HW2  993   0.770   2.141   6.048
   32SOL     OW  994   0.394   1.522   2.993
   32SOL    HW1  995   0.402   1.558   2.900
   32SOL    HW2  996   0.485   1.500   3.028
   33SOL     OW  997   2.157   3.659   0.025
   33SOL    HW1  998   2.232   3.618   6.998
   33SOL    HW2  999   2.075   3.603   0.015
   34SOL     OW 1000   2.196   1.063   3.653
   34SOL    HW1 1001   2.257   1.084   3.577
   34SOL    HW2 1002   2.247   1.015   3.724
   35SOL     OW 1003   3.995   2.019   6.818
   35SOL    HW1 1004   4.009   1.920   6.825
   35SOL    HW2 1005   3.901   2.037   6.788
   36SOL     OW 1006   0.770   0.540   6.698
   36SOL    HW1 1007   0.775   0.557   6.600
   36SOL    HW2 1008   0.760   0.442   6.716
   37SOL     OW 1009   2.197   0.888   0.143
   37SOL    HW1 1010   2.197   0.798   0.186
   37SOL    HW2 1011   2.109   0.904   0.098
   38SOL     OW 1012   0.397   5.191   2.886
   38SOL    HW1 1013   0.446   5.255   2.828
   38SOL    HW2 1014   0.342   5.130   2.830
   39SOL     OW 1015   6.296   4.491   6.600
   39SOL    HW1 1016   6.220   4.529   6.547
   39SOL    HW2 1017   6.376   4.479   6.541
   40SOL     OW 1018   6.020   2.273   1.414
   40SOL    HW1 1019   5.954   2.309   1.480
   40SOL    HW2 1020   6.030   2.339   1.339
   41SOL     OW 1021   0.686   6.433   4.420
   41SOL    HW1 1022   0.612   6.439   4.488
   41SOL    HW2 1023   0.656   6.375   4.344
   42SOL     OW 1024   2.775   6.362   6.466
   42SOL    HW1 1025   2.815   6.452   6.482
   42SOL    HW2 1026   2.681   6.360   6.499
   43SOL     OW 1027   5.788   6.250   5.692
   43SOL    HW1 1028   5.793   6.316   5.617
   43SOL    HW2 1029   5.796   6.158   5.656
   44SOL     OW 1030   6.147   2.437   6.186
   44SOL    HW1 1031   6.083   2.509   6.212
   44SOL    HW2 1032   6.234   2.451   6.235
   45SOL     OW 1033   3.236   0.441   3.256
   45SOL    HW1 1034   3.209   0.395   3.172
   45SOL    HW2 1035   3.272   0.532   3.235
   46SOL     OW 1036   1.265   3.384   4.545
   46SOL    HW1 1037   1.262   3.481   4.570
   46SOL    HW2 1038   1.309   3.374   4.456
   47SOL     OW 1039   5.395   4.132   3.010
   47SOL    HW1 1040   5.297   4.147   3.002
   47SOL    HW2 1041   5.441   4.160   2.926
   48SOL     OW 1042   0.432   3.046   5.426
   48SOL    HW1 1043   0.476   2.959   5.405
   48SOL    HW2 1044   0.415   3.096   5.341
   49SOL     OW 1045   4.566   4.025   1.727
   49SOL    HW1 1046   4.524   4.096   1.783
   49SOL    HW2 1047   4.565   4.052   1.631
   50SOL     OW 1048   6.316   2.664   5.670
   50SOL    HW1 1049   6.268   2.616   5.596
   50SOL    HW2 1050   6.352   2.597   5.735
   51SOL     OW 1051   3.242   6.078   3.120
   51SOL    HW1 1052   3.194   5.994   3.144
   51SOL    HW2 1053   3.201   6.155   3.168
   52SOL     OW 1054   4.720   2.393   3.594
   52SOL    HW1 1055   4.792   2.460   3.613
   52SOL    HW2 1056   4.743   2.305   3.635
   53SOL     OW 1057   4.258   0.348   4.660
   53SOL    HW1 1058   4.196   0.377   4.588
   53SOL    HW2 1059   4.205   0.316   4.739
   54SOL     OW 1060   4.186   4.922   0.593
   54SOL    HW1 1061   4.264   4.878   0.638
   54SOL    HW2 1062   4.138   4.856   0.536
   55SOL     OW 1063   3.610   1.252   6.424
   55SOL    HW1 1064   3.566   1.298   6.501
   55SOL    HW2 1065   3.607   1.311   6.344
   56SOL     OW 1066   1.482   0.665   1.487
   56SOL    HW1 1067   1.462   0.692   1.581
   56SOL    HW2 1068   1.406   0.611   1.450
   57SOL     OW 1069   5.204   0.945   1.395
   57SOL    HW1 1070   5.206   0.893   1.311
   57SOL    HW2 1071   5.288   0.999   1.405
   58SOL     OW 1072   6.930   6.528   5.479
   58SOL    HW1 1073   7.002   6.460   5.465
   58SOL    HW2 1074   6.849   6.482   5.516
   59SOL     OW 1075   1.903   1.328   6.041
   59SOL    HW1 1076   1.889   1.424   6.018
   59SOL    HW2 1077   1.964   1.321   6.120
   60SOL     OW 1078   6.233   1.038   6.223
   60SOL    HW1 1079   6.265   1.045   6.128
   60SOL    HW2 1080   6.310   1.020   6.283
   61SOL     OW 1081   5.197   1.652   4.523
   61SOL    HW1 1082   5.139   1.572   4.507
   61SOL    HW2 1083   5.257   1.635   4.601
   62SOL     OW 1084   0.876   0.643   3.927
   62SOL    HW1 1085   0.779   0.631   3.907
   62SOL    HW2 1086   0.898   0.740   3.929
   63SOL     OW 1087   6.709   1.256   3.598
   63SOL    HW1 1088   6.663   1.172   3.625
   63SOL    HW2 1089   6.654   1.304   3.529
   64SOL     OW 1090   0.631   4.270   6.528
   64SOL    HW1 1091   0.664   4.297   6.438
   64SOL    HW2 1092   0.649   4.173   6.543
   65SOL     OW 1093   6.628   4.499   4.941
   65SOL    HW1 1094   6.588   4.419   4.897
   65SOL    HW2 1095   6.632   4.484   5.040
   66SOL     OW 1096   3.681   0.327   6.679
   66SOL    HW1 1097   3.751   0.395   6.698
   66SOL    HW2 1098   3.705   0.276   6.596
   67SOL     OW 1099   5.540   4.944   5.405
   67SOL    HW1 1100   5.507   4.995   5.484
   67SOL    HW2 1101   5.616   4.993   5.363
   68SOL     OW 1102   5.985   0.678   6.328
   68SOL    HW1 1103   6.049   0.685   6.403
   68SOL    HW2 1104   5.989   0.760   6.271
   69SOL     OW 1105   1.823   4.056   6.862
   69SOL    HW1 1106   1.889   3.986   6.887
   69SOL    HW2 1107   1.778   4.092   6.944
   70SOL     OW 1108   6.613   4.845   3.615
   70SOL    HW1 1109   6.567   4.806   3.694
   70SOL    HW2 1110   6.670   4.923   3.644
   71SOL     OW 1111   3.672   2.034   2.552
   71SOL    HW1 1112   3.738   2.106   2.575
   71SOL    HW2 1113   3.703   1.987   2.469
   72SOL     OW 1114   2.808   5.847   4.702
   72SOL    HW1 1115   2.890   5.888   4.661
   72SOL    HW2 1116   2.833   5.760   4.746
   73SOL     OW 1117   3.645   1.531   0.517
   73SOL    HW1 1118   3.650   1.569   0.610
   73SOL    HW2 1119   3.669   1.602   0.451
   74SOL     OW 1120   5.555   6.127   6.310
   74SOL    HW1 1121   5.625   6.177   6.361
   74SOL    HW2 1122   5.529   6.180   6.230
   75SOL     OW 1123   3.525   6.766   5.901
   75SOL    HW1 1124   3.455   6.714   5.852
   75SOL    HW2 1125   3.516   6.863   5.878
   76SOL     OW 1126   2.030   2.929   1.207
   76SOL    HW1 1127   2.024   3.022   1.242
   76SOL    HW2 1128   1.939   2.895   1.184
   77SOL     OW 1129   5.031   6.147   4.639
   77SOL    HW1 1130   4.976   6.063   4.636
   77SOL    HW2 1131   5.048   6.173   4.734
   78SOL     OW 1132   5.836   0.414   5.488
   78SOL    HW1 1133   5.799   0.340   5.544
   78SOL    HW2 1134   5.765   0.483   5.473
   79SOL     OW 1135   3.233   0.043   0.473
   79SOL    HW1 1136   3.271   0.122   0.426
   79SOL    HW2 1137   3.237   6.989   0.413
   80SOL     OW 1138   5.660   1.514   4.452
   80SOL    HW1 1139   5.690   1.564   4.370
   80SOL    HW2 1140   5.680   1.416   4.440
   81SOL     OW 1141   2.305   0.006   2.707
   81SOL    HW1 1142   2.371   0.081   2.710
   81SOL    HW2 1143   2.287   7.007   2.612
   82SOL     OW 1144   6.800   5.604   0.274
   82SOL    HW1 1145   6.710   5.566   0.292
   82SOL    HW2 1146   6.870   5.546   0.316
   83SOL     OW 1147   6.455   0.206   0.471
   83SOL    HW1 1148   6.424   0.292   0.430
   83SOL    HW2 1149   6.461   0.217   0.570
   84SOL     OW 1150   4.871   3.241   3.532
   84SOL    HW1 1151   4.838   3.151   3.503
   84SOL    HW2 1152   4.968   3.235   3.557
   85SOL     OW 1153   1.643   1.759   5.109
   85SOL    HW1 1154   1.675   1.665   5.121
   85SOL    HW2 1155   1.700   1.821   5.164
   86SOL     OW 1156   0.812   0.675   5.824
   86SOL    HW1 1157   0.824   0.581   5.793
   86SOL    HW2 1158   0.757   0.726   5.758
   87SOL     OW 1159   4.889   3.732   0.320
   87SOL    HW1 1160   4.977   3.750   0.363
   87SOL    HW2 1161   4.863   3.636   0.336
   88SOL     OW 1162   4.393   2.025   6.471
   88SOL    HW1 1163   4.403   2.056   6.566
   88SOL    HW2 1164   4.370   2.103   6.413
   89SOL     OW 1165   0.955   3.096   6.731
   89SOL    HW1 1166   0.879   3.162   6.733
   89SOL    HW2 1167   1.039   3.142   6.760
   90SOL     OW 1168   4.538   6.370   3.944
   90SOL    HW1 1169   4.448   6.400   3.976
   90SOL    HW2 1170   4.563   6.421   3.862
   91SOL     OW 1171   4.793   3.980   4.179
   91SOL    HW1 1172   4.865   4.012   4.241
   91SOL    HW2 1173   4.831   3.909   4.119
   92SOL     OW 1174   3.212   4.256   0.422
   92SOL    HW1 1175   3.274   4.276   0.346
   92SOL    HW2 1176   3.130   4.211   0.386
   93SOL     OW 1177   2.474   4.183   6.549
   93SOL    HW1 1178   2.451   4.088   6.528
   93SOL    HW2 1179   2.552   4.212   6.493
   94SOL     OW 1180   2.460   6.356   6.205
   94SOL    HW1 1181   2.474   6.318   6.297
   94SOL    HW2 1182   2.500   6.295   6.137
   95SOL     OW 1183   0.679   1.398   2.768
   95SOL    HW1 1184   0.655   1.305   2.739
   95SOL    HW2 1185   0.610   1.462   2.735
   96SOL     OW 1186   2.995   6.820   5.409
   96SOL    HW1 1187   3.051   6.893   5.449
   96SOL    HW2 1188   2.980   6.839   5.312
   97SOL     OW 1189   0.829   3.679   5.536
   97SOL    HW1 1190   0.766   3.639   5.603
   97SOL    HW2 1191   0.780   3.742   5.477
   98SOL     OW 1192   6.545   3.763   0.067
   98SOL    HW1 1193   6.599   3.680   0.052
   98SOL    HW2 1194   6.505   3.760   0.159
   99SOL     OW 1195   4.462   3.856   0.746
   99SOL    HW1 1196   4.403   3.897   0.815
   99SOL    HW2 1197   4.484   3.762   0.773
  100SOL     OW 1198   0.230   0.199   5.920
  100SOL    HW1 1199   0.225   0.211   5.821
  100SOL    HW2 1200   0.195   0.108   5.944
  101SOL     OW 1201   1.629   5.663   2.600
  101SOL    HW1 1202   1.668   5.752   2.624
  101SOL    HW2 1203   1.560   5.675   2.529
  102SOL     OW 1204   4.661   0.584   2.390
  102SOL    HW1 1205   4.686   0.580   2.293
  102SOL    HW2 1206   4.581   0.526   2.406
  103SOL     OW 1207   3.500   0.846   2.387
  103SOL    HW1 1208   3.584   0.832   2.336
  103SOL    HW2 1209   3.515   0.828   2.484
  104SOL     OW 1210   0.007   5.113   2.391
  104SOL    HW1 1211   0.095   5.156   2.375
  104SOL    HW2 1212   6.986   5.159   2.467
  105SOL     OW 1213   6.506   2.107   6.167
  105SOL    HW1 1214   6.453   2.080   6.248
  105SOL    HW2 1215   6.503   2.207   6.157
  106SOL     OW 1216   3.451   6.302   4.906
  106SOL    HW1 1217   3.370   6.276   4.854
  106SOL    HW2 1218   3.490   6.385   4.866
  107SOL     OW 1219   1.639   2.101   2.034
  107SOL    HW1 1220   1.649   2.194   2.070
  107SOL    HW2 1221   1.679   2.096   1.942
  108SOL     OW 1222   4.149   5.001   5.908
  108SOL    HW1 1223   4.219   5.012   5.979
  108SOL    HW2 1224   4.151   5.081   5.847
  109SOL     OW 1225   0.754   1.385   1.351
  109SOL    HW1 1226   0.819   1.310   1.362
  109SOL    HW2 1227   0.779   1.438   1.270
  110SOL     OW 1228   3.990   6.408   5.518
  110SOL    HW1 1229   4.019   6.381   5.426
  110SOL    HW2 1230   3.915   6.350   5.548
  111SOL     OW 1231   3.332   0.356   5.411
  111SOL    HW1 1232   3.398   0.410   5.464
  111SOL    HW2 1233   3.261   0.416   5.376
  112SOL     OW 1234   6.148   6.483   6.324
  112SOL    HW1 1235   6.060   6.529   6.332
  112SOL    HW2 1236   6.164   6.456   6.229
  113SOL     OW 1237   6.710   4.833   3.351
  113SOL    HW1 1238   6.665   4.838   3.440
  113SOL    HW2 1239   6.785   4.898   3.348
  114SOL     OW 1240   1.100   0.343   1.551
  114SOL    HW1 1241   1.023   0.329   1.490
  114SOL    HW2 1242   1.076   0.410   1.621
  115SOL     OW 1243   3.444   1.617   3.565
  115SOL    HW1 1244   3.345   1.603   3.564
  115SOL    HW2 1245   3.482   1.598   3.474
  116SOL     OW 1246   6.150   5.174   2.106
  116SOL    HW1 1247   6.135   5.243   2.177
  116SOL    HW2 1248   6.155   5.084   2.148
  117SOL     OW 1249   1.354   1.538   6.448
  117SOL    HW1 1250   1.355   1.502   6.541
  117SOL    HW2 1251   1.274   1.596   6.436
  118SOL     OW 1252   1.445   1.460   2.798
  118SOL    HW1 1253   1.481   1.469   2.705
  118SOL    HW2 1254   1.366   1.520   2.809
  119SOL     OW 1255   1.313   2.080   5.882
  119SOL    HW1 1256   1.382   2.129   5.935
  119SOL    HW2 1257   1.348   1.989   5.858
  120SOL     OW 1258   6.466   6.973   0.385
  120SOL    HW1 1259   6.531   6.968   0.309
  120SOL    HW2 1260   6.459   0.042   0.417
  121SOL     OW 1261   2.554   3.811   0.063
  121SOL    HW1 1262   2.607   3.895   0.051
  121SOL    HW2 1263   2.551   3.760   7.002
  122SOL     OW 1264   1.873   4.735   6.508
  122SOL    HW1 1265   1.922   4.817   6.537
  122SOL    HW2 1266   1.935   4.657   6.510
  123SOL     OW 1267   0.368   2.215   1.624
  123SOL    HW1 1268   0.317   2.297   1.599
  123SOL    HW2 1269   0.339   2.139   1.566
  124SOL     OW 1270   5.147   3.154   0.402
  124SOL    HW1 1271   5.142   3.233   0.341
  124SOL    HW2 1272   5.076   3.088   0.378
  125SOL     OW 1273   2.310   1.882   1.950
  125SOL    HW1 1274   2.311   1.782   1.949
  125SOL    HW2 1275   2.300   1.916   1.857
  126SOL     OW 1276   2.506   4.498   1.219
  126SOL    HW1 1277   2.579   4.456   1.165
  126SOL    HW2 1278   2.438   4.538   1.158
  127SOL     OW 1279   6.875   5.799   5.840
  127SOL    HW1 1280   6.943   5.800   5.767
  127SOL    HW2 1281   6.854   5.704   5.864
  128SOL     OW 1282   4.399   2.556   1.436
  128SOL    HW1 1283   4.337   2.634   1.435
  128SOL    HW2 1284   4.493   2.588   1.420
  129SOL     OW 1285   3.862   3.516   5.844
  129SOL    HW1 1286   3.941   3.454   5.850
  129SOL    HW2 1287   3.853   3.549   5.751
  130SOL     OW 1288   0.555   1.304   4.296
  130SOL    HW1 1289   0.631   1.246   4.268
  130SOL    HW2 1290   0.473   1.248   4.308
  131SOL     OW 1291   5.585   1.499   2.203
  131SOL    HW1 1292   5.534   1.413   2.208
  131SOL    HW2 1293   5.529   1.569   2.159
  132SOL     OW 1294   2.400   3.012   0.807
  132SOL    HW1 1295   2.360   3.102   0.827
  132SOL    HW2 1296   2.363   2.945   0.870
  133SOL     OW 1297   4.636   6.399   4.201
  133SOL    HW1 1298   4.583   6.477   4.235
  133SOL    HW2 1299   4.618   6.386   4.104
  134SOL     OW 1300   5.802   1.329   2.270
  134SOL    HW1 1301   5.732   1.401   2.267
  134SOL    HW2 1302   5.893   1.371   2.261
  135SOL     OW 1303   5.677   3.318   1.697
  135SOL    HW1 1304   5.625   3.349   1.777
  135SOL    HW2 1305   5.768   3.289   1.726
  136SOL     OW 1306   3.472   3.806   6.380
  136SOL    HW1 1307   3.500   3.710   6.372
  136SOL    HW2 1308   3.440   3.839   6.291
  137SOL     OW 1309   5.106   0.668   4.576
  137SOL    HW1 1310   5.170   0.594   4.599
  137SOL    HW2 1311   5.145   0.756   4.604
  138SOL     OW 1312   0.457   4.197   3.557
  138SOL    HW1 1313   0.496   4.276   3.605
  138SOL    HW2 1314   0.358   4.196   3.570
  139SOL     OW 1315   2.641   6.255   5.038
  139SOL    HW1 1316   2.635   6.207   5.126
  139SOL    HW2 1317   2.647   6.187   4.964
  140SOL     OW 1318   0.338   5.931   3.113
  140SOL    HW1 1319   0.378   5.849   3.153
  140SOL    HW2 1320   0.333   6.004   3.182
  141SOL     OW 1321   5.943   3.338   5.326
  141SOL    HW1 1322   5.940   3.248   5.282
  141SOL    HW2 1323   5.989   3.331   5.414
  142SOL     OW 1324   1.907   4.945   0.652
  142SOL    HW1 1325   2.005   4.931   0.636
  142SOL    HW2 1326   1.887   5.042   0.648
  143SOL     OW 1327   5.695   4.255   1.549
  143SOL    HW1 1328   5.776   4.257   1.491
  143SOL    HW2 1329   5.721   4.270   1.644
  144SOL     OW 1330   1.428   6.564   6.613
  144SOL    HW1 1331   1.451   6.472   6.647
  144SOL    HW2 1332   1.511   6.619   6.608
  145SOL     OW 1333   0.636   5.064   0.358
  145SOL    HW1 1334   0.539   5.088   0.360
  145SOL    HW2 1335   0.662   5.037   0.266
  146SOL     OW 1336   4.780   0.214   6.192
  146SOL    HW1 1337   4.788   0.250   6.099
  146SOL    HW2 1338   4.853   0.149   6.208
  147SOL     OW 1339   5.794   3.137   6.676
  147SOL    HW1 1340   5.872   3.079   6.653
  147SOL    HW2 1341   5.824   3.214   6.731
  148SOL     OW 1342   0.551   4.893   6.652
  148SOL    HW1 1343   0.478   4.943   6.605
  148SOL    HW2 1344   0.640   4.927   6.622
  149SOL     OW 1345   2.932   1.818   4.294
  149SOL    HW1 1346   2.967   1.824   4.388
  149SOL    HW2 1347   2.913   1.910   4.260
  150SOL     OW 1348   5.461   5.582   6.232
  150SOL    HW1 1349   5.391   5.593   6.161
  150SOL    HW2 1350   5.418   5.547   6.315
  151SOL     OW 1351   3.117   2.194   1.208
  151SOL    HW1 1352   3.038   2.135   1.228
  151SOL    HW2 1353   3.149   2.176   1.115
  152SOL     OW 1354   1.722   1.535   3.426
  152SOL    HW1 1355   1.682   1.534   3.335
  152SOL    HW2 1356   1.699   1.621   3.472
  153SOL     OW 1357   2.887   0.079   1.777
  153SOL    HW1 1358   2.825   0.082   1.698
  153SOL    HW2 1359   2.953   0.154   1.770
  154SOL     OW 1360   0.515   2.286   3.248
  154SOL    HW1 1361   0.575   2.266   3.326
  154SOL    HW2 1362   0.521   2.383   3.225
  155SOL     OW 1363   0.266   1.025   3.294
  155SOL    HW1 1364   0.210   1.103   3.320
  155SOL    HW2 1365   0.328   1.003   3.369
  156SOL     OW 1366   6.811   1.967   1.174
  156SOL    HW1 1367   6.852   1.921   1.253
  156SOL    HW2 1368   6.717   1.934   1.161
  157SOL     OW 1369   6.041   3.420   1.941
  157SOL    HW1 1370   6.032   3.510   1.985
  157SOL    HW2 1371   6.127   3.377   1.971
  158SOL     OW 1372   3.013   6.363   2.064
  158SOL    HW1 1373   2.969   6.273   2.066
  158SOL    HW2 1374   2.950   6.430   2.024
  159SOL     OW 1375   4.663   4.315   1.703
  159SOL    HW1 1376   4.580   4.296   1.755
  159SOL    HW2 1377   4.697   4.406   1.726
  160SOL     OW 1378   6.615   5.000   0.213
  160SOL    HW1 1379   6.520   5.010   0.244
  160SOL    HW2 1380   6.622   4.922   0.151
  161SOL     OW 1381   1.681   5.336   5.060
  161SOL    HW1 1382   1.669   5.271   5.135
  161SOL    HW2 1383   1.755   5.400   5.083
  162SOL     OW 1384   3.980   6.591   0.286
  162SOL    HW1 1385   3.908   6.548   0.341
  162SOL    HW2 1386   4.052   6.626   0.346
  163SOL     OW 1387   5.410   5.555   1.222
  163SOL    HW1 1388   5.325   5.576   1.172
  163SOL    HW2 1389   5.487   5.595   1.173
  164SOL     OW 1390   6.472   4.725   0.881
  164SOL    HW1 1391   6.496   4.721   0.978
  164SOL    HW2 1392   6.555   4.715   0.825
  165SOL     OW 1393   5.255   3.262   0.948
  165SOL    HW1 1394   5.163   3.255   0.909
  165SOL    HW2 1395   5.304   3.176   0.932
  166SOL     OW 1396   0.423   4.923   3.303
  166SOL    HW1 1397   0.351   4.978   3.263
  166SOL    HW2 1398   0.496   4.982   3.337
  167SOL     OW 1399   5.730   2.429   0.347
  167SOL    HW1 1400   5.825   2.458   0.360
  167SOL    HW2 1401   5.690   2.405   0.435
  168SOL     OW 1402   2.470   3.728   1.064
  168SOL    HW1 1403   2.465   3.772   1.154
  168SOL    HW2 1404   2.554   3.757   1.018
  169SOL     OW 1405   3.732   0.330   2.251
  169SOL    HW1 1406   3.695   0.354   2.161
  169SOL    HW2 1407   3.704   0.399   2.318
  170SOL     OW 1408   0.310   1.547   3.597
  170SOL    HW1 1409   0.350   1.456   3.606
  170SOL    HW2 1410   0.382   1.614   3.582
  171SOL     OW 1411   4.024   4.352   0.590
  171SOL    HW1 1412   3.996   4.267   0.546
  171SOL    HW2 1413   4.081   4.332   0.670
  172SOL     OW 1414   6.555   1.909   4.409
  172SOL    HW1 1415   6.640   1.936   4.365
  172SOL    HW2 1416   6.478   1.951   4.361
  173SOL     OW 1417   6.718   1.555   4.187
  173SOL    HW1 1418   6.648   1.550   4.259
  173SOL    HW2 1419   6.786   1.624   4.214
  174SOL     OW 1420   3.401   5.685   4.204
  174SOL    HW1 1421   3.393   5.616   4.275
  174SOL    HW2 1422   3.470   5.656   4.137
  175SOL     OW 1423   1.829   7.013   2.081
  175SOL    HW1 1424   1.905   0.011   2.021
  175SOL    HW2 1425   1.826   6.914   2.094
  176SOL     OW 1426   0.903   4.070   1.340
  176SOL    HW1 1427   0.920   4.053   1.437
  176SOL    HW2 1428   0.984   4.111   1.299
  177SOL     OW 1429   5.765   3.089   2.532
  177SOL    HW1 1430   5.710   3.063   2.612
  177SOL    HW2 1431   5.738   3.180   2.501
  178SOL     OW 1432   3.773   2.671   6.199
  178SOL    HW1 1433   3.803   2.736   6.130
  178SOL    HW2 1434   3.844   2.659   6.268
  179SOL     OW 1435   2.382   1.727   5.711
  179SOL    HW1 1436   2.447   1.784   5.761
  179SOL    HW2 1437   2.291   1.767   5.719
  180SOL     OW 1438   1.389   0.005   6.395
  180SOL    HW1 1439   1.291   0.005   6.376
  180SOL    HW2 1440   1.407   0.060   6.476
  181SOL     OW 1441   3.597   1.603   6.503
  181SOL    HW1 1442   3.619   1.528   6.441
  181SOL    HW2 1443   3.591   1.568   6.597
  182SOL     OW 1444   3.631   2.057   4.385
  182SOL    HW1 1445   3.561   2.070   4.315
  182SOL    HW2 1446   3.713   2.109   4.361
  183SOL     OW 1447   3.418   2.021   3.282
  183SOL    HW1 1448   3.431   1.976   3.370
  183SOL    HW2 1449   3.349   1.972   3.230
  184SOL     OW 1450   1.580   6.458   4.438
  184SOL    HW1 1451   1.606   6.527   4.371
  184SOL    HW2 1452   1.654   6.391   4.447
  185SOL     OW 1453   0.809   2.208   6.222
  185SOL    HW1 1454   0.906   2.193   6.241
  185SOL    HW2 1455   0.754   2.168   6.295
  186SOL     OW 1456   6.399   1.224   3.320
  186SOL    HW1 1457   6.302   1.247   3.321
  186SOL    HW2 1458   6.428   1.206   3.226
  187SOL     OW 1459   4.742   1.065   3.065
  187SOL    HW1 1460   4.717   1.051   3.160
  187SOL    HW2 1461   4.829   1.113   3.060
  188SOL     OW 1462   6.351   1.909   2.214
  188SOL    HW1 1463   6.421   1.841   2.235
  188SOL    HW2 1464   6.394   1.993   2.183
  189SOL     OW 1465   2.142   5.324   2.628
  189SOL    HW1 1466   2.226   5.278   2.600
  189SOL    HW2 1467   2.145   5.419   2.597
  190SOL     OW 1468   4.311   1.471   4.712
  190SOL    HW1 1469   4.244   1.500   4.781
  190SOL    HW2 1470   4.263   1.444   4.629
  191SOL     OW 1471   5.513   5.666   5.879
  191SOL    HW1 1472   5.571   5.637   5.955
  191SOL    HW2 1473   5.425   5.698   5.914
  192SOL     OW 1474   0.100   5.884   1.865
  192SOL    HW1 1475   0.084   5.976   1.901
  192SOL    HW2 1476   0.150   5.891   1.779
  193SOL     OW 1477   4.551   2.360   5.475
  193SOL    HW1 1478   4.464   2.341   5.520
  193SOL    HW2 1479   4.626   2.346   5.540
  194SOL     OW 1480   3.339   0.698   2.841
  194SOL    HW1 1481   3.363   0.745   2.925
  194SOL    HW2 1482   3.248   0.728   2.810
  195SOL     OW 1483   1.860   6.546   4.304
  195SOL    HW1 1484   1.952   6.571   4.335
  195SOL    HW2 1485   1.813   6.628   4.270
  196SOL     OW 1486   2.565   1.527   6.822
  196SOL    HW1 1487   2.637   1.544   6.889
  196SOL    HW2 1488   2.532   1.615   6.786
  197SOL     OW 1489   2.327   1.050   0.310
  197SOL    HW1 1490   2.278   0.981   0.257
  197SOL    HW2 1491   2.397   1.092   0.252
  198SOL     OW 1492   4.712   1.344   3.147
  198SOL    HW1 1493   4.718   1.267   3.211
  198SOL    HW2 1494   4.651   1.321   3.072
  199SOL     OW 1495   1.112   2.158   4.215
  199SOL    HW1 1496   1.157   2.238   4.175
  199SOL    HW2 1497   1.057   2.187   4.293
  200SOL     OW 1498   1.382   3.799   0.551
  200SOL    HW1 1499   1.293   3.833   0.522
  200SOL    HW2 1500   1.386   3.700   0.539
  201SOL     OW 1501   0.619   6.377   5.598
  201SOL    HW1 1502   0.645   6.436   5.521
  201SOL    HW2 1503   0.702   6.344   5.644
  202SOL     OW 1504   3.770   1.820   6.583
  202SOL    HW1 1505   3.862   1.787   6.603
  202SOL    HW2 1506   3.705   1.744   6.591
  203SOL     OW 1507   6.001   1.995   5.113
  203SOL    HW1 1508   5.971   1.994   5.209
  203SOL    HW2 1509   5.929   2.035   5.057
  204SOL     OW 1510   0.721   6.871   4.029
  204SOL    HW1 1511   0.801   6.896   3.975
  204SOL    HW2 1512   0.708   6.772   4.026
  205SOL     OW 1513   1.912   2.648   2.763
  205SOL    HW1 1514   1.885   2.567   2.712
  205SOL    HW2 1515   1.952   2.621   2.850
  206SOL     OW 1516   0.951   3.310   1.360
  206SOL    HW1 1517   1.034   3.255   1.365
  206SOL    HW2 1518   0.965   3.397   1.408
  207SOL     OW 1519   5.984   0.513   3.799
  207SOL    HW1 1520   6.014   0.525   3.705
  207SOL    HW2 1521   5.893   0.471   3.800
  208SOL     OW 1522   0.329   3.914   5.958
  208SOL    HW1 1523   0.366   3.988   6.015
  208SOL    HW2 1524   0.242   3.942   5.920
  209SOL     OW 1525   6.482   4.476   2.798
  209SOL    HW1 1526   6.439   4.402   2.849
  209SOL    HW2 1527   6.576   4.487   2.828
  210SOL     OW 1528   4.525   2.047   0.671
  210SOL    HW1 1529   4.455   2.044   0.742
  210SOL    HW2 1530   4.590   2.121   0.692
  211SOL     OW 1531   1.119   6.690   2.308
  211SOL    HW1 1532   1.083   6.597   2.299
  211SOL    HW2 1533   1.208   6.687   2.354
  212SOL     OW 1534   1.199   3.418   2.653
  212SOL    HW1 1535   1.099   3.407   2.654
  212SOL    HW2 1536   1.223   3.501   2.602
  213SOL     OW 1537   1.763   6.050   1.291
  213SOL    HW1 1538   1.803   5.985   1.356
  213SOL    HW2 1539   1.680   6.090   1.331
  214SOL     OW 1540   3.556   5.334   2.996
  214SOL    HW1 1541   3.584   5.429   3.004
  214SOL    HW2 1542   3.535   5.313   2.900
  215SOL     OW 1543   2.734   4.349   1.156
  215SOL    HW1 1544   2.684   4.270   1.191
  215SOL    HW2 1545   2.826   4.321   1.129
  216SOL     OW 1546   0.857   6.417   2.984
  216SOL    HW1 1547   0.770   6.466   2.980
  216SOL    HW2 1548   0.875   6.373   2.896
  217SOL     OW 1549   1.250   2.400   4.733
  217SOL    HW1 1550   1.282   2.367   4.645
  217SOL    HW2 1551   1.227   2.323   4.792
  218SOL     OW 1552   0.703   2.736   4.268
  218SOL    HW1 1553   0.621   2.698   4.311
  218SOL    HW2 1554   0.680   2.820   4.220
  219SOL     OW 1555   4.137   0.280   0.681
  219SOL    HW1 1556   4.101   0.191   0.652
  219SOL    HW2 1557   4.228   0.293   0.641
  220SOL     OW 1558   2.513   0.258   0.874
  220SOL    HW1 1559   2.578   0.198   0.827
  220SOL    HW2 1560   2.464   0.314   0.807
  221SOL     OW 1561   6.115   4.298   1.275
  221SOL    HW1 1562   6.189   4.362   1.290
  221SOL    HW2 1563   6.031   4.333   1.317
  222SOL     OW 1564   1.761   4.652   5.605
  222SOL    HW1 1565   1.664   4.676   5.606
  222SOL    HW2 1566   1.811   4.709   5.669
  223SOL     OW 1567   6.866   3.217   5.632
  223SOL    HW1 1568   6.791   3.256   5.578
  223SOL    HW2 1569   6.948   3.272   5.619
  224SOL     OW 1570   3.365   1.151   6.853
  224SOL    HW1 1571   3.422   1.070   6.865
  224SOL    HW2 1572   3.364   1.204   6.938
  225SOL     OW 1573   4.503   3.920   6.203
  225SOL    HW1 1574   4.443   3.885   6.130
  225SOL    HW2 1575   4.547   3.844   6.250
  226SOL     OW 1576   0.887   1.585   6.111
  226SOL    HW1 1577   0.843   1.637   6.184
  226SOL    HW2 1578   0.923   1.647   6.042
  227SOL     OW 1579   1.975   4.461   2.267
  227SOL    HW1 1580   2.016   4.551   2.280
  227SOL    HW2 1581   2.018   4.395   2.328
  228SOL     OW 1582   2.113   0.324   2.470
  228SOL    HW1 1583   2.124   0.309   2.568
  228SOL    HW2 1584   2.041   0.391   2.453
  229SOL     OW 1585   5.176   5.587   5.725
  229SOL    HW1 1586   5.250   5.535   5.680
  229SOL    HW2 1587   5.089   5.564   5.682
  230SOL     OW 1588   4.428   5.483   4.493
  230SOL    HW1 1589   4.406   5.462   4.398
  230SOL    HW2 1590   4.380   5.567   4.520
  231SOL     OW 1591   6.271   1.440   6.272
  231SOL    HW1 1592   6.196   1.375   6.264
  231SOL    HW2 1593   6.357   1.391   6.282
  232SOL     OW 1594   0.301   3.346   6.621
  232SOL    HW1 1595   0.344   3.383   6.539
  232SOL    HW2 1596   0.347   3.383   6.702
  233SOL     OW 1597   4.426   1.350   3.292
  233SOL    HW1 1598   4.351   1.320   3.351
  233SOL    HW2 1599   4.408   1.443   3.261
  234SOL     OW 1600   5.951   0.931   6.859
  234SOL    HW1 1601   5.932   0.997   6.933
  234SOL    HW2 1602   5.866   0.912   6.810
  235SOL     OW 1603   4.783   2.830   2.199
  235SOL    HW1 1604   4.739   2.741   2.207
  235SOL    HW2 1605   4.733   2.886   2.133
  236SOL     OW 1606   4.871   2.889   0.037
  236SOL    HW1 1607   4.842   2.971   0.087
  236SOL    HW2 1608   4.966   2.899   0.009
  237SOL     OW 1609   0.163   4.185   1.855
  237SOL    HW1 1610   0.150   4.284   1.864
  237SOL    HW2 1611   0.253   4.160   1.891
  238SOL     OW 1612   6.101   1.661   0.272
  238SOL    HW1 1613   6.143   1.748   0.245
  238SOL    HW2 1614   6.155   1.585   0.237
  239SOL     OW 1615   0.810   4.663   0.418
  239SOL    HW1 1616   0.727   4.615   0.447
  239SOL    HW2 1617   0.851   4.614   0.341
  240SOL     OW 1618   0.789   3.273   3.262
  240SOL    HW1 1619   0.830   3.327   3.336
  240SOL    HW2 1620   0.726   3.206   3.301
  241SOL     OW 1621   3.068   2.093   4.820
  241SOL    HW1 1622   3.085   2.157   4.745
  241SOL    HW2 1623   3.113   2.126   4.903
  242SOL     OW 1624   3.151   3.319   3.720
  242SOL    HW1 1625   3.201   3.391   3.673
  242SOL    HW2 1626   3.054   3.341   3.723
  243SOL     OW 1627   4.858   1.644   0.516
  243SOL    HW1 1628   4.949   1.601   0.519
  243SOL    HW2 1629   4.862   1.725   0.458
  244SOL     OW 1630   5.905   4.006   5.557
  244SOL    HW1 1631   5.888   4.073   5.485
  244SOL    HW2 1632   5.834   3.936   5.554
  245SOL     OW 1633   4.329   2.426   3.834
  245SOL    HW1 1634   4.354   2.451   3.927
  245SOL    HW2 1635   4.269   2.346   3.835
  246SOL     OW 1636   4.955   1.959   3.732
  246SOL    HW1 1637   4.942   1.862   3.713
  246SOL    HW2 1638   4.908   1.984   3.816
  247SOL     OW 1639   2.634   1.627   0.703
  247SOL    HW1 1640   2.694   1.693   0.657
  247SOL    HW2 1641   2.689   1.563   0.756
  248SOL     OW 1642   3.070   1.240   3.088
  248SOL    HW1 1643   3.109   1.300   3.018
  248SOL    HW2 1644   3.133   1.164   3.106
  249SOL     OW 1645   5.418   6.656   5.478
  249SOL    HW1 1646   5.392   6.733   5.536
  249SOL    HW2 1647   5.336   6.608   5.449
  250SOL     OW 1648   4.553   3.028   0.693
  250SOL    HW1 1649   4.561   3.118   0.650
  250SOL    HW2 1650   4.473   2.981   0.657
  251SOL     OW 1651   4.486   3.400   5.321
  251SOL    HW1 1652   4.421   3.474   5.338
  251SOL    HW2 1653   4.559   3.434   5.261
  252SOL     OW 1654   6.984   6.301   4.849
  252SOL    HW1 1655   7.012   6.363   4.922
  252SOL    HW2 1656   6.995   6.347   4.760
  253SOL     OW 1657   3.561   5.381   0.036
  253SOL    HW1 1658   3.503   5.324   7.002
  253SOL    HW2 1659   3.605   5.452   7.006
  254SOL     OW 1660   6.286   2.279   3.781
  254SOL    HW1 1661   6.362   2.223   3.814
  254SOL    HW2 1662   6.301   2.302   3.685
  255SOL     OW 1663   2.181   4.672   5.670
  255SOL    HW1 1664   2.160   4.632   5.581
  255SOL    HW2 1665   2.277   4.698   5.673
  256SOL     OW 1666   6.007   3.675   6.087
  256SOL    HW1 1667   5.966   3.763   6.063
  256SOL    HW2 1668   5.943   3.624   6.145
  257SOL     OW 1669   5.210   0.372   3.403
  257SOL    HW1 1670   5.282   0.335   3.463
  257SOL    HW2 1671   5.252   0.425   3.330
  258SOL     OW 1672   2.315   4.189   5.324
  258SOL    HW1 1673   2.385   4.257   5.303
  258SOL    HW2 1674   2.336   4.103   5.278
  259SOL     OW 1675   6.050   0.496   2.275
  259SOL    HW1 1676   6.132   0.459   2.229
  259SOL    HW2 1677   5.970   0.481   2.217
  260SOL     OW 1678   4.246   5.736   2.956
  260SOL    HW1 1679   4.276   5.783   3.039
  260SOL    HW2 1680   4.158   5.691   2.974
  261SOL     OW 1681   5.935   3.361   0.947
  261SOL    HW1 1682   5.981   3.277   0.919
  261SOL    HW2 1683   5.837   3.352   0.932
  262SOL     OW 1684   1.214   4.277   0.295
  262SOL    HW1 1685   1.187   4.236   0.382
  262SOL    HW2 1686   1.231   4.375   0.309
  263SOL     OW 1687   1.800   0.495   4.925
  263SOL    HW1 1688   1.857   0.466   4.848
  263SOL    HW2 1689   1.853   0.489   5.010
  264SOL     OW 1690   6.065   2.461   0.215
  264SOL    HW1 1691   6.017   2.522   0.151
  264SOL    HW2 1692   6.143   2.509   0.255
  265SOL     OW 1693   5.263   6.535   2.972
  265SOL    HW1 1694   5.179   6.529   3.026
  265SOL    HW2 1695   5.242   6.522   2.875
  266SOL     OW 1696   4.589   2.996   5.837
  266SOL    HW1 1697   4.637   3.082   5.855
  266SOL    HW2 1698   4.616   2.960   5.747
  267SOL     OW 1699   0.638   1.681   5.712
  267SOL    HW1 1700   0.549   1.688   5.667
  267SOL    HW2 1701   0.665   1.585   5.718
  268SOL     OW 1702   3.199   0.948   6.314
  268SOL    HW1 1703   3.189   1.047   6.306
  268SOL    HW2 1704   3.131   0.912   6.378
  269SOL     OW 1705   2.133   3.872   1.012
  269SOL    HW1 1706   2.073   3.792   1.019
  269SOL    HW2 1707   2.130   3.923   1.098
  270SOL     OW 1708   1.273   6.162   0.691
  270SOL    HW1 1709   1.221   6.171   0.606
  270SOL    HW2 1710   1.212   6.172   0.769
  271SOL     OW 1711   6.862   1.240   6.143
  271SOL    HW1 1712   6.848   1.310   6.073
  271SOL    HW2 1713   6.941   1.184   6.119
  272SOL     OW 1714   3.878   6.408   4.148
  272SOL    HW1 1715   3.948   6.353   4.193
  272SOL    HW2 1716   3.789   6.362   4.157
  273SOL     OW 1717   2.264   4.858   4.483
  273SOL    HW1 1718   2.320   4.777   4.466
  273SOL    HW2 1719   2.271   4.884   4.579
  274SOL     OW 1720   3.746   1.405   3.246
  274SOL    HW1 1721   3.815   1.400   3.319
  274SOL    HW2 1722   3.774   1.472   3.178
  275SOL     OW 1723   6.370   5.837   3.513
  275SOL    HW1 1724   6.402   5.750   3.550
  275SOL    HW2 1725   6.297   5.874   3.572
  276SOL     OW 1726   0.175   6.643   3.097
  276SOL    HW1 1727   0.087   6.672   3.059
  276SOL    HW2 1728   0.249   6.691   3.051
  277SOL     OW 1729   1.894   4.128   0.735
  277SOL    HW1 1730   1.910   4.171   0.646
  277SOL    HW2 1731   1.796   4.125   0.754
  278SOL     OW 1732   0.105   3.693   1.337
  278SOL    HW1 1733   0.066   3.778   1.372
  278SOL    HW2 1734   0.051   3.661   1.260
  279SOL     OW 1735   5.705   3.126   4.399
  279SOL    HW1 1736   5.733   3.102   4.492
  279SOL    HW2 1737   5.605   3.130   4.395
  280SOL     OW 1738   2.652   5.600   2.597
  280SOL    HW1 1739   2.595   5.673   2.636
  280SOL    HW2 1740   2.748   5.620   2.614
  281SOL     OW 1741   2.583   4.623   1.648
  281SOL    HW1 1742   2.553   4.666   1.563
  281SOL    HW2 1743   2.676   4.588   1.637
  282SOL     OW 1744   3.370   1.639   5.661
  282SOL    HW1 1745   3.381   1.658   5.563
  282SOL    HW2 1746   3.321   1.715   5.704
  283SOL     OW 1747   5.999   2.711   6.731
  283SOL    HW1 1748   6.094   2.689   6.708
  283SOL    HW2 1749   5.938   2.646   6.685
  284SOL     OW 1750   1.689   3.579   4.054
  284SOL    HW1 1751   1.627   3.588   3.976
  284SOL    HW2 1752   1.717   3.483   4.063
  285SOL     OW 1753   5.433   5.328   4.178
  285SOL    HW1 1754   5.500   5.259   4.206
  285SOL    HW2 1755   5.472   5.419   4.193
  286SOL     OW 1756   3.581   4.982   6.817
  286SOL    HW1 1757   3.651   4.988   6.887
  286SOL    HW2 1758   3.609   5.034   6.736
  287SOL     OW 1759   1.246   3.731   0.942
  287SOL    HW1 1760   1.302   3.682   0.875
  287SOL    HW2 1761   1.234   3.674   1.024
  288SOL     OW 1762   3.757   1.616   6.834
  288SOL    HW1 1763   3.673   1.664   6.808
  288SOL    HW2 1764   3.804   1.584   6.752
  289SOL     OW 1765   2.252   4.245   5.574
  289SOL    HW1 1766   2.307   4.199   5.644
  289SOL    HW2 1767   2.274   4.207   5.484
  290SOL     OW 1768   6.176   1.974   4.914
  290SOL    HW1 1769   6.183   2.068   4.881
  290SOL    HW2 1770   6.111   1.971   4.991
  291SOL     OW 1771   0.453   1.787   4.652
  291SOL    HW1 1772   0.500   1.869   4.619
  291SOL    HW2 1773   0.500   1.706   4.618
  292SOL     OW 1774   2.122   1.954   2.855
  292SOL    HW1 1775   2.131   2.045   2.896
  292SOL    HW2 1776   2.108   1.964   2.757
  293SOL     OW 1777   4.517   5.831   2.849
  293SOL    HW1 1778   4.436   5.777   2.871
  293SOL    HW2 1779   4.493   5.901   2.782
  294SOL     OW 1780   6.987   6.059   6.809
  294SOL    HW1 1781   6.949   5.970   6.834
  294SOL    HW2 1782   6.937   6.131   6.856
  295SOL     OW 1783   3.514   1.331   3.107
  295SOL    HW1 1784   3.605   1.368   3.128
  295SOL    HW2 1785   3.476   1.381   3.029
  296SOL     OW 1786   3.411   1.460   2.869
  296SOL    HW1 1787   3.370   1.385   2.816
  296SOL    HW2 1788   3.379   1.548   2.832
  297SOL     OW 1789   2.364   4.427   4.282
  297SOL    HW1 1790   2.270   4.399   4.260
  297SOL    HW2 1791   2.427   4.387   4.216
  298SOL     OW 1792   4.199   6.196   1.619
  298SOL    HW1 1793   4.269   6.128   1.637
  298SOL    HW2 1794   4.114   6.169   1.664
  299SOL     OW 1795   5.176   3.746   5.621
  299SOL    HW1 1796   5.209   3.655   5.596
  299SOL    HW2 1797   5.078   3.743   5.636
  300SOL     OW 1798   6.355   0.537   2.129
  300SOL    HW1 1799   6.416   0.596   2.182
  300SOL    HW2 1800   6.358   0.564   2.033
  301SOL     OW 1801   5.160   3.704   0.422
  301SOL    HW1 1802   5.215   3.755   0.487
  301SOL    HW2 1803   5.114   3.628   0.469
  302SOL     OW 1804   1.529   0.102   3.050
  302SOL    HW1 1805   1.534   0.201   3.047
  302SOL    HW2 1806   1.556   0.069   3.141
  303SOL     OW 1807   5.760   0.501   2.156
  303SOL    HW1 1808   5.803   0.411   2.164
  303SOL    HW2 1809   5.773   0.536   2.064
  304SOL     OW 1810   2.045   0.437   3.573
  304SOL    HW1 1811   2.047   0.504   3.647
  304SOL    HW2 1812   2.042   0.484   3.485
  305SOL     OW 1813   0.585   3.692   6.381
  305SOL    HW1 1814   0.567   3.676   6.479
  305SOL    HW2 1815   0.667   3.642   6.354
  306SOL     OW 1816   1.176   1.375   3.680
  306SOL    HW1 1817   1.242   1.317   3.729
  306SOL    HW2 1818   1.202   1.382   3.584
  307SOL     OW 1819   4.848   6.439   1.374
  307SOL    HW1 1820   4.870   6.348   1.337
  307SOL    HW2 1821   4.749   6.447   1.386
  308SOL     OW 1822   0.017   4.654   4.688
  308SOL    HW1 1823   6.960   4.597   4.693
  308SOL    HW2 1824   0.023   4.711   4.769
  309SOL     OW 1825   3.577   4.412   5.304
  309SOL    HW1 1826   3.673   4.438   5.317
  309SOL    HW2 1827   3.569   4.343   5.233
  310SOL     OW 1828   6.289   0.033   5.557
  310SOL    HW1 1829   6.269   0.083   5.642
  310SOL    HW2 1830   6.370   7.002   5.570
  311SOL     OW 1831   6.683   4.852   1.812
  311SOL    HW1 1832   6.720   4.821   1.899
  311SOL    HW2 1833   6.631   4.937   1.826
  312SOL     OW 1834   5.143   1.720   5.640
  312SOL    HW1 1835   5.144   1.785   5.716
  312SOL    HW2 1836   5.049   1.702   5.612
  313SOL     OW 1837   2.593   4.183   1.721
  313SOL    HW1 1838   2.659   4.229   1.662
  313SOL    HW2 1839   2.541   4.115   1.669
  314SOL     OW 1840   3.190   5.964   0.379
  314SOL    HW1 1841   3.117   5.917   0.329
  314SOL    HW2 1842   3.221   5.907   0.454
  315SOL     OW 1843   0.449   2.170   3.696
  315SOL    HW1 1844   0.511   2.193   3.620
  315SOL    HW2 1845   0.357   2.203   3.674
  316SOL     OW 1846   2.324   2.853   4.615
  316SOL    HW1 1847   2.319   2.778   4.681
  316SOL    HW2 1848   2.329   2.815   4.522
  317SOL     OW 1849   0.673   1.579   6.512
  317SOL    HW1 1850   0.679   1.654   6.446
  317SOL    HW2 1851   0.751   1.518   6.500
  318SOL     OW 1852   1.152   4.918   1.252
  318SOL    HW1 1853   1.106   4.980   1.316
  318SOL    HW2 1854   1.091   4.898   1.176
  319SOL     OW 1855   0.741   0.476   2.026
  319SOL    HW1 1856   0.767   0.405   1.960
  319SOL    HW2 1857   0.815   0.488   2.093
  320SOL     OW 1858   5.631   2.637   0.175
  320SOL    HW1 1859   5.551   2.599   0.128
  320SOL    HW2 1860   5.681   2.564   0.220
  321SOL     OW 1861   2.089   1.963   2.586
  321SOL    HW1 1862   2.072   2.052   2.543
  321SOL    HW2 1863   2.158   1.914   2.535
  322SOL     OW 1864   3.308   2.962   4.345
  322SOL    HW1 1865   3.391   3.018   4.358
  322SOL    HW2 1866   3.294   2.904   4.426
  323SOL     OW 1867   0.771   4.395   0.238
  323SOL    HW1 1868   0.697   4.353   0.291
  323SOL    HW2 1869   0.840   4.326   0.217
  324SOL     OW 1870   1.250   2.690   4.069
  324SOL    HW1 1871   1.227   2.651   4.158
  324SOL    HW2 1872   1.205   2.638   3.997
  325SOL     OW 1873   2.288   3.177   1.215
  325SOL    HW1 1874   2.267   3.191   1.312
  325SOL    HW2 1875   2.387   3.172   1.203
  326SOL     OW 1876   1.648   6.015   6.893
  326SOL    HW1 1877   1.727   5.958   6.868
  326SOL    HW2 1878   1.673   6.075   6.970
  327SOL     OW 1879   0.568   4.610   4.056
  327SOL    HW1 1880   0.507   4.539   4.089
  327SOL    HW2 1881   0.644   4.569   4.005
  328SOL     OW 1882   3.342   5.459   2.671
  328SOL    HW1 1883   3.384   5.507   2.594
  328SOL    HW2 1884   3.399   5.380   2.695
  329SOL     OW 1885   3.443   3.819   3.534
  329SOL    HW1 1886   3.523   3.855   3.582
  329SOL    HW2 1887   3.465   3.805   3.437
  330SOL     OW 1888   3.275   6.319   2.042
  330SOL    HW1 1889   3.317   6.348   1.955
  330SOL    HW2 1890   3.176   6.318   2.032
  331SOL     OW 1891   4.870   4.972   6.235
  331SOL    HW1 1892   4.930   4.972   6.315
  331SOL    HW2 1893   4.920   4.938   6.155
  332SOL     OW 1894   3.463   2.095   3.758
  332SOL    HW1 1895   3.546   2.142   3.788
  332SOL    HW2 1896   3.389   2.113   3.823
  333SOL     OW 1897   4.029   0.341   6.462
  333SOL    HW1 1898   4.046   0.433   6.496
  333SOL    HW2 1899   3.966   0.345   6.384
  334SOL     OW 1900   3.136   6.805   2.320
  334SOL    HW1 1901   3.041   6.824   2.293
  334SOL    HW2 1902   3.159   6.711   2.296
  335SOL     OW 1903   3.441   6.009   3.986
  335SOL    HW1 1904   3.429   6.013   4.085
  335SOL    HW2 1905   3.452   6.102   3.950
  336SOL     OW 1906   2.364   1.100   3.444
  336SOL    HW1 1907   2.408   1.161   3.510
  336SOL    HW2 1908   2.355   1.147   3.356
  337SOL     OW 1909   0.093   3.546   0.864
  337SOL    HW1 1910   0.078   3.469   0.926
  337SOL    HW2 1911   0.005   3.573   0.823
  338SOL     OW 1912   2.897   3.307   1.588
  338SOL    HW1 1913   2.907   3.390   1.534
  338SOL    HW2 1914   2.958   3.313   1.668
  339SOL     OW 1915   3.552   0.044   3.203
  339SOL    HW1 1916   3.498   0.121   3.238
  339SOL    HW2 1917   3.610   0.076   3.128
  340SOL     OW 1918   5.254   4.057   4.910
  340SOL    HW1 1919   5.233   4.054   4.812
  340SOL    HW2 1920   5.297   3.970   4.937
  341SOL     OW 1921   6.249   6.064   3.976
  341SOL    HW1 1922   6.253   6.121   4.058
  341SOL    HW2 1923   6.333   6.010   3.969
  342SOL     OW 1924   5.505   4.246   0.053
  342SOL    HW1 1925   5.491   4.154   0.091
  342SOL    HW2 1926   5.548   4.304   0.122
  343SOL     OW 1927   2.703   6.572   1.516
  343SOL    HW1 1928   2.710   6.476   1.543
  343SOL    HW2 1929   2.786   6.620   1.544
  344SOL     OW 1930   2.214   5.289   0.797
  344SOL    HW1 1931   2.195   5.200   0.840
  344SOL    HW2 1932   2.270   5.274   0.715
  345SOL     OW 1933   0.216   0.628   5.885
  345SOL    HW1 1934   0.142   0.625   5.818
  345SOL    HW2 1935   0.303   0.608   5.840
  346SOL     OW 1936   1.626   0.643   2.244
  346SOL    HW1 1937   1.531   0.667   2.223
  346SOL    HW2 1938   1.628   0.593   2.331
  347SOL     OW 1939   5.525   0.184   6.537
  347SOL    HW1 1940   5.621   0.208   6.523
  347SOL    HW2 1941   5.519   0.090   6.572
  348SOL     OW 1942   4.127   5.095   1.674
  348SOL    HW1 1943   4.089   5.048   1.595
  348SOL    HW2 1944   4.115   5.194   1.662
  349SOL     OW 1945   0.092   4.559   2.291
  349SOL    HW1 1946   0.017   4.611   2.252
  349SOL    HW2 1947   0.173   4.569   2.234
  350SOL     OW 1948   3.862   3.691   1.445
  350SOL    HW1 1949   3.929   3.700   1.519
  350SOL    HW2 1950   3.904   3.642   1.368
  351SOL     OW 1951   2.811   2.076   0.599
  351SOL    HW1 1952   2.851   2.061   0.508
  351SOL    HW2 1953   2.734   2.139   0.592
  352SOL     OW 1954   3.734   0.878   4.972
  352SOL    HW1 1955   3.664   0.947   4.953
  352SOL    HW2 1956   3.748   0.822   4.891
  353SOL     OW 1957   2.175   6.919   0.345
  353SOL    HW1 1958   2.130   6.829   0.347
  353SOL    HW2 1959   2.214   6.934   0.255
  354SOL     OW 1960   4.137   2.414   0.769
  354SOL    HW1 1961   4.057   2.354   0.770
  354SOL    HW2 1962   4.111   2.504   0.806
  355SOL     OW 1963   6.420   3.038   2.992
  355SOL    HW1 1964   6.480   3.078   3.061
  355SOL    HW2 1965   6.451   3.066   2.901
  356SOL     OW 1966   4.419   5.411   4.953
  356SOL    HW1 1967   4.498   5.375   4.902
  356SOL    HW2 1968   4.450   5.480   5.018
  357SOL     OW 1969   0.386   6.123   5.570
  357SOL    HW1 1970   0.408   6.157   5.662
  357SOL    HW2 1971   0.378   6.200   5.507
  358SOL     OW 1972   6.307   0.203   1.147
  358SOL    HW1 1973   6.218   0.214   1.191
  358SOL    HW2 1974   6.376   0.254   1.199
  359SOL     OW 1975   1.643   2.474   2.294
  359SOL    HW1 1976   1.663   2.523   2.378
  359SOL    HW2 1977   1.554   2.428   2.302
  360SOL     OW 1978   3.267   6.432   6.066
  360SOL    HW1 1979   3.236   6.337   6.063
  360SOL    HW2 1980   3.191   6.493   6.044
  361SOL     OW 1981   5.861   5.676   3.258
  361SOL    HW1 1982   5.774   5.630   3.275
  361SOL    HW2 1983   5.929   5.609   3.228
  362SOL     OW 1984   2.940   4.238   0.268
  362SOL    HW1 1985   2.862   4.256   0.208
  362SOL    HW2 1986   3.000   4.171   0.225
  363SOL     OW 1987   3.574   4.914   4.080
  363SOL    HW1 1988   3.492   4.923   4.025
  363SOL    HW2 1989   3.654   4.942   4.026
  364SOL     OW 1990   0.798   5.980   5.724
  364SOL    HW1 1991   0.710   5.957   5.683
  364SOL    HW2 1992   0.869   5.920   5.687
  365SOL     OW 1993   5.071   6.444   3.167
  365SOL    HW1 1994   5.012   6.365   3.153
  365SOL    HW2 1995   5.128   6.429   3.248
  366SOL     OW 1996   5.751   1.245   6.839
  366SOL    HW1 1997   5.671   1.225   6.897
  366SOL    HW2 1998   5.834   1.238   6.895
  367SOL     OW 1999   4.992   3.092   0.950
  367SOL    HW1 2000   5.000   3.054   1.043
  367SOL    HW2 2001   4.896   3.110   0.929
  368SOL     OW 2002   1.561   4.647   4.937
  368SOL    HW1 2003   1.544   4.650   4.838
  368SOL    HW2 2004   1.474   4.639   4.985
  369SOL     OW 2005   6.275   4.260   1.769
  369SOL    HW1 2006   6.206   4.217   1.710
  369SOL    HW2 2007   6.257   4.359   1.774
  370SOL     OW 2008   2.907   0.519   5.387
  370SOL    HW1 2009   2.820   0.520   5.436
  370SOL    HW2 2010   2.948   0.610   5.389
  371SOL     OW 2011   2.299   3.465   6.861
  371SOL    HW1 2012   2.393   3.488   6.888
  371SOL    HW2 2013   2.268   3.387   6.916
  372SOL     OW 2014   0.198   0.351   4.839
  372SOL    HW1 2015   0.244   0.418   4.781
  372SOL    HW2 2016   0.145   0.399   4.909
  373SOL     OW 2017   0.266   6.576   6.369
  373SOL    HW1 2018   0.235   6.506   6.434
  373SOL    HW2 2019   0.366   6.576   6.365
  374SOL     OW 2020   4.203   0.223   2.358
  374SOL    HW1 2021   4.124   0.221   2.296
  374SOL    HW2 2022   4.172   0.245   2.450
  375SOL     OW 2023   6.896   4.623   4.112
  375SOL    HW1 2024   6.824   4.632   4.043
  375SOL    HW2 2025   6.857   4.587   4.196
  376SOL     OW 2026   1.934   2.957   3.906
  376SOL    HW1 2027   1.886   2.963   3.818
  376SOL    HW2 2028   1.894   3.022   3.970
  377SOL     OW 2029   5.227   2.333   2.739
  377SOL    HW1 2030   5.326   2.334   2.743
  377SOL    HW2 2031   5.197   2.342   2.644
  378SOL     OW 2032   3.808   3.008   5.672
  378SOL    HW1 2033   3.810   2.935   5.604
  378SOL    HW2 2034   3.717   3.049   5.676
  379SOL     OW 2035   5.982   3.452   1.316
  379SOL    HW1 2036   5.981   3.362   1.272
  379SOL    HW2 2037   5.895   3.466   1.364
  380SOL     OW 2038   1.463   1.759   1.046
  380SOL    HW1 2039   1.366   1.737   1.059
  380SOL    HW2 2040   1.519   1.686   1.086
  381SOL     OW 2041   2.484   5.083   2.069
  381SOL    HW1 2042   2.473   5.054   2.163
  381SOL    HW2 2043   2.579   5.107   2.052
  382SOL     OW 2044   3.142   6.175   0.237
  382SOL    HW1 2045   3.046   6.204   0.238
  382SOL    HW2 2046   3.159   6.113   0.314
  383SOL     OW 2047   6.531   2.766   6.865
  383SOL    HW1 2048   6.592   2.706   6.814
  383SOL    HW2 2049   6.480   2.825   6.802
  384SOL     OW 2050   0.998   5.019   5.390
  384SOL    HW1 2051   1.070   5.085   5.366
  384SOL    HW2 2052   0.983   5.020   5.488
  385SOL     OW 2053   4.903   6.445   0.329
  385SOL    HW1 2054   4.928   6.540   0.350
  385SOL    HW2 2055   4.980   6.399   0.285
  386SOL     OW 2056   4.104   6.900   5.143
  386SOL    HW1 2057   4.087   6.966   5.217
  386SOL    HW2 2058   4.190   6.853   5.160
  387SOL     OW 2059   0.095   0.033   3.935
  387SOL    HW1 2060   0.043   6.985   3.978
  387SOL    HW2 2061   0.129   0.002   3.846
  388SOL     OW 2062   6.780   2.817   5.143
  388SOL    HW1 2063   6.772   2.907   5.099
  388SOL    HW2 2064   6.691   2.772   5.144
  389SOL     OW 2065   4.268   4.351   1.669
  389SOL    HW1 2066   4.196   4.293   1.630
  389SOL    HW2 2067   4.327   4.295   1.727
  390SOL     OW 2068   3.687   1.071   0.967
  390SOL    HW1 2069   3.683   1.154   0.912
  390SOL    HW2 2070   3.709   1.095   1.062
  391SOL     OW 2071   2.885   4.237   5.725
  391SOL    HW1 2072   2.808   4.291   5.761
  391SOL    HW2 2073   2.851   4.175   5.654
  392SOL     OW 2074   1.321   3.592   2.327
  392SOL    HW1 2075   1.383   3.586   2.406
  392SOL    HW2 2076   1.262   3.511   2.326
  393SOL     OW 2077   0.762   4.699   1.117
  393SOL    HW1 2078   0.769   4.605   1.084
  393SOL    HW2 2079   0.723   4.756   1.046
  394SOL     OW 2080   6.812   2.976   0.044
  394SOL    HW1 2081   6.847   3.023   6.988
  394SOL    HW2 2082   6.874   2.901   0.068
  395SOL     OW 2083   4.738   4.468   1.989
  395SOL    HW1 2084   4.672   4.396   2.011
  395SOL    HW2 2085   4.824   4.426   1.960
  396SOL     OW 2086   3.014   2.088   2.064
  396SOL    HW1 2087   2.969   2.174   2.038
  396SOL    HW2 2088   2.957   2.038   2.129
  397SOL     OW 2089   4.849   1.087   5.286
  397SOL    HW1 2090   4.837   0.995   5.248
  397SOL    HW2 2091   4.923   1.134   5.238
  398SOL     OW 2092   1.235   0.517   4.652
  398SOL    HW1 2093   1.280   0.488   4.737
  398SOL    HW2 2094   1.144   0.476   4.648
  399SOL     OW 2095   5.480   5.871   4.018
  399SOL    HW1 2096   5.421   5.950   4.010
  399SOL    HW2 2097   5.468   5.812   3.938
  400SOL     OW 2098   6.310   0.412   4.770
  400SOL    HW1 2099   6.354   0.436   4.684
  400SOL    HW2 2100   6.312   0.491   4.832
  401SOL     OW 2101   6.646   0.045   5.404
  401SOL    HW1 2102   6.575   7.008   5.437
  401SOL    HW2 2103   6.691   0.089   5.482
  402SOL     OW 2104   6.323   0.186   2.561
  402SOL    HW1 2105   6.413   0.221   2.537
  402SOL    HW2 2106   6.289   0.233   2.643
  403SOL     OW 2107   2.969   0.847   6.453
  403SOL    HW1 2108   2.894   0.889   6.402
  403SOL    HW2 2109   2.939   0.824   6.545
  404SOL     OW 2110   3.571   6.342   5.888
  404SOL    HW1 2111   3.604   6.284   5.962
  404SOL    HW2 2112   3.641   6.410   5.866
  405SOL     OW 2113   1.761   3.945   3.252
  405SOL    HW1 2114   1.813   3.907   3.175
  405SOL    HW2 2115   1.782   4.042   3.262
  406SOL     OW 2116   1.107   5.325   5.650
  406SOL    HW1 2117   1.108   5.371   5.562
  406SOL    HW2 2118   1.198   5.288   5.670
  407SOL     OW 2119   1.384   3.310   3.732
  407SOL    HW1 2120   1.381   3.309   3.832
  407SOL    HW2 2121   1.449   3.380   3.702
  408SOL     OW 2122   3.319   1.813   2.991
  408SOL    HW1 2123   3.344   1.907   2.965
  408SOL    HW2 2124   3.400   1.765   3.022
  409SOL     OW 2125   1.045   3.806   2.415
  409SOL    HW1 2126   1.109   3.800   2.491
  409SOL    HW2 2127   1.018   3.902   2.402
  410SOL     OW 2128   1.483   2.576   1.027
  410SOL    HW1 2129   1.418   2.600   1.099
  410SOL    HW2 2130   1.442   2.508   0.966
  411SOL     OW 2131   0.415   1.800   1.655
  411SOL    HW1 2132   0.394   1.781   1.559
  411SOL    HW2 2133   0.340   1.852   1.696
  412SOL     OW 2134   2.671   4.961   2.991
  412SOL    HW1 2135   2.648   4.881   3.047
  412SOL    HW2 2136   2.737   4.936   2.921
  413SOL     OW 2137   3.906   5.151   2.183
  413SOL    HW1 2138   3.981   5.176   2.122
  413SOL    HW2 2139   3.854   5.075   2.142
  414SOL     OW 2140   2.459   6.920   4.054
  414SOL    HW1 2141   2.438   6.948   3.960
  414SOL    HW2 2142   2.471   7.001   4.111
  415SOL     OW 2143   6.510   0.896   0.908
  415SOL    HW1 2144   6.580   0.947   0.959
  415SOL    HW2 2145   6.419   0.930   0.933
  416SOL     OW 2146   4.890   3.861   4.940
  416SOL    HW1 2147   4.859   3.769   4.963
  416SOL    HW2 2148   4.951   3.895   5.011
  417SOL     OW 2149   3.199   2.525   6.941
  417SOL    HW1 2150   3.131   2.464   6.900
  417SOL    HW2 2151   3.288   2.511   6.896
  418SOL     OW 2152   3.737   0.014   4.268
  418SOL    HW1 2153   3.694   6.949   4.272
  418SOL    HW2 2154   3.685   0.073   4.207
  419SOL     OW 2155   0.731   6.963   1.533
  419SOL    HW1 2156   0.656   6.955   1.599
  419SOL    HW2 2157   0.802   7.022   1.571
  420SOL     OW 2158   5.646   0.512   6.643
  420SOL    HW1 2159   5.684   0.419   6.634
  420SOL    HW2 2160   5.651   0.558   6.555
  421SOL     OW 2161   5.113   4.132   4.152
  421SOL    HW1 2162   5.158   4.193   4.087
  421SOL    HW2 2163   5.054   4.185   4.213
  422SOL     OW 2164   5.226   2.637   1.416
  422SOL    HW1 2165   5.316   2.670   1.388
  422SOL    HW2 2166   5.157   2.672   1.352
  423SOL     OW 2167   2.938   1.593   6.033
  423SOL    HW1 2168   3.022   1.647   6.024
  423SOL    HW2 2169   2.945   1.512   5.974
  424SOL     OW 2170   1.578   4.495   3.132
  424SOL    HW1 2171   1.670   4.535   3.134
  424SOL    HW2 2172   1.530   4.518   3.217
  425SOL     OW 2173   3.853   0.374   5.610
  425SOL    HW1 2174   3.781   0.304   5.613
  425SOL    HW2 2175   3.813   0.462   5.585
  426SOL     OW 2176   2.319   2.183   4.921
  426SOL    HW1 2177   2.267   2.211   5.001
  426SOL    HW2 2178   2.404   2.236   4.916
  427SOL     OW 2179   4.126   1.601   3.337
  427SOL    HW1 2180   4.117   1.512   3.292
  427SOL    HW2 2181   4.040   1.625   3.381
  428SOL     OW 2182   2.708   1.242   5.442
  428SOL    HW1 2183   2.795   1.232   5.392
  428SOL    HW2 2184   2.634   1.256   5.376
  429SOL     OW 2185   1.176   5.837   3.226
  429SOL    HW1 2186   1.153   5.742   3.210
  429SOL    HW2 2187   1.219   5.875   3.145
  430SOL     OW 2188   2.009   0.163   3.926
  430SOL    HW1 2189   1.961   0.215   3.996
  430SOL    HW2 2190   2.035   0.074   3.963
  431SOL     OW 2191   2.706   2.230   1.277
  431SOL    HW1 2192   2.650   2.148   1.287
  431SOL    HW2 2193   2.678   2.281   1.196
  432SOL     OW 2194   4.150   2.039   1.477
  432SOL    HW1 2195   4.204   2.119   1.503
  432SOL    HW2 2196   4.193   1.993   1.400
  433SOL     OW 2197   2.099   6.808   0.034
  433SOL    HW1 2198   2.108   6.906   0.051
  433SOL    HW2 2199   2.164   6.757   0.090
  434SOL     OW 2200   4.302   6.413   4.072
  434SOL    HW1 2201   4.214   6.418   4.024
  434SOL    HW2 2202   4.285   6.406   4.170
  435SOL     OW 2203   3.580   1.645   6.155
  435SOL    HW1 2204   3.532   1.722   6.196
  435SOL    HW2 2205   3.589   1.660   6.057
  436SOL     OW 2206   3.899   6.599   3.737
  436SOL    HW1 2207   3.987   6.591   3.690
  436SOL    HW2 2208   3.848   6.676   3.699
  437SOL     OW 2209   0.463   0.570   4.363
  437SOL    HW1 2210   0.371   0.534   4.350
  437SOL    HW2 2211   0.526   0.524   4.299
  438SOL     OW 2212   0.996   4.408   2.857
  438SOL    HW1 2213   1.095   4.393   2.853
  438SOL    HW2 2214   0.962   4.385   2.948
  439SOL     OW 2215   5.551   0.627   3.280
  439SOL    HW1 2216   5.460   0.666   3.267
  439SOL    HW2 2217   5.588   0.599   3.191
  440SOL     OW 2218   4.608   1.052   6.839
  440SOL    HW1 2219   4.592   1.144   6.803
  440SOL    HW2 2220   4.673   1.004   6.780
  441SOL     OW 2221   6.922   4.266   2.487
  441SOL    HW1 2222   6.882   4.314   2.409
  441SOL    HW2 2223   6.862   4.275   2.566
  442SOL     OW 2224   5.641   3.767   5.355
  442SOL    HW1 2225   5.669   3.682   5.311
  442SOL    HW2 2226   5.716   3.834   5.348
  443SOL     OW 2227   5.116   4.396   3.045
  443SOL    HW1 2228   5.136   4.386   3.143
  443SOL    HW2 2229   5.111   4.306   3.003
  444SOL     OW 2230   3.951   1.083   1.287
  444SOL    HW1 2231   3.943   1.149   1.212
  444SOL    HW2 2232   4.036   1.032   1.277
  445SOL     OW 2233   1.890   5.323   2.562
  445SOL    HW1 2234   1.855   5.230   2.548
  445SOL    HW2 2235   1.983   5.317   2.599
  446SOL     OW 2236   6.026   6.662   2.674
  446SOL    HW1 2237   5.958   6.731   2.649
  446SOL    HW2 2238   6.056   6.613   2.592
  447SOL     OW 2239   5.979   3.701   0.003
  447SOL    HW1 2240   5.926   3.644   0.067
  447SOL    HW2 2241   5.968   3.666   6.936
  448SOL     OW 2242   2.826   0.880   2.715
  448SOL    HW1 2243   2.739   0.919   2.685
  448SOL    HW2 2244   2.901   0.941   2.689
  449SOL     OW 2245   1.985   2.623   4.275
  449SOL    HW1 2246   1.924   2.566   4.220
  449SOL    HW2 2247   1.972   2.719   4.251
  450SOL     OW 2248   1.243   4.097   2.928
  450SOL    HW1 2249   1.296   4.181   2.937
  450SOL    HW2 2250   1.146   4.116   2.946
  451SOL     OW 2251   0.989   2.398   3.296
  451SOL    HW1 2252   1.045   2.373   3.374
  451SOL    HW2 2253   0.961   2.315   3.247
  452SOL     OW 2254   4.119   6.493   3.477
  452SOL    HW1 2255   4.074   6.409   3.447
  452SOL    HW2 2256   4.136   6.552   3.398
  453SOL     OW 2257   4.430   0.158   0.142
  453SOL    HW1 2258   4.481   0.084   0.097
  453SOL    HW2 2259   4.332   0.136   0.141
  454SOL     OW 2260   7.021   4.633   6.858
  454SOL    HW1 2261   0.082   4.680   6.880
  454SOL    HW2 2262   7.007   4.635   6.760
  455SOL     OW 2263   6.516   4.612   5.925
  455SOL    HW1 2264   6.563   4.696   5.950
  455SOL    HW2 2265   6.547   4.581   5.835
  456SOL     OW 2266   3.036   1.392   2.814
  456SOL    HW1 2267   2.952   1.382   2.867
  456SOL    HW2 2268   3.096   1.458   2.858
  457SOL     OW 2269   2.559   6.614   6.219
  457SOL    HW1 2270   2.521   6.527   6.188
  457SOL    HW2 2271   2.555   6.618   6.319
  458SOL     OW 2272   1.737   2.040   3.009
  458SOL    HW1 2273   1.703   1.967   2.950
  458SOL    HW2 2274   1.813   2.004   3.064
  459SOL     OW 2275   2.305   0.095   4.883
  459SOL    HW1 2276   2.350   0.031   4.820
  459SOL    HW2 2277   2.295   0.184   4.839
  460SOL     OW 2278   1.250   1.898   4.572
  460SOL    HW1 2279   1.272   1.851   4.658
  460SOL    HW2 2280   1.151   1.908   4.563
  461SOL     OW 2281   0.987   4.652   6.022
  461SOL    HW1 2282   0.991   4.552   6.024
  461SOL    HW2 2283   1.011   4.684   5.931
  462SOL     OW 2284   3.230   3.625   4.541
  462SOL    HW1 2285   3.155   3.669   4.589
  462SOL    HW2 2286   3.254   3.540   4.588
  463SOL     OW 2287   6.105   6.506   2.445
  463SOL    HW1 2288   6.204   6.500   2.429
  463SOL    HW2 2289   6.066   6.414   2.442
  464SOL     OW 2290   3.233   6.314   6.560
  464SOL    HW1 2291   3.310   6.378   6.567
  464SOL    HW2 2292   3.265   6.221   6.572
  465SOL     OW 2293   1.622   2.536   0.339
  465SOL    HW1 2294   1.683   2.478   0.393
  465SOL    HW2 2295   1.608   2.494   0.249
  466SOL     OW 2296   3.504   5.943   4.828
  466SOL    HW1 2297   3.507   6.039   4.856
  466SOL    HW2 2298   3.586   5.897   4.860
  467SOL     OW 2299   6.489   1.065   2.310
  467SOL    HW1 2300   6.547   1.048   2.389
  467SOL    HW2 2301   6.417   0.995   2.306
  468SOL     OW 2302   4.016   0.061   6.783
  468SOL    HW1 2303   4.021   6.998   6.830
  468SOL    HW2 2304   4.030   0.135   6.849
  469SOL     OW 2305   2.706   5.062   5.977
  469SOL    HW1 2306   2.611   5.091   5.981
  469SOL    HW2 2307   2.743   5.053   6.069
  470SOL     OW 2308   2.643   5.107   3.312
  470SOL    HW1 2309   2.697   5.047   3.253
  470SOL    HW2 2310   2.684   5.198   3.314
  471SOL     OW 2311   2.661   2.162   4.204
  471SOL    HW1 2312   2.638   2.065   4.205
  471SOL    HW2 2313   2.602   2.209   4.139
  472SOL     OW 2314   6.137   4.373   6.141
  472SOL    HW1 2315   6.218   4.336   6.096
  472SOL    HW2 2316   6.056   4.328   6.104
  473SOL     OW 2317   7.013   2.264   2.424
  473SOL    HW1 2318   0.069   2.323   2.415
  473SOL    HW2 2319   6.954   2.277   2.344
  474SOL     OW 2320   5.663   6.251   4.377
  474SOL    HW1 2321   5.680   6.330   4.435
  474SOL    HW2 2322   5.586   6.198   4.414
  475SOL     OW 2323   5.881   1.314   0.992
  475SOL    HW1 2324   5.851   1.354   0.905
  475SOL    HW2 2325   5.931   1.382   1.045
  476SOL     OW 2326   0.645   3.980   1.773
  476SOL    HW1 2327   0.716   3.929   1.725
  476SOL    HW2 2328   0.638   4.072   1.736
  477SOL     OW 2329   1.794   4.871   3.809
  477SOL    HW1 2330   1.864   4.816   3.762
  477SOL    HW2 2331   1.705   4.828   3.798
  478SOL     OW 2332   4.752   5.774   2.240
  478SOL    HW1 2333   4.729   5.872   2.238
  478SOL    HW2 2334   4.849   5.763   2.219
  479SOL     OW 2335   4.073   3.795   4.137
  479SOL    HW1 2336   4.086   3.722   4.203
  479SOL    HW2 2337   4.162   3.832   4.109
  480SOL     OW 2338   1.849   6.917   2.768
  480SOL    HW1 2339   1.843   7.017   2.776
  480SOL    HW2 2340   1.942   6.888   2.789
  481SOL     OW 2341   0.461   6.770   0.577
  481SOL    HW1 2342   0.533   6.704   0.600
  481SOL    HW2 2343   0.502   6.849   0.531
  482SOL     OW 2344   5.139   4.632   1.859
  482SOL    HW1 2345   5.068   4.564   1.878
  482SOL    HW2 2346   5.180   4.661   1.946
  483SOL     OW 2347   6.030   2.183   3.104
  483SOL    HW1 2348   6.094   2.227   3.041
  483SOL    HW2 2349   6.063   2.090   3.125
  484SOL     OW 2350   2.152   4.292   4.150
  484SOL    HW1 2351   2.196   4.280   4.061
  484SOL    HW2 2352   2.060   4.329   4.138
  485SOL     OW 2353   5.289   3.217   2.158
  485SOL    HW1 2354   5.257   3.123   2.173
  485SOL    HW2 2355   5.342   3.222   2.074
  486SOL     OW 2356   6.158   6.350   6.087
  486SOL    HW1 2357   6.226   6.382   6.021
  486SOL    HW2 2358   6.195   6.271   6.136
  487SOL     OW 2359   0.036   6.457   4.597
  487SOL    HW1 2360   6.967   6.428   4.584
  487SOL    HW2 2361   0.041   6.557   4.595
  488SOL     OW 2362   1.568   6.154   3.505
  488SOL    HW1 2363   1.469   6.160   3.519
  488SOL    HW2 2364   1.613   6.230   3.553
  489SOL     OW 2365   0.111   5.610   5.937
  489SOL    HW1 2366   0.062   5.662   6.006
  489SOL    HW2 2367   0.179   5.551   5.981
  490SOL     OW 2368   1.521   4.747   5.690
  490SOL    HW1 2369   1.442   4.751   5.629
  490SOL    HW2 2370   1.570   4.834   5.686
  491SOL     OW 2371   0.474   2.563   0.841
  491SOL    HW1 2372   0.433   2.575   0.750
  491SOL    HW2 2373   0.566   2.525   0.831
  492SOL     OW 2374   1.415   1.719   5.665
  492SOL    HW1 2375   1.347   1.703   5.593
  492SOL    HW2 2376   1.462   1.634   5.686
  493SOL     OW 2377   2.177   6.219   5.009
  493SOL    HW1 2378   2.135   6.145   4.957
  493SOL    HW2 2379   2.249   6.262   4.955
  494SOL     OW 2380   2.302   6.682   5.106
  494SOL    HW1 2381   2.274   6.649   5.016
  494SOL    HW2 2382   2.364   6.617   5.148
  495SOL     OW 2383   3.707   5.786   5.495
  495SOL    HW1 2384   3.772   5.776   5.419
  495SOL    HW2 2385   3.713   5.706   5.555
  496SOL     OW 2386   4.909   1.520   2.760
  496SOL    HW1 2387   4.905   1.444   2.825
  496SOL    HW2 2388   4.816   1.553   2.742
  497SOL     OW 2389   3.327   0.866   6.642
  497SOL    HW1 2390   3.282   0.799   6.700
  497SOL    HW2 2391   3.390   0.921   6.698
  498SOL     OW 2392   0.581   5.763   1.663
  498SOL    HW1 2393   0.560   5.768   1.566
  498SOL    HW2 2394   0.527   5.690   1.705
  499SOL     OW 2395   3.626   5.895   0.137
  499SOL    HW1 2396   3.681   5.876   0.057
  499SOL    HW2 2397   3.537   5.932   0.109
  500SOL     OW 2398   5.891   1.997   0.306
  500SOL    HW1 2399   5.832   2.072   0.276
  500SOL    HW2 2400   5.869   1.914   0.254
  501SOL     OW 2401   0.800   0.126   2.824
  501SOL    HW1 2402   0.801   0.036   2.779
  501SOL    HW2 2403   0.844   0.120   2.913
  502SOL     OW 2404   2.098   5.003   6.730
  502SOL    HW1 2405   2.102   4.904   6.715
  502SOL    HW2 2406   2.025   5.042   6.674
  503SOL     OW 2407   3.521   5.296   0.310
  503SOL    HW1 2408   3.523   5.323   0.214
  503SOL    HW2 2409   3.597   5.234   0.329
  504SOL     OW 2410   5.815   6.532   2.383
  504SOL    HW1 2411   5.818   6.470   2.305
  504SOL    HW2 2412   5.866   6.493   2.459
  505SOL     OW 2413   5.154   6.658   5.131
  505SOL    HW1 2414   5.193   6.592   5.194
  505SOL    HW2 2415   5.193   6.644   5.040
  506SOL     OW 2416   3.675   5.542   2.678
  506SOL    HW1 2417   3.758   5.492   2.651
  506SOL    HW2 2418   3.692   5.589   2.765
  507SOL     OW 2419   3.538   0.757   1.239
  507SOL    HW1 2420   3.510   0.772   1.144
  507SOL    HW2 2421   3.635   0.777   1.248
  508SOL     OW 2422   0.281   4.664   4.302
  508SOL    HW1 2423   0.272   4.631   4.208
  508SOL    HW2 2424   0.365   4.718   4.310
  509SOL     OW 2425   4.399   6.933   6.423
  509SOL    HW1 2426   4.319   6.989   6.444
  509SOL    HW2 2427   4.415   6.868   6.498
  510SOL     OW 2428   6.791   4.392   0.065
  510SOL    HW1 2429   6.739   4.355   0.141
  510SOL    HW2 2430   6.821   4.318   0.006
  511SOL     OW 2431   0.949   1.884   0.291
  511SOL    HW1 2432   0.935   1.900   0.194
  511SOL    HW2 2433   1.037   1.839   0.305
  512SOL     OW 2434   6.491   2.267   6.485
  512SOL    HW1 2435   6.412   2.216   6.452
  512SOL    HW2 2436   6.513   2.238   6.578
  513SOL     OW 2437   5.430   0.262   2.918
  513SOL    HW1 2438   5.388   0.272   3.008
  513SOL    HW2 2439   5.488   0.180   2.917
  514SOL     OW 2440   6.445   6.822   4.270
  514SOL    HW1 2441   6.487   6.732   4.255
  514SOL    HW2 2442   6.380   6.815   4.346
  515SOL     OW 2443   3.556   6.762   6.821
  515SOL    HW1 2444   3.467   6.727   6.791
  515SOL    HW2 2445   3.588   6.832   6.757
  516SOL     OW 2446   2.298   5.564   1.580
  516SOL    HW1 2447   2.276   5.544   1.675
  516SOL    HW2 2448   2.389   5.605   1.575
  517SOL     OW 2449   3.188   5.078   2.343
  517SOL    HW1 2450   3.254   5.086   2.417
  517SOL    HW2 2451   3.222   5.127   2.262
  518SOL     OW 2452   2.225   3.088   3.437
  518SOL    HW1 2453   2.219   3.172   3.491
  518SOL    HW2 2454   2.224   3.009   3.499
  519SOL     OW 2455   0.513   6.772   3.455
  519SOL    HW1 2456   0.446   6.721   3.401
  519SOL    HW2 2457   0.604   6.734   3.438
  520SOL     OW 2458   1.427   2.782   0.102
  520SOL    HW1 2459   1.481   2.809   0.181
  520SOL    HW2 2460   1.338   2.829   0.104
  521SOL     OW 2461   5.148   4.996   5.361
  521SOL    HW1 2462   5.064   5.006   5.307
  521SOL    HW2 2463   5.227   4.995   5.301
  522SOL     OW 2464   4.157   3.792   1.374
  522SOL    HW1 2465   4.127   3.807   1.468
  522SOL    HW2 2466   4.098   3.843   1.311
  523SOL     OW 2467   0.162   6.726   1.455
  523SOL    HW1 2468   0.222   6.674   1.517
  523SOL    HW2 2469   0.218   6.785   1.397
  524SOL     OW 2470   6.690   2.445   2.068
  524SOL    HW1 2471   6.612   2.507   2.082
  524SOL    HW2 2472   6.711   2.440   1.970
  525SOL     OW 2473   1.442   3.707   6.757
  525SOL    HW1 2474   1.480   3.784   6.809
  525SOL    HW2 2475   1.360   3.737   6.709
  526SOL     OW 2476   3.214   0.299   4.679
  526SOL    HW1 2477   3.182   0.204   4.673
  526SOL    HW2 2478   3.252   0.315   4.770
  527SOL     OW 2479   1.091   2.091   0.054
  527SOL    HW1 2480   1.100   2.163   7.011
  527SOL    HW2 2481   1.001   2.048   0.046
  528SOL     OW 2482   6.858   3.055   4.172
  528SOL    HW1 2483   6.758   3.065   4.172
  528SOL    HW2 2484   6.881   2.958   4.173
  529SOL     OW 2485   2.246   0.465   5.725
  529SOL    HW1 2486   2.266   0.490   5.820
  529SOL    HW2 2487   2.331   0.440   5.679
  530SOL     OW 2488   3.609   3.353   1.326
  530SOL    HW1 2489   3.532   3.406   1.290
  530SOL    HW2 2490   3.592   3.331   1.422
  531SOL     OW 2491   2.124   0.732   2.172
  531SOL    HW1 2492   2.204   0.777   2.134
  531SOL    HW2 2493   2.149   0.641   2.206
  532SOL     OW 2494   3.330   2.719   0.211
  532SOL    HW1 2495   3.349   2.699   0.307
  532SOL    HW2 2496   3.416   2.719   0.159
  533SOL     OW 2497   3.896   0.428   3.818
  533SOL    HW1 2498   3.976   0.373   3.843
  533SOL    HW2 2499   3.924   0.522   3.802
  534SOL     OW 2500   0.681   5.573   1.182
  534SOL    HW1 2501   0.737   5.499   1.218
  534SOL    HW2 2502   0.604   5.534   1.130
  535SOL     OW 2503   5.510   3.911   3.137
  535SOL    HW1 2504   5.591   3.863   3.104
  535SOL    HW2 2505   5.476   3.972   3.065
  536SOL     OW 2506   6.509   6.190   3.297
  536SOL    HW1 2507   6.588   6.140   3.261
  536SOL    HW2 2508   6.516   6.195   3.397
  537SOL     OW 2509   3.307   0.811   4.211
  537SOL    HW1 2510   3.210   0.794   4.230
  537SOL    HW2 2511   3.322   0.807   4.112
  538SOL     OW 2512   2.337   5.060   5.500
  538SOL    HW1 2513   2.339   5.159   5.495
  538SOL    HW2 2514   2.243   5.027   5.485
  539SOL     OW 2515   0.806   6.153   0.472
  539SOL    HW1 2516   0.794   6.185   0.566
  539SOL    HW2 2517   0.741   6.200   0.412
  540SOL     OW 2518   1.309   0.573   3.533
  540SOL    HW1 2519   1.304   0.547   3.630
  540SOL    HW2 2520   1.229   0.537   3.485
  541SOL     OW 2521   3.826   6.303   4.566
  541SOL    HW1 2522   3.846   6.219   4.616
  541SOL    HW2 2523   3.867   6.298   4.475
  542SOL     OW 2524   2.813   6.630   6.895
  542SOL    HW1 2525   2.757   6.655   6.816
  542SOL    HW2 2526   2.889   6.694   6.903
  543SOL     OW 2527   5.803   2.708   3.988
  543SOL    HW1 2528   5.774   2.751   3.902
  543SOL    HW2 2529   5.902   2.699   3.989
  544SOL     OW 2530   0.345   4.681   0.308
  544SOL    HW1 2531   0.380   4.764   0.262
  544SOL    HW2 2532   0.270   4.706   0.368
  545SOL     OW 2533   5.167   1.479   1.621
  545SOL    HW1 2534   5.176   1.474   1.521
  545SOL    HW2 2535   5.130   1.392   1.655
  546SOL     OW 2536   0.284   4.182   2.274
  546SOL    HW1 2537   0.227   4.152   2.350
  546SOL    HW2 2538   0.324   4.102   2.229
  547SOL     OW 2539   4.478   1.531   6.959
  547SOL    HW1 2540   4.505   1.624   6.932
  547SOL    HW2 2541   4.437   1.533   0.024
  548SOL     OW 2542   3.673   2.960   6.874
  548SOL    HW1 2543   3.769   2.970   6.899
  548SOL    HW2 2544   3.623   2.916   6.949
  549SOL     OW 2545   6.455   2.175   0.605
  549SOL    HW1 2546   6.452   2.212   0.512
  549SOL    HW2 2547   6.548   2.144   0.626
  550SOL     OW 2548   6.979   4.593   2.794
  550SOL    HW1 2549   7.015   4.567   2.705
  550SOL    HW2 2550   0.027   4.592   2.862
  551SOL     OW 2551   6.867   0.907   0.340
  551SOL    HW1 2552   6.937   0.942   0.402
  551SOL    HW2 2553   6.781   0.895   0.390
  552SOL     OW 2554   5.532   5.636   5.604
  552SOL    HW1 2555   5.440   5.646   5.564
  552SOL    HW2 2556   5.525   5.635   5.703
  553SOL     OW 2557   3.385   1.225   5.987
  553SOL    HW1 2558   3.336   1.138   5.982
  553SOL    HW2 2559   3.388   1.266   5.895
  554SOL     OW 2560   5.761   6.051   0.828
  554SOL    HW1 2561   5.727   5.957   0.833
  554SOL    HW2 2562   5.725   6.095   0.746
  555SOL     OW 2563   2.348   5.330   5.534
  555SOL    HW1 2564   2.289   5.400   5.492
  555SOL    HW2 2565   2.444   5.352   5.517
  556SOL     OW 2566   4.813   2.089   3.967
  556SOL    HW1 2567   4.777   1.997   3.985
  556SOL    HW2 2568   4.738   2.155   3.971
  557SOL     OW 2569   6.818   5.190   5.803
  557SOL    HW1 2570   6.790   5.270   5.856
  557SOL    HW2 2571   6.827   5.214   5.707
  558SOL     OW 2572   3.694   3.574   2.822
  558SOL    HW1 2573   3.596   3.555   2.820
  558SOL    HW2 2574   3.745   3.490   2.839
  559SOL     OW 2575   6.394   6.270   5.526
  559SOL    HW1 2576   6.338   6.302   5.603
  559SOL    HW2 2577   6.424   6.176   5.544
  560SOL     OW 2578   6.527   2.827   3.273
  560SOL    HW1 2579   6.438   2.803   3.233
  560SOL    HW2 2580   6.600   2.784   3.220
  561SOL     OW 2581   0.478   3.375   6.417
  561SOL    HW1 2582   0.577   3.363   6.413
  561SOL    HW2 2583   0.438   3.354   6.327
  562SOL     OW 2584   4.590   6.716   5.885
  562SOL    HW1 2585   4.501   6.760   5.879
  562SOL    HW2 2586   4.658   6.783   5.918
  563SOL     OW 2587   1.784   1.857   4.336
  563SOL    HW1 2588   1.743   1.815   4.418
  563SOL    HW2 2589   1.711   1.890   4.276
  564SOL     OW 2590   0.410   1.458   5.746
  564SOL    HW1 2591   0.319   1.419   5.740
  564SOL    HW2 2592   0.447   1.444   5.838
  565SOL     OW 2593   3.390   2.878   3.510
  565SOL    HW1 2594   3.377   2.946   3.583
  565SOL    HW2 2595   3.313   2.815   3.508
  566SOL     OW 2596   3.072   5.414   3.107
  566SOL    HW1 2597   3.143   5.401   3.038
  566SOL    HW2 2598   2.983   5.390   3.068
  567SOL     OW 2599   2.556   2.870   6.799
  567SOL    HW1 2600   2.529   2.779   6.766
  567SOL    HW2 2601   2.499   2.896   6.876
  568SOL     OW 2602   5.938   6.899   0.692
  568SOL    HW1 2603   5.902   6.862   0.606
  568SOL    HW2 2604   6.001   6.833   0.732
  569SOL     OW 2605   0.103   2.281   0.069
  569SOL    HW1 2606   0.058   2.341   0.003
  569SOL    HW2 2607   0.167   2.222   0.021
  570SOL     OW 2608   3.009   0.423   6.250
  570SOL    HW1 2609   2.980   0.355   6.182
  570SOL    HW2 2610   3.047   0.375   6.329
  571SOL     OW 2611   2.693   4.656   2.994
  571SOL    HW1 2612   2.786   4.679   2.966
  571SOL    HW2 2613   2.655   4.590   2.930
  572SOL     OW 2614   1.722   5.804   4.617
  572SOL    HW1 2615   1.700   5.764   4.706
  572SOL    HW2 2616   1.783   5.882   4.629
  573SOL     OW 2617   6.151   2.263   5.703
  573SOL    HW1 2618   6.114   2.217   5.622
  573SOL    HW2 2619   6.229   2.212   5.738
  574SOL     OW 2620   3.154   1.621   5.193
  574SOL    HW1 2621   3.191   1.714   5.196
  574SOL    HW2 2622   3.113   1.598   5.281
  575SOL     OW 2623   3.270   3.346   0.340
  575SOL    HW1 2624   3.186   3.333   0.287
  575SOL    HW2 2625   3.249   3.396   0.424
  576SOL     OW 2626   1.880   3.580   3.025
  576SOL    HW1 2627   1.926   3.574   3.114
  576SOL    HW2 2628   1.806   3.513   3.021
  577SOL     OW 2629   0.816   1.479   2.095
  577SOL    HW1 2630   0.770   1.496   2.008
  577SOL    HW2 2631   0.910   1.450   2.078
  578SOL     OW 2632   1.746   5.411   0.307
  578SOL    HW1 2633   1.659   5.446   0.272
  578SOL    HW2 2634   1.773   5.329   0.256
  579SOL     OW 2635   2.740   4.687   2.530
  579SOL    HW1 2636   2.737   4.680   2.431
  579SOL    HW2 2637   2.791   4.769   2.556
  580SOL     OW 2638   3.918   5.305   4.888
  580SOL    HW1 2639   3.989   5.298   4.818
  580SOL    HW2 2640   3.917   5.398   4.925
  581SOL     OW 2641   0.905   2.927   3.501
  581SOL    HW1 2642   0.949   2.847   3.459
  581SOL    HW2 2643   0.958   3.009   3.480
  582SOL     OW 2644   5.422   4.898   3.401
  582SOL    HW1 2645   5.441   4.888   3.499
  582SOL    HW2 2646   5.405   4.994   3.380
  583SOL     OW 2647   3.115   5.209   5.948
  583SOL    HW1 2648   3.190   5.235   5.887
  583SOL    HW2 2649   3.031   5.198   5.895
  584SOL     OW 2650   3.726   0.130   6.386
  584SOL    HW1 2651   3.796   0.087   6.443
  584SOL    HW2 2652   3.767   0.162   6.301
  585SOL     OW 2653   2.473   6.827   1.455
  585SOL    HW1 2654   2.562   6.849   1.496
  585SOL    HW2 2655   2.432   6.910   1.418
  586SOL     OW 2656   4.280   0.377   1.619
  586SOL    HW1 2657   4.291   0.295   1.675
  586SOL    HW2 2658   4.357   0.439   1.635
  587SOL     OW 2659   5.183   2.025   2.060
  587SOL    HW1 2660   5.273   2.068   2.067
  587SOL    HW2 2661   5.142   2.018   2.150
  588SOL     OW 2662   1.342   5.327   1.164
  588SOL    HW1 2663   1.390   5.376   1.091
  588SOL    HW2 2664   1.359   5.373   1.251
  589SOL     OW 2665   3.458   6.007   1.443
  589SOL    HW1 2666   3.418   5.919   1.415
  589SOL    HW2 2667   3.431   6.027   1.537
  590SOL     OW 2668   5.799   1.699   0.885
  590SOL    HW1 2669   5.823   1.621   0.827
  590SOL    HW2 2670   5.863   1.774   0.868
  591SOL     OW 2671   4.355   5.185   4.499
  591SOL    HW1 2672   4.364   5.285   4.501
  591SOL    HW2 2673   4.271   5.160   4.452
  592SOL     OW 2674   4.987   1.427   4.176
  592SOL    HW1 2675   4.943   1.516   4.163
  592SOL    HW2 2676   4.950   1.361   4.111
  593SOL     OW 2677   3.890   2.065   5.497
  593SOL    HW1 2678   3.830   2.080   5.576
  593SOL    HW2 2679   3.985   2.073   5.526
  594SOL     OW 2680   5.654   2.031   1.385
  594SOL    HW1 2681   5.561   2.057   1.408
  594SOL    HW2 2682   5.683   1.955   1.443
  595SOL     OW 2683   5.063   6.366   2.856
  595SOL    HW1 2684   5.040   6.385   2.761
  595SOL    HW2 2685   5.037   6.272   2.878
  596SOL     OW 2686   6.745   3.764   4.182
  596SOL    HW1 2687   6.780   3.795   4.270
  596SOL    HW2 2688   6.796   3.682   4.154
  597SOL     OW 2689   3.118   6.641   5.936
  597SOL    HW1 2690   3.151   6.704   6.007
  597SOL    HW2 2691   3.195   6.609   5.882
  598SOL     OW 2692   2.871   3.646   4.901
  598SOL    HW1 2693   2.791   3.601   4.940
  598SOL    HW2 2694   2.858   3.745   4.903
  599SOL     OW 2695   1.640   6.171   1.928
  599SOL    HW1 2696   1.739   6.162   1.927
  599SOL    HW2 2697   1.598   6.080   1.938
  600SOL     OW 2698   6.915   4.150   4.889
  600SOL    HW1 2699   7.005   4.122   4.854
  600SOL    HW2 2700   6.911   4.250   4.893
  601SOL     OW 2701   1.177   0.935   4.896
  601SOL    HW1 2702   1.181   0.904   4.801
  601SOL    HW2 2703   1.257   0.900   4.945
  602SOL     OW 2704   2.532   6.498   5.110
  602SOL    HW1 2705   2.558   6.411   5.069
  602SOL    HW2 2706   2.497   6.481   5.203
  603SOL     OW 2707   1.724   1.005   4.751
  603SOL    HW1 2708   1.789   1.075   4.782
  603SOL    HW2 2709   1.728   0.926   4.812
  604SOL     OW 2710   0.189   2.514   1.866
  604SOL    HW1 2711   0.106   2.565   1.845
  604SOL    HW2 2712   0.216   2.531   1.960
  605SOL     OW 2713   0.096   4.435   1.901
  605SOL    HW1 2714   0.080   4.420   1.998
  605SOL    HW2 2715   0.144   4.522   1.888
  606SOL     OW 2716   3.904   0.104   5.015
  606SOL    HW1 2717   3.881   0.198   5.041
  606SOL    HW2 2718   3.997   0.101   4.980
  607SOL     OW 2719   1.524   5.195   6.547
  607SOL    HW1 2720   1.597   5.175   6.482
  607SOL    HW2 2721   1.510   5.116   6.607
  608SOL     OW 2722   4.223   0.156   6.491
  608SOL    HW1 2723   4.137   0.192   6.526
  608SOL    HW2 2724   4.230   0.175   6.393
  609SOL     OW 2725   3.938   2.226   1.428
  609SOL    HW1 2726   4.013   2.172   1.465
  609SOL    HW2 2727   3.949   2.322   1.454
  610SOL     OW 2728   4.527   2.509   0.002
  610SOL    HW1 2729   4.590   2.582   7.000
  610SOL    HW2 2730   4.435   2.547   0.012
  611SOL     OW 2731   3.889   6.857   2.301
  611SOL    HW1 2732   3.852   6.927   2.240
  611SOL    HW2 2733   3.853   6.871   2.394
  612SOL     OW 2734   3.800   5.008   5.873
  612SOL    HW1 2735   3.889   4.973   5.899
  612SOL    HW2 2736   3.729   4.967   5.930
  613SOL     OW 2737   5.303   5.797   4.986
  613SOL    HW1 2738   5.378   5.842   4.937
  613SOL    HW2 2739   5.341   5.731   5.050
  614SOL     OW 2740   5.066   5.351   5.180
  614SOL    HW1 2741   5.161   5.354   5.211
  614SOL    HW2 2742   5.023   5.439   5.198
  615SOL     OW 2743   0.347   4.237   0.742
  615SOL    HW1 2744   0.334   4.162   0.677
  615SOL    HW2 2745   0.289   4.314   0.717
  616SOL     OW 2746   6.471   2.648   3.492
  616SOL    HW1 2747   6.372   2.652   3.507
  616SOL    HW2 2748   6.495   2.708   3.415
  617SOL     OW 2749   2.602   5.637   6.028
  617SOL    HW1 2750   2.546   5.584   5.964
  617SOL    HW2 2751   2.625   5.581   6.107
  618SOL     OW 2752   1.620   1.583   1.523
  618SOL    HW1 2753   1.604   1.681   1.516
  618SOL    HW2 2754   1.692   1.566   1.591
  619SOL     OW 2755   1.542   2.070   6.703
  619SOL    HW1 2756   1.471   2.037   6.642
  619SOL    HW2 2757   1.599   1.993   6.733
  620SOL     OW 2758   4.813   2.747   0.911
  620SOL    HW1 2759   4.814   2.754   1.011
  620SOL    HW2 2760   4.719   2.735   0.879
  621SOL     OW 2761   5.927   4.871   0.027
  621SOL    HW1 2762   5.839   4.919   0.027
  621SOL    HW2 2763   5.983   4.904   6.977
  622SOL     OW 2764   2.065   1.427   0.202
  622SOL    HW1 2765   2.049   1.522   0.228
  622SOL    HW2 2766   2.030   1.411   0.109
  623SOL     OW 2767   0.936   4.870   6.190
  623SOL    HW1 2768   0.875   4.858   6.269
  623SOL    HW2 2769   0.956   4.780   6.151
  624SOL     OW 2770   0.577   2.334   2.644
  624SOL    HW1 2771   0.594   2.315   2.547
  624SOL    HW2 2772   0.545   2.251   2.689
  625SOL     OW 2773   2.819   1.666   2.330
  625SOL    HW1 2774   2.860   1.575   2.334
  625SOL    HW2 2775   2.881   1.733   2.370
  626SOL     OW 2776   2.181   6.401   3.441
  626SOL    HW1 2777   2.219   6.314   3.472
  626SOL    HW2 2778   2.153   6.393   3.346
  627SOL     OW 2779   5.587   0.996   0.347
  627SOL    HW1 2780   5.653   0.930   0.382
  627SOL    HW2 2781   5.612   1.020   0.253
  628SOL     OW 2782   4.995   5.107   4.628
  628SOL    HW1 2783   5.045   5.194   4.632
  628SOL    HW2 2784   5.013   5.063   4.540
  629SOL     OW 2785   0.598   0.432   1.515
  629SOL    HW1 2786   0.610   0.391   1.606
  629SOL    HW2 2787   0.535   0.375   1.461
  630SOL     OW 2788   4.791   1.300   1.897
  630SOL    HW1 2789   4.760   1.306   1.802
  630SOL    HW2 2790   4.749   1.220   1.940
  631SOL     OW 2791   2.664   6.863   5.330
  631SOL    HW1 2792   2.669   6.803   5.249
  631SOL    HW2 2793   2.584   6.922   5.322
  632SOL     OW 2794   2.382   0.994   0.637
  632SOL    HW1 2795   2.378   1.090   0.611
  632SOL    HW2 2796   2.289   0.958   0.648
  633SOL     OW 2797   3.492   6.042   0.762
  633SOL    HW1 2798   3.484   5.949   0.726
  633SOL    HW2 2799   3.446   6.106   0.700
  634SOL     OW 2800   4.534   5.572   1.318
  634SOL    HW1 2801   4.605   5.619   1.267
  634SOL    HW2 2802   4.572   5.492   1.363
  635SOL     OW 2803   3.584   0.521   3.091
  635SOL    HW1 2804   3.643   0.466   3.150
  635SOL    HW2 2805   3.508   0.559   3.145
  636SOL     OW 2806   4.996   5.192   6.681
  636SOL    HW1 2807   5.082   5.223   6.721
  636SOL    HW2 2808   5.013   5.146   6.594
  637SOL     OW 2809   4.925   4.796   1.748
  637SOL    HW1 2810   5.010   4.762   1.788
  637SOL    HW2 2811   4.901   4.884   1.791
  638SOL     OW 2812   4.957   0.909   2.119
  638SOL    HW1 2813   4.914   0.890   2.207
  638SOL    HW2 2814   5.056   0.900   2.127
  639SOL     OW 2815   4.482   4.579   1.589
  639SOL    HW1 2816   4.488   4.547   1.684
  639SOL    HW2 2817   4.476   4.500   1.528
  640SOL     OW 2818   2.237   3.874   5.842
  640SOL    HW1 2819   2.208   3.967   5.866
  640SOL    HW2 2820   2.186   3.844   5.761
  641SOL     OW 2821   0.814   5.582   4.866
  641SOL    HW1 2822   0.868   5.661   4.837
  641SOL    HW2 2823   0.861   5.498   4.839
  642SOL     OW 2824   0.357   4.609   5.118
  642SOL    HW1 2825   0.433   4.638   5.060
  642SOL    HW2 2826   0.362   4.510   5.133
  643SOL     OW 2827   0.047   5.934   5.167
  643SOL    HW1 2828   0.011   5.983   5.088
  643SOL    HW2 2829   7.002   5.874   5.204
  644SOL     OW 2830   1.131   6.427   2.974
  644SOL    HW1 2831   1.033   6.412   2.987
  644SOL    HW2 2832   1.175   6.439   3.063
  645SOL     OW 2833   4.530   2.289   4.535
  645SOL    HW1 2834   4.512   2.355   4.608
  645SOL    HW2 2835   4.621   2.250   4.547
  646SOL     OW 2836   1.745   1.400   3.707
  646SOL    HW1 2837   1.790   1.311   3.703
  646SOL    HW2 2838   1.733   1.435   3.614
  647SOL     OW 2839   6.289   2.775   0.010
  647SOL    HW1 2840   6.333   2.703   0.063
  647SOL    HW2 2841   6.333   2.783   6.946
  648SOL     OW 2842   5.863   3.356   2.415
  648SOL    HW1 2843   5.805   3.414   2.358
  648SOL    HW2 2844   5.935   3.317   2.359
  649SOL     OW 2845   4.000   4.211   0.910
  649SOL    HW1 2846   3.950   4.178   0.990
  649SOL    HW2 2847   4.037   4.134   0.859
  650SOL     OW 2848   4.842   4.767   0.600
  650SOL    HW1 2849   4.819   4.825   0.521
  650SOL    HW2 2850   4.942   4.763   0.610
  651SOL     OW 2851   0.301   6.517   1.160
  651SOL    HW1 2852   0.334   6.600   1.115
  651SOL    HW2 2853   0.365   6.490   1.232
  652SOL     OW 2854   4.632   7.008   2.910
  652SOL    HW1 2855   4.604   0.075   2.881
  652SOL    HW2 2856   4.729   7.008   2.933
  653SOL     OW 2857   3.429   5.141   4.143
  653SOL    HW1 2858   3.344   5.175   4.182
  653SOL    HW2 2859   3.440   5.044   4.167
  654SOL     OW 2860   6.503   5.606   6.376
  654SOL    HW1 2861   6.582   5.548   6.356
  654SOL    HW2 2862   6.500   5.624   6.474
  655SOL     OW 2863   0.881   0.364   1.379
  655SOL    HW1 2864   0.831   0.286   1.341
  655SOL    HW2 2865   0.816   0.428   1.421
  656SOL     OW 2866   2.427   6.391   2.201
  656SOL    HW1 2867   2.437   6.305   2.251
  656SOL    HW2 2868   2.333   6.423   2.207
  657SOL     OW 2869   2.810   1.709   1.135
  657SOL    HW1 2870   2.790   1.767   1.057
  657SOL    HW2 2871   2.789   1.758   1.220
  658SOL     OW 2872   3.082   4.023   6.905
  658SOL    HW1 2873   3.151   4.086   6.940
  658SOL    HW2 2874   3.049   4.056   6.817
  659SOL     OW 2875   2.149   6.765   6.768
  659SOL    HW1 2876   2.091   6.828   6.819
  659SOL    HW2 2877   2.228   6.739   6.824
  660SOL     OW 2878   4.197   6.096   1.989
  660SOL    HW1 2879   4.115   6.121   2.041
  660SOL    HW2 2880   4.174   6.021   1.926
  661SOL     OW 2881   4.725   5.661   3.176
  661SOL    HW1 2882   4.688   5.668   3.084
  661SOL    HW2 2883   4.690   5.736   3.232
  662SOL     OW 2884   3.660   1.206   5.799
  662SOL    HW1 2885   3.623   1.158   5.879
  662SOL    HW2 2886   3.591   1.270   5.765
  663SOL     OW 2887   1.773   4.336   4.761
  663SOL    HW1 2888   1.811   4.249   4.731
  663SOL    HW2 2889   1.718   4.375   4.687
  664SOL     OW 2890   0.615   6.401   6.531
  664SOL    HW1 2891   0.596   6.472   6.463
  664SOL    HW2 2892   0.644   6.318   6.484
  665SOL     OW 2893   3.876   5.484   3.512
  665SOL    HW1 2894   3.794   5.480   3.455
  665SOL    HW2 2895   3.956   5.501   3.454
  666SOL     OW 2896   4.175   0.888   2.598
  666SOL    HW1 2897   4.247   0.931   2.653
  666SOL    HW2 2898   4.182   0.919   2.504
  667SOL     OW 2899   0.700   5.186   1.678
  667SOL    HW1 2900   0.760   5.210   1.602
  667SOL    HW2 2901   0.706   5.257   1.748
  668SOL     OW 2902   5.674   4.713   6.026
  668SOL    HW1 2903   5.588   4.696   6.074
  668SOL    HW2 2904   5.745   4.651   6.062
  669SOL     OW 2905   5.345   1.206   2.912
  669SOL    HW1 2906   5.274   1.269   2.943
  669SOL    HW2 2907   5.339   1.121   2.964
  670SOL     OW 2908   1.968   1.771   3.336
  670SOL    HW1 2909   1.983   1.807   3.244
  670SOL    HW2 2910   1.909   1.690   3.331
  671SOL     OW 2911   2.504   6.663   1.676
  671SOL    HW1 2912   2.469   6.747   1.637
  671SOL    HW2 2913   2.585   6.633   1.626
  672SOL     OW 2914   0.501   5.682   2.062
  672SOL    HW1 2915   0.418   5.703   2.010
  672SOL    HW2 2916   0.580   5.713   2.010
  673SOL     OW 2917   5.284   6.763   1.113
  673SOL    HW1 2918   5.267   6.849   1.161
  673SOL    HW2 2919   5.285   6.780   1.014
  674SOL     OW 2920   6.646   1.344   5.378
  674SOL    HW1 2921   6.670   1.441   5.382
  674SOL    HW2 2922   6.658   1.310   5.284
  675SOL     OW 2923   6.020   2.403   2.077
  675SOL    HW1 2924   6.020   2.480   2.141
  675SOL    HW2 2925   5.974   2.325   2.119
  676SOL     OW 2926   2.624   4.665   4.867
  676SOL    HW1 2927   2.542   4.607   4.865
  676SOL    HW2 2928   2.680   4.641   4.946
  677SOL     OW 2929   4.838   0.915   1.644
  677SOL    HW1 2930   4.894   0.998   1.645
  677SOL    HW2 2931   4.744   0.939   1.619
  678SOL     OW 2932   2.872   4.610   5.423
  678SOL    HW1 2933   2.890   4.708   5.436
  678SOL    HW2 2934   2.908   4.581   5.335
  679SOL     OW 2935   5.752   1.807   4.758
  679SOL    HW1 2936   5.699   1.755   4.692
  679SOL    HW2 2937   5.694   1.876   4.801
  680SOL     OW 2938   5.275   6.375   4.038
  680SOL    HW1 2939   5.204   6.445   4.038
  680SOL    HW2 2940   5.254   6.306   4.108
  681SOL     OW 2941   5.320   5.963   2.570
  681SOL    HW1 2942   5.276   5.897   2.511
  681SOL    HW2 2943   5.268   6.048   2.570
  682SOL     OW 2944   0.069   1.180   2.210
  682SOL    HW1 2945   0.095   1.143   2.121
  682SOL    HW2 2946   0.114   1.127   2.282
  683SOL     OW 2947   4.320   3.409   1.391
  683SOL    HW1 2948   4.378   3.334   1.423
  683SOL    HW2 2949   4.373   3.493   1.388
  684SOL     OW 2950   6.193   0.371   6.597
  684SOL    HW1 2951   6.203   0.331   6.688
  684SOL    HW2 2952   6.244   0.456   6.592
  685SOL     OW 2953   3.272   1.193   3.663
  685SOL    HW1 2954   3.196   1.249   3.630
  685SOL    HW2 2955   3.324   1.158   3.585
  686SOL     OW 2956   4.322   1.217   3.797
  686SOL    HW1 2957   4.339   1.184   3.890
  686SOL    HW2 2958   4.399   1.272   3.766
  687SOL     OW 2959   0.938   1.868   4.305
  687SOL    HW1 2960   0.931   1.851   4.206
  687SOL    HW2 2961   0.935   1.781   4.354
  688SOL     OW 2962   0.600   1.160   6.099
  688SOL    HW1 2963   0.586   1.206   6.011
  688SOL    HW2 2964   0.511   1.144   6.142
  689SOL     OW 2965   1.169   4.616   5.471
  689SOL    HW1 2966   1.081   4.622   5.424
  689SOL    HW2 2967   1.216   4.532   5.443
  690SOL     OW 2968   6.154   3.360   2.959
  690SOL    HW1 2969   6.182   3.280   2.905
  690SOL    HW2 2970   6.072   3.401   2.919
  691SOL     OW 2971   4.303   1.429   0.154
  691SOL    HW1 2972   4.319   1.370   0.234
  691SOL    HW2 2973   4.258   1.513   0.184
  692SOL     OW 2974   3.132   1.571   5.462
  692SOL    HW1 2975   3.166   1.480   5.487
  692SOL    HW2 2976   3.042   1.586   5.504
  693SOL     OW 2977   4.625   5.842   3.375
  693SOL    HW1 2978   4.636   5.938   3.351
  693SOL    HW2 2979   4.665   5.826   3.466
  694SOL     OW 2980   3.573   6.405   4.535
  694SOL    HW1 2981   3.582   6.501   4.563
  694SOL    HW2 2982   3.661   6.359   4.547
  695SOL     OW 2983   3.089   6.303   4.342
  695SOL    HW1 2984   3.032   6.249   4.280
  695SOL    HW2 2985   3.099   6.255   4.429
  696SOL     OW 2986   5.199   4.397   3.299
  696SOL    HW1 2987   5.293   4.427   3.316
  696SOL    HW2 2988   5.146   4.403   3.384
  697SOL     OW 2989   0.876   3.869   1.666
  697SOL    HW1 2990   0.899   3.780   1.626
  697SOL    HW2 2991   0.959   3.913   1.701
  698SOL     OW 2992   4.948   6.666   1.224
  698SOL    HW1 2993   4.890   6.615   1.288
  698SOL    HW2 2994   5.005   6.602   1.173
  699SOL     OW 2995   2.381   3.135   6.654
  699SOL    HW1 2996   2.313   3.120   6.725
  699SOL    HW2 2997   2.375   3.229   6.621
  700SOL     OW 2998   3.404   0.061   2.514
  700SOL    HW1 2999   3.465   0.100   2.444
  700SOL    HW2 3000   3.336   0.130   2.540
  701SOL     OW 3001   6.191   4.703   0.864
  701SOL    HW1 3002   6.160   4.608   0.856
  701SOL    HW2 3003   6.290   4.707   0.851
  702SOL     OW 3004   2.726   0.513   4.606
  702SOL    HW1 3005   2.698   0.417   4.610
  702SOL    HW2 3006   2.715   0.554   4.697
  703SOL     OW 3007   2.965   3.122   5.550
  703SOL    HW1 3008   2.897   3.055   5.519
  703SOL    HW2 3009   3.056   3.084   5.539
  704SOL     OW 3010   1.259   2.911   6.380
  704SOL    HW1 3011   1.299   2.819   6.380
  704SOL    HW2 3012   1.203   2.923   6.462
  705SOL     OW 3013   6.735   6.525   4.124
  705SOL    HW1 3014   6.824   6.568   4.141
  705SOL    HW2 3015   6.703   6.551   4.033
  706SOL     OW 3016   4.311   0.940   5.404
  706SOL    HW1 3017   4.320   0.875   5.480
  706SOL    HW2 3018   4.214   0.953   5.383
  707SOL     OW 3019   4.048   5.531   3.293
  707SOL    HW1 3020   4.049   5.631   3.292
  707SOL    HW2 3021   4.133   5.498   3.335
  708SOL     OW 3022   3.121   0.888   3.927
  708SOL    HW1 3023   3.085   0.796   3.946
  708SOL    HW2 3024   3.073   0.955   3.984
  709SOL     OW 3025   1.559   6.516   1.344
  709SOL    HW1 3026   1.496   6.584   1.380
  709SOL    HW2 3027   1.602   6.467   1.420
  710SOL     OW 3028   4.947   2.667   1.618
  710SOL    HW1 3029   4.897   2.691   1.702
  710SOL    HW2 3030   5.037   2.711   1.620
  711SOL     OW 3031   0.070   2.921   5.850
  711SOL    HW1 3032   0.023   2.941   5.763
  711SOL    HW2 3033   0.026   2.972   5.924
  712SOL     OW 3034   4.322   3.143   1.186
  712SOL    HW1 3035   4.298   3.152   1.089
  712SOL    HW2 3036   4.418   3.116   1.194
  713SOL     OW 3037   4.153   2.820   5.388
  713SOL    HW1 3038   4.075   2.881   5.395
  713SOL    HW2 3039   4.127   2.738   5.337
  714SOL     OW 3040   6.019   4.899   3.504
  714SOL    HW1 3041   6.082   4.910   3.427
  714SOL    HW2 3042   5.967   4.815   3.493
  715SOL     OW 3043   6.235   5.184   5.643
  715SOL    HW1 3044   6.164   5.115   5.660
  715SOL    HW2 3045   6.258   5.184   5.546
  716SOL     OW 3046   2.023   1.169   2.638
  716SOL    HW1 3047   2.046   1.079   2.675
  716SOL    HW2 3048   1.998   1.160   2.541
  717SOL     OW 3049   5.914   4.483   4.097
  717SOL    HW1 3050   6.004   4.444   4.075
  717SOL    HW2 3051   5.846   4.411   4.101
  718SOL     OW 3052   4.476   2.518   4.330
  718SOL    HW1 3053   4.522   2.604   4.351
  718SOL    HW2 3054   4.478   2.459   4.411
  719SOL     OW 3055   6.694   0.527   2.420
  719SOL    HW1 3056   6.726   0.553   2.512
  719SOL    HW2 3057   6.763   0.553   2.353
  720SOL     OW 3058   1.778   0.584   5.951
  720SOL    HW1 3059   1.802   0.496   5.910
  720SOL    HW2 3060   1.859   0.644   5.952
  721SOL     OW 3061   0.773   2.191   1.856
  721SOL    HW1 3062   0.677   2.181   1.831
  721SOL    HW2 3063   0.792   2.137   1.938
  722SOL     OW 3064   4.206   0.602   6.293
  722SOL    HW1 3065   4.212   0.560   6.383
  722SOL    HW2 3066   4.264   0.683   6.290
  723SOL     OW 3067   2.582   5.994   3.643
  723SOL    HW1 3068   2.672   6.001   3.600
  723SOL    HW2 3069   2.512   5.987   3.572
  724SOL     OW 3070   0.610   0.797   3.438
  724SOL    HW1 3071   0.678   0.752   3.495
  724SOL    HW2 3072   0.547   0.728   3.401
  725SOL     OW 3073   2.545   4.538   2.095
  725SOL    HW1 3074   2.516   4.514   2.003
  725SOL    HW2 3075   2.645   4.539   2.099
  726SOL     OW 3076   2.799   5.050   0.649
  726SOL    HW1 3077   2.808   4.975   0.714
  726SOL    HW2 3078   2.862   5.123   0.673
  727SOL     OW 3079   4.763   5.417   6.384
  727SOL    HW1 3080   4.732   5.351   6.315
  727SOL    HW2 3081   4.701   5.495   6.384
  728SOL     OW 3082   6.951   2.979   4.483
  728SOL    HW1 3083   6.876   3.043   4.498
  728SOL    HW2 3084   0.011   3.020   4.516
  729SOL     OW 3085   0.073   3.199   0.767
  729SOL    HW1 3086   0.097   3.174   0.861
  729SOL    HW2 3087   0.135   3.153   0.703
  730SOL     OW 3088   5.109   0.406   2.874
  730SOL    HW1 3089   5.036   0.402   2.806
  730SOL    HW2 3090   5.070   0.399   2.966
  731SOL     OW 3091   4.878   4.084   6.320
  731SOL    HW1 3092   4.955   4.147   6.323
  731SOL    HW2 3093   4.819   4.099   6.400
  732SOL     OW 3094   5.302   1.786   2.356
  732SOL    HW1 3095   5.298   1.735   2.442
  732SOL    HW2 3096   5.398   1.795   2.328
  733SOL     OW 3097   5.747   6.963   4.142
  733SOL    HW1 3098   5.733   6.989   4.046
  733SOL    HW2 3099   5.719   6.868   4.155
  734SOL     OW 3100   6.418   4.635   2.590
  734SOL    HW1 3101   6.446   4.585   2.672
  734SOL    HW2 3102   6.318   4.644   2.590
  735SOL     OW 3103   5.522   0.387   1.210
  735SOL    HW1 3104   5.528   0.288   1.205
  735SOL    HW2 3105   5.547   0.427   1.122
  736SOL     OW 3106   1.336   1.558   3.793
  736SOL    HW1 3107   1.336   1.643   3.740
  736SOL    HW2 3108   1.262   1.499   3.763
  737SOL     OW 3109   5.679   1.598   5.632
  737SOL    HW1 3110   5.717   1.541   5.705
  737SOL    HW2 3111   5.642   1.539   5.560
  738SOL     OW 3112   3.057   4.077   0.891
  738SOL    HW1 3113   2.996   4.012   0.846
  738SOL    HW2 3114   3.115   4.121   0.824
  739SOL     OW 3115   3.410   6.745   5.162
  739SOL    HW1 3116   3.387   6.842   5.156
  739SOL    HW2 3117   3.504   6.734   5.192
  740SOL     OW 3118   5.536   2.318   2.715
  740SOL    HW1 3119   5.575   2.226   2.727
  740SOL    HW2 3120   5.566   2.377   2.790
  741SOL     OW 3121   1.952   0.724   4.657
  741SOL    HW1 3122   1.985   0.765   4.572
  741SOL    HW2 3123   1.879   0.781   4.696
  742SOL     OW 3124   1.145   6.052   0.951
  742SOL    HW1 3125   1.135   5.954   0.934
  742SOL    HW2 3126   1.176   6.067   1.045
  743SOL     OW 3127   0.647   6.302   3.699
  743SOL    HW1 3128   0.703   6.314   3.617
  743SOL    HW2 3129   0.666   6.377   3.763
  744SOL     OW 3130   6.562   1.321   0.783
  744SOL    HW1 3131   6.596   1.337   0.691
  744SOL    HW2 3132   6.521   1.405   0.819
  745SOL     OW 3133   1.868   5.545   5.104
  745SOL    HW1 3134   1.808   5.618   5.135
  745SOL    HW2 3135   1.923   5.577   5.027
  746SOL     OW 3136   5.335   4.233   5.111
  746SOL    HW1 3137   5.350   4.328   5.084
  746SOL    HW2 3138   5.279   4.187   5.043
  747SOL     OW 3139   4.911   5.178   3.300
  747SOL    HW1 3140   4.969   5.098   3.291
  747SOL    HW2 3141   4.837   5.158   3.364
  748SOL     OW 3142   5.010   4.825   2.794
  748SOL    HW1 3143   5.058   4.878   2.725
  748SOL    HW2 3144   5.057   4.738   2.809
  749SOL     OW 3145   4.898   3.537   3.539
  749SOL    HW1 3146   4.856   3.446   3.541
  749SOL    HW2 3147   4.853   3.593   3.469
  750SOL     OW 3148   2.778   1.186   1.304
  750SOL    HW1 3149   2.788   1.269   1.249
  750SOL    HW2 3150   2.822   1.110   1.256
  751SOL     OW 3151   4.880   2.445   0.661
  751SOL    HW1 3152   4.959   2.389   0.682
  751SOL    HW2 3153   4.899   2.540   0.685
  752SOL     OW 3154   3.822   2.110   6.107
  752SOL    HW1 3155   3.822   2.168   6.188
  752SOL    HW2 3156   3.729   2.108   6.068
  753SOL     OW 3157   3.196   3.361   4.999
  753SOL    HW1 3158   3.127   3.432   5.008
  753SOL    HW2 3159   3.246   3.350   5.085
  754SOL     OW 3160   5.907   1.185   6.633
  754SOL    HW1 3161   5.846   1.204   6.710
  754SOL    HW2 3162   5.861   1.124   6.568
  755SOL     OW 3163   3.016   4.286   5.295
  755SOL    HW1 3164   3.067   4.311   5.377
  755SOL    HW2 3165   2.979   4.368   5.252
  756SOL     OW 3166   3.262   5.086   0.102
  756SOL    HW1 3167   3.197   5.011   0.091
  756SOL    HW2 3168   3.328   5.063   0.174
  757SOL     OW 3169   2.068   6.630   2.371
  757SOL    HW1 3170   2.107   6.539   2.384
  757SOL    HW2 3171   1.994   6.645   2.436
  758SOL     OW 3172   4.148   1.426   3.895
  758SOL    HW1 3173   4.226   1.367   3.877
  758SOL    HW2 3174   4.161   1.515   3.850
  759SOL     OW 3175   0.170   2.747   3.140
  759SOL    HW1 3176   0.163   2.686   3.219
  759SOL    HW2 3177   0.257   2.732   3.094
  760SOL     OW 3178   6.626   6.619   3.894
  760SOL    HW1 3179   6.670   6.603   3.806
  760SOL    HW2 3180   6.528   6.635   3.880
  761SOL     OW 3181   5.394   4.316   5.552
  761SOL    HW1 3182   5.345   4.245   5.603
  761SOL    HW2 3183   5.491   4.312   5.574
  762SOL     OW 3184   2.959   6.480   5.756
  762SOL    HW1 3185   2.996   6.547   5.820
  762SOL    HW2 3186   2.860   6.492   5.748
  763SOL     OW 3187   5.294   0.287   6.472
  763SOL    HW1 3188   5.289   0.382   6.442
  763SOL    HW2 3189   5.383   0.269   6.514
  764SOL     OW 3190   5.923   1.127   5.649
  764SOL    HW1 3191   5.950   1.032   5.636
  764SOL    HW2 3192   5.830   1.131   5.687
  765SOL     OW 3193   0.824   6.979   0.756
  765SOL    HW1 3194   0.806   6.965   0.853
  765SOL    HW2 3195   0.922   6.971   0.739
  766SOL     OW 3196   2.443   2.345   5.359
  766SOL    HW1 3197   2.527   2.392   5.386
  766SOL    HW2 3198   2.399   2.395   5.284
  767SOL     OW 3199   6.736   6.700   3.524
  767SOL    HW1 3200   6.739   6.656   3.434
  767SOL    HW2 3201   6.786   6.643   3.590
  768SOL     OW 3202   2.177   6.161   2.869
  768SOL    HW1 3203   2.260   6.206   2.838
  768SOL    HW2 3204   2.166   6.074   2.820
  769SOL     OW 3205   3.542   1.913   5.418
  769SOL    HW1 3206   3.610   1.943   5.351
  769SOL    HW2 3207   3.528   1.814   5.409
  770SOL     OW 3208   1.718   5.317   4.271
  770SOL    HW1 3209   1.707   5.239   4.333
  770SOL    HW2 3210   1.812   5.350   4.275
  771SOL     OW 3211   1.453   5.280   3.410
  771SOL    HW1 3212   1.463   5.367   3.363
  771SOL    HW2 3213   1.416   5.212   3.347
  772SOL     OW 3214   5.395   4.934   0.196
  772SOL    HW1 3215   5.299   4.908   0.189
  772SOL    HW2 3216   5.434   4.944   0.105
  773SOL     OW 3217   1.135   3.527   3.355
  773SOL    HW1 3218   1.186   3.445   3.330
  773SOL    HW2 3219   1.047   3.501   3.393
  774SOL     OW 3220   2.028   2.009   3.962
  774SOL    HW1 3221   2.012   1.927   4.017
  774SOL    HW2 3222   2.056   1.981   3.870
  775SOL     OW 3223   2.202   3.876   4.135
  775SOL    HW1 3224   2.189   3.956   4.194
  775SOL    HW2 3225   2.176   3.794   4.185
  776SOL     OW 3226   0.744   0.046   6.175
  776SOL    HW1 3227   0.810   7.005   6.210
  776SOL    HW2 3228   0.723   0.113   6.247
  777SOL     OW 3229   1.600   3.620   0.412
  777SOL    HW1 3230   1.660   3.541   0.399
  777SOL    HW2 3231   1.505   3.591   0.410
  778SOL     OW 3232   3.296   0.078   2.017
  778SOL    HW1 3233   3.290   7.009   2.052
  778SOL    HW2 3234   3.262   0.081   1.923
  779SOL     OW 3235   0.534   2.524   1.930
  779SOL    HW1 3236   0.627   2.499   1.957
  779SOL    HW2 3237   0.479   2.539   2.012
  780SOL     OW 3238   1.274   2.196   4.462
  780SOL    HW1 3239   1.294   2.099   4.450
  780SOL    HW2 3240   1.359   2.248   4.460
  781SOL     OW 3241   7.003   4.420   0.461
  781SOL    HW1 3242   6.938   4.357   0.502
  781SOL    HW2 3243   6.955   4.501   0.426
  782SOL     OW 3244   1.928   3.879   6.123
  782SOL    HW1 3245   1.908   3.783   6.143
  782SOL    HW2 3246   1.957   3.888   6.027
  783SOL     OW 3247   5.434   4.746   6.281
  783SOL    HW1 3248   5.461   4.832   6.324
  783SOL    HW2 3249   5.473   4.669   6.332
  784SOL     OW 3250   2.818   6.101   1.770
  784SOL    HW1 3251   2.831   6.137   1.862
  784SOL    HW2 3252   2.751   6.027   1.772
  785SOL     OW 3253   0.910   0.245   4.292
  785SOL    HW1 3254   0.916   0.335   4.248
  785SOL    HW2 3255   0.815   0.223   4.310
  786SOL     OW 3256   6.515   0.696   3.675
  786SOL    HW1 3257   6.500   0.735   3.765
  786SOL    HW2 3258   6.612   0.675   3.663
  787SOL     OW 3259   2.483   0.730   0.119
  787SOL    HW1 3260   2.497   0.812   0.063
  787SOL    HW2 3261   2.406   0.677   0.082
  788SOL     OW 3262   4.030   2.975   1.503
  788SOL    HW1 3263   3.998   2.895   1.553
  788SOL    HW2 3264   3.991   3.058   1.543
  789SOL     OW 3265   4.414   5.363   2.094
  789SOL    HW1 3266   4.339   5.382   2.158
  789SOL    HW2 3267   4.474   5.443   2.088
  790SOL     OW 3268   0.910   2.816   1.646
  790SOL    HW1 3269   0.920   2.732   1.594
  790SOL    HW2 3270   0.966   2.811   1.729
  791SOL     OW 3271   2.709   5.683   5.286
  791SOL    HW1 3272   2.805   5.697   5.311
  791SOL    HW2 3273   2.698   5.594   5.243
  792SOL     OW 3274   0.731   1.243   0.375
  792SOL    HW1 3275   0.711   1.285   0.464
  792SOL    HW2 3276   0.716   1.144   0.381
  793SOL     OW 3277   4.262   5.563   4.057
  793SOL    HW1 3278   4.280   5.627   4.131
  793SOL    HW2 3279   4.310   5.594   3.974
  794SOL     OW 3280   3.011   3.531   3.958
  794SOL    HW1 3281   3.036   3.521   3.862
  794SOL    HW2 3282   2.949   3.609   3.968
  795SOL     OW 3283   3.889   0.746   6.069
  795SOL    HW1 3284   3.820   0.722   6.001
  795SOL    HW2 3285   3.881   0.844   6.090
  796SOL     OW 3286   1.118   2.856   6.655
  796SOL    HW1 3287   1.023   2.882   6.671
  796SOL    HW2 3288   1.178   2.934   6.670
  797SOL     OW 3289   4.461   0.208   0.878
  797SOL    HW1 3290   4.539   0.152   0.906
  797SOL    HW2 3291   4.484   0.257   0.793
  798SOL     OW 3292   2.884   6.314   1.347
  798SOL    HW1 3293   2.955   6.382   1.367
  798SOL    HW2 3294   2.834   6.292   1.430
  799SOL     OW 3295   0.862   2.064   6.507
  799SOL    HW1 3296   0.957   2.040   6.527
  799SOL    HW2 3297   0.813   1.982   6.477
  800SOL     OW 3298   5.840   1.159   1.708
  800SOL    HW1 3299   5.821   1.244   1.758
  800SOL    HW2 3300   5.921   1.171   1.651
  801SOL     OW 3301   1.960   5.444   5.937
  801SOL    HW1 3302   2.052   5.432   5.900
  801SOL    HW2 3303   1.950   5.537   5.970
  802SOL     OW 3304   5.553   2.007   6.920
  802SOL    HW1 3305   5.508   1.920   6.942
  802SOL    HW2 3306   5.542   2.026   6.822
  803SOL     OW 3307   3.008   0.764   5.705
  803SOL    HW1 3308   2.995   0.677   5.753
  803SOL    HW2 3309   3.080   0.753   5.636
  804SOL     OW 3310   5.905   0.115   1.834
  804SOL    HW1 3311   5.915   0.144   1.739
  804SOL    HW2 3312   5.895   0.015   1.837
  805SOL     OW 3313   2.536   0.757   3.283
  805SOL    HW1 3314   2.567   0.820   3.213
  805SOL    HW2 3315   2.477   0.806   3.348
  806SOL     OW 3316   0.851   0.251   5.489
  806SOL    HW1 3317   0.937   0.208   5.460
  806SOL    HW2 3318   0.800   0.187   5.546
  807SOL     OW 3319   0.951   6.389   4.795
  807SOL    HW1 3320   0.936   6.462   4.862
  807SOL    HW2 3321   1.049   6.375   4.782
  808SOL     OW 3322   5.869   2.940   0.745
  808SOL    HW1 3323   5.775   2.956   0.714
  808SOL    HW2 3324   5.897   2.847   0.720
  809SOL     OW 3325   0.409   4.905   0.118
  809SOL    HW1 3326   0.419   4.857   0.031
  809SOL    HW2 3327   0.357   4.990   0.104
  810SOL     OW 3328   2.520   3.573   0.547
  810SOL    HW1 3329   2.471   3.658   0.528
  810SOL    HW2 3330   2.541   3.527   0.461
  811SOL     OW 3331   5.408   5.068   4.952
  811SOL    HW1 3332   5.436   5.144   4.894
  811SOL    HW2 3333   5.316   5.037   4.925
  812SOL     OW 3334   1.014   2.295   2.078
  812SOL    HW1 3335   0.966   2.208   2.075
  812SOL    HW2 3336   1.024   2.324   2.173
  813SOL     OW 3337   2.221   1.292   4.661
  813SOL    HW1 3338   2.273   1.365   4.617
  813SOL    HW2 3339   2.283   1.231   4.711
  814SOL     OW 3340   0.105   5.757   2.797
  814SOL    HW1 3341   0.136   5.842   2.840
  814SOL    HW2 3342   0.123   5.761   2.699
  815SOL     OW 3343   5.184   2.396   3.523
  815SOL    HW1 3344   5.245   2.323   3.554
  815SOL    HW2 3345   5.099   2.394   3.577
  816SOL     OW 3346   4.522   3.958   0.157
  816SOL    HW1 3347   4.560   3.937   0.247
  816SOL    HW2 3348   4.508   4.056   0.149
  817SOL     OW 3349   0.868   5.365   1.097
  817SOL    HW1 3350   0.959   5.324   1.092
  817SOL    HW2 3351   0.822   5.354   1.009
  818SOL     OW 3352   5.897   2.526   3.526
  818SOL    HW1 3353   5.876   2.486   3.615
  818SOL    HW2 3354   5.892   2.455   3.456
  819SOL     OW 3355   5.901   2.580   1.662
  819SOL    HW1 3356   5.892   2.666   1.613
  819SOL    HW2 3357   5.837   2.513   1.623
  820SOL     OW 3358   2.453   1.950   4.564
  820SOL    HW1 3359   2.421   1.928   4.656
  820SOL    HW2 3360   2.392   2.020   4.524
  821SOL     OW 3361   5.774   4.116   4.522
  821SOL    HW1 3362   5.803   4.110   4.427
  821SOL    HW2 3363   5.733   4.029   4.550
  822SOL     OW 3364   1.071   4.241   3.332
  822SOL    HW1 3365   0.983   4.218   3.374
  822SOL    HW2 3366   1.126   4.158   3.324
  823SOL     OW 3367   1.016   3.191   5.744
  823SOL    HW1 3368   1.068   3.275   5.726
  823SOL    HW2 3369   0.992   3.147   5.658
  824SOL     OW 3370   5.437   1.212   4.949
  824SOL    HW1 3371   5.438   1.311   4.943
  824SOL    HW2 3372   5.365   1.183   5.012
  825SOL     OW 3373   6.049   6.187   0.964
  825SOL    HW1 3374   6.024   6.279   0.994
  825SOL    HW2 3375   5.977   6.151   0.905
  826SOL     OW 3376   3.987   1.481   6.004
  826SOL    HW1 3377   4.084   1.500   5.988
  826SOL    HW2 3378   3.943   1.562   6.043
  827SOL     OW 3379   3.097   4.006   4.635
  827SOL    HW1 3380   3.048   3.939   4.579
  827SOL    HW2 3381   3.047   4.022   4.720
  828SOL     OW 3382   6.261   5.204   4.292
  828SOL    HW1 3383   6.260   5.265   4.213
  828SOL    HW2 3384   6.341   5.145   4.288
  829SOL     OW 3385   3.494   2.860   2.342
  829SOL    HW1 3386   3.459   2.794   2.275
  829SOL    HW2 3387   3.593   2.867   2.333
  830SOL     OW 3388   5.948   4.668   6.783
  830SOL    HW1 3389   6.014   4.740   6.761
  830SOL    HW2 3390   5.993   4.596   6.836
  831SOL     OW 3391   5.254   6.117   1.667
  831SOL    HW1 3392   5.273   6.090   1.573
  831SOL    HW2 3393   5.189   6.053   1.708
  832SOL     OW 3394   3.878   1.471   4.851
  832SOL    HW1 3395   3.868   1.438   4.757
  832SOL    HW2 3396   3.862   1.396   4.915
  833SOL     OW 3397   1.349   3.953   6.105
  833SOL    HW1 3398   1.330   3.861   6.072
  833SOL    HW2 3399   1.446   3.972   6.096
  834SOL     OW 3400   4.563   3.596   6.589
  834SOL    HW1 3401   4.612   3.634   6.667
  834SOL    HW2 3402   4.615   3.520   6.551
  835SOL     OW 3403   1.506   0.267   4.317
  835SOL    HW1 3404   1.411   0.246   4.338
  835SOL    HW2 3405   1.557   0.182   4.304
  836SOL     OW 3406   3.591   2.178   5.617
  836SOL    HW1 3407   3.673   2.207   5.666
  836SOL    HW2 3408   3.527   2.135   5.680
  837SOL     OW 3409   1.526   0.340   1.407
  837SOL    HW1 3410   1.460   0.415   1.407
  837SOL    HW2 3411   1.477   0.253   1.395
  838SOL     OW 3412   2.392   5.605   4.005
  838SOL    HW1 3413   2.414   5.644   3.916
  838SOL    HW2 3414   2.331   5.667   4.054
  839SOL     OW 3415   2.035   1.063   0.737
  839SOL    HW1 3416   2.055   1.102   0.827
  839SOL    HW2 3417   1.995   1.133   0.679
  840SOL     OW 3418   5.988   5.556   6.921
  840SOL    HW1 3419   5.951   5.490   6.856
  840SOL    HW2 3420   5.967   5.649   6.889
  841SOL     OW 3421   4.369   5.369   5.828
  841SOL    HW1 3422   4.332   5.318   5.750
  841SOL    HW2 3423   4.421   5.448   5.795
  842SOL     OW 3424   3.069   0.027   6.933
  842SOL    HW1 3425   3.138   0.079   6.982
  842SOL    HW2 3426   2.981   0.034   6.982
  843SOL     OW 3427   1.761   1.946   1.254
  843SOL    HW1 3428   1.700   1.868   1.265
  843SOL    HW2 3429   1.852   1.923   1.290
  844SOL     OW 3430   0.277   6.817   1.214
  844SOL    HW1 3431   0.240   6.833   1.123
  844SOL    HW2 3432   0.376   6.812   1.210
  845SOL     OW 3433   4.155   1.820   2.891
  845SOL    HW1 3434   4.071   1.791   2.845
  845SOL    HW2 3435   4.218   1.860   2.824
  846SOL     OW 3436   3.325   1.260   6.591
  846SOL    HW1 3437   3.321   1.215   6.680
  846SOL    HW2 3438   3.281   1.349   6.596
  847SOL     OW 3439   2.469   3.429   1.630
  847SOL    HW1 3440   2.402   3.443   1.704
  847SOL    HW2 3441   2.479   3.331   1.612
  848SOL     OW 3442   5.843   6.636   5.951
  848SOL    HW1 3443   5.754   6.641   5.905
  848SOL    HW2 3444   5.889   6.552   5.924
  849SOL     OW 3445   5.662   3.771   0.208
  849SOL    HW1 3446   5.684   3.687   0.160
  849SOL    HW2 3447   5.734   3.791   0.275
  850SOL     OW 3448   6.392   0.827   4.721
  850SOL    HW1 3449   6.345   0.798   4.637
  850SOL    HW2 3450   6.420   0.747   4.774
  851SOL     OW 3451   6.592   3.155   6.946
  851SOL    HW1 3452   6.543   3.091   7.006
  851SOL    HW2 3453   6.672   3.109   6.907
  852SOL     OW 3454   6.785   4.630   1.013
  852SOL    HW1 3455   6.757   4.720   0.980
  852SOL    HW2 3456   6.870   4.603   0.966
  853SOL     OW 3457   2.029   4.532   0.528
  853SOL    HW1 3458   1.981   4.562   0.610
  853SOL    HW2 3459   1.964   4.492   0.464
  854SOL     OW 3460   5.916   6.276   0.176
  854SOL    HW1 3461   5.838   6.222   0.208
  854SOL    HW2 3462   5.910   6.368   0.214
  855SOL     OW 3463   6.961   0.679   0.210
  855SOL    HW1 3464   6.902   0.739   0.264
  855SOL    HW2 3465   6.905   0.624   0.149
  856SOL     OW 3466   2.030   6.630   6.567
  856SOL    HW1 3467   2.098   6.572   6.522
  856SOL    HW2 3468   2.063   6.656   6.658
  857SOL     OW 3469   0.110   4.464   3.214
  857SOL    HW1 3470   0.092   4.530   3.287
  857SOL    HW2 3471   0.180   4.399   3.245
  858SOL     OW 3472   3.577   3.461   0.689
  858SOL    HW1 3473   3.522   3.532   0.734
  858SOL    HW2 3474   3.616   3.498   0.605
  859SOL     OW 3475   4.839   5.999   5.744
  859SOL    HW1 3476   4.820   6.022   5.840
  859SOL    HW2 3477   4.758   6.017   5.689
  860SOL     OW 3478   5.571   2.806   5.737
  860SOL    HW1 3479   5.493   2.867   5.722
  860SOL    HW2 3480   5.614   2.829   5.825
  861SOL     OW 3481   2.054   5.238   2.870
  861SOL    HW1 3482   2.072   5.302   2.795
  861SOL    HW2 3483   1.964   5.196   2.857
  862SOL     OW 3484   2.017   4.773   3.707
  862SOL    HW1 3485   2.086   4.714   3.749
  862SOL    HW2 3486   2.040   4.869   3.725
  863SOL     OW 3487   6.762   0.149   5.951
  863SOL    HW1 3488   6.693   0.197   5.896
  863SOL    HW2 3489   6.845   0.204   5.954
  864SOL     OW 3490   4.121   6.716   5.965
  864SOL    HW1 3491   4.070   6.799   5.985
  864SOL    HW2 3492   4.138   6.665   6.050
  865SOL     OW 3493   2.064   6.000   4.888
  865SOL    HW1 3494   2.102   6.030   4.801
  865SOL    HW2 3495   2.122   5.929   4.927
  866SOL     OW 3496   2.703   6.908   0.406
  866SOL    HW1 3497   2.802   6.922   0.419
  866SOL    HW2 3498   2.670   6.838   0.468
  867SOL     OW 3499   6.149   2.255   0.889
  867SOL    HW1 3500   6.060   2.216   0.914
  867SOL    HW2 3501   6.156   2.262   0.789
  868SOL     OW 3502   0.612   2.044   2.131
  868SOL    HW1 3503   0.676   1.988   2.077
  868SOL    HW2 3504   0.534   2.069   2.073
  869SOL     OW 3505   6.926   4.060   3.822
  869SOL    HW1 3506   6.836   4.093   3.853
  869SOL    HW2 3507   6.963   3.998   3.891
  870SOL     OW 3508   3.444   4.976   1.602
  870SOL    HW1 3509   3.475   4.987   1.697
  870SOL    HW2 3510   3.411   4.882   1.589
  871SOL     OW 3511   4.694   2.374   4.190
  871SOL    HW1 3512   4.789   2.405   4.181
  871SOL    HW2 3513   4.647   2.434   4.255
  872SOL     OW 3514   6.760   2.036   4.890
  872SOL    HW1 3515   6.713   2.124   4.882
  872SOL    HW2 3516   6.721   1.972   4.825
  873SOL     OW 3517   4.762   6.486   5.878
  873SOL    HW1 3518   4.817   6.495   5.960
  873SOL    HW2 3519   4.696   6.562   5.874
  874SOL     OW 3520   6.299   4.332   6.824
  874SOL    HW1 3521   6.276   4.382   6.740
  874SOL    HW2 3522   6.367   4.262   6.804
  875SOL     OW 3523   5.556   4.997   1.089
  875SOL    HW1 3524   5.600   5.018   1.176
  875SOL    HW2 3525   5.537   5.082   1.040
  876SOL     OW 3526   0.669   5.422   1.819
  876SOL    HW1 3527   0.713   5.435   1.908
  876SOL    HW2 3528   0.592   5.486   1.811
  877SOL     OW 3529   3.031   4.749   6.573
  877SOL    HW1 3530   3.054   4.778   6.666
  877SOL    HW2 3531   3.084   4.802   6.507
  878SOL     OW 3532   4.150   6.735   4.214
  878SOL    HW1 3533   4.187   6.749   4.123
  878SOL    HW2 3534   4.180   6.810   4.274
  879SOL     OW 3535   3.847   0.327   1.632
  879SOL    HW1 3536   3.852   0.406   1.570
  879SOL    HW2 3537   3.915   0.337   1.705
  880SOL     OW 3538   3.477   4.098   3.836
  880SOL    HW1 3539   3.496   4.103   3.738
  880SOL    HW2 3540   3.551   4.049   3.881
  881SOL     OW 3541   4.614   2.753   4.814
  881SOL    HW1 3542   4.691   2.776   4.874
  881SOL    HW2 3543   4.539   2.817   4.830
  882SOL     OW 3544   1.055   3.176   4.445
  882SOL    HW1 3545   0.962   3.199   4.474
  882SOL    HW2 3546   1.121   3.236   4.490
  883SOL     OW 3547   2.757   0.712   2.270
  883SOL    HW1 3548   2.690   0.729   2.342
  883SOL    HW2 3549   2.845   0.751   2.298
  884SOL     OW 3550   5.030   2.959   5.607
  884SOL    HW1 3551   4.958   2.904   5.565
  884SOL    HW2 3552   5.076   3.013   5.536
  885SOL     OW 3553   3.145   1.289   5.764
  885SOL    HW1 3554   3.199   1.306   5.682
  885SOL    HW2 3555   3.115   1.193   5.765
  886SOL     OW 3556   3.883   0.362   0.123
  886SOL    HW1 3557   3.853   0.275   0.162
  886SOL    HW2 3558   3.817   0.394   0.056
  887SOL     OW 3559   4.120   0.143   4.003
  887SOL    HW1 3560   4.070   0.166   4.087
  887SOL    HW2 3561   4.077   0.063   3.960
  888SOL     OW 3562   0.787   6.018   2.670
  888SOL    HW1 3563   0.695   6.055   2.661
  888SOL    HW2 3564   0.797   5.938   2.610
  889SOL     OW 3565   0.681   3.898   0.770
  889SOL    HW1 3566   0.656   3.869   0.862
  889SOL    HW2 3567   0.728   3.986   0.774
  890SOL     OW 3568   1.876   5.263   3.605
  890SOL    HW1 3569   1.971   5.265   3.637
  890SOL    HW2 3570   1.865   5.189   3.539
  891SOL     OW 3571   5.586   5.759   0.485
  891SOL    HW1 3572   5.521   5.815   0.536
  891SOL    HW2 3573   5.538   5.685   0.439
  892SOL     OW 3574   2.566   3.713   5.370
  892SOL    HW1 3575   2.550   3.801   5.325
  892SOL    HW2 3576   2.662   3.706   5.398
  893SOL     OW 3577   2.591   6.997   3.219
  893SOL    HW1 3578   2.547   6.956   3.138
  893SOL    HW2 3579   2.690   6.987   3.211
  894SOL     OW 3580   0.689   3.290   1.406
  894SOL    HW1 3581   0.775   3.279   1.356
  894SOL    HW2 3582   0.613   3.260   1.348
  895SOL     OW 3583   0.746   4.440   3.273
  895SOL    HW1 3584   0.692   4.508   3.223
  895SOL    HW2 3585   0.736   4.350   3.229
  896SOL     OW 3586   5.781   4.695   0.279
  896SOL    HW1 3587   5.822   4.681   0.189
  896SOL    HW2 3588   5.823   4.633   0.345
  897SOL     OW 3589   4.944   1.423   0.063
  897SOL    HW1 3590   4.921   1.403   6.993
  897SOL    HW2 3591   4.968   1.339   0.110
  898SOL     OW 3592   3.237   6.192   2.612
  898SOL    HW1 3593   3.293   6.175   2.693
  898SOL    HW2 3594   3.140   6.185   2.637
  899SOL     OW 3595   0.329   5.952   6.544
  899SOL    HW1 3596   0.385   6.033   6.561
  899SOL    HW2 3597   0.252   5.976   6.485
  900SOL     OW 3598   6.189   6.631   0.413
  900SOL    HW1 3599   6.281   6.594   0.415
  900SOL    HW2 3600   6.191   6.729   0.433
  901SOL     OW 3601   2.189   1.009   3.041
  901SOL    HW1 3602   2.111   1.014   3.103
  901SOL    HW2 3603   2.219   1.101   3.017
  902SOL     OW 3604   6.922   2.580   0.701
  902SOL    HW1 3605   6.900   2.656   0.640
  902SOL    HW2 3606   6.897   2.604   0.795
  903SOL     OW 3607   6.634   2.251   6.761
  903SOL    HW1 3608   6.729   2.239   6.731
  903SOL    HW2 3609   6.629   2.242   6.861
  904SOL     OW 3610   2.718   2.372   3.287
  904SOL    HW1 3611   2.641   2.365   3.350
  904SOL    HW2 3612   2.803   2.349   3.335
  905SOL     OW 3613   5.198   2.174   0.067
  905SOL    HW1 3614   5.221   2.216   7.004
  905SOL    HW2 3615   5.227   2.234   0.141
  906SOL     OW 3616   0.255   2.244   5.844
  906SOL    HW1 3617   0.309   2.169   5.804
  906SOL    HW2 3618   0.182   2.205   5.901
  907SOL     OW 3619   5.198   3.690   0.132
  907SOL    HW1 3620   5.172   3.703   0.228
  907SOL    HW2 3621   5.208   3.778   0.087
  908SOL     OW 3622   2.605   4.550   2.750
  908SOL    HW1 3623   2.540   4.625   2.738
  908SOL    HW2 3624   2.681   4.562   2.685
  909SOL     OW 3625   4.377   5.828   0.714
  909SOL    HW1 3626   4.337   5.844   0.624
  909SOL    HW2 3627   4.431   5.743   0.712
  910SOL     OW 3628   2.974   2.917   1.125
  910SOL    HW1 3629   2.874   2.913   1.127
  910SOL    HW2 3630   3.009   2.926   1.218
  911SOL     OW 3631   1.073   6.026   6.555
  911SOL    HW1 3632   1.078   5.928   6.577
  911SOL    HW2 3633   1.027   6.074   6.630
  912SOL     OW 3634   5.687   2.441   2.920
  912SOL    HW1 3635   5.750   2.363   2.916
  912SOL    HW2 3636   5.700   2.491   3.005
  913SOL     OW 3637   4.665   6.082   3.276
  913SOL    HW1 3638   4.763   6.100   3.266
  913SOL    HW2 3639   4.615   6.131   3.205
  914SOL     OW 3640   1.829   0.227   6.444
  914SOL    HW1 3641   1.791   0.319   6.448
  914SOL    HW2 3642   1.929   0.232   6.437
  915SOL     OW 3643   5.974   4.166   6.324
  915SOL    HW1 3644   6.073   4.170   6.331
  915SOL    HW2 3645   5.945   4.195   6.232
  916SOL     OW 3646   1.788   2.687   1.954
  916SOL    HW1 3647   1.862   2.629   1.920
  916SOL    HW2 3648   1.742   2.730   1.876
  917SOL     OW 3649   0.000   6.077   0.877
  917SOL    HW1 3650   6.963   6.001   0.858
  917SOL    HW2 3651   0.087   6.061   0.829
  918SOL     OW 3652   2.979   7.000   0.326
  918SOL    HW1 3653   2.955   0.042   0.396
  918SOL    HW2 3654   3.078   6.992   0.319
  919SOL     OW 3655   5.362   1.186   3.263
  919SOL    HW1 3656   5.458   1.159   3.259
  919SOL    HW2 3657   5.305   1.108   3.237
  920SOL     OW 3658   2.026   4.886   1.827
  920SOL    HW1 3659   2.080   4.950   1.771
  920SOL    HW2 3660   2.087   4.819   1.869
  921SOL     OW 3661   5.158   5.385   4.659
  921SOL    HW1 3662   5.241   5.400   4.605
  921SOL    HW2 3663   5.171   5.421   4.751
  922SOL     OW 3664   3.440   3.864   4.596
  922SOL    HW1 3665   3.415   3.960   4.606
  922SOL    HW2 3666   3.398   3.827   4.513
  923SOL     OW 3667   2.414   2.758   5.947
  923SOL    HW1 3668   2.468   2.735   5.866
  923SOL    HW2 3669   2.359   2.839   5.928
  924SOL     OW 3670   6.120   3.827   2.208
  924SOL    HW1 3671   6.187   3.763   2.244
  924SOL    HW2 3672   6.092   3.891   2.280
  925SOL     OW 3673   6.667   2.499   0.217
  925SOL    HW1 3674   6.675   2.583   0.271
  925SOL    HW2 3675   6.753   2.483   0.169
  926SOL     OW 3676   7.002   1.755   0.934
  926SOL    HW1 3677   0.043   1.691   0.896
  926SOL    HW2 3678   0.021   1.844   0.947
  927SOL     OW 3679   5.995   3.949   3.581
  927SOL    HW1 3680   5.951   3.873   3.534
  927SOL    HW2 3681   5.931   4.026   3.586
  928SOL     OW 3682   2.730   6.376   0.657
  928SOL    HW1 3683   2.636   6.356   0.684
  928SOL    HW2 3684   2.731   6.454   0.595
  929SOL     OW 3685   6.784   0.631   0.017
  929SOL    HW1 3686   6.794   0.534   7.019
  929SOL    HW2 3687   6.804   0.686   6.961
  930SOL     OW 3688   4.400   5.551   6.622
  930SOL    HW1 3689   4.488   5.598   6.620
  930SOL    HW2 3690   4.367   5.546   6.716
  931SOL     OW 3691   6.510   1.932   3.918
  931SOL    HW1 3692   6.572   1.860   3.949
  931SOL    HW2 3693   6.468   1.905   3.831
  932SOL     OW 3694   3.170   1.532   3.581
  932SOL    HW1 3695   3.137   1.438   3.583
  932SOL    HW2 3696   3.097   1.594   3.612
  933SOL     OW 3697   1.523   4.471   2.606
  933SOL    HW1 3698   1.598   4.415   2.569
  933SOL    HW2 3699   1.556   4.523   2.685
  934SOL     OW 3700   2.752   5.823   5.899
  934SOL    HW1 3701   2.666   5.779   5.925
  934SOL    HW2 3702   2.795   5.863   5.980
  935SOL     OW 3703   5.092   4.129   3.244
  935SOL    HW1 3704   5.140   4.211   3.274
  935SOL    HW2 3705   5.140   4.048   3.280
  936SOL     OW 3706   1.565   7.018   6.199
  936SOL    HW1 3707   1.506   7.005   6.279
  936SOL    HW2 3708   1.584   6.929   6.158
  937SOL     OW 3709   5.102   1.369   5.870
  937SOL    HW1 3710   5.149   1.437   5.814
  937SOL    HW2 3711   5.004   1.375   5.855
  938SOL     OW 3712   7.015   5.807   3.767
  938SOL    HW1 3713   7.016   5.736   3.837
  938SOL    HW2 3714   0.082   5.818   3.729
  939SOL     OW 3715   6.772   0.057   4.492
  939SOL    HW1 3716   6.767   0.031   4.395
  939SOL    HW2 3717   6.861   0.098   4.511
  940SOL     OW 3718   0.998   4.827   1.043
  940SOL    HW1 3719   0.920   4.782   1.087
  940SOL    HW2 3720   0.976   4.844   0.947
  941SOL     OW 3721   4.986   0.225   6.763
  941SOL    HW1 3722   4.936   0.201   6.680
  941SOL    HW2 3723   4.922   0.247   6.836
  942SOL     OW 3724   6.570   6.349   1.335
  942SOL    HW1 3725   6.607   6.287   1.404
  942SOL    HW2 3726   6.645   6.392   1.285
  943SOL     OW 3727   2.508   4.814   2.720
  943SOL    HW1 3728   2.480   4.905   2.691
  943SOL    HW2 3729   2.577   4.821   2.793
  944SOL     OW 3730   0.464   5.773   4.359
  944SOL    HW1 3731   0.501   5.832   4.287
  944SOL    HW2 3732   0.463   5.823   4.446
  945SOL     OW 3733   0.743   5.080   5.356
  945SOL    HW1 3734   0.835   5.048   5.332
  945SOL    HW2 3735   0.739   5.179   5.348
  946SOL     OW 3736   5.025   4.655   4.419
  946SOL    HW1 3737   4.959   4.631   4.491
  946SOL    HW2 3738   5.118   4.637   4.452
  947SOL     OW 3739   4.086   3.306   3.798
  947SOL    HW1 3740   4.003   3.253   3.812
  947SOL    HW2 3741   4.111   3.304   3.701
  948SOL     OW 3742   5.351   1.237   2.640
  948SOL    HW1 3743   5.357   1.255   2.738
  948SOL    HW2 3744   5.306   1.149   2.625
  949SOL     OW 3745   2.730   6.305   0.255
  949SOL    HW1 3746   2.790   6.225   0.254
  949SOL    HW2 3747   2.660   6.293   0.326
  950SOL     OW 3748   6.290   5.634   2.011
  950SOL    HW1 3749   6.294   5.536   2.029
  950SOL    HW2 3750   6.380   5.675   2.028
  951SOL     OW 3751   1.529   0.354   3.895
  951SOL    HW1 3752   1.558   0.315   3.983
  951SOL    HW2 3753   1.604   0.346   3.830
  952SOL     OW 3754   3.912   1.780   2.802
  952SOL    HW1 3755   3.936   1.727   2.720
  952SOL    HW2 3756   3.817   1.809   2.796
  953SOL     OW 3757   6.952   6.087   4.988
  953SOL    HW1 3758   6.973   6.173   4.941
  953SOL    HW2 3759   6.941   6.014   4.921
  954SOL     OW 3760   4.383   5.516   2.584
  954SOL    HW1 3761   4.438   5.505   2.667
  954SOL    HW2 3762   4.438   5.559   2.513
  955SOL     OW 3763   1.826   4.296   0.494
  955SOL    HW1 3764   1.805   4.380   0.545
  955SOL    HW2 3765   1.754   4.277   0.428
  956SOL     OW 3766   0.441   0.996   1.090
  956SOL    HW1 3767   0.468   0.939   1.167
  956SOL    HW2 3768   0.455   1.093   1.113
  957SOL     OW 3769   6.170   1.120   1.894
  957SOL    HW1 3770   6.157   1.042   1.833
  957SOL    HW2 3771   6.086   1.135   1.946
  958SOL     OW 3772   5.090   6.306   1.961
  958SOL    HW1 3773   5.012   6.311   2.023
  958SOL    HW2 3774   5.061   6.329   1.868
  959SOL     OW 3775   3.768   0.120   4.784
  959SOL    HW1 3776   3.788   0.052   4.713
  959SOL    HW2 3777   3.811   0.093   4.870
  960SOL     OW 3778   1.122   0.627   0.921
  960SOL    HW1 3779   1.118   0.721   0.954
  960SOL    HW2 3780   1.116   0.627   0.821
  961SOL     OW 3781   3.423   6.832   3.247
  961SOL    HW1 3782   3.470   6.920   3.243
  961SOL    HW2 3783   3.389   6.808   3.156
  962SOL     OW 3784   6.446   6.941   5.067
  962SOL    HW1 3785   6.475   7.010   5.001
  962SOL    HW2 3786   6.514   6.934   5.140
  963SOL     OW 3787   4.399   1.767   1.537
  963SOL    HW1 3788   4.389   1.839   1.468
  963SOL    HW2 3789   4.400   1.808   1.628
  964SOL     OW 3790   4.986   4.598   5.024
  964SOL    HW1 3791   4.963   4.686   4.983
  964SOL    HW2 3792   5.006   4.532   4.952
  965SOL     OW 3793   5.884   2.234   2.256
  965SOL    HW1 3794   5.815   2.191   2.198
  965SOL    HW2 3795   5.932   2.164   2.309
  966SOL     OW 3796   4.969   2.129   3.488
  966SOL    HW1 3797   4.962   2.077   3.573
  966SOL    HW2 3798   4.877   2.148   3.453
  967SOL     OW 3799   4.058   4.559   5.957
  967SOL    HW1 3800   3.999   4.637   5.980
  967SOL    HW2 3801   4.107   4.529   6.039
  968SOL     OW 3802   3.349   0.284   1.684
  968SOL    HW1 3803   3.333   0.257   1.589
  968SOL    HW2 3804   3.339   0.383   1.693
  969SOL     OW 3805   3.431   5.320   6.027
  969SOL    HW1 3806   3.428   5.239   6.085
  969SOL    HW2 3807   3.398   5.296   5.935
  970SOL     OW 3808   6.428   0.741   5.693
  970SOL    HW1 3809   6.387   0.672   5.634
  970SOL    HW2 3810   6.384   0.830   5.677
  971SOL     OW 3811   6.834   4.214   2.758
  971SOL    HW1 3812   6.753   4.156   2.770
  971SOL    HW2 3813   6.916   4.158   2.762
  972SOL     OW 3814   6.689   2.578   1.100
  972SOL    HW1 3815   6.676   2.484   1.132
  972SOL    HW2 3816   6.602   2.627   1.102
  973SOL     OW 3817   0.405   4.153   6.123
  973SOL    HW1 3818   0.321   4.198   6.153
  973SOL    HW2 3819   0.472   4.222   6.097
  974SOL     OW 3820   0.621   4.784   3.525
  974SOL    HW1 3821   0.645   4.849   3.453
  974SOL    HW2 3822   0.568   4.830   3.596
  975SOL     OW 3823   2.286   6.828   1.739
  975SOL    HW1 3824   2.254   6.834   1.645
  975SOL    HW2 3825   2.210   6.801   1.799
  976SOL     OW 3826   6.452   4.299   1.574
  976SOL    HW1 3827   6.384   4.286   1.647
  976SOL    HW2 3828   6.516   4.371   1.601
  977SOL     OW 3829   0.766   1.866   1.945
  977SOL    HW1 3830   0.751   1.808   2.024
  977SOL    HW2 3831   0.718   1.828   1.866
  978SOL     OW 3832   5.722   2.152   1.665
  978SOL    HW1 3833   5.772   2.147   1.751
  978SOL    HW2 3834   5.709   2.059   1.629
  979SOL     OW 3835   7.008   3.331   6.238
  979SOL    HW1 3836   0.053   3.393   6.204
  979SOL    HW2 3837   0.004   3.305   6.332
  980SOL     OW 3838   4.135   1.184   4.902
  980SOL    HW1 3839   4.039   1.198   4.879
  980SOL    HW2 3840   4.164   1.255   4.966
  981SOL     OW 3841   0.033   6.988   4.712
  981SOL    HW1 3842   0.117   0.016   4.717
  981SOL    HW2 3843   6.994   0.009   4.650
  982SOL     OW 3844   0.342   2.067   5.389
  982SOL    HW1 3845   0.332   2.014   5.305
  982SOL    HW2 3846   0.263   2.050   5.449
  983SOL     OW 3847   6.706   3.570   3.247
  983SOL    HW1 3848   6.708   3.544   3.344
  983SOL    HW2 3849   6.612   3.581   3.217
  984SOL     OW 3850   1.817   2.315   2.974
  984SOL    HW1 3851   1.785   2.223   2.996
  984SOL    HW2 3852   1.773   2.347   2.890
  985SOL     OW 3853   6.045   3.517   3.948
  985SOL    HW1 3854   6.061   3.485   3.855
  985SOL    HW2 3855   5.955   3.560   3.954
  986SOL     OW 3856   4.949   4.178   1.292
  986SOL    HW1 3857   4.913   4.171   1.385
  986SOL    HW2 3858   4.953   4.087   1.251
  987SOL     OW 3859   5.644   5.933   3.279
  987SOL    HW1 3860   5.725   5.941   3.220
  987SOL    HW2 3861   5.562   5.946   3.225
  988SOL     OW 3862   3.523   3.988   1.789
  988SOL    HW1 3863   3.546   3.991   1.887
  988SOL    HW2 3864   3.562   3.906   1.748
  989SOL     OW 3865   6.911   2.302   0.646
  989SOL    HW1 3866   6.926   2.246   0.728
  989SOL    HW2 3867   6.883   2.394   0.673
  990SOL     OW 3868   3.138   0.740   3.181
  990SOL    HW1 3869   3.090   0.697   3.258
  990SOL    HW2 3870   3.072   0.765   3.110
  991SOL     OW 3871   6.630   4.084   3.959
  991SOL    HW1 3872   6.624   4.069   4.058
  991SOL    HW2 3873   6.581   4.011   3.911
  992SOL     OW 3874   1.021   3.027   0.938
  992SOL    HW1 3875   1.070   2.947   0.904
  992SOL    HW2 3876   1.073   3.070   1.012
  993SOL     OW 3877   1.242   3.998   1.227
  993SOL    HW1 3878   1.310   4.023   1.158
  993SOL    HW2 3879   1.171   4.068   1.230
  994SOL     OW 3880   3.654   6.364   1.184
  994SOL    HW1 3881   3.582   6.295   1.190
  994SOL    HW2 3882   3.634   6.440   1.246
  995SOL     OW 3883   4.581   3.624   5.964
  995SOL    HW1 3884   4.648   3.585   6.027
  995SOL    HW2 3885   4.623   3.698   5.912
  996SOL     OW 3886   4.149   6.289   5.696
  996SOL    HW1 3887   4.144   6.198   5.654
  996SOL    HW2 3888   4.128   6.358   5.627
  997SOL     OW 3889   1.554   6.759   3.422
  997SOL    HW1 3890   1.614   6.715   3.355
  997SOL    HW2 3891   1.595   6.750   3.513
  998SOL     OW 3892   5.885   6.989   5.991
  998SOL    HW1 3893   5.886   6.897   6.029
  998SOL    HW2 3894   5.929   0.026   6.055
  999SOL     OW 3895   4.805   3.697   1.522
  999SOL    HW1 3896   4.851   3.786   1.527
  999SOL    HW2 3897   4.822   3.646   1.606
 1000SOL     OW 3898   4.011   1.415   1.311
 1000SOL    HW1 3899   3.935   1.353   1.329
 1000SOL    HW2 3900   4.097   1.366   1.321
 1001SOL     OW 3901   2.478   6.251   1.917
 1001SOL    HW1 3902   2.451   6.280   2.008
 1001SOL    HW2 3903   2.509   6.156   1.919
 1002SOL     OW 3904   5.043   2.174   1.724
 1002SOL    HW1 3905   5.026   2.272   1.720
 1002SOL    HW2 3906   5.109   2.155   1.797
 1003SOL     OW 3907   1.447   6.252   2.679
 1003SOL    HW1 3908   1.370   6.197   2.647
 1003SOL    HW2 3909   1.418   6.309   2.755
 1004SOL     OW 3910   6.566   1.174   2.735
 1004SOL    HW1 3911   6.538   1.240   2.665
 1004SOL    HW2 3912   6.582   1.085   2.692
 1005SOL     OW 3913   1.632   4.432   4.319
 1005SOL    HW1 3914   1.731   4.431   4.308
 1005SOL    HW2 3915   1.598   4.526   4.310
 1006SOL     OW 3916   2.327   4.328   0.461
 1006SOL    HW1 3917   2.367   4.359   0.375
 1006SOL    HW2 3918   2.393   4.269   0.509
 1007SOL     OW 3919   4.616   1.740   6.861
 1007SOL    HW1 3920   4.605   1.779   6.770
 1007SOL    HW2 3921   4.713   1.736   6.883
 1008SOL     OW 3922   0.771   3.943   5.152
 1008SOL    HW1 3923   0.855   3.892   5.132
 1008SOL    HW2 3924   0.780   4.037   5.120
 1009SOL     OW 3925   6.038   4.987   5.262
 1009SOL    HW1 3926   6.135   4.968   5.281
 1009SOL    HW2 3927   5.999   5.038   5.338
 1010SOL     OW 3928   2.020   2.819   1.655
 1010SOL    HW1 3929   1.980   2.788   1.569
 1010SOL    HW2 3930   2.088   2.889   1.637
 1011SOL     OW 3931   1.048   5.341   2.884
 1011SOL    HW1 3932   1.002   5.392   2.811
 1011SOL    HW2 3933   1.086   5.405   2.950
 1012SOL     OW 3934   6.554   0.093   2.398
 1012SOL    HW1 3935   6.519   0.137   2.316
 1012SOL    HW2 3936   6.649   0.122   2.413
 1013SOL     OW 3937   6.947   0.775   6.274
 1013SOL    HW1 3938   6.930   0.770   6.175
 1013SOL    HW2 3939   6.983   0.865   6.297
 1014SOL     OW 3940   1.277   4.505   4.324
 1014SOL    HW1 3941   1.240   4.511   4.417
 1014SOL    HW2 3942   1.284   4.409   4.297
 1015SOL     OW 3943   3.066   0.213   6.434
 1015SOL    HW1 3944   3.141   0.227   6.499
 1015SOL    HW2 3945   3.065   0.118   6.403
 1016SOL     OW 3946   5.261   4.201   1.194
 1016SOL    HW1 3947   5.290   4.225   1.287
 1016SOL    HW2 3948   5.225   4.283   1.149
 1017SOL     OW 3949   2.241   1.611   1.610
 1017SOL    HW1 3950   2.185   1.661   1.675
 1017SOL    HW2 3951   2.183   1.551   1.554
 1018SOL     OW 3952   0.065   4.595   3.697
 1018SOL    HW1 3953   0.157   4.633   3.683
 1018SOL    HW2 3954   0.034   4.552   3.612
 1019SOL     OW 3955   6.649   4.914   0.654
 1019SOL    HW1 3956   6.596   4.999   0.659
 1019SOL    HW2 3957   6.706   4.916   0.571
 1020SOL     OW 3958   6.875   0.450   1.201
 1020SOL    HW1 3959   6.925   0.433   1.116
 1020SOL    HW2 3960   6.865   0.549   1.214
 1021SOL     OW 3961   6.538   5.725   2.086
 1021SOL    HW1 3962   6.609   5.695   2.022
 1021SOL    HW2 3963   6.548   5.676   2.172
 1022SOL     OW 3964   3.022   6.300   5.940
 1022SOL    HW1 3965   2.987   6.361   6.011
 1022SOL    HW2 3966   2.980   6.323   5.853
 1023SOL     OW 3967   6.639   0.976   2.549
 1023SOL    HW1 3968   6.722   0.997   2.497
 1023SOL    HW2 3969   6.630   0.877   2.560
 1024SOL     OW 3970   0.912   1.291   4.548
 1024SOL    HW1 3971   0.831   1.348   4.543
 1024SOL    HW2 3972   0.885   1.194   4.548
 1025SOL     OW 3973   5.059   3.258   6.924
 1025SOL    HW1 3974   5.103   3.339   6.964
 1025SOL    HW2 3975   4.968   3.282   6.891
 1026SOL     OW 3976   3.116   2.626   1.704
 1026SOL    HW1 3977   3.113   2.560   1.629
 1026SOL    HW2 3978   3.080   2.583   1.787
 1027SOL     OW 3979   1.184   6.172   1.625
 1027SOL    HW1 3980   1.129   6.212   1.699
 1027SOL    HW2 3981   1.135   6.094   1.586
 1028SOL     OW 3982   1.166   6.215   3.247
 1028SOL    HW1 3983   1.195   6.309   3.264
 1028SOL    HW2 3984   1.229   6.171   3.184
 1029SOL     OW 3985   1.033   2.069   5.680
 1029SOL    HW1 3986   1.067   2.075   5.774
 1029SOL    HW2 3987   0.969   2.143   5.663
 1030SOL     OW 3988   3.240   3.154   1.830
 1030SOL    HW1 3989   3.215   3.235   1.777
 1030SOL    HW2 3990   3.162   3.091   1.833
 1031SOL     OW 3991   3.598   3.283   1.585
 1031SOL    HW1 3992   3.565   3.203   1.636
 1031SOL    HW2 3993   3.574   3.366   1.634
 1032SOL     OW 3994   2.464   1.407   5.034
 1032SOL    HW1 3995   2.423   1.460   4.959
 1032SOL    HW2 3996   2.562   1.425   5.037
 1033SOL     OW 3997   1.436   6.110   2.310
 1033SOL    HW1 3998   1.398   6.127   2.401
 1033SOL    HW2 3999   1.408   6.183   2.248
 1034SOL     OW 4000   2.729   6.388   4.319
 1034SOL    HW1 4001   2.808   6.337   4.284
 1034SOL    HW2 4002   2.757   6.482   4.339
 1035SOL     OW 4003   0.685   2.613   6.039
 1035SOL    HW1 4004   0.757   2.545   6.044
 1035SOL    HW2 4005   0.692   2.677   6.115
 1036SOL     OW 4006   4.842   1.218   1.415
 1036SOL    HW1 4007   4.934   1.248   1.438
 1036SOL    HW2 4008   4.844   1.170   1.327
 1037SOL     OW 4009   1.804   2.239   2.267
 1037SOL    HW1 4010   1.900   2.239   2.241
 1037SOL    HW2 4011   1.772   2.333   2.279
 1038SOL     OW 4012   1.898   0.978   0.048
 1038SOL    HW1 4013   1.858   0.886   0.059
 1038SOL    HW2 4014   1.943   0.984   6.985
 1039SOL     OW 4015   3.363   3.018   3.768
 1039SOL    HW1 4016   3.323   2.961   3.840
 1039SOL    HW2 4017   3.456   3.042   3.793
 1040SOL     OW 4018   5.305   0.852   3.421
 1040SOL    HW1 4019   5.383   0.886   3.474
 1040SOL    HW2 4020   5.229   0.916   3.428
 1041SOL     OW 4021   6.965   6.665   4.205
 1041SOL    HW1 4022   7.016   6.744   4.170
 1041SOL    HW2 4023   7.013   6.626   4.284
 1042SOL     OW 4024   4.655   5.198   2.674
 1042SOL    HW1 4025   4.688   5.121   2.729
 1042SOL    HW2 4026   4.733   5.253   2.644
 1043SOL     OW 4027   3.305   1.482   3.275
 1043SOL    HW1 4028   3.328   1.429   3.194
 1043SOL    HW2 4029   3.206   1.477   3.291
 1044SOL     OW 4030   6.183   5.548   1.283
 1044SOL    HW1 4031   6.086   5.564   1.302
 1044SOL    HW2 4032   6.211   5.601   1.202
 1045SOL     OW 4033   2.481   0.111   3.431
 1045SOL    HW1 4034   2.414   0.186   3.422
 1045SOL    HW2 4035   2.510   0.081   3.340
 1046SOL     OW 4036   2.466   1.134   1.287
 1046SOL    HW1 4037   2.474   1.072   1.209
 1046SOL    HW2 4038   2.512   1.220   1.265
 1047SOL     OW 4039   3.419   6.964   4.048
 1047SOL    HW1 4040   3.449   6.902   3.976
 1047SOL    HW2 4041   3.320   6.961   4.056
 1048SOL     OW 4042   2.485   6.155   2.341
 1048SOL    HW1 4043   2.489   6.057   2.321
 1048SOL    HW2 4044   2.576   6.189   2.363
 1049SOL     OW 4045   4.498   6.943   4.219
 1049SOL    HW1 4046   4.434   6.922   4.294
 1049SOL    HW2 4047   4.451   6.933   4.132
 1050SOL     OW 4048   3.816   5.142   2.978
 1050SOL    HW1 4049   3.788   5.236   3.000
 1050SOL    HW2 4050   3.783   5.080   3.049
 1051SOL     OW 4051   6.931   6.499   0.465
 1051SOL    HW1 4052   6.908   6.455   0.378
 1051SOL    HW2 4053   6.879   6.455   0.538
 1052SOL     OW 4054   4.082   0.433   5.757
 1052SOL    HW1 4055   4.169   0.393   5.729
 1052SOL    HW2 4056   4.011   0.406   5.692
 1053SOL     OW 4057   5.473   3.681   1.969
 1053SOL    HW1 4058   5.395   3.743   1.968
 1053SOL    HW2 4059   5.474   3.628   2.053
 1054SOL     OW 4060   2.920   3.862   0.787
 1054SOL    HW1 4061   2.919   3.849   0.688
 1054SOL    HW2 4062   2.951   3.779   0.832
 1055SOL     OW 4063   5.358   5.529   6.470
 1055SOL    HW1 4064   5.274   5.566   6.432
 1055SOL    HW2 4065   5.410   5.602   6.515
 1056SOL     OW 4066   2.231   3.919   0.780
 1056SOL    HW1 4067   2.150   3.917   0.722
 1056SOL    HW2 4068   2.204   3.913   0.876
 1057SOL     OW 4069   3.496   1.850   2.008
 1057SOL    HW1 4070   3.411   1.893   1.976
 1057SOL    HW2 4071   3.542   1.911   2.073
 1058SOL     OW 4072   3.992   2.110   3.173
 1058SOL    HW1 4073   4.018   2.080   3.265
 1058SOL    HW2 4074   3.898   2.084   3.155
 1059SOL     OW 4075   2.321   6.570   1.881
 1059SOL    HW1 4076   2.378   6.626   1.821
 1059SOL    HW2 4077   2.243   6.624   1.913
 1060SOL     OW 4078   0.525   5.247   4.411
 1060SOL    HW1 4079   0.565   5.202   4.331
 1060SOL    HW2 4080   0.502   5.342   4.388
 1061SOL     OW 4081   6.334   4.314   0.070
 1061SOL    HW1 4082   6.309   4.334   7.001
 1061SOL    HW2 4083   6.299   4.224   0.096
 1062SOL     OW 4084   4.103   6.631   4.964
 1062SOL    HW1 4085   4.045   6.711   4.950
 1062SOL    HW2 4086   4.068   6.578   5.041
 1063SOL     OW 4087   0.720   0.118   5.685
 1063SOL    HW1 4088   0.802   0.062   5.676
 1063SOL    HW2 4089   0.716   0.158   5.777
 1064SOL     OW 4090   0.794   4.480   1.597
 1064SOL    HW1 4091   0.800   4.544   1.520
 1064SOL    HW2 4092   0.758   4.528   1.677
 1065SOL     OW 4093   3.789   1.061   3.940
 1065SOL    HW1 4094   3.741   0.986   3.894
 1065SOL    HW2 4095   3.888   1.048   3.931
 1066SOL     OW 4096   5.114   6.880   2.090
 1066SOL    HW1 4097   5.132   6.977   2.076
 1066SOL    HW2 4098   5.175   6.845   2.161
 1067SOL     OW 4099   2.717   1.300   0.053
 1067SOL    HW1 4100   2.623   1.294   0.087
 1067SOL    HW2 4101   2.736   1.222   7.019
 1068SOL     OW 4102   6.554   4.133   1.143
 1068SOL    HW1 4103   6.496   4.146   1.063
 1068SOL    HW2 4104   6.537   4.206   1.209
 1069SOL     OW 4105   5.824   4.620   0.667
 1069SOL    HW1 4106   5.740   4.595   0.715
 1069SOL    HW2 4107   5.862   4.704   0.706
 1070SOL     OW 4108   2.107   0.078   2.353
 1070SOL    HW1 4109   2.141   0.156   2.406
 1070SOL    HW2 4110   2.024   0.105   2.304
 1071SOL     OW 4111   0.465   2.224   4.823
 1071SOL    HW1 4112   0.467   2.145   4.762
 1071SOL    HW2 4113   0.552   2.273   4.817
 1072SOL     OW 4114   2.224   0.582   1.548
 1072SOL    HW1 4115   2.272   0.651   1.494
 1072SOL    HW2 4116   2.143   0.622   1.590
 1073SOL     OW 4117   5.761   1.631   3.037
 1073SOL    HW1 4118   5.728   1.641   2.943
 1073SOL    HW2 4119   5.733   1.710   3.091
 1074SOL     OW 4120   2.609   5.118   2.542
 1074SOL    HW1 4121   2.611   5.039   2.481
 1074SOL    HW2 4122   2.695   5.168   2.536
 1075SOL     OW 4123   5.704   1.443   4.857
 1075SOL    HW1 4124   5.730   1.480   4.768
 1075SOL    HW2 4125   5.779   1.388   4.894
 1076SOL     OW 4126   2.163   3.871   5.570
 1076SOL    HW1 4127   2.198   3.876   5.477
 1076SOL    HW2 4128   2.063   3.877   5.569
 1077SOL     OW 4129   0.079   0.554   0.418
 1077SOL    HW1 4130   0.053   0.605   0.335
 1077SOL    HW2 4131   0.115   0.465   0.392
 1078SOL     OW 4132   6.326   6.964   3.526
 1078SOL    HW1 4133   6.320   6.875   3.479
 1078SOL    HW2 4134   6.292   0.010   3.464
 1079SOL     OW 4135   1.337   5.372   2.631
 1079SOL    HW1 4136   1.307   5.449   2.574
 1079SOL    HW2 4137   1.268   5.299   2.627
 1080SOL     OW 4138   2.255   5.677   5.208
 1080SOL    HW1 4139   2.331   5.691   5.271
 1080SOL    HW2 4140   2.267   5.591   5.159
 1081SOL     OW 4141   6.923   5.856   4.279
 1081SOL    HW1 4142   6.830   5.842   4.315
 1081SOL    HW2 4143   6.977   5.906   4.347
 1082SOL     OW 4144   6.326   1.124   5.950
 1082SOL    HW1 4145   6.330   1.025   5.940
 1082SOL    HW2 4146   6.234   1.156   5.926
 1083SOL     OW 4147   4.814   4.360   0.587
 1083SOL    HW1 4148   4.760   4.442   0.567
 1083SOL    HW2 4149   4.756   4.279   0.581
 1084SOL     OW 4150   6.252   7.016   6.706
 1084SOL    HW1 4151   6.251   6.921   6.735
 1084SOL    HW2 4152   6.298   0.046   6.776
 1085SOL     OW 4153   1.633   3.497   4.485
 1085SOL    HW1 4154   1.553   3.549   4.455
 1085SOL    HW2 4155   1.651   3.515   4.581
 1086SOL     OW 4156   6.516   4.403   6.136
 1086SOL    HW1 4157   6.598   4.369   6.089
 1086SOL    HW2 4158   6.478   4.480   6.084
 1087SOL     OW 4159   1.303   1.456   5.211
 1087SOL    HW1 4160   1.266   1.412   5.292
 1087SOL    HW2 4161   1.378   1.401   5.173
 1088SOL     OW 4162   0.424   5.338   3.376
 1088SOL    HW1 4163   0.502   5.398   3.395
 1088SOL    HW2 4164   0.426   5.260   3.439
 1089SOL     OW 4165   0.408   5.424   4.984
 1089SOL    HW1 4166   0.430   5.327   4.976
 1089SOL    HW2 4167   0.435   5.471   4.900
 1090SOL     OW 4168   5.806   1.933   3.589
 1090SOL    HW1 4169   5.799   2.003   3.661
 1090SOL    HW2 4170   5.714   1.907   3.560
 1091SOL     OW 4171   2.182   3.332   3.559
 1091SOL    HW1 4172   2.180   3.341   3.659
 1091SOL    HW2 4173   2.158   3.420   3.517
 1092SOL     OW 4174   0.662   5.018   1.337
 1092SOL    HW1 4175   0.668   5.117   1.334
 1092SOL    HW2 4176   0.726   4.983   1.405
 1093SOL     OW 4177   2.745   6.875   1.546
 1093SOL    HW1 4178   2.809   6.809   1.585
 1093SOL    HW2 4179   2.795   6.943   1.493
 1094SOL     OW 4180   0.606   6.664   2.701
 1094SOL    HW1 4181   0.519   6.647   2.655
 1094SOL    HW2 4182   0.593   6.658   2.800
 1095SOL     OW 4183   0.301   2.389   6.403
 1095SOL    HW1 4184   0.276   2.372   6.307
 1095SOL    HW2 4185   0.219   2.413   6.455
 1096SOL     OW 4186   3.048   5.652   1.009
 1096SOL    HW1 4187   3.088   5.644   1.100
 1096SOL    HW2 4188   3.100   5.595   0.945
 1097SOL     OW 4189   2.186   5.638   3.368
 1097SOL    HW1 4190   2.195   5.538   3.374
 1097SOL    HW2 4191   2.125   5.661   3.292
 1098SOL     OW 4192   5.980   4.117   6.724
 1098SOL    HW1 4193   5.973   4.175   6.805
 1098SOL    HW2 4194   6.075   4.088   6.711
 1099SOL     OW 4195   4.641   1.313   6.214
 1099SOL    HW1 4196   4.723   1.306   6.159
 1099SOL    HW2 4197   4.602   1.222   6.228
 1100SOL     OW 4198   3.806   1.325   3.708
 1100SOL    HW1 4199   3.747   1.292   3.781
 1100SOL    HW2 4200   3.893   1.276   3.711
 1101SOL     OW 4201   5.349   3.783   5.178
 1101SOL    HW1 4202   5.334   3.700   5.231
 1101SOL    HW2 4203   5.373   3.858   5.239
 1102SOL     OW 4204   2.416   0.681   4.777
 1102SOL    HW1 4205   2.471   0.765   4.784
 1102SOL    HW2 4206   2.337   0.688   4.838
 1103SOL     OW 4207   2.759   1.842   0.029
 1103SOL    HW1 4208   2.728   1.747   0.041
 1103SOL    HW2 4209   2.756   1.865   6.957
 1104SOL     OW 4210   1.165   3.966   3.390
 1104SOL    HW1 4211   1.139   3.931   3.480
 1104SOL    HW2 4212   1.141   3.900   3.320
 1105SOL     OW 4213   5.404   2.321   5.144
 1105SOL    HW1 4214   5.412   2.369   5.231
 1105SOL    HW2 4215   5.353   2.377   5.079
 1106SOL     OW 4216   0.593   1.219   0.131
 1106SOL    HW1 4217   0.659   1.234   0.205
 1106SOL    HW2 4218   0.556   1.126   0.138
 1107SOL     OW 4219   1.539   0.314   6.611
 1107SOL    HW1 4220   1.604   0.253   6.656
 1107SOL    HW2 4221   1.552   0.309   6.512
 1108SOL     OW 4222   3.660   6.622   4.188
 1108SOL    HW1 4223   3.740   6.660   4.141
 1108SOL    HW2 4224   3.671   6.522   4.195
 1109SOL     OW 4225   5.957   1.273   3.641
 1109SOL    HW1 4226   5.928   1.186   3.600
 1109SOL    HW2 4227   6.029   1.255   3.708
 1110SOL     OW 4228   3.526   1.070   3.135
 1110SOL    HW1 4229   3.504   1.164   3.159
 1110SOL    HW2 4230   3.622   1.064   3.107
 1111SOL     OW 4231   4.673   4.131   6.151
 1111SOL    HW1 4232   4.617   4.050   6.167
 1111SOL    HW2 4233   4.742   4.138   6.222
 1112SOL     OW 4234   6.293   6.731   3.415
 1112SOL    HW1 4235   6.279   6.722   3.317
 1112SOL    HW2 4236   6.297   6.640   3.457
 1113SOL     OW 4237   6.672   3.849   2.473
 1113SOL    HW1 4238   6.753   3.847   2.531
 1113SOL    HW2 4239   6.666   3.763   2.422
 1114SOL     OW 4240   4.211   2.254   6.082
 1114SOL    HW1 4241   4.125   2.224   6.041
 1114SOL    HW2 4242   4.229   2.350   6.058
 1115SOL     OW 4243   3.753   4.531   5.957
 1115SOL    HW1 4244   3.800   4.443   5.947
 1115SOL    HW2 4245   3.780   4.591   5.882
 1116SOL     OW 4246   4.979   0.891   0.301
 1116SOL    HW1 4247   5.041   0.877   0.378
 1116SOL    HW2 4248   4.996   0.821   0.231
 1117SOL     OW 4249   0.881   2.367   1.028
 1117SOL    HW1 4250   0.850   2.361   1.123
 1117SOL    HW2 4251   0.892   2.275   0.990
 1118SOL     OW 4252   2.719   5.959   6.419
 1118SOL    HW1 4253   2.760   6.023   6.355
 1118SOL    HW2 4254   2.699   5.873   6.372
 1119SOL     OW 4255   4.360   4.580   2.359
 1119SOL    HW1 4256   4.291   4.650   2.379
 1119SOL    HW2 4257   4.379   4.580   2.261
 1120SOL     OW 4258   6.501   5.648   1.045
 1120SOL    HW1 4259   6.428   5.696   1.093
 1120SOL    HW2 4260   6.465   5.611   0.959
 1121SOL     OW 4261   0.678   5.301   4.629
 1121SOL    HW1 4262   0.623   5.371   4.676
 1121SOL    HW2 4263   0.634   5.277   4.542
 1122SOL     OW 4264   5.753   3.122   2.024
 1122SOL    HW1 4265   5.653   3.122   2.013
 1122SOL    HW2 4266   5.777   3.070   2.106
 1123SOL     OW 4267   4.584   2.291   3.262
 1123SOL    HW1 4268   4.515   2.222   3.281
 1123SOL    HW2 4269   4.546   2.382   3.282
 1124SOL     OW 4270   1.642   3.098   5.109
 1124SOL    HW1 4271   1.680   3.175   5.161
 1124SOL    HW2 4272   1.542   3.104   5.111
 1125SOL     OW 4273   1.654   3.595   5.138
 1125SOL    HW1 4274   1.676   3.661   5.066
 1125SOL    HW2 4275   1.564   3.615   5.176
 1126SOL     OW 4276   4.254   5.554   5.641
 1126SOL    HW1 4277   4.236   5.612   5.562
 1126SOL    HW2 4278   4.263   5.459   5.611
 1127SOL     OW 4279   5.810   6.319   4.059
 1127SOL    HW1 4280   5.887   6.277   4.107
 1127SOL    HW2 4281   5.742   6.249   4.036
 1128SOL     OW 4282   5.792   1.109   4.130
 1128SOL    HW1 4283   5.835   1.088   4.042
 1128SOL    HW2 4284   5.741   1.029   4.161
 1129SOL     OW 4285   2.041   6.513   0.671
 1129SOL    HW1 4286   2.035   6.414   0.660
 1129SOL    HW2 4287   2.100   6.551   0.599
 1130SOL     OW 4288   1.908   5.465   2.020
 1130SOL    HW1 4289   1.992   5.436   2.066
 1130SOL    HW2 4290   1.834   5.403   2.045
 1131SOL     OW 4291   1.689   6.934   3.959
 1131SOL    HW1 4292   1.685   6.840   3.992
 1131SOL    HW2 4293   1.614   6.950   3.894
 1132SOL     OW 4294   4.792   0.660   2.628
 1132SOL    HW1 4295   4.737   0.620   2.555
 1132SOL    HW2 4296   4.743   0.653   2.714
 1133SOL     OW 4297   1.537   0.310   5.474
 1133SOL    HW1 4298   1.595   0.306   5.555
 1133SOL    HW2 4299   1.541   0.401   5.434
 1134SOL     OW 4300   5.163   6.727   1.879
 1134SOL    HW1 4301   5.165   6.779   1.793
 1134SOL    HW2 4302   5.132   6.787   1.952
 1135SOL     OW 4303   2.448   6.365   4.294
 1135SOL    HW1 4304   2.417   6.367   4.199
 1135SOL    HW2 4305   2.546   6.384   4.297
 1136SOL     OW 4306   3.606   6.084   3.141
 1136SOL    HW1 4307   3.640   6.174   3.113
 1136SOL    HW2 4308   3.566   6.091   3.232
 1137SOL     OW 4309   0.700   6.030   6.884
 1137SOL    HW1 4310   0.612   6.075   6.871
 1137SOL    HW2 4311   0.686   5.942   6.928
 1138SOL     OW 4312   1.526   3.030   5.503
 1138SOL    HW1 4313   1.460   2.988   5.441
 1138SOL    HW2 4314   1.618   2.995   5.483
 1139SOL     OW 4315   2.475   5.044   4.240
 1139SOL    HW1 4316   2.451   5.135   4.208
 1139SOL    HW2 4317   2.392   4.994   4.266
 1140SOL     OW 4318   2.001   1.336   1.682
 1140SOL    HW1 4319   1.962   1.261   1.628
 1140SOL    HW2 4320   2.100   1.332   1.678
 1141SOL     OW 4321   5.936   5.489   6.077
 1141SOL    HW1 4322   5.844   5.468   6.110
 1141SOL    HW2 4323   5.969   5.573   6.122
 1142SOL     OW 4324   2.352   6.981   3.823
 1142SOL    HW1 4325   2.359   0.048   3.785
 1142SOL    HW2 4326   2.312   6.920   3.754
 1143SOL     OW 4327   1.267   3.167   1.926
 1143SOL    HW1 4328   1.246   3.264   1.939
 1143SOL    HW2 4329   1.196   3.111   1.969
 1144SOL     OW 4330   5.551   4.210   2.795
 1144SOL    HW1 4331   5.505   4.190   2.708
 1144SOL    HW2 4332   5.639   4.162   2.798
 1145SOL     OW 4333   1.431   2.755   0.718
 1145SOL    HW1 4334   1.375   2.747   0.636
 1145SOL    HW2 4335   1.375   2.739   0.799
 1146SOL     OW 4336   0.584   1.813   1.047
 1146SOL    HW1 4337   0.500   1.869   1.049
 1146SOL    HW2 4338   0.619   1.803   1.140
 1147SOL     OW 4339   2.629   5.717   1.283
 1147SOL    HW1 4340   2.543   5.765   1.268
 1147SOL    HW2 4341   2.694   5.778   1.327
 1148SOL     OW 4342   4.162   6.465   1.754
 1148SOL    HW1 4343   4.174   6.381   1.700
 1148SOL    HW2 4344   4.122   6.536   1.696
 1149SOL     OW 4345   6.211   3.049   1.852
 1149SOL    HW1 4346   6.188   3.111   1.777
 1149SOL    HW2 4347   6.127   3.015   1.894
 1150SOL     OW 4348   0.952   4.570   0.120
 1150SOL    HW1 4349   0.871   4.528   0.160
 1150SOL    HW2 4350   0.994   4.507   0.055
 1151SOL     OW 4351   6.216   4.805   4.136
 1151SOL    HW1 4352   6.150   4.855   4.080
 1151SOL    HW2 4353   6.167   4.757   4.209
 1152SOL     OW 4354   4.387   0.227   0.569
 1152SOL    HW1 4355   4.477   0.269   0.581
 1152SOL    HW2 4356   4.351   0.251   0.479
 1153SOL     OW 4357   0.016   0.109   1.365
 1153SOL    HW1 4358   0.032   0.139   1.271
 1153SOL    HW2 4359   6.990   0.179   1.414
 1154SOL     OW 4360   1.047   3.611   2.205
 1154SOL    HW1 4361   0.958   3.567   2.213
 1154SOL    HW2 4362   1.068   3.660   2.290
 1155SOL     OW 4363   1.775   6.428   4.739
 1155SOL    HW1 4364   1.782   6.363   4.815
 1155SOL    HW2 4365   1.839   6.504   4.755
 1156SOL     OW 4366   4.469   1.811   4.958
 1156SOL    HW1 4367   4.558   1.856   4.966
 1156SOL    HW2 4368   4.465   1.759   4.873
 1157SOL     OW 4369   4.714   0.652   5.285
 1157SOL    HW1 4370   4.623   0.694   5.284
 1157SOL    HW2 4371   4.716   0.575   5.222
 1158SOL     OW 4372   5.211   6.123   4.231
 1158SOL    HW1 4373   5.112   6.112   4.225
 1158SOL    HW2 4374   5.246   6.075   4.311
 1159SOL     OW 4375   6.337   6.339   3.163
 1159SOL    HW1 4376   6.359   6.309   3.069
 1159SOL    HW2 4377   6.396   6.291   3.227
 1160SOL     OW 4378   4.063   6.724   0.769
 1160SOL    HW1 4379   3.982   6.671   0.793
 1160SOL    HW2 4380   4.097   6.772   0.850
 1161SOL     OW 4381   6.601   5.198   6.157
 1161SOL    HW1 4382   6.511   5.241   6.160
 1161SOL    HW2 4383   6.592   5.100   6.174
 1162SOL     OW 4384   2.075   2.656   5.963
 1162SOL    HW1 4385   2.116   2.713   6.033
 1162SOL    HW2 4386   2.146   2.606   5.913
 1163SOL     OW 4387   5.964   4.069   1.658
 1163SOL    HW1 4388   5.976   4.075   1.559
 1163SOL    HW2 4389   5.947   3.973   1.684
 1164SOL     OW 4390   5.485   2.467   4.712
 1164SOL    HW1 4391   5.501   2.405   4.789
 1164SOL    HW2 4392   5.387   2.481   4.701
 1165SOL     OW 4393   4.646   6.157   3.565
 1165SOL    HW1 4394   4.702   6.228   3.522
 1165SOL    HW2 4395   4.558   6.152   3.518
 1166SOL     OW 4396   1.736   6.431   6.873
 1166SOL    HW1 4397   1.733   6.368   6.950
 1166SOL    HW2 4398   1.751   6.524   6.906
 1167SOL     OW 4399   4.831   3.972   1.876
 1167SOL    HW1 4400   4.806   4.015   1.963
 1167SOL    HW2 4401   4.756   3.982   1.811
 1168SOL     OW 4402   6.035   2.048   2.367
 1168SOL    HW1 4403   6.120   2.054   2.419
 1168SOL    HW2 4404   6.051   2.001   2.280
 1169SOL     OW 4405   6.159   1.939   5.923
 1169SOL    HW1 4406   6.215   1.860   5.896
 1169SOL    HW2 4407   6.086   1.952   5.855
 1170SOL     OW 4408   4.442   0.142   2.737
 1170SOL    HW1 4409   4.516   0.157   2.672
 1170SOL    HW2 4410   4.365   0.099   2.690
 1171SOL     OW 4411   2.448   0.242   0.513
 1171SOL    HW1 4412   2.368   0.183   0.522
 1171SOL    HW2 4413   2.508   0.206   0.441
 1172SOL     OW 4414   4.957   3.331   0.777
 1172SOL    HW1 4415   4.864   3.323   0.814
 1172SOL    HW2 4416   4.975   3.427   0.754
 1173SOL     OW 4417   2.033   0.686   1.124
 1173SOL    HW1 4418   2.044   0.771   1.176
 1173SOL    HW2 4419   1.948   0.690   1.071
 1174SOL     OW 4420   3.608   3.774   1.566
 1174SOL    HW1 4421   3.579   3.858   1.521
 1174SOL    HW2 4422   3.696   3.745   1.528
 1175SOL     OW 4423   4.264   3.118   5.659
 1175SOL    HW1 4424   4.195   3.165   5.712
 1175SOL    HW2 4425   4.304   3.044   5.714
 1176SOL     OW 4426   4.785   3.194   5.874
 1176SOL    HW1 4427   4.746   3.253   5.804
 1176SOL    HW2 4428   4.734   3.205   5.959
 1177SOL     OW 4429   6.262   3.551   5.486
 1177SOL    HW1 4430   6.314   3.471   5.516
 1177SOL    HW2 4431   6.212   3.589   5.564
 1178SOL     OW 4432   2.586   3.520   0.812
 1178SOL    HW1 4433   2.494   3.514   0.849
 1178SOL    HW2 4434   2.582   3.540   0.714
 1179SOL     OW 4435   2.285   5.841   7.022
 1179SOL    HW1 4436   2.233   5.761   0.026
 1179SOL    HW2 4437   2.379   5.835   0.031
 1180SOL     OW 4438   3.024   5.891   2.743
 1180SOL    HW1 4439   3.107   5.861   2.695
 1180SOL    HW2 4440   3.026   5.857   2.837
 1181SOL     OW 4441   0.056   5.272   6.348
 1181SOL    HW1 4442   6.984   5.274   6.326
 1181SOL    HW2 4443   0.068   5.271   6.448
 1182SOL     OW 4444   4.244   5.883   3.203
 1182SOL    HW1 4445   4.153   5.853   3.232
 1182SOL    HW2 4446   4.242   5.981   3.183
 1183SOL     OW 4447   1.961   4.672   0.767
 1183SOL    HW1 4448   1.892   4.745   0.766
 1183SOL    HW2 4449   1.958   4.625   0.855
 1184SOL     OW 4450   0.685   0.759   4.625
 1184SOL    HW1 4451   0.645   0.672   4.653
 1184SOL    HW2 4452   0.783   0.747   4.606
 1185SOL     OW 4453   0.564   1.140   6.733
 1185SOL    HW1 4454   0.482   1.083   6.738
 1185SOL    HW2 4455   0.611   1.123   6.646
 1186SOL     OW 4456   5.025   5.643   5.113
 1186SOL    HW1 4457   5.048   5.702   5.036
 1186SOL    HW2 4458   5.038   5.694   5.198
 1187SOL     OW 4459   6.506   6.623   0.197
 1187SOL    HW1 4460   6.546   6.704   0.239
 1187SOL    HW2 4461   6.488   6.554   0.267
 1188SOL     OW 4462   3.565   6.170   5.123
 1188SOL    HW1 4463   3.515   6.206   5.044
 1188SOL    HW2 4464   3.508   6.180   5.205
 1189SOL     OW 4465   6.727   2.874   3.048
 1189SOL    HW1 4466   6.811   2.879   3.102
 1189SOL    HW2 4467   6.693   2.780   3.050
 1190SOL     OW 4468   2.467   6.261   3.567
 1190SOL    HW1 4469   2.415   6.179   3.546
 1190SOL    HW2 4470   2.464   6.278   3.665
 1191SOL     OW 4471   4.436   4.646   3.406
 1191SOL    HW1 4472   4.424   4.643   3.307
 1191SOL    HW2 4473   4.348   4.666   3.450
 1192SOL     OW 4474   3.828   5.444   3.106
 1192SOL    HW1 4475   3.904   5.471   3.166
 1192SOL    HW2 4476   3.759   5.516   3.106
 1193SOL     OW 4477   6.184   4.122   4.563
 1193SOL    HW1 4478   6.128   4.152   4.641
 1193SOL    HW2 4479   6.200   4.023   4.571
 1194SOL     OW 4480   5.167   6.754   1.434
 1194SOL    HW1 4481   5.246   6.694   1.423
 1194SOL    HW2 4482   5.093   6.724   1.374
 1195SOL     OW 4483   6.246   4.545   1.715
 1195SOL    HW1 4484   6.308   4.623   1.728
 1195SOL    HW2 4485   6.195   4.557   1.630
 1196SOL     OW 4486   0.076   5.943   2.995
 1196SOL    HW1 4487   0.004   5.880   3.023
 1196SOL    HW2 4488   0.156   5.931   3.053
 1197SOL     OW 4489   3.941   0.452   6.011
 1197SOL    HW1 4490   3.976   0.464   5.918
 1197SOL    HW2 4491   3.925   0.541   6.053
 1198SOL     OW 4492   1.186   3.336   1.683
 1198SOL    HW1 4493   1.192   3.404   1.756
 1198SOL    HW2 4494   1.111   3.273   1.702
 1199SOL     OW 4495   4.497   4.845   1.970
 1199SOL    HW1 4496   4.426   4.887   2.026
 1199SOL    HW2 4497   4.569   4.808   2.029
 1200SOL     OW 4498   3.419   3.560   3.116
 1200SOL    HW1 4499   3.362   3.478   3.115
 1200SOL    HW2 4500   3.431   3.594   3.023
 1201SOL     OW 4501   1.322   1.221   4.371
 1201SOL    HW1 4502   1.378   1.304   4.373
 1201SOL    HW2 4503   1.228   1.245   4.347
 1202SOL     OW 4504   0.991   5.564   6.515
 1202SOL    HW1 4505   0.972   5.570   6.417
 1202SOL    HW2 4506   1.076   5.612   6.537
 1203SOL     OW 4507   5.717   6.026   6.894
 1203SOL    HW1 4508   5.687   6.043   6.800
 1203SOL    HW2 4509   5.670   5.946   6.930
 1204SOL     OW 4510   2.889   6.941   0.969
 1204SOL    HW1 4511   2.980   6.917   0.937
 1204SOL    HW2 4512   2.862   0.005   0.931
 1205SOL     OW 4513   5.597   4.002   1.438
 1205SOL    HW1 4514   5.629   4.096   1.451
 1205SOL    HW2 4515   5.523   4.002   1.370
 1206SOL     OW 4516   3.265   2.743   5.334
 1206SOL    HW1 4517   3.168   2.735   5.356
 1206SOL    HW2 4518   3.281   2.705   5.242
 1207SOL     OW 4519   1.870   6.880   1.032
 1207SOL    HW1 4520   1.927   6.935   0.972
 1207SOL    HW2 4521   1.869   6.920   1.124
 1208SOL     OW 4522   3.058   3.858   0.524
 1208SOL    HW1 4523   3.025   3.953   0.526
 1208SOL    HW2 4524   3.154   3.857   0.495
 1209SOL     OW 4525   4.339   0.672   5.575
 1209SOL    HW1 4526   4.317   0.681   5.478
 1209SOL    HW2 4527   4.406   0.599   5.588
 1210SOL     OW 4528   2.650   0.458   3.137
 1210SOL    HW1 4529   2.667   0.485   3.232
 1210SOL    HW2 4530   2.623   0.538   3.083
 1211SOL     OW 4531   1.630   3.792   1.374
 1211SOL    HW1 4532   1.641   3.843   1.460
 1211SOL    HW2 4533   1.701   3.820   1.310
 1212SOL     OW 4534   6.735   0.276   6.591
 1212SOL    HW1 4535   6.663   0.245   6.529
 1212SOL    HW2 4536   6.821   0.285   6.541
 1213SOL     OW 4537   6.432   2.346   0.382
 1213SOL    HW1 4538   6.517   2.369   0.334
 1213SOL    HW2 4539   6.415   2.414   0.453
 1214SOL     OW 4540   0.014   3.030   0.249
 1214SOL    HW1 4541   0.053   3.093   0.182
 1214SOL    HW2 4542   6.947   3.060   0.273
 1215SOL     OW 4543   1.338   3.859   4.045
 1215SOL    HW1 4544   1.379   3.790   3.985
 1215SOL    HW2 4545   1.407   3.894   4.108
 1216SOL     OW 4546   5.004   0.858   0.962
 1216SOL    HW1 4547   5.078   0.814   1.012
 1216SOL    HW2 4548   5.017   0.847   0.864
 1217SOL     OW 4549   1.317   4.856   1.049
 1217SOL    HW1 4550   1.372   4.939   1.042
 1217SOL    HW2 4551   1.269   4.855   1.137
 1218SOL     OW 4552   1.716   4.743   4.521
 1218SOL    HW1 4553   1.718   4.756   4.422
 1218SOL    HW2 4554   1.798   4.693   4.550
 1219SOL     OW 4555   5.375   5.204   2.249
 1219SOL    HW1 4556   5.429   5.172   2.327
 1219SOL    HW2 4557   5.368   5.304   2.252
 1220SOL     OW 4558   0.718   5.246   3.481
 1220SOL    HW1 4559   0.785   5.319   3.466
 1220SOL    HW2 4560   0.714   5.224   3.579
 1221SOL     OW 4561   4.726   3.340   5.658
 1221SOL    HW1 4562   4.720   3.437   5.634
 1221SOL    HW2 4563   4.638   3.296   5.641
 1222SOL     OW 4564   6.221   6.663   6.734
 1222SOL    HW1 4565   6.226   6.654   6.833
 1222SOL    HW2 4566   6.184   6.579   6.695
 1223SOL     OW 4567   3.774   0.529   0.978
 1223SOL    HW1 4568   3.745   0.519   1.073
 1223SOL    HW2 4569   3.753   0.622   0.946
 1224SOL     OW 4570   2.327   5.888   0.607
 1224SOL    HW1 4571   2.268   5.840   0.671
 1224SOL    HW2 4572   2.348   5.979   0.642
 1225SOL     OW 4573   3.402   3.980   6.170
 1225SOL    HW1 4574   3.458   4.047   6.218
 1225SOL    HW2 4575   3.404   3.998   6.072
 1226SOL     OW 4576   2.770   5.295   1.120
 1226SOL    HW1 4577   2.773   5.394   1.106
 1226SOL    HW2 4578   2.819   5.249   1.046
 1227SOL     OW 4579   0.151   3.697   6.575
 1227SOL    HW1 4580   0.170   3.711   6.672
 1227SOL    HW2 4581   0.114   3.605   6.561
 1228SOL     OW 4582   4.031   2.906   6.538
 1228SOL    HW1 4583   4.040   2.989   6.593
 1228SOL    HW2 4584   3.957   2.850   6.576
 1229SOL     OW 4585   3.936   4.817   6.040
 1229SOL    HW1 4586   3.912   4.744   6.105
 1229SOL    HW2 4587   3.993   4.885   6.086
 1230SOL     OW 4588   4.295   0.658   4.223
 1230SOL    HW1 4589   4.313   0.753   4.246
 1230SOL    HW2 4590   4.380   0.606   4.224
 1231SOL     OW 4591   1.040   3.680   4.999
 1231SOL    HW1 4592   0.996   3.621   5.066
 1231SOL    HW2 4593   1.092   3.751   5.047
 1232SOL     OW 4594   1.354   1.684   5.382
 1232SOL    HW1 4595   1.294   1.743   5.328
 1232SOL    HW2 4596   1.358   1.593   5.341
 1233SOL     OW 4597   1.872   3.416   4.926
 1233SOL    HW1 4598   1.811   3.366   4.865
 1233SOL    HW2 4599   1.878   3.369   5.014
 1234SOL     OW 4600   6.474   4.009   4.843
 1234SOL    HW1 4601   6.470   3.909   4.840
 1234SOL    HW2 4602   6.391   4.045   4.885
 1235SOL     OW 4603   6.968   6.100   2.493
 1235SOL    HW1 4604   0.027   6.047   2.501
 1235SOL    HW2 4605   6.978   6.186   2.542
 1236SOL     OW 4606   5.491   0.915   6.802
 1236SOL    HW1 4607   5.449   0.931   6.892
 1236SOL    HW2 4608   5.504   1.003   6.756
 1237SOL     OW 4609   2.951   5.124   6.884
 1237SOL    HW1 4610   2.853   5.113   6.902
 1237SOL    HW2 4611   2.968   5.217   6.849
 1238SOL     OW 4612   1.776   1.002   1.065
 1238SOL    HW1 4613   1.770   1.080   1.003
 1238SOL    HW2 4614   1.695   1.000   1.123
 1239SOL     OW 4615   0.044   6.219   6.606
 1239SOL    HW1 4616   0.051   6.161   6.687
 1239SOL    HW2 4617   0.117   6.287   6.607
 1240SOL     OW 4618   5.601   5.980   2.001
 1240SOL    HW1 4619   5.693   6.018   2.013
 1240SOL    HW2 4620   5.586   5.962   1.903
 1241SOL     OW 4621   6.600   3.120   4.183
 1241SOL    HW1 4622   6.570   3.112   4.278
 1241SOL    HW2 4623   6.589   3.215   4.153
 1242SOL     OW 4624   1.923   3.677   0.901
 1242SOL    HW1 4625   1.837   3.626   0.892
 1242SOL    HW2 4626   1.932   3.741   0.824
 1243SOL     OW 4627   1.206   6.053   5.436
 1243SOL    HW1 4628   1.121   6.017   5.397
 1243SOL    HW2 4629   1.283   5.999   5.402
 1244SOL     OW 4630   0.339   6.241   2.942
 1244SOL    HW1 4631   0.296   6.244   3.033
 1244SOL    HW2 4632   0.411   6.172   2.943
 1245SOL     OW 4633   4.106   3.690   6.090
 1245SOL    HW1 4634   4.088   3.593   6.103
 1245SOL    HW2 4635   4.203   3.703   6.069
 1246SOL     OW 4636   2.215   6.714   2.171
 1246SOL    HW1 4637   2.199   6.713   2.072
 1246SOL    HW2 4638   2.129   6.695   2.218
 1247SOL     OW 4639   2.889   0.217   6.650
 1247SOL    HW1 4640   2.912   0.227   6.553
 1247SOL    HW2 4641   2.881   0.120   6.673
 1248SOL     OW 4642   2.074   6.940   3.976
 1248SOL    HW1 4643   2.092   6.872   3.905
 1248SOL    HW2 4644   2.147   6.936   4.044
 1249SOL     OW 4645   5.496   2.852   2.245
 1249SOL    HW1 4646   5.412   2.873   2.194
 1249SOL    HW2 4647   5.473   2.833   2.340
 1250SOL     OW 4648   0.486   4.635   4.643
 1250SOL    HW1 4649   0.535   4.599   4.564
 1250SOL    HW2 4650   0.387   4.631   4.625
 1251SOL     OW 4651   3.927   0.477   4.809
 1251SOL    HW1 4652   3.894   0.397   4.859
 1251SOL    HW2 4653   3.966   0.447   4.722
 1252SOL     OW 4654   3.515   3.660   5.816
 1252SOL    HW1 4655   3.485   3.742   5.767
 1252SOL    HW2 4656   3.615   3.658   5.819
 1253SOL     OW 4657   3.926   5.867   1.593
 1253SOL    HW1 4658   3.925   5.824   1.683
 1253SOL    HW2 4659   3.965   5.803   1.526
 1254SOL     OW 4660   6.175   2.712   2.518
 1254SOL    HW1 4661   6.124   2.665   2.445
 1254SOL    HW2 4662   6.119   2.786   2.555
 1255SOL     OW 4663   6.942   0.834   4.859
 1255SOL    HW1 4664   6.905   0.794   4.775
 1255SOL    HW2 4665   6.976   0.926   4.839
 1256SOL     OW 4666   6.933   0.069   3.089
 1256SOL    HW1 4667   6.964   0.156   3.050
 1256SOL    HW2 4668   6.942   7.023   3.020
 1257SOL     OW 4669   0.606   0.101   3.544
 1257SOL    HW1 4670   0.518   0.142   3.524
 1257SOL    HW2 4671   0.605   0.063   3.637
 1258SOL     OW 4672   0.690   5.612   3.389
 1258SOL    HW1 4673   0.772   5.556   3.375
 1258SOL    HW2 4674   0.663   5.609   3.485
 1259SOL     OW 4675   3.725   1.820   4.478
 1259SOL    HW1 4676   3.729   1.876   4.561
 1259SOL    HW2 4677   3.727   1.879   4.397
 1260SOL     OW 4678   0.791   1.692   7.009
 1260SOL    HW1 4679   0.768   1.643   6.925
 1260SOL    HW2 4680   0.823   1.627   0.053
 1261SOL     OW 4681   0.009   5.400   0.137
 1261SOL    HW1 4682   0.016   5.493   0.102
 1261SOL    HW2 4683   0.023   5.335   0.063
 1262SOL     OW 4684   5.344   5.460   2.302
 1262SOL    HW1 4685   5.245   5.469   2.298
 1262SOL    HW2 4686   5.387   5.547   2.275
 1263SOL     OW 4687   0.658   1.726   2.445
 1263SOL    HW1 4688   0.724   1.703   2.517
 1263SOL    HW2 4689   0.604   1.805   2.474
 1264SOL     OW 4690   1.144   3.814   5.623
 1264SOL    HW1 4691   1.076   3.780   5.687
 1264SOL    HW2 4692   1.104   3.885   5.564
 1265SOL     OW 4693   6.882   5.373   4.334
 1265SOL    HW1 4694   6.837   5.317   4.404
 1265SOL    HW2 4695   6.932   5.447   4.379
 1266SOL     OW 4696   0.880   1.019   4.543
 1266SOL    HW1 4697   0.916   0.972   4.623
 1266SOL    HW2 4698   0.781   1.031   4.553
 1267SOL     OW 4699   5.470   0.531   2.081
 1267SOL    HW1 4700   5.463   0.513   1.982
 1267SOL    HW2 4701   5.563   0.515   2.111
 1268SOL     OW 4702   4.023   2.311   5.696
 1268SOL    HW1 4703   4.079   2.246   5.644
 1268SOL    HW2 4704   4.026   2.400   5.651
 1269SOL     OW 4705   5.270   2.424   4.447
 1269SOL    HW1 4706   5.218   2.340   4.428
 1269SOL    HW2 4707   5.206   2.498   4.467
 1270SOL     OW 4708   2.063   4.974   2.284
 1270SOL    HW1 4709   2.064   5.032   2.202
 1270SOL    HW2 4710   2.144   4.993   2.339
 1271SOL     OW 4711   1.795   0.738   0.944
 1271SOL    HW1 4712   1.764   0.668   1.008
 1271SOL    HW2 4713   1.784   0.828   0.987
 1272SOL     OW 4714   6.525   3.385   6.811
 1272SOL    HW1 4715   6.446   3.369   6.751
 1272SOL    HW2 4716   6.539   3.306   6.870
 1273SOL     OW 4717   1.241   4.396   4.795
 1273SOL    HW1 4718   1.298   4.320   4.763
 1273SOL    HW2 4719   1.273   4.426   4.885
 1274SOL     OW 4720   0.428   4.572   1.775
 1274SOL    HW1 4721   0.525   4.595   1.786
 1274SOL    HW2 4722   0.419   4.489   1.721
 1275SOL     OW 4723   2.757   0.484   3.642
 1275SOL    HW1 4724   2.676   0.514   3.692
 1275SOL    HW2 4725   2.830   0.551   3.655
 1276SOL     OW 4726   5.607   4.634   4.006
 1276SOL    HW1 4727   5.613   4.643   4.105
 1276SOL    HW2 4728   5.654   4.710   3.962
 1277SOL     OW 4729   0.912   5.589   6.982
 1277SOL    HW1 4730   0.892   5.550   0.046
 1277SOL    HW2 4731   0.827   5.623   6.941
 1278SOL     OW 4732   1.528   7.014   3.312
 1278SOL    HW1 4733   1.531   6.919   3.344
 1278SOL    HW2 4734   1.438   0.027   3.334
 1279SOL     OW 4735   2.682   3.880   6.093
 1279SOL    HW1 4736   2.672   3.978   6.081
 1279SOL    HW2 4737   2.610   3.833   6.041
 1280SOL     OW 4738   3.479   1.050   4.108
 1280SOL    HW1 4739   3.428   1.058   4.022
 1280SOL    HW2 4740   3.459   1.128   4.166
 1281SOL     OW 4741   3.209   6.031   3.814
 1281SOL    HW1 4742   3.255   5.998   3.896
 1281SOL    HW2 4743   3.119   5.989   3.806
 1282SOL     OW 4744   6.720   3.002   0.682
 1282SOL    HW1 4745   6.732   3.069   0.609
 1282SOL    HW2 4746   6.768   2.917   0.658
 1283SOL     OW 4747   6.425   4.125   5.204
 1283SOL    HW1 4748   6.479   4.042   5.204
 1283SOL    HW2 4749   6.363   4.125   5.125
 1284SOL     OW 4750   3.791   0.862   1.242
 1284SOL    HW1 4751   3.849   0.804   1.185
 1284SOL    HW2 4752   3.841   0.945   1.266
 1285SOL     OW 4753   3.628   1.441   5.101
 1285SOL    HW1 4754   3.673   1.456   5.189
 1285SOL    HW2 4755   3.594   1.528   5.066
 1286SOL     OW 4756   5.047   2.993   1.574
 1286SOL    HW1 4757   5.124   2.939   1.610
 1286SOL    HW2 4758   5.001   3.039   1.650
 1287SOL     OW 4759   5.731   4.834   5.015
 1287SOL    HW1 4760   5.653   4.869   4.962
 1287SOL    HW2 4761   5.698   4.770   5.084
 1288SOL     OW 4762   4.369   4.493   6.477
 1288SOL    HW1 4763   4.430   4.522   6.551
 1288SOL    HW2 4764   4.421   4.477   6.394
 1289SOL     OW 4765   6.694   0.720   1.490
 1289SOL    HW1 4766   6.622   0.652   1.502
 1289SOL    HW2 4767   6.695   0.751   1.395
 1290SOL     OW 4768   1.459   0.549   0.358
 1290SOL    HW1 4769   1.452   0.644   0.388
 1290SOL    HW2 4770   1.526   0.501   0.415
 1291SOL     OW 4771   6.414   4.995   4.216
 1291SOL    HW1 4772   6.503   4.989   4.261
 1291SOL    HW2 4773   6.397   4.913   4.163
 1292SOL     OW 4774   0.113   5.572   2.508
 1292SOL    HW1 4775   0.022   5.592   2.545
 1292SOL    HW2 4776   0.131   5.474   2.512
 1293SOL     OW 4777   2.342   1.765   6.997
 1293SOL    HW1 4778   2.266   1.830   6.996
 1293SOL    HW2 4779   2.307   1.672   6.997
 1294SOL     OW 4780   2.123   4.740   6.708
 1294SOL    HW1 4781   2.111   4.704   6.800
 1294SOL    HW2 4782   2.197   4.690   6.662
 1295SOL     OW 4783   0.420   4.080   1.165
 1295SOL    HW1 4784   0.331   4.092   1.120
 1295SOL    HW2 4785   0.424   3.990   1.207
 1296SOL     OW 4786   4.906   6.762   5.603
 1296SOL    HW1 4787   4.897   6.669   5.568
 1296SOL    HW2 4788   4.968   6.763   5.681
 1297SOL     OW 4789   0.900   6.844   2.444
 1297SOL    HW1 4790   0.963   6.770   2.466
 1297SOL    HW2 4791   0.853   6.823   2.358
 1298SOL     OW 4792   5.318   5.905   3.053
 1298SOL    HW1 4793   5.265   5.894   2.970
 1298SOL    HW2 4794   5.337   6.003   3.068
 1299SOL     OW 4795   2.120   3.217   4.208
 1299SOL    HW1 4796   2.192   3.177   4.150
 1299SOL    HW2 4797   2.138   3.193   4.304
 1300SOL     OW 4798   2.061   3.411   1.027
 1300SOL    HW1 4799   2.116   3.459   0.958
 1300SOL    HW2 4800   2.057   3.314   1.005
 1301SOL     OW 4801   0.740   0.669   1.493
 1301SOL    HW1 4802   0.691   0.582   1.500
 1301SOL    HW2 4803   0.722   0.724   1.575
 1302SOL     OW 4804   5.573   0.550   5.477
 1302SOL    HW1 4805   5.479   0.579   5.493
 1302SOL    HW2 4806   5.632   0.630   5.469
 1303SOL     OW 4807   3.747   6.868   1.732
 1303SOL    HW1 4808   3.691   6.944   1.699
 1303SOL    HW2 4809   3.844   6.890   1.719
 1304SOL     OW 4810   1.045   1.258   1.058
 1304SOL    HW1 4811   0.953   1.228   1.081
 1304SOL    HW2 4812   1.112   1.205   1.110
 1305SOL     OW 4813   5.089   4.116   6.060
 1305SOL    HW1 4814   5.176   4.067   6.058
 1305SOL    HW2 4815   5.076   4.158   6.149
 1306SOL     OW 4816   0.889   6.144   4.913
 1306SOL    HW1 4817   0.879   6.240   4.886
 1306SOL    HW2 4818   0.802   6.097   4.901
 1307SOL     OW 4819   1.862   3.165   4.153
 1307SOL    HW1 4820   1.812   3.237   4.200
 1307SOL    HW2 4821   1.959   3.191   4.145
 1308SOL     OW 4822   6.226   6.157   6.642
 1308SOL    HW1 4823   6.134   6.179   6.610
 1308SOL    HW2 4824   6.239   6.058   6.641
 1309SOL     OW 4825   5.061   4.961   6.024
 1309SOL    HW1 4826   5.135   4.964   5.957
 1309SOL    HW2 4827   5.039   5.054   6.055
 1310SOL     OW 4828   0.419   3.807   3.925
 1310SOL    HW1 4829   0.426   3.708   3.942
 1310SOL    HW2 4830   0.469   3.857   3.995
 1311SOL     OW 4831   6.442   5.472   6.949
 1311SOL    HW1 4832   6.433   5.383   6.993
 1311SOL    HW2 4833   6.363   5.529   6.971
 1312SOL     OW 4834   1.147   1.170   5.843
 1312SOL    HW1 4835   1.079   1.132   5.905
 1312SOL    HW2 4836   1.237   1.130   5.863
 1313SOL     OW 4837   6.073   5.505   3.159
 1313SOL    HW1 4838   6.135   5.515   3.081
 1313SOL    HW2 4839   6.038   5.411   3.162
 1314SOL     OW 4840   3.053   1.845   4.547
 1314SOL    HW1 4841   3.110   1.766   4.570
 1314SOL    HW2 4842   2.981   1.856   4.616
 1315SOL     OW 4843   6.781   0.629   3.602
 1315SOL    HW1 4844   6.852   0.694   3.578
 1315SOL    HW2 4845   6.820   0.556   3.658
 1316SOL     OW 4846   4.032   0.048   5.805
 1316SOL    HW1 4847   3.994   0.001   5.725
 1316SOL    HW2 4848   3.957   0.077   5.865
 1317SOL     OW 4849   1.981   4.221   5.720
 1317SOL    HW1 4850   2.044   4.207   5.644
 1317SOL    HW2 4851   1.912   4.288   5.694
 1318SOL     OW 4852   2.186   3.038   6.834
 1318SOL    HW1 4853   2.097   3.084   6.832
 1318SOL    HW2 4854   2.198   2.984   6.751
 1319SOL     OW 4855   0.068   5.878   0.133
 1319SOL    HW1 4856   7.013   5.917   0.177
 1319SOL    HW2 4857   0.050   5.782   0.110
 1320SOL     OW 4858   3.225   2.764   6.593
 1320SOL    HW1 4859   3.274   2.776   6.680
 1320SOL    HW2 4860   3.225   2.668   6.568
 1321SOL     OW 4861   4.876   2.008   6.731
 1321SOL    HW1 4862   4.961   2.054   6.705
 1321SOL    HW2 4863   4.895   1.945   6.807
 1322SOL     OW 4864   3.233   1.300   5.493
 1322SOL    HW1 4865   3.330   1.282   5.474
 1322SOL    HW2 4866   3.182   1.215   5.489
 1323SOL     OW 4867   3.413   0.009   0.677
 1323SOL    HW1 4868   3.351   0.025   0.600
 1323SOL    HW2 4869   3.477   6.962   0.654
 1324SOL     OW 4870   1.501   3.816   0.194
 1324SOL    HW1 4871   1.483   3.906   0.232
 1324SOL    HW2 4872   1.558   3.763   0.258
 1325SOL     OW 4873   2.965   6.070   5.528
 1325SOL    HW1 4874   2.965   6.067   5.628
 1325SOL    HW2 4875   3.060   6.072   5.495
 1326SOL     OW 4876   4.742   4.401   4.995
 1326SOL    HW1 4877   4.842   4.406   4.994
 1326SOL    HW2 4878   4.714   4.305   4.995
 1327SOL     OW 4879   0.169   0.085   1.102
 1327SOL    HW1 4880   0.098   0.077   1.033
 1327SOL    HW2 4881   0.181   7.022   1.147
 1328SOL     OW 4882   1.187   2.904   6.096
 1328SOL    HW1 4883   1.244   2.920   6.176
 1328SOL    HW2 4884   1.100   2.951   6.106
 1329SOL     OW 4885   0.485   1.605   2.720
 1329SOL    HW1 4886   0.536   1.662   2.785
 1329SOL    HW2 4887   0.404   1.654   2.689
 1330SOL     OW 4888   0.286   2.018   0.818
 1330SOL    HW1 4889   0.333   2.014   0.730
 1330SOL    HW2 4890   0.327   1.951   0.881
 1331SOL     OW 4891   4.310   2.038   2.816
 1331SOL    HW1 4892   4.386   2.011   2.876
 1331SOL    HW2 4893   4.249   2.099   2.866
 1332SOL     OW 4894   1.908   0.546   0.472
 1332SOL    HW1 4895   1.922   0.547   0.571
 1332SOL    HW2 4896   1.996   0.554   0.426
 1333SOL     OW 4897   3.377   4.029   3.214
 1333SOL    HW1 4898   3.460   4.073   3.182
 1333SOL    HW2 4899   3.396   3.932   3.233
 1334SOL     OW 4900   6.881   1.825   3.099
 1334SOL    HW1 4901   6.833   1.817   3.012
 1334SOL    HW2 4902   6.978   1.806   3.086
 1335SOL     OW 4903   1.824   3.037   1.484
 1335SOL    HW1 4904   1.894   3.101   1.451
 1335SOL    HW2 4905   1.862   2.945   1.486
 1336SOL     OW 4906   4.099   1.433   5.536
 1336SOL    HW1 4907   4.034   1.433   5.612
 1336SOL    HW2 4908   4.054   1.401   5.453
 1337SOL     OW 4909   6.831   1.183   2.843
 1337SOL    HW1 4910   6.739   1.190   2.805
 1337SOL    HW2 4911   6.875   1.100   2.807
 1338SOL     OW 4912   6.277   3.911   3.987
 1338SOL    HW1 4913   6.333   3.920   3.905
 1338SOL    HW2 4914   6.207   3.983   3.988
 1339SOL     OW 4915   0.361   0.475   0.196
 1339SOL    HW1 4916   0.319   0.409   0.133
 1339SOL    HW2 4917   0.309   0.560   0.194
 1340SOL     OW 4918   4.672   1.558   2.326
 1340SOL    HW1 4919   4.654   1.604   2.413
 1340SOL    HW2 4920   4.686   1.628   2.255
 1341SOL     OW 4921   4.732   6.351   0.544
 1341SOL    HW1 4922   4.807   6.375   0.483
 1341SOL    HW2 4923   4.770   6.314   0.630
 1342SOL     OW 4924   3.030   5.678   0.480
 1342SOL    HW1 4925   3.105   5.617   0.506
 1342SOL    HW2 4926   2.964   5.627   0.425
 1343SOL     OW 4927   6.115   5.193   3.124
 1343SOL    HW1 4928   6.187   5.147   3.073
 1343SOL    HW2 4929   6.038   5.131   3.136
 1344SOL     OW 4930   0.607   6.286   4.133
 1344SOL    HW1 4931   0.550   6.259   4.056
 1344SOL    HW2 4932   0.563   6.361   4.183
 1345SOL     OW 4933   0.708   5.018   2.273
 1345SOL    HW1 4934   0.624   4.985   2.230
 1345SOL    HW2 4935   0.783   5.016   2.207
 1346SOL     OW 4936   1.953   5.163   5.940
 1346SOL    HW1 4937   1.946   5.260   5.914
 1346SOL    HW2 4938   2.034   5.149   5.997
 1347SOL     OW 4939   1.620   0.314   5.801
 1347SOL    HW1 4940   1.656   0.248   5.866
 1347SOL    HW2 4941   1.520   0.315   5.806
 1348SOL     OW 4942   0.434   5.867   5.504
 1348SOL    HW1 4943   0.508   5.807   5.532
 1348SOL    HW2 4944   0.425   5.942   5.571
 1349SOL     OW 4945   5.595   2.843   4.139
 1349SOL    HW1 4946   5.688   2.830   4.104
 1349SOL    HW2 4947   5.600   2.887   4.229
 1350SOL     OW 4948   3.854   4.537   0.463
 1350SOL    HW1 4949   3.894   4.467   0.522
 1350SOL    HW2 4950   3.892   4.528   0.371
 1351SOL     OW 4951   5.978   1.810   3.765
 1351SOL    HW1 4952   6.063   1.803   3.712
 1351SOL    HW2 4953   5.910   1.860   3.711
 1352SOL     OW 4954   0.163   0.242   2.077
 1352SOL    HW1 4955   0.075   0.204   2.105
 1352SOL    HW2 4956   0.237   0.179   2.101
 1353SOL     OW 4957   0.670   2.004   0.729
 1353SOL    HW1 4958   0.667   2.022   0.630
 1353SOL    HW2 4959   0.655   1.907   0.746
 1354SOL     OW 4960   0.055   3.937   1.987
 1354SOL    HW1 4961   0.087   4.017   1.937
 1354SOL    HW2 4962   0.017   3.966   2.075
 1355SOL     OW 4963   6.184   3.693   4.124
 1355SOL    HW1 4964   6.130   3.644   4.057
 1355SOL    HW2 4965   6.224   3.775   4.082
 1356SOL     OW 4966   3.759   3.016   2.256
 1356SOL    HW1 4967   3.703   3.080   2.308
 1356SOL    HW2 4968   3.850   3.054   2.243
 1357SOL     OW 4969   6.626   3.503   5.953
 1357SOL    HW1 4970   6.594   3.578   6.011
 1357SOL    HW2 4971   6.724   3.489   5.967
 1358SOL     OW 4972   6.197   0.044   0.002
 1358SOL    HW1 4973   6.205   0.115   0.072
 1358SOL    HW2 4974   6.190   6.980   0.045
 1359SOL     OW 4975   6.096   4.630   1.487
 1359SOL    HW1 4976   6.091   4.724   1.521
 1359SOL    HW2 4977   6.081   4.629   1.389
 1360SOL     OW 4978   3.202   3.501   0.019
 1360SOL    HW1 4979   3.200   3.599   7.024
 1360SOL    HW2 4980   3.147   3.484   0.102
 1361SOL     OW 4981   0.177   5.076   5.324
 1361SOL    HW1 4982   0.253   5.133   5.291
 1361SOL    HW2 4983   0.207   4.981   5.329
 1362SOL     OW 4984   4.071   3.420   2.603
 1362SOL    HW1 4985   4.171   3.425   2.605
 1362SOL    HW2 4986   4.034   3.494   2.660
 1363SOL     OW 4987   6.992   5.453   5.119
 1363SOL    HW1 4988   7.018   5.413   5.031
 1363SOL    HW2 4989   0.029   5.421   5.190
 1364SOL     OW 4990   4.255   4.756   6.615
 1364SOL    HW1 4991   4.194   4.676   6.613
 1364SOL    HW2 4992   4.243   4.809   6.531
 1365SOL     OW 4993   0.752   4.394   6.301
 1365SOL    HW1 4994   0.727   4.486   6.274
 1365SOL    HW2 4995   0.849   4.391   6.325
 1366SOL     OW 4996   1.589   0.103   5.252
 1366SOL    HW1 4997   1.545   0.184   5.290
 1366SOL    HW2 4998   1.679   0.127   5.216
 1367SOL     OW 4999   1.608   1.834   2.597
 1367SOL    HW1 5000   1.665   1.901   2.549
 1367SOL    HW2 5001   1.515   1.838   2.562
 1368SOL     OW 5002   5.439   6.663   4.295
 1368SOL    HW1 5003   5.485   6.582   4.258
 1368SOL    HW2 5004   5.341   6.658   4.275
 1369SOL     OW 5005   0.899   6.283   3.232
 1369SOL    HW1 5006   0.870   6.338   3.154
 1369SOL    HW2 5007   0.988   6.242   3.213
 1370SOL     OW 5008   3.092   0.464   1.530
 1370SOL    HW1 5009   3.076   0.556   1.566
 1370SOL    HW2 5010   3.016   0.437   1.472
 1371SOL     OW 5011   4.442   0.664   5.882
 1371SOL    HW1 5012   4.362   0.707   5.924
 1371SOL    HW2 5013   4.457   0.574   5.925
 1372SOL     OW 5014   2.228   2.365   1.089
 1372SOL    HW1 5015   2.135   2.402   1.084
 1372SOL    HW2 5016   2.290   2.423   1.035
 1373SOL     OW 5017   6.937   5.101   0.950
 1373SOL    HW1 5018   7.001   5.149   1.010
 1373SOL    HW2 5019   6.844   5.111   0.985
 1374SOL     OW 5020   4.206   1.921   1.065
 1374SOL    HW1 5021   4.216   1.962   0.974
 1374SOL    HW2 5022   4.139   1.972   1.118
 1375SOL     OW 5023   6.936   5.013   5.969
 1375SOL    HW1 5024   7.015   4.969   5.926
 1375SOL    HW2 5025   6.903   5.087   5.910
 1376SOL     OW 5026   4.963   2.945   3.734
 1376SOL    HW1 5027   4.921   3.026   3.774
 1376SOL    HW2 5028   5.054   2.932   3.774
 1377SOL     OW 5029   0.291   4.821   5.296
 1377SOL    HW1 5030   0.385   4.855   5.303
 1377SOL    HW2 5031   0.289   4.737   5.242
 1378SOL     OW 5032   0.959   2.517   6.838
 1378SOL    HW1 5033   0.957   2.453   6.762
 1378SOL    HW2 5034   0.915   2.476   6.918
 1379SOL     OW 5035   3.440   5.869   3.086
 1379SOL    HW1 5036   3.362   5.930   3.075
 1379SOL    HW2 5037   3.517   5.920   3.123
 1380SOL     OW 5038   6.629   6.785   2.763
 1380SOL    HW1 5039   6.596   6.839   2.686
 1380SOL    HW2 5040   6.693   6.839   2.817
 1381SOL     OW 5041   6.111   2.904   0.352
 1381SOL    HW1 5042   6.200   2.924   0.312
 1381SOL    HW2 5043   6.089   2.973   0.421
 1382SOL     OW 5044   5.910   4.931   6.193
 1382SOL    HW1 5045   5.890   4.835   6.177
 1382SOL    HW2 5046   5.835   4.988   6.158
 1383SOL     OW 5047   0.884   0.427   0.219
 1383SOL    HW1 5048   0.842   0.433   0.309
 1383SOL    HW2 5049   0.974   0.385   0.226
 1384SOL     OW 5050   4.080   1.361   3.200
 1384SOL    HW1 5051   4.092   1.405   3.110
 1384SOL    HW2 5052   4.080   1.262   3.189
 1385SOL     OW 5053   6.393   2.780   2.967
 1385SOL    HW1 5054   6.427   2.874   2.964
 1385SOL    HW2 5055   6.385   2.745   2.874
 1386SOL     OW 5056   2.174   3.120   4.455
 1386SOL    HW1 5057   2.217   3.030   4.454
 1386SOL    HW2 5058   2.181   3.160   4.546
 1387SOL     OW 5059   3.575   0.541   5.215
 1387SOL    HW1 5060   3.556   0.449   5.180
 1387SOL    HW2 5061   3.489   0.584   5.243
 1388SOL     OW 5062   6.481   0.955   4.185
 1388SOL    HW1 5063   6.438   1.019   4.121
 1388SOL    HW2 5064   6.502   1.003   4.270
 1389SOL     OW 5065   5.742   0.002   4.411
 1389SOL    HW1 5066   5.817   0.056   4.450
 1389SOL    HW2 5067   5.772   6.986   4.325
 1390SOL     OW 5068   4.109   1.631   1.439
 1390SOL    HW1 5069   4.206   1.643   1.417
 1390SOL    HW2 5070   4.072   1.556   1.386
 1391SOL     OW 5071   6.088   0.741   4.762
 1391SOL    HW1 5072   6.090   0.819   4.699
 1391SOL    HW2 5073   6.025   0.762   4.838
 1392SOL     OW 5074   4.917   5.835   0.118
 1392SOL    HW1 5075   4.837   5.839   0.177
 1392SOL    HW2 5076   4.889   5.819   0.023
 1393SOL     OW 5077   6.634   1.127   6.219
 1393SOL    HW1 5078   6.598   1.138   6.127
 1393SOL    HW2 5079   6.733   1.141   6.218
 1394SOL     OW 5080   4.012   6.986   3.601
 1394SOL    HW1 5081   4.110   6.985   3.621
 1394SOL    HW2 5082   3.960   6.978   3.686
 1395SOL     OW 5083   1.580   4.612   2.827
 1395SOL    HW1 5084   1.669   4.566   2.826
 1395SOL    HW2 5085   1.553   4.630   2.922
 1396SOL     OW 5086   2.685   1.105   4.552
 1396SOL    HW1 5087   2.765   1.122   4.495
 1396SOL    HW2 5088   2.707   1.122   4.648
 1397SOL     OW 5089   0.608   5.134   3.991
 1397SOL    HW1 5090   0.675   5.176   4.052
 1397SOL    HW2 5091   0.607   5.035   4.005
 1398SOL     OW 5092   1.051   1.621   0.881
 1398SOL    HW1 5093   1.032   1.605   0.784
 1398SOL    HW2 5094   1.150   1.618   0.897
 1399SOL     OW 5095   3.728   0.420   0.720
 1399SOL    HW1 5096   3.721   0.321   0.713
 1399SOL    HW2 5097   3.744   0.446   0.815
 1400SOL     OW 5098   6.309   0.513   4.170
 1400SOL    HW1 5099   6.300   0.493   4.268
 1400SOL    HW2 5100   6.231   0.473   4.121
 1401SOL     OW 5101   5.717   0.217   3.005
 1401SOL    HW1 5102   5.766   0.292   2.959
 1401SOL    HW2 5103   5.727   0.133   2.952
 1402SOL     OW 5104   5.912   3.795   1.645
 1402SOL    HW1 5105   5.925   3.703   1.681
 1402SOL    HW2 5106   5.940   3.798   1.549
 1403SOL     OW 5107   3.555   2.849   0.093
 1403SOL    HW1 5108   3.593   2.758   0.080
 1403SOL    HW2 5109   3.556   2.873   0.190
 1404SOL     OW 5110   4.422   6.774   0.963
 1404SOL    HW1 5111   4.461   6.720   1.038
 1404SOL    HW2 5112   4.324   6.787   0.979
 1405SOL     OW 5113   2.543   3.213   1.105
 1405SOL    HW1 5114   2.612   3.141   1.093
 1405SOL    HW2 5115   2.585   3.292   1.149
 1406SOL     OW 5116   2.739   3.735   1.379
 1406SOL    HW1 5117   2.659   3.694   1.424
 1406SOL    HW2 5118   2.815   3.670   1.380
 1407SOL     OW 5119   0.399   3.471   1.040
 1407SOL    HW1 5120   0.370   3.487   0.945
 1407SOL    HW2 5121   0.498   3.482   1.046
 1408SOL     OW 5122   5.764   5.676   6.663
 1408SOL    HW1 5123   5.840   5.741   6.667
 1408SOL    HW2 5124   5.777   5.615   6.585
 1409SOL     OW 5125   0.093   1.362   5.926
 1409SOL    HW1 5126   0.110   1.323   6.017
 1409SOL    HW2 5127   0.002   1.402   5.923
 1410SOL     OW 5128   3.551   2.112   6.294
 1410SOL    HW1 5129   3.522   2.139   6.202
 1410SOL    HW2 5130   3.649   2.094   6.294
 1411SOL     OW 5131   4.203   5.938   0.518
 1411SOL    HW1 5132   4.201   6.031   0.556
 1411SOL    HW2 5133   4.124   5.887   0.550
 1412SOL     OW 5134   1.702   2.585   0.713
 1412SOL    HW1 5135   1.614   2.618   0.678
 1412SOL    HW2 5136   1.728   2.501   0.663
 1413SOL     OW 5137   1.748   1.542   4.642
 1413SOL    HW1 5138   1.705   1.514   4.727
 1413SOL    HW2 5139   1.824   1.479   4.621
 1414SOL     OW 5140   1.160   3.820   2.019
 1414SOL    HW1 5141   1.255   3.835   2.047
 1414SOL    HW2 5142   1.121   3.746   2.073
 1415SOL     OW 5143   1.808   1.911   3.764
 1415SOL    HW1 5144   1.888   1.927   3.821
 1415SOL    HW2 5145   1.743   1.986   3.775
 1416SOL     OW 5146   4.329   6.842   5.551
 1416SOL    HW1 5147   4.262   6.795   5.608
 1416SOL    HW2 5148   4.342   6.935   5.584
 1417SOL     OW 5149   3.848   2.841   5.994
 1417SOL    HW1 5150   3.779   2.909   5.971
 1417SOL    HW2 5151   3.935   2.887   6.015
 1418SOL     OW 5152   3.526   4.225   6.779
 1418SOL    HW1 5153   3.453   4.161   6.758
 1418SOL    HW2 5154   3.556   4.213   6.874
 1419SOL     OW 5155   2.158   4.722   3.369
 1419SOL    HW1 5156   2.068   4.765   3.360
 1419SOL    HW2 5157   2.149   4.623   3.359
 1420SOL     OW 5158   3.379   5.662   3.259
 1420SOL    HW1 5159   3.281   5.672   3.274
 1420SOL    HW2 5160   3.413   5.741   3.207
 1421SOL     OW 5161   1.550   5.596   5.851
 1421SOL    HW1 5162   1.608   5.541   5.911
 1421SOL    HW2 5163   1.469   5.543   5.826
 1422SOL     OW 5164   2.502   3.721   5.638
 1422SOL    HW1 5165   2.412   3.679   5.630
 1422SOL    HW2 5166   2.515   3.787   5.563
 1423SOL     OW 5167   4.531   1.108   4.643
 1423SOL    HW1 5168   4.537   1.015   4.679
 1423SOL    HW2 5169   4.534   1.173   4.718
 1424SOL     OW 5170   5.724   2.720   6.586
 1424SOL    HW1 5171   5.636   2.712   6.539
 1424SOL    HW2 5172   5.723   2.665   6.669
 1425SOL     OW 5173   4.337   6.331   3.572
 1425SOL    HW1 5174   4.251   6.375   3.545
 1425SOL    HW2 5175   4.358   6.257   3.507
 1426SOL     OW 5176   2.848   2.412   6.605
 1426SOL    HW1 5177   2.758   2.433   6.567
 1426SOL    HW2 5178   2.895   2.497   6.630
 1427SOL     OW 5179   1.507   1.342   3.035
 1427SOL    HW1 5180   1.569   1.264   3.027
 1427SOL    HW2 5181   1.482   1.375   2.944
 1428SOL     OW 5182   6.939   3.847   3.576
 1428SOL    HW1 5183   0.003   3.856   3.619
 1428SOL    HW2 5184   6.875   3.912   3.618
 1429SOL     OW 5185   5.800   0.881   0.779
 1429SOL    HW1 5186   5.883   0.924   0.744
 1429SOL    HW2 5187   5.795   0.787   0.746
 1430SOL     OW 5188   2.139   3.820   3.416
 1430SOL    HW1 5189   2.108   3.860   3.502
 1430SOL    HW2 5190   2.131   3.889   3.343
 1431SOL     OW 5191   2.077   1.694   5.576
 1431SOL    HW1 5192   2.013   1.771   5.575
 1431SOL    HW2 5193   2.027   1.609   5.560
 1432SOL     OW 5194   2.658   1.687   2.112
 1432SOL    HW1 5195   2.716   1.685   2.031
 1432SOL    HW2 5196   2.715   1.683   2.195
 1433SOL     OW 5197   2.949   7.020   4.284
 1433SOL    HW1 5198   3.021   7.023   4.354
 1433SOL    HW2 5199   2.951   6.931   4.239
 1434SOL     OW 5200   0.150   3.433   6.931
 1434SOL    HW1 5201   0.214   3.446   6.855
 1434SOL    HW2 5202   0.149   3.514   6.989
 1435SOL     OW 5203   0.876   0.075   4.684
 1435SOL    HW1 5204   0.933   0.140   4.633
 1435SOL    HW2 5205   0.922   7.012   4.689
 1436SOL     OW 5206   5.575   1.602   0.934
 1436SOL    HW1 5207   5.671   1.627   0.919
 1436SOL    HW2 5208   5.530   1.674   0.986
 1437SOL     OW 5209   4.560   0.323   5.837
 1437SOL    HW1 5210   4.656   0.335   5.864
 1437SOL    HW2 5211   4.501   0.337   5.917
 1438SOL     OW 5212   2.606   0.559   1.552
 1438SOL    HW1 5213   2.700   0.524   1.548
 1438SOL    HW2 5214   2.584   0.584   1.646
 1439SOL     OW 5215   0.105   4.947   6.870
 1439SOL    HW1 5216   0.019   4.901   6.894
 1439SOL    HW2 5217   0.182   4.891   6.901
 1440SOL     OW 5218   2.955   3.304   3.179
 1440SOL    HW1 5219   2.984   3.399   3.193
 1440SOL    HW2 5220   2.935   3.290   3.082
 1441SOL     OW 5221   7.022   2.549   3.550
 1441SOL    HW1 5222   6.945   2.568   3.612
 1441SOL    HW2 5223   0.065   2.494   3.599
 1442SOL     OW 5224   4.859   4.449   0.866
 1442SOL    HW1 5225   4.873   4.417   0.772
 1442SOL    HW2 5226   4.823   4.542   0.863
 1443SOL     OW 5227   0.872   1.976   3.370
 1443SOL    HW1 5228   0.851   2.047   3.302
 1443SOL    HW2 5229   0.888   2.019   3.459
 1444SOL     OW 5230   4.164   1.016   3.468
 1444SOL    HW1 5231   4.188   1.070   3.549
 1444SOL    HW2 5232   4.247   0.983   3.424
 1445SOL     OW 5233   6.415   2.885   1.928
 1445SOL    HW1 5234   6.330   2.930   1.904
 1445SOL    HW2 5235   6.487   2.912   1.864
 1446SOL     OW 5236   3.487   1.568   1.542
 1446SOL    HW1 5237   3.575   1.569   1.494
 1446SOL    HW2 5238   3.500   1.605   1.634
 1447SOL     OW 5239   6.448   1.076   4.829
 1447SOL    HW1 5240   6.373   1.067   4.895
 1447SOL    HW2 5241   6.453   0.995   4.772
 1448SOL     OW 5242   5.422   0.871   6.412
 1448SOL    HW1 5243   5.445   0.960   6.451
 1448SOL    HW2 5244   5.452   0.868   6.316
 1449SOL     OW 5245   5.062   5.495   1.261
 1449SOL    HW1 5246   5.067   5.484   1.161
 1449SOL    HW2 5247   4.983   5.552   1.284
 1450SOL     OW 5248   5.808   2.826   3.124
 1450SOL    HW1 5249   5.837   2.911   3.081
 1450SOL    HW2 5250   5.721   2.841   3.172
 1451SOL     OW 5251   1.492   6.390   2.428
 1451SOL    HW1 5252   1.565   6.324   2.444
 1451SOL    HW2 5253   1.426   6.384   2.503
 1452SOL     OW 5254   4.908   1.119   5.548
 1452SOL    HW1 5255   4.904   1.022   5.574
 1452SOL    HW2 5256   4.868   1.131   5.457
 1453SOL     OW 5257   5.346   4.689   5.080
 1453SOL    HW1 5258   5.272   4.640   5.127
 1453SOL    HW2 5259   5.350   4.783   5.114
 1454SOL     OW 5260   4.859   3.594   1.796
 1454SOL    HW1 5261   4.824   3.674   1.845
 1454SOL    HW2 5262   4.852   3.513   1.854
 1455SOL     OW 5263   1.363   2.083   1.877
 1455SOL    HW1 5264   1.441   2.106   1.937
 1455SOL    HW2 5265   1.312   2.166   1.857
 1456SOL     OW 5266   6.534   6.288   4.527
 1456SOL    HW1 5267   6.480   6.309   4.608
 1456SOL    HW2 5268   6.630   6.282   4.552
 1457SOL     OW 5269   1.583   0.774   3.227
 1457SOL    HW1 5270   1.671   0.745   3.264
 1457SOL    HW2 5271   1.528   0.693   3.206
 1458SOL     OW 5272   5.969   6.144   6.278
 1458SOL    HW1 5273   5.890   6.088   6.303
 1458SOL    HW2 5274   5.950   6.191   6.192
 1459SOL     OW 5275   2.334   6.615   6.922
 1459SOL    HW1 5276   2.289   6.641   7.008
 1459SOL    HW2 5277   2.427   6.584   6.941
 1460SOL     OW 5278   1.528   0.137   0.003
 1460SOL    HW1 5279   1.431   0.115   7.017
 1460SOL    HW2 5280   1.565   0.172   6.943
 1461SOL     OW 5281   5.463   4.407   2.343
 1461SOL    HW1 5282   5.432   4.335   2.281
 1461SOL    HW2 5283   5.470   4.494   2.294
 1462SOL     OW 5284   5.647   1.031   0.104
 1462SOL    HW1 5285   5.738   1.043   0.064
 1462SOL    HW2 5286   5.579   1.073   0.045
 1463SOL     OW 5287   1.035   1.047   5.077
 1463SOL    HW1 5288   1.100   1.108   5.123
 1463SOL    HW2 5289   1.086   0.984   5.018
 1464SOL     OW 5290   0.198   6.408   0.938
 1464SOL    HW1 5291   0.224   6.468   0.862
 1464SOL    HW2 5292   0.228   6.450   1.024
 1465SOL     OW 5293   0.317   0.110   4.755
 1465SOL    HW1 5294   0.280   0.198   4.786
 1465SOL    HW2 5295   0.380   0.125   4.678
 1466SOL     OW 5296   5.824   5.128   3.233
 1466SOL    HW1 5297   5.781   5.038   3.229
 1466SOL    HW2 5298   5.763   5.193   3.279
 1467SOL     OW 5299   0.599   1.664   3.678
 1467SOL    HW1 5300   0.549   1.739   3.722
 1467SOL    HW2 5301   0.684   1.700   3.639
 1468SOL     OW 5302   5.327   5.649   3.161
 1468SOL    HW1 5303   5.327   5.648   3.261
 1468SOL    HW2 5304   5.335   5.743   3.129
 1469SOL     OW 5305   0.739   1.738   2.180
 1469SOL    HW1 5306   0.754   1.639   2.177
 1469SOL    HW2 5307   0.691   1.761   2.265
 1470SOL     OW 5308   1.053   1.047   2.943
 1470SOL    HW1 5309   0.959   1.063   2.973
 1470SOL    HW2 5310   1.053   1.004   2.853
 1471SOL     OW 5311   0.805   0.119   0.159
 1471SOL    HW1 5312   0.795   0.157   0.251
 1471SOL    HW2 5313   0.720   0.074   0.132
 1472SOL     OW 5314   4.842   0.332   5.936
 1472SOL    HW1 5315   4.846   0.432   5.939
 1472SOL    HW2 5316   4.913   0.297   5.876
 1473SOL     OW 5317   6.046   3.685   3.312
 1473SOL    HW1 5318   6.078   3.722   3.225
 1473SOL    HW2 5319   6.122   3.641   3.359
 1474SOL     OW 5320   5.161   5.338   4.219
 1474SOL    HW1 5321   5.106   5.255   4.225
 1474SOL    HW2 5322   5.256   5.313   4.198
 1475SOL     OW 5323   7.020   0.991   2.770
 1475SOL    HW1 5324   0.040   0.993   2.859
 1475SOL    HW2 5325   0.002   0.899   2.731
 1476SOL     OW 5326   0.171   2.164   1.905
 1476SOL    HW1 5327   0.182   2.157   2.004
 1476SOL    HW2 5328   0.164   2.261   1.879
 1477SOL     OW 5329   2.828   5.975   5.118
 1477SOL    HW1 5330   2.789   6.050   5.170
 1477SOL    HW2 5331   2.755   5.921   5.076
 1478SOL     OW 5332   6.278   4.609   0.543
 1478SOL    HW1 5333   6.186   4.573   0.557
 1478SOL    HW2 5334   6.317   4.571   0.459
 1479SOL     OW 5335   1.879   4.839   0.362
 1479SOL    HW1 5336   1.813   4.771   0.331
 1479SOL    HW2 5337   1.859   4.864   0.457
 1480SOL     OW 5338   2.873   1.389   0.507
 1480SOL    HW1 5339   2.825   1.393   0.419
 1480SOL    HW2 5340   2.923   1.303   0.514
 1481SOL     OW 5341   5.710   2.158   6.075
 1481SOL    HW1 5342   5.642   2.168   6.148
 1481SOL    HW2 5343   5.801   2.149   6.116
 1482SOL     OW 5344   6.007   0.407   6.385
 1482SOL    HW1 5345   6.077   0.386   6.454
 1482SOL    HW2 5346   6.021   0.500   6.351
 1483SOL     OW 5347   5.779   2.043   0.584
 1483SOL    HW1 5348   5.722   1.962   0.570
 1483SOL    HW2 5349   5.743   2.119   0.531
 1484SOL     OW 5350   6.758   5.337   3.145
 1484SOL    HW1 5351   6.716   5.390   3.072
 1484SOL    HW2 5352   6.742   5.240   3.130
 1485SOL     OW 5353   5.399   2.763   3.903
 1485SOL    HW1 5354   5.441   2.735   3.817
 1485SOL    HW2 5355   5.471   2.786   3.969
 1486SOL     OW 5356   4.360   1.659   2.282
 1486SOL    HW1 5357   4.291   1.587   2.286
 1486SOL    HW2 5358   4.425   1.638   2.209
 1487SOL     OW 5359   6.532   0.917   5.431
 1487SOL    HW1 5360   6.551   0.824   5.398
 1487SOL    HW2 5361   6.469   0.913   5.507
 1488SOL     OW 5362   4.635   1.192   2.778
 1488SOL    HW1 5363   4.606   1.246   2.857
 1488SOL    HW2 5364   4.554   1.153   2.734
 1489SOL     OW 5365   3.318   5.401   4.915
 1489SOL    HW1 5366   3.253   5.429   4.986
 1489SOL    HW2 5367   3.292   5.311   4.881
 1490SOL     OW 5368   1.288   2.949   0.373
 1490SOL    HW1 5369   1.296   2.849   0.371
 1490SOL    HW2 5370   1.379   2.989   0.379
 1491SOL     OW 5371   6.842   2.554   3.760
 1491SOL    HW1 5372   6.781   2.620   3.716
 1491SOL    HW2 5373   6.911   2.603   3.814
 1492SOL     OW 5374   5.092   1.957   1.496
 1492SOL    HW1 5375   5.021   2.026   1.482
 1492SOL    HW2 5376   5.071   1.904   1.578
 1493SOL     OW 5377   5.066   0.142   5.173
 1493SOL    HW1 5378   5.064   0.050   5.212
 1493SOL    HW2 5379   4.980   0.189   5.194
 1494SOL     OW 5380   4.362   2.288   5.708
 1494SOL    HW1 5381   4.401   2.322   5.794
 1494SOL    HW2 5382   4.389   2.193   5.695
 1495SOL     OW 5383   1.002   3.146   2.588
 1495SOL    HW1 5384   0.951   3.068   2.626
 1495SOL    HW2 5385   0.983   3.228   2.641
 1496SOL     OW 5386   0.498   0.025   2.509
 1496SOL    HW1 5387   0.442   0.074   2.442
 1496SOL    HW2 5388   0.574   0.083   2.538
 1497SOL     OW 5389   6.658   4.911   4.358
 1497SOL    HW1 5390   6.687   4.826   4.316
 1497SOL    HW2 5391   6.640   4.896   4.456
 1498SOL     OW 5392   2.381   5.411   6.876
 1498SOL    HW1 5393   2.383   5.511   6.870
 1498SOL    HW2 5394   2.377   5.372   6.784
 1499SOL     OW 5395   1.384   3.676   5.425
 1499SOL    HW1 5396   1.473   3.671   5.472
 1499SOL    HW2 5397   1.353   3.771   5.424
 1500SOL     OW 5398   4.960   6.688   0.139
 1500SOL    HW1 5399   4.903   6.719   0.063
 1500SOL    HW2 5400   4.926   6.728   0.224
 1501SOL     OW 5401   3.856   6.910   6.284
 1501SOL    HW1 5402   3.860   6.930   6.382
 1501SOL    HW2 5403   3.948   6.921   6.244
 1502SOL     OW 5404   6.483   6.491   0.462
 1502SOL    HW1 5405   6.427   6.420   0.505
 1502SOL    HW2 5406   6.529   6.545   0.533
 1503SOL     OW 5407   3.240   2.994   6.445
 1503SOL    HW1 5408   3.237   2.909   6.496
 1503SOL    HW2 5409   3.153   3.008   6.397
 1504SOL     OW 5410   3.507   6.577   4.843
 1504SOL    HW1 5411   3.526   6.633   4.762
 1504SOL    HW2 5412   3.408   6.579   4.862
 1505SOL     OW 5413   5.876   5.926   6.066
 1505SOL    HW1 5414   5.810   5.931   5.991
 1505SOL    HW2 5415   5.969   5.923   6.030
 1506SOL     OW 5416   0.974   5.823   4.369
 1506SOL    HW1 5417   0.993   5.919   4.351
 1506SOL    HW2 5418   0.930   5.782   4.289
 1507SOL     OW 5419   1.994   1.629   5.039
 1507SOL    HW1 5420   2.059   1.556   5.018
 1507SOL    HW2 5421   2.044   1.715   5.055
 1508SOL     OW 5422   4.771   6.686   0.968
 1508SOL    HW1 5423   4.729   6.698   1.058
 1508SOL    HW2 5424   4.822   6.769   0.944
 1509SOL     OW 5425   4.254   3.021   0.146
 1509SOL    HW1 5426   4.288   3.089   0.210
 1509SOL    HW2 5427   4.247   3.062   0.055
 1510SOL     OW 5428   6.989   1.745   4.015
 1510SOL    HW1 5429   6.952   1.752   4.108
 1510SOL    HW2 5430   0.063   1.759   4.018
 1511SOL     OW 5431   2.493   2.768   0.423
 1511SOL    HW1 5432   2.526   2.727   0.508
 1511SOL    HW2 5433   2.489   2.867   0.434
 1512SOL     OW 5434   0.149   1.164   1.590
 1512SOL    HW1 5435   0.150   1.098   1.514
 1512SOL    HW2 5436   0.179   1.253   1.557
 1513SOL     OW 5437   3.464   0.347   3.536
 1513SOL    HW1 5438   3.512   0.416   3.482
 1513SOL    HW2 5439   3.367   0.347   3.513
 1514SOL     OW 5440   6.218   1.568   4.666
 1514SOL    HW1 5441   6.139   1.550   4.608
 1514SOL    HW2 5442   6.230   1.493   4.731
 1515SOL     OW 5443   6.963   4.866   4.865
 1515SOL    HW1 5444   7.019   4.895   4.942
 1515SOL    HW2 5445   6.871   4.842   4.897
 1516SOL     OW 5446   0.432   1.615   0.721
 1516SOL    HW1 5447   0.528   1.610   0.748
 1516SOL    HW2 5448   0.420   1.570   0.632
 1517SOL     OW 5449   4.986   5.630   3.180
 1517SOL    HW1 5450   5.043   5.680   3.246
 1517SOL    HW2 5451   4.892   5.662   3.186
 1518SOL     OW 5452   0.018   4.526   1.101
 1518SOL    HW1 5453   6.975   4.459   1.127
 1518SOL    HW2 5454   0.105   4.479   1.082
 1519SOL     OW 5455   5.951   4.090   0.215
 1519SOL    HW1 5456   5.924   4.016   0.276
 1519SOL    HW2 5457   5.900   4.084   0.130
 1520SOL     OW 5458   1.955   4.161   2.848
 1520SOL    HW1 5459   2.055   4.164   2.861
 1520SOL    HW2 5460   1.933   4.098   2.773
 1521SOL     OW 5461   2.392   3.395   6.590
 1521SOL    HW1 5462   2.356   3.415   6.681
 1521SOL    HW2 5463   2.327   3.425   6.520
 1522SOL     OW 5464   5.896   1.901   6.681
 1522SOL    HW1 5465   5.840   1.888   6.763
 1522SOL    HW2 5466   5.851   1.967   6.620
 1523SOL     OW 5467   6.567   2.571   1.553
 1523SOL    HW1 5468   6.640   2.588   1.487
 1523SOL    HW2 5469   6.497   2.512   1.511
 1524SOL     OW 5470   6.868   1.183   1.847
 1524SOL    HW1 5471   6.820   1.114   1.792
 1524SOL    HW2 5472   6.957   1.147   1.874
 1525SOL     OW 5473   4.394   1.989   6.033
 1525SOL    HW1 5474   4.418   1.896   6.006
 1525SOL    HW2 5475   4.301   2.009   6.003
 1526SOL     OW 5476   6.955   2.582   1.757
 1526SOL    HW1 5477   6.931   2.678   1.770
 1526SOL    HW2 5478   6.872   2.526   1.758
 1527SOL     OW 5479   3.362   1.975   5.631
 1527SOL    HW1 5480   3.438   1.985   5.566
 1527SOL    HW2 5481   3.279   2.014   5.591
 1528SOL     OW 5482   4.904   6.241   3.467
 1528SOL    HW1 5483   4.931   6.169   3.404
 1528SOL    HW2 5484   4.855   6.312   3.418
 1529SOL     OW 5485   3.398   6.996   6.219
 1529SOL    HW1 5486   3.389   0.070   6.223
 1529SOL    HW2 5487   3.481   6.971   6.170
 1530SOL     OW 5488   3.458   6.404   2.217
 1530SOL    HW1 5489   3.385   6.388   2.150
 1530SOL    HW2 5490   3.424   6.384   2.309
 1531SOL     OW 5491   6.088   6.996   4.502
 1531SOL    HW1 5492   6.137   6.936   4.566
 1531SOL    HW2 5493   6.102   6.963   4.409
 1532SOL     OW 5494   3.169   2.186   5.362
 1532SOL    HW1 5495   3.198   2.096   5.328
 1532SOL    HW2 5496   3.185   2.254   5.290
 1533SOL     OW 5497   6.473   3.004   6.705
 1533SOL    HW1 5498   6.485   3.069   6.780
 1533SOL    HW2 5499   6.375   2.997   6.682
 1534SOL     OW 5500   0.498   6.289   1.234
 1534SOL    HW1 5501   0.468   6.321   1.324
 1534SOL    HW2 5502   0.515   6.190   1.238
 1535SOL     OW 5503   4.486   4.550   4.210
 1535SOL    HW1 5504   4.512   4.641   4.176
 1535SOL    HW2 5505   4.464   4.556   4.307
 1536SOL     OW 5506   2.690   5.402   4.871
 1536SOL    HW1 5507   2.635   5.433   4.949
 1536SOL    HW2 5508   2.780   5.447   4.873
 1537SOL     OW 5509   1.581   5.456   4.834
 1537SOL    HW1 5510   1.625   5.390   4.895
 1537SOL    HW2 5511   1.561   5.412   4.747
 1538SOL     OW 5512   2.694   5.113   6.896
 1538SOL    HW1 5513   2.679   5.132   6.993
 1538SOL    HW2 5514   2.649   5.183   6.841
 1539SOL     OW 5515   3.744   4.529   1.645
 1539SOL    HW1 5516   3.766   4.620   1.609
 1539SOL    HW2 5517   3.665   4.535   1.706
 1540SOL     OW 5518   0.855   0.147   5.058
 1540SOL    HW1 5519   0.759   0.120   5.047
 1540SOL    HW2 5520   0.859   0.232   5.110
 1541SOL     OW 5521   5.048   2.714   1.202
 1541SOL    HW1 5522   4.964   2.665   1.180
 1541SOL    HW2 5523   5.030   2.812   1.206
 1542SOL     OW 5524   0.569   6.761   1.241
 1542SOL    HW1 5525   0.667   6.772   1.254
 1542SOL    HW2 5526   0.525   6.742   1.329
 1543SOL     OW 5527   3.480   3.903   4.189
 1543SOL    HW1 5528   3.397   3.897   4.244
 1543SOL    HW2 5529   3.499   3.815   4.147
 1544SOL     OW 5530   3.236   4.054   2.823
 1544SOL    HW1 5531   3.187   4.019   2.903
 1544SOL    HW2 5532   3.282   4.140   2.848
 1545SOL     OW 5533   6.061   0.308   4.761
 1545SOL    HW1 5534   6.005   0.341   4.684
 1545SOL    HW2 5535   6.135   0.372   4.778
 1546SOL     OW 5536   6.513   6.070   6.037
 1546SOL    HW1 5537   6.608   6.054   6.061
 1546SOL    HW2 5538   6.457   6.077   6.120
 1547SOL     OW 5539   2.937   5.659   2.500
 1547SOL    HW1 5540   2.977   5.727   2.561
 1547SOL    HW2 5541   3.009   5.594   2.473
 1548SOL     OW 5542   5.015   4.219   4.800
 1548SOL    HW1 5543   5.110   4.227   4.772
 1548SOL    HW2 5544   4.975   4.310   4.808
 1549SOL     OW 5545   6.734   2.253   1.493
 1549SOL    HW1 5546   6.798   2.330   1.495
 1549SOL    HW2 5547   6.733   2.213   1.401
 1550SOL     OW 5548   1.624   5.735   4.359
 1550SOL    HW1 5549   1.682   5.785   4.295
 1550SOL    HW2 5550   1.662   5.742   4.451
 1551SOL     OW 5551   2.100   2.789   0.789
 1551SOL    HW1 5552   2.063   2.865   0.734
 1551SOL    HW2 5553   2.134   2.824   0.876
 1552SOL     OW 5554   1.421   0.960   0.959
 1552SOL    HW1 5555   1.345   0.958   0.893
 1552SOL    HW2 5556   1.444   0.866   0.986
 1553SOL     OW 5557   5.933   1.666   6.459
 1553SOL    HW1 5558   6.030   1.646   6.471
 1553SOL    HW2 5559   5.898   1.712   6.540
 1554SOL     OW 5560   3.789   1.792   1.862
 1554SOL    HW1 5561   3.776   1.891   1.856
 1554SOL    HW2 5562   3.841   1.761   1.782
 1555SOL     OW 5563   3.461   1.387   5.721
 1555SOL    HW1 5564   3.494   1.361   5.631
 1555SOL    HW2 5565   3.425   1.480   5.718
 1556SOL     OW 5566   3.920   0.781   0.710
 1556SOL    HW1 5567   3.949   0.685   0.707
 1556SOL    HW2 5568   3.970   0.828   0.783
 1557SOL     OW 5569   1.739   2.225   1.251
 1557SOL    HW1 5570   1.755   2.128   1.233
 1557SOL    HW2 5571   1.641   2.244   1.245
 1558SOL     OW 5572   6.305   3.638   5.892
 1558SOL    HW1 5573   6.272   3.732   5.903
 1558SOL    HW2 5574   6.372   3.636   5.817
 1559SOL     OW 5575   1.821   4.625   3.145
 1559SOL    HW1 5576   1.818   4.698   3.077
 1559SOL    HW2 5577   1.860   4.661   3.230
 1560SOL     OW 5578   3.593   1.172   1.602
 1560SOL    HW1 5579   3.588   1.077   1.634
 1560SOL    HW2 5580   3.560   1.233   1.675
 1561SOL     OW 5581   5.619   5.741   1.762
 1561SOL    HW1 5582   5.704   5.737   1.710
 1561SOL    HW2 5583   5.563   5.817   1.728
 1562SOL     OW 5584   3.536   6.722   2.176
 1562SOL    HW1 5585   3.501   6.629   2.172
 1562SOL    HW2 5586   3.542   6.752   2.271
 1563SOL     OW 5587   3.864   2.171   4.334
 1563SOL    HW1 5588   3.909   2.082   4.339
 1563SOL    HW2 5589   3.933   2.243   4.325
 1564SOL     OW 5590   1.239   2.100   2.202
 1564SOL    HW1 5591   1.212   2.137   2.292
 1564SOL    HW2 5592   1.164   2.046   2.165
 1565SOL     OW 5593   3.665   0.624   4.082
 1565SOL    HW1 5594   3.729   0.560   4.125
 1565SOL    HW2 5595   3.675   0.620   3.983
 1566SOL     OW 5596   4.730   4.285   3.013
 1566SOL    HW1 5597   4.735   4.210   3.078
 1566SOL    HW2 5598   4.695   4.252   2.926
 1567SOL     OW 5599   5.175   6.239   5.396
 1567SOL    HW1 5600   5.122   6.218   5.315
 1567SOL    HW2 5601   5.253   6.177   5.402
 1568SOL     OW 5602   2.166   6.368   3.149
 1568SOL    HW1 5603   2.145   6.356   3.052
 1568SOL    HW2 5604   2.200   6.461   3.164
 1569SOL     OW 5605   2.328   0.190   3.669
 1569SOL    HW1 5606   2.426   0.185   3.650
 1569SOL    HW2 5607   2.279   0.227   3.590
 1570SOL     OW 5608   3.501   6.819   0.119
 1570SOL    HW1 5609   3.574   6.775   0.172
 1570SOL    HW2 5610   3.499   6.779   0.027
 1571SOL     OW 5611   0.931   2.083   3.828
 1571SOL    HW1 5612   1.005   2.132   3.782
 1571SOL    HW2 5613   0.970   2.010   3.885
 1572SOL     OW 5614   1.694   4.710   1.981
 1572SOL    HW1 5615   1.750   4.646   1.927
 1572SOL    HW2 5616   1.631   4.657   2.039
 1573SOL     OW 5617   4.989   4.843   0.909
 1573SOL    HW1 5618   5.082   4.850   0.873
 1573SOL    HW2 5619   4.990   4.859   1.008
 1574SOL     OW 5620   6.944   3.742   2.584
 1574SOL    HW1 5621   6.921   3.659   2.533
 1574SOL    HW2 5622   0.016   3.743   2.604
 1575SOL     OW 5623   0.708   0.994   0.417
 1575SOL    HW1 5624   0.769   0.950   0.483
 1575SOL    HW2 5625   0.720   0.953   0.327
 1576SOL     OW 5626   0.384   6.584   2.227
 1576SOL    HW1 5627   0.418   6.677   2.239
 1576SOL    HW2 5628   0.451   6.519   2.263
 1577SOL     OW 5629   4.124   6.949   6.174
 1577SOL    HW1 5630   4.142   0.014   6.212
 1577SOL    HW2 5631   4.173   6.880   6.227
 1578SOL     OW 5632   4.959   0.512   0.326
 1578SOL    HW1 5633   5.019   0.592   0.324
 1578SOL    HW2 5634   4.865   0.540   0.346
 1579SOL     OW 5635   1.938   2.768   1.400
 1579SOL    HW1 5636   1.878   2.696   1.364
 1579SOL    HW2 5637   1.981   2.816   1.324
 1580SOL     OW 5638   3.734   4.016   3.188
 1580SOL    HW1 5639   3.818   4.036   3.138
 1580SOL    HW2 5640   3.702   3.923   3.166
 1581SOL     OW 5641   0.134   4.245   6.147
 1581SOL    HW1 5642   0.141   4.222   6.050
 1581SOL    HW2 5643   0.048   4.209   6.184
 1582SOL     OW 5644   4.785   6.504   6.276
 1582SOL    HW1 5645   4.847   6.557   6.218
 1582SOL    HW2 5646   4.837   6.458   6.348
 1583SOL     OW 5647   1.322   5.783   5.606
 1583SOL    HW1 5648   1.377   5.862   5.577
 1583SOL    HW2 5649   1.367   5.699   5.576
 1584SOL     OW 5650   0.601   5.169   6.698
 1584SOL    HW1 5651   0.508   5.136   6.680
 1584SOL    HW2 5652   0.656   5.163   6.614
 1585SOL     OW 5653   4.251   0.063   3.185
 1585SOL    HW1 5654   4.173   0.012   3.221
 1585SOL    HW2 5655   4.230   0.093   3.092
 1586SOL     OW 5656   3.026   5.848   4.274
 1586SOL    HW1 5657   3.016   5.803   4.363
 1586SOL    HW2 5658   2.968   5.802   4.207
 1587SOL     OW 5659   2.360   5.875   6.444
 1587SOL    HW1 5660   2.336   5.918   6.532
 1587SOL    HW2 5661   2.381   5.946   6.377
 1588SOL     OW 5662   6.175   0.001   2.714
 1588SOL    HW1 5663   6.085   0.031   2.682
 1588SOL    HW2 5664   6.246   0.051   2.665
 1589SOL     OW 5665   6.606   4.095   2.795
 1589SOL    HW1 5666   6.609   4.143   2.882
 1589SOL    HW2 5667   6.563   4.005   2.807
 1590SOL     OW 5668   6.834   1.491   3.001
 1590SOL    HW1 5669   6.904   1.419   3.001
 1590SOL    HW2 5670   6.787   1.492   2.913
 1591SOL     OW 5671   0.725   6.033   1.493
 1591SOL    HW1 5672   0.625   6.042   1.493
 1591SOL    HW2 5673   0.762   6.078   1.573
 1592SOL     OW 5674   1.398   4.102   0.196
 1592SOL    HW1 5675   1.404   4.111   0.097
 1592SOL    HW2 5676   1.350   4.181   0.234
 1593SOL     OW 5677   1.092   0.355   6.687
 1593SOL    HW1 5678   1.181   0.338   6.729
 1593SOL    HW2 5679   1.053   0.439   6.726
 1594SOL     OW 5680   6.582   0.162   1.421
 1594SOL    HW1 5681   6.616   0.072   1.392
 1594SOL    HW2 5682   6.558   0.159   1.518
 1595SOL     OW 5683   1.404   4.124   6.909
 1595SOL    HW1 5684   1.344   4.124   6.828
 1595SOL    HW2 5685   1.474   4.196   6.898
 1596SOL     OW 5686   6.070   4.405   1.996
 1596SOL    HW1 5687   6.140   4.473   1.977
 1596SOL    HW2 5688   6.113   4.322   2.033
 1597SOL     OW 5689   3.142   6.442   0.584
 1597SOL    HW1 5690   3.136   6.352   0.626
 1597SOL    HW2 5691   3.168   6.432   0.488
 1598SOL     OW 5692   1.765   5.589   6.939
 1598SOL    HW1 5693   1.667   5.608   6.931
 1598SOL    HW2 5694   1.786   5.501   6.896
 1599SOL     OW 5695   4.161   5.096   4.061
 1599SOL    HW1 5696   4.147   5.034   3.984
 1599SOL    HW2 5697   4.134   5.051   4.146
 1600SOL     OW 5698   3.385   6.914   2.752
 1600SOL    HW1 5699   3.378   6.939   2.655
 1600SOL    HW2 5700   3.482   6.901   2.776
 1601SOL     OW 5701   5.904   6.580   3.993
 1601SOL    HW1 5702   5.872   6.495   4.035
 1601SOL    HW2 5703   5.920   6.566   3.896
 1602SOL     OW 5704   4.169   5.068   3.655
 1602SOL    HW1 5705   4.254   5.078   3.706
 1602SOL    HW2 5706   4.111   5.148   3.670
 1603SOL     OW 5707   2.942   6.450   3.965
 1603SOL    HW1 5708   2.971   6.518   4.033
 1603SOL    HW2 5709   3.022   6.415   3.917
 1604SOL     OW 5710   3.804   4.885   2.085
 1604SOL    HW1 5711   3.759   4.812   2.034
 1604SOL    HW2 5712   3.805   4.862   2.182
 1605SOL     OW 5713   4.622   4.878   1.565
 1605SOL    HW1 5714   4.572   4.791   1.571
 1605SOL    HW2 5715   4.713   4.862   1.528
 1606SOL     OW 5716   4.244   6.280   4.835
 1606SOL    HW1 5717   4.246   6.235   4.746
 1606SOL    HW2 5718   4.250   6.379   4.823
 1607SOL     OW 5719   4.960   6.074   3.264
 1607SOL    HW1 5720   4.986   6.063   3.168
 1607SOL    HW2 5721   4.961   5.985   3.309
 1608SOL     OW 5722   6.411   0.415   2.793
 1608SOL    HW1 5723   6.494   0.367   2.820
 1608SOL    HW2 5724   6.384   0.478   2.866
 1609SOL     OW 5725   2.654   6.674   0.909
 1609SOL    HW1 5726   2.733   6.656   0.850
 1609SOL    HW2 5727   2.649   6.604   0.980
 1610SOL     OW 5728   4.546   0.004   0.357
 1610SOL    HW1 5729   4.474   6.985   0.410
 1610SOL    HW2 5730   4.505   0.071   0.294
 1611SOL     OW 5731   0.824   3.863   1.174
 1611SOL    HW1 5732   0.843   3.935   1.240
 1611SOL    HW2 5733   0.863   3.888   1.085
 1612SOL     OW 5734   3.322   6.406   1.213
 1612SOL    HW1 5735   3.343   6.312   1.189
 1612SOL    HW2 5736   3.251   6.441   1.151
 1613SOL     OW 5737   0.121   5.899   2.512
 1613SOL    HW1 5738   0.035   5.848   2.509
 1613SOL    HW2 5739   0.198   5.836   2.508
 1614SOL     OW 5740   5.738   2.875   6.895
 1614SOL    HW1 5741   5.821   2.881   6.839
 1614SOL    HW2 5742   5.750   2.805   6.965
 1615SOL     OW 5743   0.599   4.942   6.325
 1615SOL    HW1 5744   0.593   4.986   6.236
 1615SOL    HW2 5745   0.541   4.861   6.327
 1616SOL     OW 5746   2.591   1.197   4.828
 1616SOL    HW1 5747   2.573   1.286   4.785
 1616SOL    HW2 5748   2.666   1.207   4.894
 1617SOL     OW 5749   4.884   6.671   3.821
 1617SOL    HW1 5750   4.805   6.709   3.868
 1617SOL    HW2 5751   4.907   6.582   3.860
 1618SOL     OW 5752   2.617   6.359   3.214
 1618SOL    HW1 5753   2.561   6.299   3.271
 1618SOL    HW2 5754   2.708   6.317   3.202
 1619SOL     OW 5755   1.025   5.143   6.904
 1619SOL    HW1 5756   0.940   5.096   6.925
 1619SOL    HW2 5757   1.013   5.241   6.914
 1620SOL     OW 5758   3.634   5.120   0.753
 1620SOL    HW1 5759   3.689   5.049   0.798
 1620SOL    HW2 5760   3.681   5.208   0.762
 1621SOL     OW 5761   6.042   6.553   1.297
 1621SOL    HW1 5762   5.989   6.598   1.369
 1621SOL    HW2 5763   6.058   6.457   1.321
 1622SOL     OW 5764   0.929   3.754   4.758
 1622SOL    HW1 5765   0.948   3.708   4.845
 1622SOL    HW2 5766   0.872   3.834   4.774
 1623SOL     OW 5767   0.569   2.011   4.556
 1623SOL    HW1 5768   0.487   2.047   4.511
 1623SOL    HW2 5769   0.649   2.026   4.498
 1624SOL     OW 5770   4.363   1.217   0.615
 1624SOL    HW1 5771   4.334   1.281   0.685
 1624SOL    HW2 5772   4.401   1.135   0.658
 1625SOL     OW 5773   2.233   5.065   0.952
 1625SOL    HW1 5774   2.147   5.084   1.000
 1625SOL    HW2 5775   2.265   4.974   0.978
 1626SOL     OW 5776   3.245   2.025   1.410
 1626SOL    HW1 5777   3.203   2.109   1.378
 1626SOL    HW2 5778   3.213   1.948   1.354
 1627SOL     OW 5779   4.688   2.569   3.887
 1627SOL    HW1 5780   4.773   2.587   3.837
 1627SOL    HW2 5781   4.645   2.486   3.851
 1628SOL     OW 5782   5.094   5.863   6.561
 1628SOL    HW1 5783   5.153   5.857   6.642
 1628SOL    HW2 5784   5.122   5.940   6.504
 1629SOL     OW 5785   2.581   1.729   2.452
 1629SOL    HW1 5786   2.675   1.729   2.419
 1629SOL    HW2 5787   2.566   1.807   2.513
 1630SOL     OW 5788   0.565   4.301   0.382
 1630SOL    HW1 5789   0.532   4.395   0.395
 1630SOL    HW2 5790   0.500   4.237   0.423
 1631SOL     OW 5791   0.461   3.546   0.546
 1631SOL    HW1 5792   0.472   3.507   0.455
 1631SOL    HW2 5793   0.544   3.595   0.573
 1632SOL     OW 5794   6.329   4.296   2.425
 1632SOL    HW1 5795   6.422   4.304   2.461
 1632SOL    HW2 5796   6.281   4.384   2.435
 1633SOL     OW 5797   4.930   3.413   3.871
 1633SOL    HW1 5798   4.947   3.427   3.968
 1633SOL    HW2 5799   5.013   3.433   3.819
 1634SOL     OW 5800   4.827   0.628   4.687
 1634SOL    HW1 5801   4.845   0.534   4.716
 1634SOL    HW2 5802   4.902   0.661   4.630
 1635SOL     OW 5803   3.539   5.493   5.020
 1635SOL    HW1 5804   3.567   5.435   5.096
 1635SOL    HW2 5805   3.468   5.447   4.967
 1636SOL     OW 5806   5.091   5.703   1.543
 1636SOL    HW1 5807   5.042   5.679   1.627
 1636SOL    HW2 5808   5.034   5.680   1.464
 1637SOL     OW 5809   0.194   6.898   2.281
 1637SOL    HW1 5810   0.222   6.973   2.221
 1637SOL    HW2 5811   0.274   6.844   2.307
 1638SOL     OW 5812   6.786   3.343   1.744
 1638SOL    HW1 5813   6.689   3.324   1.727
 1638SOL    HW2 5814   6.798   3.441   1.759
 1639SOL     OW 5815   5.437   3.589   2.215
 1639SOL    HW1 5816   5.340   3.604   2.229
 1639SOL    HW2 5817   5.463   3.501   2.256
 1640SOL     OW 5818   6.536   0.255   0.721
 1640SOL    HW1 5819   6.526   0.352   0.747
 1640SOL    HW2 5820   6.634   0.233   0.713
 1641SOL     OW 5821   0.093   2.229   2.711
 1641SOL    HW1 5822   0.039   2.287   2.772
 1641SOL    HW2 5823   0.053   2.229   2.620
 1642SOL     OW 5824   5.285   2.627   5.841
 1642SOL    HW1 5825   5.318   2.600   5.932
 1642SOL    HW2 5826   5.227   2.708   5.850
 1643SOL     OW 5827   3.406   5.461   4.356
 1643SOL    HW1 5828   3.428   5.384   4.296
 1643SOL    HW2 5829   3.371   5.426   4.443
 1644SOL     OW 5830   6.009   3.087   0.542
 1644SOL    HW1 5831   5.996   3.068   0.639
 1644SOL    HW2 5832   5.932   3.142   0.508
 1645SOL     OW 5833   2.872   1.092   6.023
 1645SOL    HW1 5834   2.856   1.149   6.104
 1645SOL    HW2 5835   2.797   1.026   6.013
 1646SOL     OW 5836   0.811   5.424   0.523
 1646SOL    HW1 5837   0.899   5.426   0.570
 1646SOL    HW2 5838   0.822   5.379   0.434
 1647SOL     OW 5839   6.361   2.645   4.540
 1647SOL    HW1 5840   6.378   2.628   4.637
 1647SOL    HW2 5841   6.362   2.744   4.523
 1648SOL     OW 5842   5.423   6.233   0.744
 1648SOL    HW1 5843   5.417   6.233   0.844
 1648SOL    HW2 5844   5.352   6.294   0.707
 1649SOL     OW 5845   2.969   0.676   3.394
 1649SOL    HW1 5846   2.957   0.751   3.458
 1649SOL    HW2 5847   2.886   0.620   3.392
 1650SOL     OW 5848   2.960   5.374   6.791
 1650SOL    HW1 5849   2.875   5.372   6.739
 1650SOL    HW2 5850   3.023   5.439   6.749
 1651SOL     OW 5851   0.828   2.885   3.869
 1651SOL    HW1 5852   0.792   2.798   3.903
 1651SOL    HW2 5853   0.752   2.949   3.853
 1652SOL     OW 5854   0.828   2.979   1.448
 1652SOL    HW1 5855   0.800   3.062   1.496
 1652SOL    HW2 5856   0.868   2.914   1.512
 1653SOL     OW 5857   6.857   5.250   2.565
 1653SOL    HW1 5858   6.780   5.190   2.547
 1653SOL    HW2 5859   6.848   5.334   2.513
 1654SOL     OW 5860   0.510   3.121   2.184
 1654SOL    HW1 5861   0.444   3.064   2.135
 1654SOL    HW2 5862   0.595   3.071   2.195
 1655SOL     OW 5863   6.898   0.699   4.624
 1655SOL    HW1 5864   6.813   0.694   4.571
 1655SOL    HW2 5865   6.931   0.607   4.643
 1656SOL     OW 5866   2.030   5.627   4.405
 1656SOL    HW1 5867   2.123   5.615   4.440
 1656SOL    HW2 5868   2.012   5.558   4.335
 1657SOL     OW 5869   0.188   0.174   5.627
 1657SOL    HW1 5870   0.105   0.121   5.642
 1657SOL    HW2 5871   0.230   0.148   5.540
 1658SOL     OW 5872   6.741   6.943   0.623
 1658SOL    HW1 5873   6.729   0.004   0.573
 1658SOL    HW2 5874   6.838   6.933   0.648
 1659SOL     OW 5875   4.065   6.747   6.663
 1659SOL    HW1 5876   4.047   6.650   6.645
 1659SOL    HW2 5877   4.046   6.800   6.580
 1660SOL     OW 5878   1.267   6.660   1.798
 1660SOL    HW1 5879   1.357   6.702   1.785
 1660SOL    HW2 5880   1.242   6.608   1.716
 1661SOL     OW 5881   3.508   5.239   2.754
 1661SOL    HW1 5882   3.494   5.148   2.792
 1661SOL    HW2 5883   3.561   5.232   2.669
 1662SOL     OW 5884   6.795   1.285   5.625
 1662SOL    HW1 5885   6.884   1.330   5.612
 1662SOL    HW2 5886   6.741   1.294   5.542
 1663SOL     OW 5887   4.610   4.800   1.139
 1663SOL    HW1 5888   4.610   4.899   1.124
 1663SOL    HW2 5889   4.544   4.777   1.210
 1664SOL     OW 5890   0.572   0.111   5.037
 1664SOL    HW1 5891   0.509   0.189   5.036
 1664SOL    HW2 5892   0.553   0.054   5.117
 1665SOL     OW 5893   2.283   3.765   1.523
 1665SOL    HW1 5894   2.242   3.751   1.613
 1665SOL    HW2 5895   2.367   3.711   1.516
 1666SOL     OW 5896   5.745   0.679   6.441
 1666SOL    HW1 5897   5.669   0.688   6.377
 1666SOL    HW2 5898   5.827   0.651   6.391
 1667SOL     OW 5899   0.496   6.509   0.782
 1667SOL    HW1 5900   0.511   6.471   0.874
 1667SOL    HW2 5901   0.541   6.598   0.775
 1668SOL     OW 5902   4.915   4.243   3.711
 1668SOL    HW1 5903   4.825   4.268   3.745
 1668SOL    HW2 5904   4.931   4.146   3.728
 1669SOL     OW 5905   0.203   3.620   5.358
 1669SOL    HW1 5906   0.212   3.674   5.441
 1669SOL    HW2 5907   0.108   3.589   5.349
 1670SOL     OW 5908   2.123   4.563   6.073
 1670SOL    HW1 5909   2.060   4.641   6.076
 1670SOL    HW2 5910   2.113   4.515   5.986
 1671SOL     OW 5911   4.653   1.544   1.853
 1671SOL    HW1 5912   4.713   1.608   1.805
 1671SOL    HW2 5913   4.705   1.465   1.885
 1672SOL     OW 5914   0.433   2.928   0.053
 1672SOL    HW1 5915   0.515   2.906   0.001
 1672SOL    HW2 5916   0.458   2.981   0.134
 1673SOL     OW 5917   2.341   1.550   4.279
 1673SOL    HW1 5918   2.361   1.463   4.322
 1673SOL    HW2 5919   2.295   1.610   4.346
 1674SOL     OW 5920   4.874   2.687   2.632
 1674SOL    HW1 5921   4.800   2.652   2.574
 1674SOL    HW2 5922   4.959   2.642   2.608
 1675SOL     OW 5923   5.527   0.751   1.510
 1675SOL    HW1 5924   5.516   0.779   1.414
 1675SOL    HW2 5925   5.569   0.826   1.561
 1676SOL     OW 5926   2.181   2.236   2.922
 1676SOL    HW1 5927   2.100   2.269   2.971
 1676SOL    HW2 5928   2.185   2.281   2.832
 1677SOL     OW 5929   4.084   3.604   3.767
 1677SOL    HW1 5930   4.094   3.508   3.791
 1677SOL    HW2 5931   4.087   3.615   3.668
 1678SOL     OW 5932   0.336   6.524   0.561
 1678SOL    HW1 5933   0.384   6.539   0.648
 1678SOL    HW2 5934   0.318   6.612   0.517
 1679SOL     OW 5935   1.858   1.876   4.936
 1679SOL    HW1 5936   1.942   1.876   4.990
 1679SOL    HW2 5937   1.798   1.802   4.967
 1680SOL     OW 5938   4.785   2.793   4.625
 1680SOL    HW1 5939   4.870   2.837   4.654
 1680SOL    HW2 5940   4.728   2.775   4.705
 1681SOL     OW 5941   2.015   5.871   3.864
 1681SOL    HW1 5942   2.085   5.827   3.808
 1681SOL    HW2 5943   1.925   5.850   3.826
 1682SOL     OW 5944   2.510   6.821   5.545
 1682SOL    HW1 5945   2.574   6.811   5.469
 1682SOL    HW2 5946   2.423   6.776   5.521
 1683SOL     OW 5947   5.719   4.794   2.548
 1683SOL    HW1 5948   5.739   4.703   2.512
 1683SOL    HW2 5949   5.639   4.790   2.607
 1684SOL     OW 5950   1.741   4.930   1.835
 1684SOL    HW1 5951   1.841   4.933   1.827
 1684SOL    HW2 5952   1.715   4.850   1.890
 1685SOL     OW 5953   0.970   1.712   5.468
 1685SOL    HW1 5954   1.038   1.708   5.395
 1685SOL    HW2 5955   0.927   1.802   5.468
 1686SOL     OW 5956   4.686   5.112   3.470
 1686SOL    HW1 5957   4.665   5.014   3.470
 1686SOL    HW2 5958   4.635   5.157   3.544
 1687SOL     OW 5959   6.870   3.546   2.407
 1687SOL    HW1 5960   6.886   3.582   2.315
 1687SOL    HW2 5961   6.912   3.455   2.415
 1688SOL     OW 5962   2.195   2.130   3.544
 1688SOL    HW1 5963   2.242   2.218   3.545
 1688SOL    HW2 5964   2.096   2.144   3.539
 1689SOL     OW 5965   5.912   0.941   2.061
 1689SOL    HW1 5966   5.990   0.879   2.066
 1689SOL    HW2 5967   5.853   0.914   1.985
 1690SOL     OW 5968   0.569   3.916   4.115
 1690SOL    HW1 5969   0.476   3.924   4.151
 1690SOL    HW2 5970   0.627   3.983   4.160
 1691SOL     OW 5971   5.337   3.052   4.976
 1691SOL    HW1 5972   5.391   3.120   5.026
 1691SOL    HW2 5973   5.344   3.070   4.878
 1692SOL     OW 5974   5.841   5.017   2.075
 1692SOL    HW1 5975   5.771   4.992   2.008
 1692SOL    HW2 5976   5.920   4.957   2.066
 1693SOL     OW 5977   6.677   0.728   5.781
 1693SOL    HW1 5978   6.694   0.823   5.806
 1693SOL    HW2 5979   6.581   0.717   5.754
 1694SOL     OW 5980   5.645   0.996   4.716
 1694SOL    HW1 5981   5.613   1.081   4.758
 1694SOL    HW2 5982   5.652   0.925   4.785
 1695SOL     OW 5983   3.924   0.553   6.821
 1695SOL    HW1 5984   4.002   0.610   6.849
 1695SOL    HW2 5985   3.885   0.590   6.737
 1696SOL     OW 5986   4.550   5.571   0.133
 1696SOL    HW1 5987   4.521   5.496   0.193
 1696SOL    HW2 5988   4.646   5.559   0.109
 1697SOL     OW 5989   5.939   2.041   1.301
 1697SOL    HW1 5990   5.845   2.029   1.332
 1697SOL    HW2 5991   5.966   2.137   1.314
 1698SOL     OW 5992   2.982   0.874   2.286
 1698SOL    HW1 5993   3.065   0.833   2.250
 1698SOL    HW2 5994   2.948   0.943   2.222
 1699SOL     OW 5995   2.921   0.911   6.765
 1699SOL    HW1 5996   2.942   0.852   6.843
 1699SOL    HW2 5997   2.924   1.006   6.794
 1700SOL     OW 5998   6.080   3.349   3.220
 1700SOL    HW1 5999   6.075   3.360   3.121
 1700SOL    HW2 6000   6.028   3.269   3.248
 1701SOL     OW 6001   6.642   4.861   4.615
 1701SOL    HW1 6002   6.620   4.772   4.656
 1701SOL    HW2 6003   6.735   4.887   4.640
 1702SOL     OW 6004   1.720   2.050   5.894
 1702SOL    HW1 6005   1.656   2.072   5.820
 1702SOL    HW2 6006   1.812   2.076   5.867
 1703SOL     OW 6007   3.122   1.635   6.479
 1703SOL    HW1 6008   3.131   1.554   6.537
 1703SOL    HW2 6009   3.157   1.615   6.388
 1704SOL     OW 6010   3.078   1.556   0.897
 1704SOL    HW1 6011   2.989   1.531   0.860
 1704SOL    HW2 6012   3.148   1.545   0.825
 1705SOL     OW 6013   3.579   1.406   1.774
 1705SOL    HW1 6014   3.586   1.383   1.871
 1705SOL    HW2 6015   3.529   1.492   1.763
 1706SOL     OW 6016   4.309   2.254   0.922
 1706SOL    HW1 6017   4.261   2.207   0.996
 1706SOL    HW2 6018   4.243   2.290   0.857
 1707SOL     OW 6019   4.548   1.007   2.434
 1707SOL    HW1 6020   4.531   1.093   2.386
 1707SOL    HW2 6021   4.513   1.014   2.527
 1708SOL     OW 6022   3.290   5.152   2.103
 1708SOL    HW1 6023   3.289   5.204   2.017
 1708SOL    HW2 6024   3.373   5.096   2.107
 1709SOL     OW 6025   5.202   5.958   0.846
 1709SOL    HW1 6026   5.149   5.957   0.931
 1709SOL    HW2 6027   5.143   5.987   0.770
 1710SOL     OW 6028   4.610   5.461   2.783
 1710SOL    HW1 6029   4.654   5.389   2.729
 1710SOL    HW2 6030   4.565   5.421   2.862
 1711SOL     OW 6031   3.401   5.844   6.186
 1711SOL    HW1 6032   3.331   5.830   6.255
 1711SOL    HW2 6033   3.489   5.812   6.221
 1712SOL     OW 6034   0.384   2.142   4.418
 1712SOL    HW1 6035   0.284   2.153   4.415
 1712SOL    HW2 6036   0.420   2.143   4.325
 1713SOL     OW 6037   3.915   0.594   3.083
 1713SOL    HW1 6038   3.844   0.539   3.127
 1713SOL    HW2 6039   3.885   0.619   2.991
 1714SOL     OW 6040   3.526   2.810   6.703
 1714SOL    HW1 6041   3.531   2.820   6.604
 1714SOL    HW2 6042   3.559   2.893   6.747
 1715SOL     OW 6043   1.298   6.354   2.160
 1715SOL    HW1 6044   1.334   6.429   2.105
 1715SOL    HW2 6045   1.252   6.391   2.241
 1716SOL     OW 6046   4.311   0.542   3.950
 1716SOL    HW1 6047   4.270   0.598   4.023
 1716SOL    HW2 6048   4.377   0.479   3.990
 1717SOL     OW 6049   3.770   6.014   5.659
 1717SOL    HW1 6050   3.758   5.940   5.593
 1717SOL    HW2 6051   3.739   5.984   5.749
 1718SOL     OW 6052   2.044   2.567   1.770
 1718SOL    HW1 6053   2.087   2.604   1.851
 1718SOL    HW2 6054   2.024   2.641   1.705
 1719SOL     OW 6055   0.841   4.984   2.042
 1719SOL    HW1 6056   0.789   4.946   1.966
 1719SOL    HW2 6057   0.907   5.051   2.008
 1720SOL     OW 6058   6.946   2.953   5.621
 1720SOL    HW1 6059   6.912   2.912   5.537
 1720SOL    HW2 6060   6.930   3.052   5.619
 1721SOL     OW 6061   0.934   1.666   1.623
 1721SOL    HW1 6062   0.940   1.762   1.648
 1721SOL    HW2 6063   1.010   1.641   1.564
 1722SOL     OW 6064   2.970   2.093   2.840
 1722SOL    HW1 6065   2.909   2.170   2.856
 1722SOL    HW2 6066   3.033   2.115   2.766
 1723SOL     OW 6067   5.084   2.540   6.905
 1723SOL    HW1 6068   4.989   2.524   6.877
 1723SOL    HW2 6069   5.086   2.565   7.002
 1724SOL     OW 6070   6.386   2.098   1.223
 1724SOL    HW1 6071   6.325   2.102   1.302
 1724SOL    HW2 6072   6.332   2.111   1.139
 1725SOL     OW 6073   2.574   5.243   6.295
 1725SOL    HW1 6074   2.645   5.190   6.342
 1725SOL    HW2 6075   2.485   5.203   6.316
 1726SOL     OW 6076   5.390   4.069   3.887
 1726SOL    HW1 6077   5.442   4.080   3.972
 1726SOL    HW2 6078   5.443   4.012   3.824
 1727SOL     OW 6079   2.957   3.724   3.674
 1727SOL    HW1 6080   3.041   3.739   3.622
 1727SOL    HW2 6081   2.955   3.786   3.752
 1728SOL     OW 6082   4.754   2.995   5.296
 1728SOL    HW1 6083   4.761   2.896   5.307
 1728SOL    HW2 6084   4.671   3.027   5.341
 1729SOL     OW 6085   2.013   3.937   2.029
 1729SOL    HW1 6086   1.987   3.998   1.953
 1729SOL    HW2 6087   2.113   3.933   2.035
 1730SOL     OW 6088   2.719   4.864   5.731
 1730SOL    HW1 6089   2.726   4.924   5.811
 1730SOL    HW2 6090   2.650   4.793   5.749
 1731SOL     OW 6091   5.687   3.964   3.780
 1731SOL    HW1 6092   5.769   3.995   3.827
 1731SOL    HW2 6093   5.659   3.875   3.818
 1732SOL     OW 6094   1.923   5.117   6.579
 1732SOL    HW1 6095   1.865   5.197   6.591
 1732SOL    HW2 6096   1.933   5.097   6.481
 1733SOL     OW 6097   2.677   3.427   0.092
 1733SOL    HW1 6098   2.660   3.352   0.156
 1733SOL    HW2 6099   2.769   3.463   0.107
 1734SOL     OW 6100   6.804   2.963   1.531
 1734SOL    HW1 6101   6.854   2.985   1.615
 1734SOL    HW2 6102   6.808   3.040   1.468
 1735SOL     OW 6103   3.992   5.555   6.691
 1735SOL    HW1 6104   4.010   5.471   6.742
 1735SOL    HW2 6105   3.895   5.560   6.668
 1736SOL     OW 6106   4.844   3.588   0.786
 1736SOL    HW1 6107   4.847   3.555   0.880
 1736SOL    HW2 6108   4.900   3.670   0.778
 1737SOL     OW 6109   4.528   1.293   4.448
 1737SOL    HW1 6110   4.601   1.358   4.429
 1737SOL    HW2 6111   4.551   1.238   4.528
 1738SOL     OW 6112   1.089   3.674   4.062
 1738SOL    HW1 6113   1.033   3.645   4.139
 1738SOL    HW2 6114   1.150   3.748   4.091
 1739SOL     OW 6115   5.095   0.191   4.206
 1739SOL    HW1 6116   5.044   0.230   4.283
 1739SOL    HW2 6117   5.091   0.253   4.128
 1740SOL     OW 6118   6.911   2.240   4.599
 1740SOL    HW1 6119   6.845   2.283   4.537
 1740SOL    HW2 6120   6.917   2.292   4.683
 1741SOL     OW 6121   0.971   1.923   4.597
 1741SOL    HW1 6122   0.943   1.986   4.524
 1741SOL    HW2 6123   0.932   1.832   4.580
 1742SOL     OW 6124   6.249   6.108   6.205
 1742SOL    HW1 6125   6.306   6.070   6.279
 1742SOL    HW2 6126   6.154   6.112   6.236
 1743SOL     OW 6127   1.390   0.972   2.914
 1743SOL    HW1 6128   1.391   0.890   2.856
 1743SOL    HW2 6129   1.297   0.988   2.947
 1744SOL     OW 6130   4.944   2.438   3.258
 1744SOL    HW1 6131   4.962   2.421   3.355
 1744SOL    HW2 6132   4.963   2.355   3.205
 1745SOL     OW 6133   6.315   6.374   1.455
 1745SOL    HW1 6134   6.232   6.330   1.419
 1745SOL    HW2 6135   6.388   6.367   1.386
 1746SOL     OW 6136   1.545   4.295   3.492
 1746SOL    HW1 6137   1.490   4.213   3.509
 1746SOL    HW2 6138   1.632   4.269   3.451
 1747SOL     OW 6139   3.198   1.099   2.245
 1747SOL    HW1 6140   3.100   1.120   2.246
 1747SOL    HW2 6141   3.229   1.088   2.151
 1748SOL     OW 6142   6.928   1.770   4.271
 1748SOL    HW1 6143   6.957   1.740   4.362
 1748SOL    HW2 6144   6.949   1.867   4.259
 1749SOL     OW 6145   2.402   5.340   1.308
 1749SOL    HW1 6146   2.440   5.333   1.216
 1749SOL    HW2 6147   2.306   5.311   1.307
 1750SOL     OW 6148   4.634   0.689   5.685
 1750SOL    HW1 6149   4.590   0.699   5.774
 1750SOL    HW2 6150   4.675   0.598   5.677
 1751SOL     OW 6151   6.056   2.670   5.066
 1751SOL    HW1 6152   6.035   2.711   5.155
 1751SOL    HW2 6153   5.999   2.712   4.996
 1752SOL     OW 6154   6.588   0.731   1.231
 1752SOL    HW1 6155   6.670   0.696   1.187
 1752SOL    HW2 6156   6.510   0.721   1.169
 1753SOL     OW 6157   6.058   1.149   1.510
 1753SOL    HW1 6158   6.059   1.052   1.533
 1753SOL    HW2 6159   5.995   1.164   1.433
 1754SOL     OW 6160   2.782   5.571   5.735
 1754SOL    HW1 6161   2.790   5.670   5.753
 1754SOL    HW2 6162   2.685   5.545   5.739
 1755SOL     OW 6163   6.216   6.979   5.287
 1755SOL    HW1 6164   6.247   0.005   5.366
 1755SOL    HW2 6165   6.270   7.005   5.207
 1756SOL     OW 6166   5.564   0.549   5.783
 1756SOL    HW1 6167   5.593   0.608   5.707
 1756SOL    HW2 6168   5.641   0.495   5.815
 1757SOL     OW 6169   2.347   4.949   5.115
 1757SOL    HW1 6170   2.291   5.018   5.070
 1757SOL    HW2 6171   2.421   4.921   5.053
 1758SOL     OW 6172   1.781   6.274   4.518
 1758SOL    HW1 6173   1.875   6.278   4.485
 1758SOL    HW2 6174   1.774   6.326   4.603
 1759SOL     OW 6175   1.123   6.356   0.330
 1759SOL    HW1 6176   1.047   6.366   0.266
 1759SOL    HW2 6177   1.202   6.407   0.297
 1760SOL     OW 6178   6.325   0.758   5.055
 1760SOL    HW1 6179   6.424   0.763   5.042
 1760SOL    HW2 6180   6.279   0.798   4.975
 1761SOL     OW 6181   6.794   2.054   1.699
 1761SOL    HW1 6182   6.707   2.006   1.690
 1761SOL    HW2 6183   6.819   2.095   1.611
 1762SOL     OW 6184   0.453   1.408   5.298
 1762SOL    HW1 6185   0.487   1.402   5.392
 1762SOL    HW2 6186   0.500   1.482   5.250
 1763SOL     OW 6187   0.555   3.657   4.248
 1763SOL    HW1 6188   0.540   3.690   4.341
 1763SOL    HW2 6189   0.573   3.736   4.188
 1764SOL     OW 6190   1.299   4.886   2.480
 1764SOL    HW1 6191   1.342   4.900   2.391
 1764SOL    HW2 6192   1.363   4.911   2.552
 1765SOL     OW 6193   5.574   3.069   1.603
 1765SOL    HW1 6194   5.605   3.164   1.604
 1765SOL    HW2 6195   5.624   3.017   1.672
 1766SOL     OW 6196   4.095   5.136   4.359
 1766SOL    HW1 6197   4.010   5.186   4.374
 1766SOL    HW2 6198   4.079   5.038   4.374
 1767SOL     OW 6199   0.247   5.014   2.747
 1767SOL    HW1 6200   0.157   5.046   2.717
 1767SOL    HW2 6201   0.240   4.921   2.781
 1768SOL     OW 6202   5.089   6.755   2.399
 1768SOL    HW1 6203   4.995   6.789   2.400
 1768SOL    HW2 6204   5.088   6.655   2.390
 1769SOL     OW 6205   5.437   0.108   6.263
 1769SOL    HW1 6206   5.356   0.128   6.208
 1769SOL    HW2 6207   5.420   0.134   6.358
 1770SOL     OW 6208   2.321   5.084   6.340
 1770SOL    HW1 6209   2.319   5.013   6.269
 1770SOL    HW2 6210   2.239   5.141   6.332
 1771SOL     OW 6211   0.788   4.088   5.792
 1771SOL    HW1 6212   0.803   4.066   5.889
 1771SOL    HW2 6213   0.734   4.016   5.750
 1772SOL     OW 6214   2.323   4.686   4.243
 1772SOL    HW1 6215   2.343   4.588   4.245
 1772SOL    HW2 6216   2.403   4.736   4.211
 1773SOL     OW 6217   0.549   7.015   5.293
 1773SOL    HW1 6218   0.524   0.032   5.380
 1773SOL    HW2 6219   0.526   6.918   5.295
 1774SOL     OW 6220   5.861   5.825   1.119
 1774SOL    HW1 6221   5.925   5.761   1.075
 1774SOL    HW2 6222   5.767   5.795   1.102
 1775SOL     OW 6223   2.184   5.505   6.146
 1775SOL    HW1 6224   2.102   5.559   6.165
 1775SOL    HW2 6225   2.158   5.420   6.101
 1776SOL     OW 6226   4.100   1.188   5.806
 1776SOL    HW1 6227   4.014   1.170   5.758
 1776SOL    HW2 6228   4.126   1.284   5.793
 1777SOL     OW 6229   4.792   6.747   6.653
 1777SOL    HW1 6230   4.720   6.807   6.686
 1777SOL    HW2 6231   4.874   6.759   6.710
 1778SOL     OW 6232   6.113   0.375   3.973
 1778SOL    HW1 6233   6.036   0.334   4.022
 1778SOL    HW2 6234   6.078   0.432   3.898
 1779SOL     OW 6235   5.619   6.081   3.750
 1779SOL    HW1 6236   5.660   6.150   3.689
 1779SOL    HW2 6237   5.601   6.122   3.839
 1780SOL     OW 6238   1.877   5.385   5.329
 1780SOL    HW1 6239   1.862   5.453   5.256
 1780SOL    HW2 6240   1.937   5.425   5.399
 1781SOL     OW 6241   4.395   0.302   4.039
 1781SOL    HW1 6242   4.461   0.239   4.080
 1781SOL    HW2 6243   4.308   0.295   4.087
 1782SOL     OW 6244   1.636   1.805   2.883
 1782SOL    HW1 6245   1.722   1.754   2.888
 1782SOL    HW2 6246   1.598   1.796   2.791
 1783SOL     OW 6247   1.595   4.414   6.525
 1783SOL    HW1 6248   1.650   4.369   6.596
 1783SOL    HW2 6249   1.656   4.446   6.452
 1784SOL     OW 6250   2.410   0.552   0.747
 1784SOL    HW1 6251   2.367   0.562   0.657
 1784SOL    HW2 6252   2.339   0.551   0.817
 1785SOL     OW 6253   1.525   6.522   4.151
 1785SOL    HW1 6254   1.453   6.550   4.087
 1785SOL    HW2 6255   1.484   6.481   4.232
 1786SOL     OW 6256   1.109   5.787   0.839
 1786SOL    HW1 6257   1.016   5.757   0.862
 1786SOL    HW2 6258   1.113   5.815   0.743
 1787SOL     OW 6259   1.883   3.923   5.828
 1787SOL    HW1 6260   1.794   3.892   5.863
 1787SOL    HW2 6261   1.946   3.846   5.825
 1788SOL     OW 6262   4.550   4.168   0.628
 1788SOL    HW1 6263   4.554   4.177   0.528
 1788SOL    HW2 6264   4.617   4.101   0.658
 1789SOL     OW 6265   6.763   3.777   2.077
 1789SOL    HW1 6266   6.767   3.869   2.117
 1789SOL    HW2 6267   6.676   3.734   2.102
 1790SOL     OW 6268   2.709   2.333   4.403
 1790SOL    HW1 6269   2.687   2.275   4.324
 1790SOL    HW2 6270   2.643   2.408   4.409
 1791SOL     OW 6271   5.520   6.960   3.517
 1791SOL    HW1 6272   5.481   6.902   3.589
 1791SOL    HW2 6273   5.451   6.977   3.447
 1792SOL     OW 6274   6.895   1.335   5.042
 1792SOL    HW1 6275   6.922   1.354   4.948
 1792SOL    HW2 6276   6.900   1.419   5.096
 1793SOL     OW 6277   0.247   1.246   5.691
 1793SOL    HW1 6278   0.270   1.152   5.714
 1793SOL    HW2 6279   0.203   1.290   5.770
 1794SOL     OW 6280   0.542   6.857   6.253
 1794SOL    HW1 6281   0.503   6.820   6.170
 1794SOL    HW2 6282   0.587   6.944   6.233
 1795SOL     OW 6283   5.766   4.932   6.771
 1795SOL    HW1 6284   5.709   4.873   6.713
 1795SOL    HW2 6285   5.836   4.877   6.816
 1796SOL     OW 6286   0.646   6.494   6.113
 1796SOL    HW1 6287   0.636   6.538   6.024
 1796SOL    HW2 6288   0.704   6.550   6.172
 1797SOL     OW 6289   2.162   6.076   4.644
 1797SOL    HW1 6290   2.240   6.100   4.587
 1797SOL    HW2 6291   2.104   6.010   4.596
 1798SOL     OW 6292   2.932   3.765   4.600
 1798SOL    HW1 6293   2.851   3.792   4.653
 1798SOL    HW2 6294   2.920   3.673   4.564
 1799SOL     OW 6295   3.120   1.074   0.203
 1799SOL    HW1 6296   3.035   1.050   0.155
 1799SOL    HW2 6297   3.135   1.172   0.196
 1800SOL     OW 6298   5.123   3.331   4.814
 1800SOL    HW1 6299   5.180   3.342   4.733
 1800SOL    HW2 6300   5.074   3.244   4.810
 1801SOL     OW 6301   0.905   2.051   2.073
 1801SOL    HW1 6302   0.866   1.973   2.023
 1801SOL    HW2 6303   0.950   2.019   2.156
 1802SOL     OW 6304   7.002   4.829   3.796
 1802SOL    HW1 6305   6.984   4.835   3.894
 1802SOL    HW2 6306   7.014   4.733   3.770
 1803SOL     OW 6307   1.304   6.959   3.100
 1803SOL    HW1 6308   1.295   0.008   3.165
 1803SOL    HW2 6309   1.399   6.955   3.067
 1804SOL     OW 6310   2.157   3.415   5.775
 1804SOL    HW1 6311   2.210   3.477   5.718
 1804SOL    HW2 6312   2.089   3.368   5.719
 1805SOL     OW 6313   0.121   6.040   6.393
 1805SOL    HW1 6314   0.172   6.090   6.323
 1805SOL    HW2 6315   0.079   6.104   6.457
 1806SOL     OW 6316   6.798   1.776   2.270
 1806SOL    HW1 6317   6.701   1.771   2.246
 1806SOL    HW2 6318   6.838   1.857   2.227
 1807SOL     OW 6319   6.548   3.575   2.078
 1807SOL    HW1 6320   6.550   3.475   2.068
 1807SOL    HW2 6321   6.462   3.610   2.041
 1808SOL     OW 6322   5.193   1.917   5.832
 1808SOL    HW1 6323   5.275   1.893   5.885
 1808SOL    HW2 6324   5.202   2.012   5.799
 1809SOL     OW 6325   3.883   1.725   6.065
 1809SOL    HW1 6326   3.877   1.773   6.153
 1809SOL    HW2 6327   3.838   1.779   5.994
 1810SOL     OW 6328   0.365   0.075   3.989
 1810SOL    HW1 6329   0.341   0.169   4.012
 1810SOL    HW2 6330   0.282   0.020   3.980
 1811SOL     OW 6331   4.217   5.719   2.540
 1811SOL    HW1 6332   4.200   5.785   2.614
 1811SOL    HW2 6333   4.283   5.651   2.572
 1812SOL     OW 6334   4.798   7.004   5.066
 1812SOL    HW1 6335   4.880   6.954   5.095
 1812SOL    HW2 6336   4.726   6.992   5.134
 1813SOL     OW 6337   4.618   4.414   2.346
 1813SOL    HW1 6338   4.548   4.431   2.414
 1813SOL    HW2 6339   4.576   4.399   2.256
 1814SOL     OW 6340   0.155   6.357   0.487
 1814SOL    HW1 6341   0.068   6.406   0.482
 1814SOL    HW2 6342   0.226   6.419   0.520
 1815SOL     OW 6343   6.091   5.986   1.875
 1815SOL    HW1 6344   6.001   6.026   1.890
 1815SOL    HW2 6345   6.086   5.916   1.804
 1816SOL     OW 6346   4.568   5.626   6.339
 1816SOL    HW1 6347   4.470   5.625   6.359
 1816SOL    HW2 6348   4.583   5.627   6.240
 1817SOL     OW 6349   1.302   1.935   3.622
 1817SOL    HW1 6350   1.246   1.874   3.565
 1817SOL    HW2 6351   1.330   1.886   3.705
 1818SOL     OW 6352   2.266   6.953   0.738
 1818SOL    HW1 6353   2.227   7.001   0.659
 1818SOL    HW2 6354   2.339   7.009   0.778
 1819SOL     OW 6355   2.368   4.750   3.196
 1819SOL    HW1 6356   2.339   4.806   3.118
 1819SOL    HW2 6357   2.295   4.749   3.264
 1820SOL     OW 6358   3.682   0.888   4.220
 1820SOL    HW1 6359   3.629   0.957   4.172
 1820SOL    HW2 6360   3.662   0.798   4.181
 1821SOL     OW 6361   3.948   1.999   2.462
 1821SOL    HW1 6362   3.940   2.047   2.549
 1821SOL    HW2 6363   3.915   2.058   2.388
 1822SOL     OW 6364   0.125   2.944   2.356
 1822SOL    HW1 6365   0.125   3.002   2.274
 1822SOL    HW2 6366   0.113   3.002   2.437
 1823SOL     OW 6367   4.296   6.979   2.556
 1823SOL    HW1 6368   4.361   6.903   2.549
 1823SOL    HW2 6369   4.260   7.000   2.466
 1824SOL     OW 6370   3.695   3.009   0.776
 1824SOL    HW1 6371   3.605   3.051   0.784
 1824SOL    HW2 6372   3.760   3.058   0.833
 1825SOL     OW 6373   1.990   1.716   4.693
 1825SOL    HW1 6374   1.968   1.766   4.776
 1825SOL    HW2 6375   1.915   1.654   4.669
 1826SOL     OW 6376   3.440   2.155   1.797
 1826SOL    HW1 6377   3.480   2.242   1.768
 1826SOL    HW2 6378   3.503   2.080   1.775
 1827SOL     OW 6379   5.687   4.449   0.486
 1827SOL    HW1 6380   5.684   4.356   0.522
 1827SOL    HW2 6381   5.755   4.503   0.536
 1828SOL     OW 6382   1.191   3.182   5.434
 1828SOL    HW1 6383   1.151   3.096   5.465
 1828SOL    HW2 6384   1.126   3.257   5.448
 1829SOL     OW 6385   3.310   1.068   3.886
 1829SOL    HW1 6386   3.309   1.112   3.797
 1829SOL    HW2 6387   3.243   0.994   3.889
 1830SOL     OW 6388   5.519   6.596   4.999
 1830SOL    HW1 6389   5.438   6.574   4.945
 1830SOL    HW2 6390   5.536   6.522   5.065
 1831SOL     OW 6391   4.863   5.465   2.024
 1831SOL    HW1 6392   4.818   5.405   1.958
 1831SOL    HW2 6393   4.962   5.456   2.015
 1832SOL     OW 6394   2.784   3.022   0.537
 1832SOL    HW1 6395   2.738   3.027   0.625
 1832SOL    HW2 6396   2.717   3.004   0.465
 1833SOL     OW 6397   5.064   0.221   1.015
 1833SOL    HW1 6398   5.118   0.303   0.994
 1833SOL    HW2 6399   5.096   0.181   1.101
 1834SOL     OW 6400   2.257   2.817   6.643
 1834SOL    HW1 6401   2.309   2.866   6.572
 1834SOL    HW2 6402   2.167   2.791   6.606
 1835SOL     OW 6403   7.010   5.755   0.893
 1835SOL    HW1 6404   6.920   5.799   0.893
 1835SOL    HW2 6405   6.998   5.655   0.889
 1836SOL     OW 6406   5.365   2.268   1.653
 1836SOL    HW1 6407   5.267   2.283   1.662
 1836SOL    HW2 6408   5.415   2.336   1.708
 1837SOL     OW 6409   2.689   1.711   6.438
 1837SOL    HW1 6410   2.692   1.679   6.343
 1837SOL    HW2 6411   2.598   1.694   6.476
 1838SOL     OW 6412   6.384   0.545   0.578
 1838SOL    HW1 6413   6.350   0.511   0.666
 1838SOL    HW2 6414   6.448   0.620   0.594
 1839SOL     OW 6415   6.251   1.199   6.966
 1839SOL    HW1 6416   6.274   1.148   0.023
 1839SOL    HW2 6417   6.242   1.136   6.889
 1840SOL     OW 6418   4.573   6.921   3.780
 1840SOL    HW1 6419   4.500   6.906   3.846
 1840SOL    HW2 6420   4.661   6.896   3.822
 1841SOL     OW 6421   2.125   1.414   2.191
 1841SOL    HW1 6422   2.153   1.502   2.154
 1841SOL    HW2 6423   2.067   1.367   2.123
 1842SOL     OW 6424   1.517   5.515   0.135
 1842SOL    HW1 6425   1.459   5.581   0.087
 1842SOL    HW2 6426   1.510   5.426   0.090
 1843SOL     OW 6427   3.860   1.205   4.927
 1843SOL    HW1 6428   3.766   1.183   4.902
 1843SOL    HW2 6429   3.906   1.123   4.959
 1844SOL     OW 6430   5.740   1.489   6.615
 1844SOL    HW1 6431   5.670   1.456   6.678
 1844SOL    HW2 6432   5.827   1.444   6.636
 1845SOL     OW 6433   1.448   1.088   2.600
 1845SOL    HW1 6434   1.377   1.158   2.612
 1845SOL    HW2 6435   1.479   1.057   2.690
 1846SOL     OW 6436   4.542   1.281   2.367
 1846SOL    HW1 6437   4.531   1.320   2.275
 1846SOL    HW2 6438   4.594   1.344   2.424
 1847SOL     OW 6439   2.495   0.373   5.654
 1847SOL    HW1 6440   2.487   0.370   5.554
 1847SOL    HW2 6441   2.538   0.288   5.686
 1848SOL     OW 6442   2.369   5.815   4.459
 1848SOL    HW1 6443   2.345   5.890   4.397
 1848SOL    HW2 6444   2.433   5.849   4.528
 1849SOL     OW 6445   4.809   2.764   1.854
 1849SOL    HW1 6446   4.774   2.849   1.893
 1849SOL    HW2 6447   4.742   2.691   1.867
 1850SOL     OW 6448   4.854   1.551   1.492
 1850SOL    HW1 6449   4.797   1.575   1.414
 1850SOL    HW2 6450   4.825   1.462   1.529
 1851SOL     OW 6451   6.858   3.899   5.160
 1851SOL    HW1 6452   6.765   3.874   5.184
 1851SOL    HW2 6453   6.863   3.921   5.062
 1852SOL     OW 6454   1.528   5.746   2.378
 1852SOL    HW1 6455   1.564   5.834   2.347
 1852SOL    HW2 6456   1.563   5.673   2.320
 1853SOL     OW 6457   0.205   2.665   4.451
 1853SOL    HW1 6458   0.128   2.652   4.514
 1853SOL    HW2 6459   0.182   2.736   4.384
 1854SOL     OW 6460   0.451   6.637   3.807
 1854SOL    HW1 6461   0.549   6.656   3.813
 1854SOL    HW2 6462   0.433   6.579   3.728
 1855SOL     OW 6463   4.880   3.328   5.011
 1855SOL    HW1 6464   4.931   3.335   4.925
 1855SOL    HW2 6465   4.838   3.416   5.032
 1856SOL     OW 6466   3.480   2.576   6.856
 1856SOL    HW1 6467   3.500   2.665   6.815
 1856SOL    HW2 6468   3.558   2.515   6.841
 1857SOL     OW 6469   4.940   1.242   0.464
 1857SOL    HW1 6470   4.842   1.236   0.487
 1857SOL    HW2 6471   4.968   1.338   0.464
 1858SOL     OW 6472   4.286   2.226   4.402
 1858SOL    HW1 6473   4.219   2.214   4.476
 1858SOL    HW2 6474   4.377   2.238   4.441
 1859SOL     OW 6475   5.505   2.003   3.988
 1859SOL    HW1 6476   5.442   2.062   4.040
 1859SOL    HW2 6477   5.597   2.013   4.025
 1860SOL     OW 6478   1.359   1.457   4.703
 1860SOL    HW1 6479   1.277   1.438   4.755
 1860SOL    HW2 6480   1.392   1.373   4.659
 1861SOL     OW 6481   6.458   0.273   3.130
 1861SOL    HW1 6482   6.514   0.339   3.180
 1861SOL    HW2 6483   6.517   0.215   3.073
 1862SOL     OW 6484   2.311   5.994   6.669
 1862SOL    HW1 6485   2.353   6.026   6.755
 1862SOL    HW2 6486   2.215   6.020   6.667
 1863SOL     OW 6487   0.757   3.054   1.162
 1863SOL    HW1 6488   0.755   3.009   1.073
 1863SOL    HW2 6489   0.809   2.998   1.227
 1864SOL     OW 6490   3.531   5.817   2.624
 1864SOL    HW1 6491   3.438   5.826   2.661
 1864SOL    HW2 6492   3.535   5.738   2.562
 1865SOL     OW 6493   5.522   0.878   6.165
 1865SOL    HW1 6494   5.484   0.960   6.122
 1865SOL    HW2 6495   5.516   0.801   6.101
 1866SOL     OW 6496   7.023   4.735   3.385
 1866SOL    HW1 6497   6.962   4.800   3.339
 1866SOL    HW2 6498   6.971   4.655   3.413
 1867SOL     OW 6499   2.435   2.136   0.818
 1867SOL    HW1 6500   2.489   2.111   0.898
 1867SOL    HW2 6501   2.351   2.081   0.816
 1868SOL     OW 6502   5.651   4.346   5.601
 1868SOL    HW1 6503   5.663   4.279   5.674
 1868SOL    HW2 6504   5.711   4.424   5.616
 1869SOL     OW 6505   4.882   1.680   4.162
 1869SOL    HW1 6506   4.934   1.761   4.188
 1869SOL    HW2 6507   4.784   1.697   4.176
 1870SOL     OW 6508   0.375   4.982   4.164
 1870SOL    HW1 6509   0.442   4.953   4.233
 1870SOL    HW2 6510   0.284   4.982   4.205
 1871SOL     OW 6511   0.973   6.554   0.451
 1871SOL    HW1 6512   1.059   6.511   0.423
 1871SOL    HW2 6513   0.907   6.483   0.476
 1872SOL     OW 6514   2.739   2.780   0.978
 1872SOL    HW1 6515   2.767   2.735   1.063
 1872SOL    HW2 6516   2.817   2.785   0.916
 1873SOL     OW 6517   6.577   1.036   0.134
 1873SOL    HW1 6518   6.559   0.964   0.067
 1873SOL    HW2 6519   6.649   1.096   0.100
 1874SOL     OW 6520   0.458   6.267   0.201
 1874SOL    HW1 6521   0.471   6.263   0.102
 1874SOL    HW2 6522   0.414   6.183   0.233
 1875SOL     OW 6523   6.328   4.678   0.138
 1875SOL    HW1 6524   6.275   4.741   0.196
 1875SOL    HW2 6525   6.342   4.592   0.187
 1876SOL     OW 6526   0.096   5.857   6.651
 1876SOL    HW1 6527   0.027   5.905   6.705
 1876SOL    HW2 6528   0.183   5.905   6.658
 1877SOL     OW 6529   0.227   0.766   2.001
 1877SOL    HW1 6530   0.215   0.721   1.913
 1877SOL    HW2 6531   0.209   0.701   2.075
 1878SOL     OW 6532   6.594   4.478   3.580
 1878SOL    HW1 6533   6.638   4.568   3.587
 1878SOL    HW2 6534   6.650   4.409   3.626
 1879SOL     OW 6535   4.215   5.578   4.805
 1879SOL    HW1 6536   4.135   5.578   4.866
 1879SOL    HW2 6537   4.297   5.556   4.857
 1880SOL     OW 6538   0.557   1.525   4.145
 1880SOL    HW1 6539   0.553   1.436   4.190
 1880SOL    HW2 6540   0.530   1.515   4.049
 1881SOL     OW 6541   1.313   1.419   4.071
 1881SOL    HW1 6542   1.306   1.499   4.011
 1881SOL    HW2 6543   1.228   1.367   4.065
 1882SOL     OW 6544   1.479   5.785   6.917
 1882SOL    HW1 6545   1.395   5.830   6.885
 1882SOL    HW2 6546   1.545   5.854   6.945
 1883SOL     OW 6547   1.612   3.053   2.777
 1883SOL    HW1 6548   1.524   3.071   2.821
 1883SOL    HW2 6549   1.684   3.097   2.830
 1884SOL     OW 6550   3.351   0.432   0.086
 1884SOL    HW1 6551   3.275   0.490   0.116
 1884SOL    HW2 6552   3.409   0.483   0.022
 1885SOL     OW 6553   6.872   2.238   1.195
 1885SOL    HW1 6554   6.863   2.139   1.183
 1885SOL    HW2 6555   6.925   2.277   1.120
 1886SOL     OW 6556   3.021   2.958   6.884
 1886SOL    HW1 6557   3.035   3.034   6.821
 1886SOL    HW2 6558   3.049   2.984   6.976
 1887SOL     OW 6559   0.931   6.460   5.746
 1887SOL    HW1 6560   0.893   6.368   5.757
 1887SOL    HW2 6561   1.012   6.455   5.687
 1888SOL     OW 6562   2.027   2.371   6.010
 1888SOL    HW1 6563   2.110   2.425   5.993
 1888SOL    HW2 6564   1.949   2.432   6.021
 1889SOL     OW 6565   4.238   2.706   0.369
 1889SOL    HW1 6566   4.155   2.760   0.355
 1889SOL    HW2 6567   4.306   2.762   0.417
 1890SOL     OW 6568   6.590   5.459   6.716
 1890SOL    HW1 6569   6.516   5.396   6.737
 1890SOL    HW2 6570   6.553   5.550   6.701
 1891SOL     OW 6571   6.133   3.466   5.740
 1891SOL    HW1 6572   6.202   3.526   5.779
 1891SOL    HW2 6573   6.053   3.462   5.801
 1892SOL     OW 6574   4.240   5.911   1.763
 1892SOL    HW1 6575   4.158   5.856   1.747
 1892SOL    HW2 6576   4.285   5.932   1.676
 1893SOL     OW 6577   3.991   1.942   4.398
 1893SOL    HW1 6578   3.956   1.907   4.485
 1893SOL    HW2 6579   4.024   1.866   4.342
 1894SOL     OW 6580   3.986   3.659   0.526
 1894SOL    HW1 6581   3.976   3.739   0.468
 1894SOL    HW2 6582   4.077   3.659   0.567
 1895SOL     OW 6583   5.582   0.215   3.249
 1895SOL    HW1 6584   5.634   0.215   3.163
 1895SOL    HW2 6585   5.643   0.237   3.325
 1896SOL     OW 6586   6.959   1.556   5.207
 1896SOL    HW1 6587   0.031   1.564   5.228
 1896SOL    HW2 6588   6.934   1.620   5.135
 1897SOL     OW 6589   5.994   4.839   3.094
 1897SOL    HW1 6590   5.917   4.777   3.111
 1897SOL    HW2 6591   6.050   4.845   3.176
 1898SOL     OW 6592   6.068   4.432   0.584
 1898SOL    HW1 6593   6.074   4.422   0.485
 1898SOL    HW2 6594   5.990   4.489   0.607
 1899SOL     OW 6595   0.942   2.751   2.664
 1899SOL    HW1 6596   0.921   2.847   2.645
 1899SOL    HW2 6597   0.874   2.693   2.620
 1900SOL     OW 6598   2.105   5.393   6.462
 1900SOL    HW1 6599   2.070   5.474   6.416
 1900SOL    HW2 6600   2.042   5.365   6.535
 1901SOL     OW 6601   1.424   1.182   6.673
 1901SOL    HW1 6602   1.334   1.163   6.710
 1901SOL    HW2 6603   1.492   1.185   6.746
 1902SOL     OW 6604   0.747   3.080   4.484
 1902SOL    HW1 6605   0.696   3.007   4.531
 1902SOL    HW2 6606   0.818   3.039   4.427
 1903SOL     OW 6607   6.609   3.042   3.901
 1903SOL    HW1 6608   6.565   3.123   3.862
 1903SOL    HW2 6609   6.600   3.044   4.000
 1904SOL     OW 6610   6.416   6.764   3.768
 1904SOL    HW1 6611   6.393   6.847   3.718
 1904SOL    HW2 6612   6.345   6.745   3.835
 1905SOL     OW 6613   6.685   2.330   3.780
 1905SOL    HW1 6614   6.663   2.294   3.689
 1905SOL    HW2 6615   6.734   2.417   3.770
 1906SOL     OW 6616   2.666   0.415   6.673
 1906SOL    HW1 6617   2.726   0.346   6.633
 1906SOL    HW2 6618   2.627   0.380   6.759
 1907SOL     OW 6619   3.497   6.237   3.793
 1907SOL    HW1 6620   3.596   6.225   3.797
 1907SOL    HW2 6621   3.461   6.192   3.712
 1908SOL     OW 6622   4.456   1.265   6.485
 1908SOL    HW1 6623   4.384   1.308   6.539
 1908SOL    HW2 6624   4.540   1.318   6.493
 1909SOL     OW 6625   2.263   5.304   4.390
 1909SOL    HW1 6626   2.289   5.286   4.295
 1909SOL    HW2 6627   2.298   5.394   4.417
 1910SOL     OW 6628   5.339   1.587   5.896
 1910SOL    HW1 6629   5.395   1.514   5.858
 1910SOL    HW2 6630   5.382   1.675   5.878
 1911SOL     OW 6631   6.297   2.987   5.008
 1911SOL    HW1 6632   6.302   2.974   5.107
 1911SOL    HW2 6633   6.270   3.082   4.988
 1912SOL     OW 6634   3.654   6.700   3.017
 1912SOL    HW1 6635   3.558   6.725   3.014
 1912SOL    HW2 6636   3.670   6.638   3.094
 1913SOL     OW 6637   1.630   4.980   5.579
 1913SOL    HW1 6638   1.576   5.063   5.592
 1913SOL    HW2 6639   1.657   4.973   5.483
 1914SOL     OW 6640   3.718   2.435   5.982
 1914SOL    HW1 6641   3.803   2.486   5.970
 1914SOL    HW2 6642   3.641   2.498   5.982
 1915SOL     OW 6643   3.717   0.151   5.622
 1915SOL    HW1 6644   3.620   0.156   5.597
 1915SOL    HW2 6645   3.742   0.056   5.640
 1916SOL     OW 6646   3.404   6.351   1.457
 1916SOL    HW1 6647   3.498   6.379   1.479
 1916SOL    HW2 6648   3.392   6.348   1.358
 1917SOL     OW 6649   2.943   3.284   4.208
 1917SOL    HW1 6650   2.911   3.260   4.116
 1917SOL    HW2 6651   3.029   3.334   4.202
 1918SOL     OW 6652   5.910   6.173   4.272
 1918SOL    HW1 6653   5.975   6.245   4.297
 1918SOL    HW2 6654   5.819   6.197   4.308
 1919SOL     OW 6655   6.844   6.604   1.782
 1919SOL    HW1 6656   6.816   6.509   1.793
 1919SOL    HW2 6657   6.786   6.663   1.838
 1920SOL     OW 6658   6.766   6.215   4.145
 1920SOL    HW1 6659   6.745   6.312   4.152
 1920SOL    HW2 6660   6.682   6.162   4.156
 1921SOL     OW 6661   0.943   6.642   6.961
 1921SOL    HW1 6662   1.030   6.691   6.961
 1921SOL    HW2 6663   0.950   6.562   6.900
 1922SOL     OW 6664   3.542   3.774   0.677
 1922SOL    HW1 6665   3.629   3.743   0.716
 1922SOL    HW2 6666   3.514   3.713   0.603
 1923SOL     OW 6667   1.716   1.504   0.667
 1923SOL    HW1 6668   1.813   1.480   0.660
 1923SOL    HW2 6669   1.672   1.443   0.733
 1924SOL     OW 6670   0.511   4.439   2.071
 1924SOL    HW1 6671   0.592   4.497   2.060
 1924SOL    HW2 6672   0.521   4.356   2.017
 1925SOL     OW 6673   3.208   4.048   1.268
 1925SOL    HW1 6674   3.108   4.040   1.272
 1925SOL    HW2 6675   3.240   4.096   1.349
 1926SOL     OW 6676   1.444   6.618   3.879
 1926SOL    HW1 6677   1.407   6.569   3.800
 1926SOL    HW2 6678   1.536   6.650   3.859
 1927SOL     OW 6679   3.316   4.060   6.714
 1927SOL    HW1 6680   3.294   3.964   6.731
 1927SOL    HW2 6681   3.241   4.103   6.664
 1928SOL     OW 6682   6.314   4.064   5.872
 1928SOL    HW1 6683   6.390   4.006   5.841
 1928SOL    HW2 6684   6.234   4.008   5.890
 1929SOL     OW 6685   0.406   6.475   1.443
 1929SOL    HW1 6686   0.504   6.485   1.426
 1929SOL    HW2 6687   0.391   6.447   1.537
 1930SOL     OW 6688   5.462   4.495   5.957
 1930SOL    HW1 6689   5.407   4.442   6.021
 1930SOL    HW2 6690   5.409   4.513   5.874
 1931SOL     OW 6691   0.360   2.903   4.020
 1931SOL    HW1 6692   0.414   2.904   4.104
 1931SOL    HW2 6693   0.416   2.864   3.946
 1932SOL     OW 6694   5.258   4.260   1.459
 1932SOL    HW1 6695   5.257   4.161   1.473
 1932SOL    HW2 6696   5.164   4.295   1.462
 1933SOL     OW 6697   3.030   4.624   0.945
 1933SOL    HW1 6698   3.090   4.592   0.871
 1933SOL    HW2 6699   2.954   4.560   0.956
 1934SOL     OW 6700   0.973   6.345   6.079
 1934SOL    HW1 6701   0.890   6.357   6.023
 1934SOL    HW2 6702   1.042   6.296   6.026
 1935SOL     OW 6703   2.600   0.572   3.876
 1935SOL    HW1 6704   2.605   0.484   3.923
 1935SOL    HW2 6705   2.509   0.584   3.838
 1936SOL     OW 6706   6.569   5.862   4.699
 1936SOL    HW1 6707   6.545   5.878   4.795
 1936SOL    HW2 6708   6.492   5.818   4.653
 1937SOL     OW 6709   3.919   6.419   1.924
 1937SOL    HW1 6710   3.830   6.429   1.880
 1937SOL    HW2 6711   3.991   6.445   1.861
 1938SOL     OW 6712   4.029   1.185   3.699
 1938SOL    HW1 6713   4.055   1.088   3.702
 1938SOL    HW2 6714   4.098   1.239   3.748
 1939SOL     OW 6715   1.361   1.196   3.771
 1939SOL    HW1 6716   1.399   1.189   3.863
 1939SOL    HW2 6717   1.374   1.109   3.722
 1940SOL     OW 6718   6.785   5.192   0.047
 1940SOL    HW1 6719   6.752   5.286   0.058
 1940SOL    HW2 6720   6.752   5.137   0.124
 1941SOL     OW 6721   5.288   3.956   2.000
 1941SOL    HW1 6722   5.355   3.994   1.936
 1941SOL    HW2 6723   5.289   4.009   2.085
 1942SOL     OW 6724   6.396   4.846   2.221
 1942SOL    HW1 6725   6.425   4.757   2.256
 1942SOL    HW2 6726   6.430   4.918   2.280
 1943SOL     OW 6727   2.572   4.568   3.551
 1943SOL    HW1 6728   2.616   4.608   3.471
 1943SOL    HW2 6729   2.624   4.592   3.633
 1944SOL     OW 6730   6.295   1.039   0.159
 1944SOL    HW1 6731   6.210   0.991   0.182
 1944SOL    HW2 6732   6.372   0.988   0.197
 1945SOL     OW 6733   3.692   5.227   3.759
 1945SOL    HW1 6734   3.622   5.247   3.828
 1945SOL    HW2 6735   3.746   5.309   3.740
 1946SOL     OW 6736   1.141   0.357   0.015
 1946SOL    HW1 6737   1.192   0.291   6.987
 1946SOL    HW2 6738   1.161   0.343   0.113
 1947SOL     OW 6739   5.252   5.485   3.394
 1947SOL    HW1 6740   5.245   5.444   3.303
 1947SOL    HW2 6741   5.163   5.480   3.440
 1948SOL     OW 6742   6.634   5.868   4.304
 1948SOL    HW1 6743   6.581   5.952   4.313
 1948SOL    HW2 6744   6.573   5.792   4.285
 1949SOL     OW 6745   4.487   4.202   6.607
 1949SOL    HW1 6746   4.492   4.200   6.706
 1949SOL    HW2 6747   4.410   4.258   6.578
 1950SOL     OW 6748   3.132   4.078   6.378
 1950SOL    HW1 6749   3.047   4.059   6.427
 1950SOL    HW2 6750   3.149   4.006   6.311
 1951SOL     OW 6751   6.057   1.412   6.652
 1951SOL    HW1 6752   6.030   1.316   6.644
 1951SOL    HW2 6753   6.023   1.449   6.739
 1952SOL     OW 6754   3.764   2.076   0.441
 1952SOL    HW1 6755   3.816   2.102   0.360
 1952SOL    HW2 6756   3.739   2.158   0.492
 1953SOL     OW 6757   6.928   2.178   6.354
 1953SOL    HW1 6758   6.836   2.139   6.346
 1953SOL    HW2 6759   6.992   2.106   6.381
 1954SOL     OW 6760   3.669   2.057   4.001
 1954SOL    HW1 6761   3.589   2.095   4.046
 1954SOL    HW2 6762   3.656   1.959   3.989
 1955SOL     OW 6763   0.318   6.320   2.153
 1955SOL    HW1 6764   0.314   6.303   2.054
 1955SOL    HW2 6765   0.332   6.418   2.169
 1956SOL     OW 6766   5.675   5.907   2.957
 1956SOL    HW1 6767   5.725   5.929   3.041
 1956SOL    HW2 6768   5.736   5.913   2.879
 1957SOL     OW 6769   0.612   6.393   4.791
 1957SOL    HW1 6770   0.675   6.390   4.869
 1957SOL    HW2 6771   0.612   6.485   4.751
 1958SOL     OW 6772   5.416   3.563   5.565
 1958SOL    HW1 6773   5.494   3.557   5.628
 1958SOL    HW2 6774   5.438   3.626   5.491
 1959SOL     OW 6775   1.267   2.291   6.481
 1959SOL    HW1 6776   1.224   2.377   6.454
 1959SOL    HW2 6777   1.364   2.295   6.461
 1960SOL     OW 6778   5.912   5.005   0.560
 1960SOL    HW1 6779   5.922   4.945   0.638
 1960SOL    HW2 6780   5.877   5.094   0.590
 1961SOL     OW 6781   5.629   4.472   3.803
 1961SOL    HW1 6782   5.598   4.512   3.889
 1961SOL    HW2 6783   5.727   4.486   3.792
 1962SOL     OW 6784   1.303   5.939   2.991
 1962SOL    HW1 6785   1.381   5.914   2.933
 1962SOL    HW2 6786   1.258   6.020   2.953
 1963SOL     OW 6787   0.879   0.498   2.552
 1963SOL    HW1 6788   0.885   0.456   2.642
 1963SOL    HW2 6789   0.933   0.582   2.551
 1964SOL     OW 6790   4.303   2.112   2.336
 1964SOL    HW1 6791   4.255   2.091   2.251
 1964SOL    HW2 6792   4.245   2.170   2.394
 1965SOL     OW 6793   1.101   3.549   3.008
 1965SOL    HW1 6794   1.014   3.511   3.039
 1965SOL    HW2 6795   1.083   3.625   2.945
 1966SOL     OW 6796   0.103   5.365   5.337
 1966SOL    HW1 6797   0.043   5.417   5.398
 1966SOL    HW2 6798   0.066   5.273   5.324
 1967SOL     OW 6799   4.380   2.654   5.313
 1967SOL    HW1 6800   4.287   2.628   5.288
 1967SOL    HW2 6801   4.376   2.726   5.383
 1968SOL     OW 6802   2.524   6.216   0.096
 1968SOL    HW1 6803   2.613   6.253   0.120
 1968SOL    HW2 6804   2.497   6.146   0.163
 1969SOL     OW 6805   6.469   2.218   1.570
 1969SOL    HW1 6806   6.555   2.247   1.526
 1969SOL    HW2 6807   6.397   2.283   1.547
 1970SOL     OW 6808   1.993   6.912   4.853
 1970SOL    HW1 6809   2.055   6.874   4.785
 1970SOL    HW2 6810   1.902   6.874   4.840
 1971SOL     OW 6811   0.477   6.346   6.944
 1971SOL    HW1 6812   0.388   6.388   6.963
 1971SOL    HW2 6813   0.536   6.414   6.900
 1972SOL     OW 6814   0.660   4.528   3.544
 1972SOL    HW1 6815   0.631   4.624   3.543
 1972SOL    HW2 6816   0.680   4.498   3.451
 1973SOL     OW 6817   3.684   2.568   1.400
 1973SOL    HW1 6818   3.649   2.495   1.341
 1973SOL    HW2 6819   3.681   2.537   1.495
 1974SOL     OW 6820   5.608   0.305   4.046
 1974SOL    HW1 6821   5.581   0.216   4.009
 1974SOL    HW2 6822   5.546   0.330   4.120
 1975SOL     OW 6823   3.033   0.590   3.882
 1975SOL    HW1 6824   3.054   0.640   3.798
 1975SOL    HW2 6825   3.067   0.496   3.874
 1976SOL     OW 6826   0.163   6.118   0.348
 1976SOL    HW1 6827   0.176   6.046   0.416
 1976SOL    HW2 6828   0.154   6.206   0.395
 1977SOL     OW 6829   0.819   2.446   4.486
 1977SOL    HW1 6830   0.826   2.460   4.387
 1977SOL    HW2 6831   0.878   2.511   4.534
 1978SOL     OW 6832   0.223   1.388   4.611
 1978SOL    HW1 6833   0.152   1.440   4.658
 1978SOL    HW2 6834   0.313   1.424   4.637
 1979SOL     OW 6835   6.804   4.409   4.674
 1979SOL    HW1 6836   6.865   4.424   4.751
 1979SOL    HW2 6837   6.743   4.331   4.694
 1980SOL     OW 6838   3.464   0.107   1.422
 1980SOL    HW1 6839   3.414   0.194   1.410
 1980SOL    HW2 6840   3.562   0.124   1.418
 1981SOL     OW 6841   5.030   2.925   2.005
 1981SOL    HW1 6842   5.022   2.839   1.955
 1981SOL    HW2 6843   4.946   2.941   2.058
 1982SOL     OW 6844   5.691   5.017   4.688
 1982SOL    HW1 6845   5.726   5.091   4.745
 1982SOL    HW2 6846   5.619   5.053   4.629
 1983SOL     OW 6847   1.321   2.823   3.475
 1983SOL    HW1 6848   1.230   2.832   3.433
 1983SOL    HW2 6849   1.342   2.906   3.527
 1984SOL     OW 6850   4.485   1.704   5.957
 1984SOL    HW1 6851   4.557   1.680   5.892
 1984SOL    HW2 6852   4.504   1.663   6.046
 1985SOL     OW 6853   1.350   0.988   1.686
 1985SOL    HW1 6854   1.380   1.046   1.762
 1985SOL    HW2 6855   1.371   0.893   1.707
 1986SOL     OW 6856   1.420   2.355   6.909
 1986SOL    HW1 6857   1.483   2.346   6.832
 1986SOL    HW2 6858   1.328   2.328   6.880
 1987SOL     OW 6859   2.510   3.560   1.395
 1987SOL    HW1 6860   2.497   3.507   1.479
 1987SOL    HW2 6861   2.472   3.509   1.318
 1988SOL     OW 6862   5.003   3.651   6.877
 1988SOL    HW1 6863   5.009   3.565   6.927
 1988SOL    HW2 6864   4.955   3.719   6.933
 1989SOL     OW 6865   1.950   0.149   4.908
 1989SOL    HW1 6866   2.027   0.212   4.912
 1989SOL    HW2 6867   1.981   0.059   4.879
 1990SOL     OW 6868   2.985   0.960   0.941
 1990SOL    HW1 6869   2.917   0.902   0.897
 1990SOL    HW2 6870   3.066   0.967   0.883
 1991SOL     OW 6871   3.290   5.739   4.831
 1991SOL    HW1 6872   3.359   5.810   4.845
 1991SOL    HW2 6873   3.255   5.707   4.919
 1992SOL     OW 6874   2.133   6.877   5.207
 1992SOL    HW1 6875   2.189   6.802   5.170
 1992SOL    HW2 6876   2.166   6.964   5.170
 1993SOL     OW 6877   3.344   4.058   5.342
 1993SOL    HW1 6878   3.371   4.141   5.293
 1993SOL    HW2 6879   3.407   4.042   5.417
 1994SOL     OW 6880   6.681   2.060   2.009
 1994SOL    HW1 6881   6.740   2.124   1.960
 1994SOL    HW2 6882   6.725   2.030   2.093
 1995SOL     OW 6883   6.437   1.719   1.580
 1995SOL    HW1 6884   6.430   1.686   1.486
 1995SOL    HW2 6885   6.508   1.669   1.628
 1996SOL     OW 6886   3.228   4.258   6.925
 1996SOL    HW1 6887   3.216   4.242   6.827
 1996SOL    HW2 6888   3.291   4.335   6.938
 1997SOL     OW 6889   5.664   0.798   4.916
 1997SOL    HW1 6890   5.624   0.708   4.898
 1997SOL    HW2 6891   5.632   0.831   5.005
 1998SOL     OW 6892   2.704   4.185   6.395
 1998SOL    HW1 6893   2.736   4.214   6.305
 1998SOL    HW2 6894   2.687   4.087   6.395
 1999SOL     OW 6895   2.424   7.005   1.906
 1999SOL    HW1 6896   2.401   6.943   1.831
 1999SOL    HW2 6897   2.356   0.053   1.911
 2000SOL     OW 6898   4.423   0.987   5.035
 2000SOL    HW1 6899   4.425   1.038   5.121
 2000SOL    HW2 6900   4.341   0.931   5.032
 2001SOL     OW 6901   3.070   1.844   1.275
 2001SOL    HW1 6902   3.137   1.771   1.268
 2001SOL    HW2 6903   2.980   1.805   1.296
 2002SOL     OW 6904   2.100   6.122   6.107
 2002SOL    HW1 6905   2.061   6.034   6.132
 2002SOL    HW2 6906   2.053   6.158   6.026
 2003SOL     OW 6907   5.694   6.829   3.358
 2003SOL    HW1 6908   5.624   6.868   3.418
 2003SOL    HW2 6909   5.731   6.901   3.299
 2004SOL     OW 6910   3.293   0.956   5.682
 2004SOL    HW1 6911   3.326   0.862   5.691
 2004SOL    HW2 6912   3.212   0.969   5.738
 2005SOL     OW 6913   2.198   6.384   6.175
 2005SOL    HW1 6914   2.152   6.296   6.170
 2005SOL    HW2 6915   2.297   6.370   6.176
 2006SOL     OW 6916   4.263   4.702   4.061
 2006SOL    HW1 6917   4.276   4.605   4.080
 2006SOL    HW2 6918   4.351   4.749   4.063
 2007SOL     OW 6919   5.090   5.248   0.147
 2007SOL    HW1 6920   5.174   5.301   0.141
 2007SOL    HW2 6921   5.085   5.184   0.071
 2008SOL     OW 6922   6.768   6.544   3.178
 2008SOL    HW1 6923   6.790   6.641   3.188
 2008SOL    HW2 6924   6.698   6.518   3.244
 2009SOL     OW 6925   0.194   0.618   1.747
 2009SOL    HW1 6926   0.101   0.582   1.737
 2009SOL    HW2 6927   0.224   0.660   1.662
 2010SOL     OW 6928   0.982   0.902   0.734
 2010SOL    HW1 6929   0.984   0.881   0.832
 2010SOL    HW2 6930   0.963   0.999   0.721
 2011SOL     OW 6931   6.373   2.247   5.120
 2011SOL    HW1 6932   6.274   2.247   5.101
 2011SOL    HW2 6933   6.414   2.163   5.083
 2012SOL     OW 6934   1.460   4.143   1.850
 2012SOL    HW1 6935   1.461   4.061   1.908
 2012SOL    HW2 6936   1.432   4.118   1.757
 2013SOL     OW 6937   6.126   1.714   2.654
 2013SOL    HW1 6938   6.084   1.804   2.641
 2013SOL    HW2 6939   6.188   1.717   2.732
 2014SOL     OW 6940   1.693   5.943   3.815
 2014SOL    HW1 6941   1.731   6.030   3.846
 2014SOL    HW2 6942   1.598   5.957   3.787
 2015SOL     OW 6943   3.758   0.566   0.391
 2015SOL    HW1 6944   3.681   0.509   0.420
 2015SOL    HW2 6945   3.837   0.508   0.371
 2016SOL     OW 6946   0.613   5.406   3.878
 2016SOL    HW1 6947   0.708   5.422   3.851
 2016SOL    HW2 6948   0.600   5.310   3.899
 2017SOL     OW 6949   2.126   5.872   3.184
 2017SOL    HW1 6950   2.048   5.843   3.240
 2017SOL    HW2 6951   2.102   5.956   3.136
 2018SOL     OW 6952   0.477   5.469   5.756
 2018SOL    HW1 6953   0.525   5.384   5.778
 2018SOL    HW2 6954   0.413   5.492   5.830
 2019SOL     OW 6955   5.832   2.485   1.012
 2019SOL    HW1 6956   5.802   2.581   1.014
 2019SOL    HW2 6957   5.785   2.437   0.939
 2020SOL     OW 6958   2.310   5.234   4.096
 2020SOL    HW1 6959   2.215   5.229   4.064
 2020SOL    HW2 6960   2.370   5.262   4.021
 2021SOL     OW 6961   1.711   0.976   2.562
 2021SOL    HW1 6962   1.733   1.050   2.625
 2021SOL    HW2 6963   1.617   0.987   2.529
 2022SOL     OW 6964   2.527   3.731   1.695
 2022SOL    HW1 6965   2.435   3.750   1.729
 2022SOL    HW2 6966   2.540   3.632   1.687
 2023SOL     OW 6967   6.960   0.955   6.765
 2023SOL    HW1 6968   6.913   1.009   6.835
 2023SOL    HW2 6969   0.003   1.012   6.721
 2024SOL     OW 6970   6.382   0.445   3.559
 2024SOL    HW1 6971   6.394   0.354   3.600
 2024SOL    HW2 6972   6.429   0.513   3.617
 2025SOL     OW 6973   0.445   2.177   1.130
 2025SOL    HW1 6974   0.477   2.212   1.041
 2025SOL    HW2 6975   0.460   2.247   1.200
 2026SOL     OW 6976   2.202   2.357   5.572
 2026SOL    HW1 6977   2.271   2.284   5.565
 2026SOL    HW2 6978   2.132   2.343   5.503
 2027SOL     OW 6979   0.690   1.220   2.098
 2027SOL    HW1 6980   0.600   1.248   2.064
 2027SOL    HW2 6981   0.750   1.300   2.100
 2028SOL     OW 6982   3.712   1.810   0.440
 2028SOL    HW1 6983   3.759   1.898   0.438
 2028SOL    HW2 6984   3.664   1.801   0.528
 2029SOL     OW 6985   0.984   1.193   6.606
 2029SOL    HW1 6986   1.062   1.171   6.665
 2029SOL    HW2 6987   0.985   1.134   6.526
 2030SOL     OW 6988   1.669   2.398   3.811
 2030SOL    HW1 6989   1.588   2.444   3.847
 2030SOL    HW2 6990   1.663   2.300   3.829
 2031SOL     OW 6991   5.428   6.024   2.247
 2031SOL    HW1 6992   5.519   5.988   2.269
 2031SOL    HW2 6993   5.362   5.948   2.246
 2032SOL     OW 6994   5.157   6.200   0.423
 2032SOL    HW1 6995   5.137   6.255   0.504
 2032SOL    HW2 6996   5.072   6.176   0.376
 2033SOL     OW 6997   4.789   4.602   6.473
 2033SOL    HW1 6998   4.746   4.526   6.424
 2033SOL    HW2 6999   4.717   4.658   6.515
 2034SOL     OW 7000   2.456   6.438   3.008
 2034SOL    HW1 7001   2.516   6.409   3.083
 2034SOL    HW2 7002   2.387   6.501   3.043
 2035SOL     OW 7003   0.238   1.706   2.609
 2035SOL    HW1 7004   0.155   1.662   2.644
 2035SOL    HW2 7005   0.254   1.677   2.515
 2036SOL     OW 7006   0.334   5.344   0.789
 2036SOL    HW1 7007   0.316   5.425   0.734
 2036SOL    HW2 7008   0.412   5.294   0.752
 2037SOL     OW 7009   6.884   2.554   5.663
 2037SOL    HW1 7010   6.919   2.647   5.667
 2037SOL    HW2 7011   6.796   2.549   5.712
 2038SOL     OW 7012   0.462   1.670   4.914
 2038SOL    HW1 7013   0.391   1.713   4.971
 2038SOL    HW2 7014   0.472   1.722   4.829
 2039SOL     OW 7015   6.441   5.888   3.916
 2039SOL    HW1 7016   6.507   5.928   3.852
 2039SOL    HW2 7017   6.469   5.794   3.938
 2040SOL     OW 7018   3.929   3.183   4.562
 2040SOL    HW1 7019   3.869   3.263   4.554
 2040SOL    HW2 7020   3.935   3.155   4.657
 2041SOL     OW 7021   5.897   4.607   6.188
 2041SOL    HW1 7022   5.956   4.554   6.248
 2041SOL    HW2 7023   5.933   4.603   6.094
 2042SOL     OW 7024   5.220   5.184   0.970
 2042SOL    HW1 7025   5.136   5.191   0.917
 2042SOL    HW2 7026   5.201   5.208   1.065
 2043SOL     OW 7027   6.356   5.193   2.539
 2043SOL    HW1 7028   6.305   5.272   2.572
 2043SOL    HW2 7029   6.329   5.112   2.591
 2044SOL     OW 7030   5.496   6.637   2.038
 2044SOL    HW1 7031   5.407   6.634   1.994
 2044SOL    HW2 7032   5.545   6.719   2.009
 2045SOL     OW 7033   2.311   4.590   6.280
 2045SOL    HW1 7034   2.266   4.575   6.192
 2045SOL    HW2 7035   2.243   4.606   6.351
 2046SOL     OW 7036   6.943   0.478   4.371
 2046SOL    HW1 7037   6.943   0.467   4.471
 2046SOL    HW2 7038   6.865   0.431   4.332
 2047SOL     OW 7039   4.841   2.392   1.420
 2047SOL    HW1 7040   4.806   2.459   1.355
 2047SOL    HW2 7041   4.886   2.440   1.496
 2048SOL     OW 7042   4.091   0.140   0.224
 2048SOL    HW1 7043   4.023   0.157   0.294
 2048SOL    HW2 7044   4.059   0.067   0.163
 2049SOL     OW 7045   4.872   1.781   6.527
 2049SOL    HW1 7046   4.870   1.860   6.588
 2049SOL    HW2 7047   4.804   1.792   6.455
 2050SOL     OW 7048   5.817   2.459   3.793
 2050SOL    HW1 7049   5.902   2.432   3.839
 2050SOL    HW2 7050   5.743   2.399   3.822
 2051SOL     OW 7051   1.188   5.483   0.210
 2051SOL    HW1 7052   1.233   5.510   0.125
 2051SOL    HW2 7053   1.107   5.539   0.225
 2052SOL     OW 7054   0.630   2.879   6.900
 2052SOL    HW1 7055   0.613   2.902   6.804
 2052SOL    HW2 7056   0.722   2.907   6.925
 2053SOL     OW 7057   6.342   0.395   0.347
 2053SOL    HW1 7058   6.356   0.457   0.424
 2053SOL    HW2 7059   6.395   0.427   0.269
 2054SOL     OW 7060   6.011   3.084   0.936
 2054SOL    HW1 7061   6.110   3.079   0.921
 2054SOL    HW2 7062   5.963   3.035   0.864
 2055SOL     OW 7063   5.571   2.495   3.356
 2055SOL    HW1 7064   5.472   2.506   3.369
 2055SOL    HW2 7065   5.604   2.421   3.414
 2056SOL     OW 7066   2.364   1.282   3.228
 2056SOL    HW1 7067   2.312   1.367   3.238
 2056SOL    HW2 7068   2.446   1.299   3.173
 2057SOL     OW 7069   5.746   2.083   4.099
 2057SOL    HW1 7070   5.741   2.157   4.166
 2057SOL    HW2 7071   5.842   2.056   4.086
 2058SOL     OW 7072   0.181   1.946   3.513
 2058SOL    HW1 7073   0.215   2.029   3.556
 2058SOL    HW2 7074   0.151   1.882   3.584
 2059SOL     OW 7075   1.962   0.634   6.620
 2059SOL    HW1 7076   1.899   0.580   6.564
 2059SOL    HW2 7077   2.040   0.576   6.646
 2060SOL     OW 7078   0.203   4.695   1.858
 2060SOL    HW1 7079   0.275   4.674   1.792
 2060SOL    HW2 7080   0.179   4.792   1.852
 2061SOL     OW 7081   6.761   1.284   2.177
 2061SOL    HW1 7082   6.663   1.301   2.193
 2061SOL    HW2 7083   6.799   1.358   2.122
 2062SOL     OW 7084   4.746   0.202   2.202
 2062SOL    HW1 7085   4.658   0.248   2.210
 2062SOL    HW2 7086   4.814   0.251   2.258
 2063SOL     OW 7087   1.465   2.256   6.090
 2063SOL    HW1 7088   1.439   2.189   6.159
 2063SOL    HW2 7089   1.564   2.271   6.093
 2064SOL     OW 7090   1.136   2.130   5.409
 2064SOL    HW1 7091   1.142   2.228   5.391
 2064SOL    HW2 7092   1.070   2.113   5.482
 2065SOL     OW 7093   6.056   3.255   2.263
 2065SOL    HW1 7094   6.152   3.263   2.291
 2065SOL    HW2 7095   6.046   3.289   2.169
 2066SOL     OW 7096   0.409   6.010   4.527
 2066SOL    HW1 7097   0.343   6.062   4.580
 2066SOL    HW2 7098   0.498   6.056   4.531
 2067SOL     OW 7099   6.636   6.595   0.703
 2067SOL    HW1 7100   6.563   6.585   0.771
 2067SOL    HW2 7101   6.692   6.512   0.702
 2068SOL     OW 7102   2.496   1.403   5.339
 2068SOL    HW1 7103   2.491   1.412   5.239
 2068SOL    HW2 7104   2.421   1.345   5.371
 2069SOL     OW 7105   0.801   2.536   2.550
 2069SOL    HW1 7106   0.738   2.466   2.585
 2069SOL    HW2 7107   0.775   2.560   2.456
 2070SOL     OW 7108   1.246   0.148   2.339
 2070SOL    HW1 7109   1.261   0.237   2.382
 2070SOL    HW2 7110   1.177   0.097   2.390
 2071SOL     OW 7111   0.825   6.387   3.476
 2071SOL    HW1 7112   0.864   6.343   3.396
 2071SOL    HW2 7113   0.896   6.398   3.546
 2072SOL     OW 7114   5.074   5.817   2.163
 2072SOL    HW1 7115   5.114   5.796   2.252
 2072SOL    HW2 7116   5.142   5.802   2.091
 2073SOL     OW 7117   4.065   0.154   4.782
 2073SOL    HW1 7118   4.009   0.136   4.701
 2073SOL    HW2 7119   4.100   0.068   4.818
 2074SOL     OW 7120   6.798   1.969   0.359
 2074SOL    HW1 7121   6.754   2.054   0.330
 2074SOL    HW2 7122   6.761   1.940   0.447
 2075SOL     OW 7123   4.390   3.427   1.119
 2075SOL    HW1 7124   4.357   3.391   1.206
 2075SOL    HW2 7125   4.345   3.514   1.100
 2076SOL     OW 7126   5.604   5.806   6.995
 2076SOL    HW1 7127   5.606   5.708   6.977
 2076SOL    HW2 7128   5.655   5.826   0.053
 2077SOL     OW 7129   5.039   1.748   2.260
 2077SOL    HW1 7130   5.029   1.649   2.244
 2077SOL    HW2 7131   5.128   1.766   2.301
 2078SOL     OW 7132   2.814   6.105   6.169
 2078SOL    HW1 7133   2.848   6.198   6.152
 2078SOL    HW2 7134   2.888   6.039   6.155
 2079SOL     OW 7135   5.657   0.748   3.600
 2079SOL    HW1 7136   5.572   0.696   3.599
 2079SOL    HW2 7137   5.637   0.845   3.605
 2080SOL     OW 7138   2.868   2.287   4.659
 2080SOL    HW1 7139   2.846   2.277   4.757
 2080SOL    HW2 7140   2.784   2.298   4.607
 2081SOL     OW 7141   0.947   6.552   5.386
 2081SOL    HW1 7142   0.851   6.532   5.367
 2081SOL    HW2 7143   0.971   6.642   5.350
 2082SOL     OW 7144   5.513   0.458   1.515
 2082SOL    HW1 7145   5.520   0.557   1.522
 2082SOL    HW2 7146   5.540   0.429   1.424
 2083SOL     OW 7147   3.873   5.586   0.128
 2083SOL    HW1 7148   3.884   5.672   0.077
 2083SOL    HW2 7149   3.824   5.604   0.213
 2084SOL     OW 7150   6.830   2.462   3.322
 2084SOL    HW1 7151   6.880   2.439   3.238
 2084SOL    HW2 7152   6.895   2.481   3.395
 2085SOL     OW 7153   4.836   0.971   6.692
 2085SOL    HW1 7154   4.930   0.966   6.725
 2085SOL    HW2 7155   4.804   0.880   6.665
 2086SOL     OW 7156   3.549   4.791   6.523
 2086SOL    HW1 7157   3.540   4.719   6.454
 2086SOL    HW2 7158   3.469   4.789   6.583
 2087SOL     OW 7159   4.843   6.615   2.696
 2087SOL    HW1 7160   4.864   6.564   2.613
 2087SOL    HW2 7161   4.925   6.619   2.754
 2088SOL     OW 7162   3.160   6.716   0.942
 2088SOL    HW1 7163   3.140   6.759   1.030
 2088SOL    HW2 7164   3.147   6.617   0.950
 2089SOL     OW 7165   4.772   1.649   0.078
 2089SOL    HW1 7166   4.823   1.563   0.070
 2089SOL    HW2 7167   4.704   1.641   0.151
 2090SOL     OW 7168   3.738   4.072   4.506
 2090SOL    HW1 7169   3.675   4.115   4.441
 2090SOL    HW2 7170   3.728   4.114   4.596
 2091SOL     OW 7171   0.476   5.867   0.444
 2091SOL    HW1 7172   0.394   5.813   0.422
 2091SOL    HW2 7173   0.478   5.886   0.542
 2092SOL     OW 7174   5.622   6.195   0.506
 2092SOL    HW1 7175   5.574   6.130   0.565
 2092SOL    HW2 7176   5.612   6.288   0.544
 2093SOL     OW 7177   1.500   2.192   2.526
 2093SOL    HW1 7178   1.432   2.243   2.579
 2093SOL    HW2 7179   1.492   2.217   2.429
 2094SOL     OW 7180   5.712   0.564   1.871
 2094SOL    HW1 7181   5.765   0.590   1.790
 2094SOL    HW2 7182   5.618   0.595   1.861
 2095SOL     OW 7183   5.287   6.288   3.681
 2095SOL    HW1 7184   5.319   6.383   3.684
 2095SOL    HW2 7185   5.192   6.284   3.714
 2096SOL     OW 7186   4.827   3.752   2.751
 2096SOL    HW1 7187   4.874   3.664   2.761
 2096SOL    HW2 7188   4.814   3.771   2.654
 2097SOL     OW 7189   0.545   2.599   6.640
 2097SOL    HW1 7190   0.493   2.675   6.602
 2097SOL    HW2 7191   0.531   2.593   6.738
 2098SOL     OW 7192   4.074   6.222   4.294
 2098SOL    HW1 7193   4.058   6.142   4.236
 2098SOL    HW2 7194   4.168   6.219   4.329
 2099SOL     OW 7195   2.846   0.799   5.187
 2099SOL    HW1 7196   2.789   0.720   5.207
 2099SOL    HW2 7197   2.914   0.774   5.118
 2100SOL     OW 7198   3.753   3.728   6.488
 2100SOL    HW1 7199   3.812   3.790   6.437
 2100SOL    HW2 7200   3.757   3.637   6.447
 2101SOL     OW 7201   0.769   6.925   2.680
 2101SOL    HW1 7202   0.715   6.844   2.702
 2101SOL    HW2 7203   0.818   6.911   2.594
 2102SOL     OW 7204   0.395   5.461   2.461
 2102SOL    HW1 7205   0.463   5.487   2.392
 2102SOL    HW2 7206   0.336   5.389   2.424
 2103SOL     OW 7207   2.902   3.699   0.044
 2103SOL    HW1 7208   2.858   3.782   0.010
 2103SOL    HW2 7209   2.948   3.718   0.131
 2104SOL     OW 7210   1.716   3.285   6.363
 2104SOL    HW1 7211   1.770   3.351   6.415
 2104SOL    HW2 7212   1.759   3.269   6.274
 2105SOL     OW 7213   5.645   5.292   2.842
 2105SOL    HW1 7214   5.571   5.287   2.775
 2105SOL    HW2 7215   5.731   5.269   2.798
 2106SOL     OW 7216   4.158   5.191   6.624
 2106SOL    HW1 7217   4.207   5.254   6.565
 2106SOL    HW2 7218   4.215   5.168   6.703
 2107SOL     OW 7219   3.880   3.595   5.548
 2107SOL    HW1 7220   3.968   3.552   5.525
 2107SOL    HW2 7221   3.808   3.554   5.491
 2108SOL     OW 7222   6.184   5.398   5.332
 2108SOL    HW1 7223   6.142   5.425   5.418
 2108SOL    HW2 7224   6.224   5.306   5.342
 2109SOL     OW 7225   5.285   6.304   3.349
 2109SOL    HW1 7226   5.250   6.372   3.414
 2109SOL    HW2 7227   5.385   6.307   3.347
 2110SOL     OW 7228   2.906   4.562   6.722
 2110SOL    HW1 7229   2.956   4.632   6.670
 2110SOL    HW2 7230   2.814   4.595   6.743
 2111SOL     OW 7231   0.879   2.419   6.060
 2111SOL    HW1 7232   0.974   2.427   6.091
 2111SOL    HW2 7233   0.837   2.338   6.101
 2112SOL     OW 7234   4.337   2.394   1.702
 2112SOL    HW1 7235   4.241   2.421   1.696
 2112SOL    HW2 7236   4.384   2.418   1.617
 2113SOL     OW 7237   1.484   6.734   2.975
 2113SOL    HW1 7238   1.488   6.708   2.878
 2113SOL    HW2 7239   1.390   6.749   3.002
 2114SOL     OW 7240   1.527   4.024   0.543
 2114SOL    HW1 7241   1.461   3.949   0.549
 2114SOL    HW2 7242   1.522   4.078   0.626
 2115SOL     OW 7243   2.115   4.455   3.437
 2115SOL    HW1 7244   2.149   4.407   3.355
 2115SOL    HW2 7245   2.020   4.427   3.454
 2116SOL     OW 7246   6.449   3.891   2.970
 2116SOL    HW1 7247   6.465   3.956   3.045
 2116SOL    HW2 7248   6.380   3.930   2.908
 2117SOL     OW 7249   0.230   4.974   1.785
 2117SOL    HW1 7250   0.307   5.036   1.802
 2117SOL    HW2 7251   0.221   4.959   1.687
 2118SOL     OW 7252   0.103   3.486   2.317
 2118SOL    HW1 7253   0.056   3.538   2.246
 2118SOL    HW2 7254   0.110   3.391   2.290
 2119SOL     OW 7255   2.001   5.741   0.993
 2119SOL    HW1 7256   1.997   5.780   1.085
 2119SOL    HW2 7257   2.046   5.652   0.997
 2120SOL     OW 7258   6.157   4.469   2.511
 2120SOL    HW1 7259   6.125   4.531   2.440
 2120SOL    HW2 7260   6.142   4.511   2.601
 2121SOL     OW 7261   0.702   5.344   5.353
 2121SOL    HW1 7262   0.617   5.351   5.405
 2121SOL    HW2 7263   0.685   5.366   5.257
 2122SOL     OW 7264   5.852   4.668   5.320
 2122SOL    HW1 7265   5.898   4.660   5.232
 2122SOL    HW2 7266   5.755   4.644   5.309
 2123SOL     OW 7267   0.067   4.298   2.831
 2123SOL    HW1 7268   0.054   4.257   2.922
 2123SOL    HW2 7269   7.010   4.348   2.805
 2124SOL     OW 7270   1.376   1.952   1.319
 2124SOL    HW1 7271   1.444   1.905   1.376
 2124SOL    HW2 7272   1.291   1.962   1.371
 2125SOL     OW 7273   1.586   1.225   0.106
 2125SOL    HW1 7274   1.553   1.188   0.019
 2125SOL    HW2 7275   1.675   1.186   0.127
 2126SOL     OW 7276   2.450   1.273   0.161
 2126SOL    HW1 7277   2.433   1.292   0.064
 2126SOL    HW2 7278   2.410   1.346   0.216
 2127SOL     OW 7279   6.128   2.522   4.389
 2127SOL    HW1 7280   6.050   2.571   4.428
 2127SOL    HW2 7281   6.210   2.542   4.441
 2128SOL     OW 7282   0.191   4.424   4.699
 2128SOL    HW1 7283   0.157   4.514   4.669
 2128SOL    HW2 7284   0.169   4.411   4.796
 2129SOL     OW 7285   4.850   2.773   5.499
 2129SOL    HW1 7286   4.778   2.737   5.440
 2129SOL    HW2 7287   4.895   2.697   5.547
 2130SOL     OW 7288   5.260   6.631   2.644
 2130SOL    HW1 7289   5.199   6.688   2.698
 2130SOL    HW2 7290   5.354   6.663   2.655
 2131SOL     OW 7291   0.139   1.430   0.413
 2131SOL    HW1 7292   0.082   1.372   0.354
 2131SOL    HW2 7293   0.148   1.387   0.502
 2132SOL     OW 7294   3.348   2.844   0.780
 2132SOL    HW1 7295   3.385   2.936   0.767
 2132SOL    HW2 7296   3.320   2.832   0.875
 2133SOL     OW 7297   2.653   2.350   5.725
 2133SOL    HW1 7298   2.748   2.380   5.734
 2133SOL    HW2 7299   2.651   2.261   5.679
 2134SOL     OW 7300   6.554   1.862   1.187
 2134SOL    HW1 7301   6.522   1.774   1.222
 2134SOL    HW2 7302   6.480   1.929   1.192
 2135SOL     OW 7303   0.769   4.352   4.212
 2135SOL    HW1 7304   0.723   4.271   4.249
 2135SOL    HW2 7305   0.738   4.367   4.118
 2136SOL     OW 7306   2.889   5.449   1.825
 2136SOL    HW1 7307   2.861   5.437   1.729
 2136SOL    HW2 7308   2.921   5.543   1.838
 2137SOL     OW 7309   3.039   5.457   4.706
 2137SOL    HW1 7310   3.014   5.361   4.691
 2137SOL    HW2 7311   3.120   5.479   4.651
 2138SOL     OW 7312   6.051   0.733   3.249
 2138SOL    HW1 7313   6.112   0.669   3.296
 2138SOL    HW2 7314   6.045   0.709   3.152
 2139SOL     OW 7315   3.039   0.760   5.395
 2139SOL    HW1 7316   3.080   0.837   5.443
 2139SOL    HW2 7317   2.993   0.793   5.312
 2140SOL     OW 7318   3.298   0.698   5.211
 2140SOL    HW1 7319   3.231   0.626   5.230
 2140SOL    HW2 7320   3.251   0.779   5.175
 2141SOL     OW 7321   6.193   4.069   2.381
 2141SOL    HW1 7322   6.110   4.093   2.431
 2141SOL    HW2 7323   6.251   4.150   2.372
 2142SOL     OW 7324   1.698   2.789   4.085
 2142SOL    HW1 7325   1.775   2.806   4.146
 2142SOL    HW2 7326   1.652   2.876   4.064
 2143SOL     OW 7327   1.779   5.488   1.139
 2143SOL    HW1 7328   1.704   5.426   1.119
 2143SOL    HW2 7329   1.866   5.441   1.126
 2144SOL     OW 7330   0.306   5.180   4.592
 2144SOL    HW1 7331   0.392   5.198   4.545
 2144SOL    HW2 7332   0.243   5.257   4.577
 2145SOL     OW 7333   3.809   6.722   4.443
 2145SOL    HW1 7334   3.868   6.661   4.496
 2145SOL    HW2 7335   3.846   6.731   4.350
 2146SOL     OW 7336   2.210   2.271   0.674
 2146SOL    HW1 7337   2.296   2.271   0.724
 2146SOL    HW2 7338   2.223   2.229   0.584
 2147SOL     OW 7339   6.495   1.875   5.709
 2147SOL    HW1 7340   6.434   1.800   5.736
 2147SOL    HW2 7341   6.526   1.861   5.615
 2148SOL     OW 7342   0.039   3.265   6.523
 2148SOL    HW1 7343   6.987   3.259   6.586
 2148SOL    HW2 7344   0.122   3.287   6.574
 2149SOL     OW 7345   1.246   0.908   0.758
 2149SOL    HW1 7346   1.147   0.892   0.753
 2149SOL    HW2 7347   1.270   0.986   0.700
 2150SOL     OW 7348   2.759   2.712   1.656
 2150SOL    HW1 7349   2.769   2.616   1.681
 2150SOL    HW2 7350   2.663   2.737   1.657
 2151SOL     OW 7351   0.717   6.533   0.024
 2151SOL    HW1 7352   0.656   6.571   0.094
 2151SOL    HW2 7353   0.796   6.593   0.013
 2152SOL     OW 7354   3.863   5.914   2.018
 2152SOL    HW1 7355   3.922   5.993   2.036
 2152SOL    HW2 7356   3.802   5.900   2.096
 2153SOL     OW 7357   4.410   0.989   2.716
 2153SOL    HW1 7358   4.478   0.946   2.775
 2153SOL    HW2 7359   4.349   1.046   2.771
 2154SOL     OW 7360   2.774   6.864   3.487
 2154SOL    HW1 7361   2.797   6.882   3.391
 2154SOL    HW2 7362   2.688   6.814   3.493
 2155SOL     OW 7363   4.287   0.017   1.056
 2155SOL    HW1 7364   4.247   0.107   1.037
 2155SOL    HW2 7365   4.386   0.026   1.065
 2156SOL     OW 7366   6.701   1.050   3.247
 2156SOL    HW1 7367   6.623   1.000   3.208
 2156SOL    HW2 7368   6.683   1.149   3.242
 2157SOL     OW 7369   4.461   5.843   3.761
 2157SOL    HW1 7370   4.545   5.858   3.710
 2157SOL    HW2 7371   4.428   5.931   3.798
 2158SOL     OW 7372   4.025   0.051   0.639
 2158SOL    HW1 7373   4.069   7.006   0.584
 2158SOL    HW2 7374   3.946   0.013   0.686
 2159SOL     OW 7375   1.756   0.798   5.182
 2159SOL    HW1 7376   1.747   0.853   5.265
 2159SOL    HW2 7377   1.700   0.716   5.190
 2160SOL     OW 7378   4.973   5.193   0.398
 2160SOL    HW1 7379   5.024   5.116   0.434
 2160SOL    HW2 7380   5.019   5.229   0.317
 2161SOL     OW 7381   0.858   3.683   2.580
 2161SOL    HW1 7382   0.827   3.591   2.559
 2161SOL    HW2 7383   0.917   3.717   2.507
 2162SOL     OW 7384   2.658   0.047   3.632
 2162SOL    HW1 7385   2.721   6.995   3.623
 2162SOL    HW2 7386   2.610   0.062   3.546
 2163SOL     OW 7387   1.720   3.367   0.366
 2163SOL    HW1 7388   1.652   3.304   0.329
 2163SOL    HW2 7389   1.796   3.377   0.302
 2164SOL     OW 7390   2.565   2.450   6.968
 2164SOL    HW1 7391   2.638   2.386   6.991
 2164SOL    HW2 7392   2.555   2.517   0.016
 2165SOL     OW 7393   0.688   1.721   4.253
 2165SOL    HW1 7394   0.691   1.720   4.353
 2165SOL    HW2 7395   0.637   1.641   4.220
 2166SOL     OW 7396   0.577   4.357   3.728
 2166SOL    HW1 7397   0.650   4.299   3.762
 2166SOL    HW2 7398   0.613   4.420   3.659
 2167SOL     OW 7399   1.519   2.949   3.955
 2167SOL    HW1 7400   1.423   2.930   3.974
 2167SOL    HW2 7401   1.549   2.894   3.877
 2168SOL     OW 7402   1.113   2.218   3.043
 2168SOL    HW1 7403   1.154   2.136   3.003
 2168SOL    HW2 7404   1.136   2.298   2.986
 2169SOL     OW 7405   0.772   0.841   1.057
 2169SOL    HW1 7406   0.719   0.774   1.005
 2169SOL    HW2 7407   0.811   0.797   1.138
 2170SOL     OW 7408   0.456   4.348   5.023
 2170SOL    HW1 7409   0.547   4.373   4.990
 2170SOL    HW2 7410   0.456   4.251   5.050
 2171SOL     OW 7411   0.199   5.631   1.542
 2171SOL    HW1 7412   0.116   5.646   1.489
 2171SOL    HW2 7413   0.279   5.641   1.483
 2172SOL     OW 7414   0.570   2.109   5.086
 2172SOL    HW1 7415   0.578   2.029   5.146
 2172SOL    HW2 7416   0.474   2.129   5.068
 2173SOL     OW 7417   5.621   0.052   5.473
 2173SOL    HW1 7418   5.654   0.128   5.529
 2173SOL    HW2 7419   5.627   0.078   5.376
 2174SOL     OW 7420   0.654   6.273   5.239
 2174SOL    HW1 7421   0.632   6.189   5.190
 2174SOL    HW2 7422   0.689   6.250   5.330
 2175SOL     OW 7423   2.141   2.960   5.564
 2175SOL    HW1 7424   2.078   2.882   5.559
 2175SOL    HW2 7425   2.177   2.980   5.473
 2176SOL     OW 7426   4.781   2.886   1.416
 2176SOL    HW1 7427   4.858   2.922   1.468
 2176SOL    HW2 7428   4.730   2.821   1.472
 2177SOL     OW 7429   6.841   0.885   3.057
 2177SOL    HW1 7430   6.796   0.961   3.104
 2177SOL    HW2 7431   6.876   0.820   3.125
 2178SOL     OW 7432   1.214   1.576   1.536
 2178SOL    HW1 7433   1.310   1.601   1.519
 2178SOL    HW2 7434   1.200   1.480   1.511
 2179SOL     OW 7435   2.106   4.100   6.642
 2179SOL    HW1 7436   2.032   4.095   6.576
 2179SOL    HW2 7437   2.110   4.193   6.680
 2180SOL     OW 7438   1.659   3.560   2.284
 2180SOL    HW1 7439   1.677   3.628   2.213
 2180SOL    HW2 7440   1.745   3.529   2.324
 2181SOL     OW 7441   4.805   4.677   4.619
 2181SOL    HW1 7442   4.789   4.774   4.639
 2181SOL    HW2 7443   4.721   4.636   4.583
 2182SOL     OW 7444   0.931   4.751   3.488
 2182SOL    HW1 7445   0.837   4.783   3.472
 2182SOL    HW2 7446   0.996   4.821   3.458
 2183SOL     OW 7447   2.928   3.485   6.902
 2183SOL    HW1 7448   2.913   3.569   6.955
 2183SOL    HW2 7449   2.984   3.421   6.955
 2184SOL     OW 7450   5.666   0.443   0.397
 2184SOL    HW1 7451   5.689   0.463   0.301
 2184SOL    HW2 7452   5.592   0.375   0.399
 2185SOL     OW 7453   0.861   1.394   6.440
 2185SOL    HW1 7454   0.891   1.323   6.505
 2185SOL    HW2 7455   0.860   1.356   6.348
 2186SOL     OW 7456   6.309   5.207   4.968
 2186SOL    HW1 7457   6.379   5.192   5.037
 2186SOL    HW2 7458   6.346   5.187   4.877
 2187SOL     OW 7459   0.119   5.357   2.676
 2187SOL    HW1 7460   0.046   5.367   2.744
 2187SOL    HW2 7461   0.201   5.405   2.708
 2188SOL     OW 7462   2.615   5.308   6.659
 2188SOL    HW1 7463   2.529   5.349   6.630
 2188SOL    HW2 7464   2.644   5.241   6.591
 2189SOL     OW 7465   2.491   1.266   2.279
 2189SOL    HW1 7466   2.502   1.270   2.180
 2189SOL    HW2 7467   2.545   1.191   2.316
 2190SOL     OW 7468   6.928   3.296   2.200
 2190SOL    HW1 7469   6.951   3.317   2.105
 2190SOL    HW2 7470   6.836   3.332   2.221
 2191SOL     OW 7471   2.368   1.658   4.919
 2191SOL    HW1 7472   2.401   1.752   4.912
 2191SOL    HW2 7473   2.370   1.616   4.828
 2192SOL     OW 7474   5.652   0.107   2.676
 2192SOL    HW1 7475   5.652   0.202   2.706
 2192SOL    HW2 7476   5.558   0.073   2.672
 2193SOL     OW 7477   6.200   0.030   6.205
 2193SOL    HW1 7478   6.232   0.061   6.294
 2193SOL    HW2 7479   6.182   6.957   6.208
 2194SOL     OW 7480   0.472   3.970   5.264
 2194SOL    HW1 7481   0.491   4.068   5.264
 2194SOL    HW2 7482   0.545   3.922   5.313
 2195SOL     OW 7483   0.025   5.675   5.660
 2195SOL    HW1 7484   0.063   5.613   5.729
 2195SOL    HW2 7485   0.099   5.729   5.619
 2196SOL     OW 7486   2.988   6.362   5.044
 2196SOL    HW1 7487   2.999   6.345   4.946
 2196SOL    HW2 7488   2.891   6.369   5.067
 2197SOL     OW 7489   2.870   3.219   5.960
 2197SOL    HW1 7490   2.964   3.238   5.932
 2197SOL    HW2 7491   2.833   3.297   6.010
 2198SOL     OW 7492   6.719   0.191   0.505
 2198SOL    HW1 7493   6.622   0.212   0.516
 2198SOL    HW2 7494   6.759   0.255   0.440
 2199SOL     OW 7495   5.037   7.022   4.742
 2199SOL    HW1 7496   4.941   0.022   4.751
 2199SOL    HW2 7497   5.063   0.001   4.646
 2200SOL     OW 7498   3.385   1.359   3.933
 2200SOL    HW1 7499   3.474   1.313   3.934
 2200SOL    HW2 7500   3.325   1.313   3.868
 2201SOL     OW 7501   6.176   2.964   3.370
 2201SOL    HW1 7502   6.198   2.883   3.316
 2201SOL    HW2 7503   6.214   2.954   3.462
 2202SOL     OW 7504   3.047   5.362   2.574
 2202SOL    HW1 7505   3.136   5.394   2.607
 2202SOL    HW2 7506   3.053   5.342   2.476
 2203SOL     OW 7507   2.596   4.104   1.221
 2203SOL    HW1 7508   2.522   4.047   1.188
 2203SOL    HW2 7509   2.580   4.127   1.317
 2204SOL     OW 7510   4.392   2.833   1.249
 2204SOL    HW1 7511   4.334   2.816   1.329
 2204SOL    HW2 7512   4.417   2.930   1.246
 2205SOL     OW 7513   1.682   6.793   0.604
 2205SOL    HW1 7514   1.655   6.760   0.513
 2205SOL    HW2 7515   1.731   6.720   0.652
 2206SOL     OW 7516   2.257   4.155   6.333
 2206SOL    HW1 7517   2.324   4.198   6.392
 2206SOL    HW2 7518   2.166   4.190   6.354
 2207SOL     OW 7519   3.268   5.833   0.654
 2207SOL    HW1 7520   3.283   5.785   0.741
 2207SOL    HW2 7521   3.177   5.876   0.655
 2208SOL     OW 7522   0.739   5.874   3.203
 2208SOL    HW1 7523   0.769   5.854   3.110
 2208SOL    HW2 7524   0.793   5.820   3.268
 2209SOL     OW 7525   2.392   5.659   4.834
 2209SOL    HW1 7526   2.333   5.716   4.890
 2209SOL    HW2 7527   2.438   5.716   4.766
 2210SOL     OW 7528   6.458   5.881   2.532
 2210SOL    HW1 7529   6.475   5.891   2.630
 2210SOL    HW2 7530   6.395   5.805   2.517
 2211SOL     OW 7531   6.161   0.724   0.787
 2211SOL    HW1 7532   6.096   0.668   0.837
 2211SOL    HW2 7533   6.117   0.763   0.706
 2212SOL     OW 7534   2.110   5.718   6.587
 2212SOL    HW1 7535   2.016   5.752   6.577
 2212SOL    HW2 7536   2.156   5.721   6.498
 2213SOL     OW 7537   4.689   2.547   5.061
 2213SOL    HW1 7538   4.768   2.548   5.000
 2213SOL    HW2 7539   4.663   2.453   5.082
 2214SOL     OW 7540   3.519   2.859   5.428
 2214SOL    HW1 7541   3.455   2.807   5.372
 2214SOL    HW2 7542   3.545   2.943   5.380
 2215SOL     OW 7543   5.599   1.705   6.526
 2215SOL    HW1 7544   5.625   1.710   6.430
 2215SOL    HW2 7545   5.651   1.631   6.570
 2216SOL     OW 7546   0.608   6.592   5.855
 2216SOL    HW1 7547   0.667   6.668   5.827
 2216SOL    HW2 7548   0.592   6.531   5.777
 2217SOL     OW 7549   4.395   0.710   3.746
 2217SOL    HW1 7550   4.350   0.664   3.823
 2217SOL    HW2 7551   4.353   0.680   3.661
 2218SOL     OW 7552   0.138   5.088   6.638
 2218SOL    HW1 7553   0.121   5.030   6.718
 2218SOL    HW2 7554   0.052   5.130   6.609
 2219SOL     OW 7555   5.999   1.927   0.993
 2219SOL    HW1 7556   5.965   1.922   1.087
 2219SOL    HW2 7557   5.955   2.003   0.946
 2220SOL     OW 7558   2.155   6.117   5.686
 2220SOL    HW1 7559   2.110   6.141   5.772
 2220SOL    HW2 7560   2.149   6.194   5.622
 2221SOL     OW 7561   6.843   1.651   4.556
 2221SOL    HW1 7562   6.752   1.615   4.576
 2221SOL    HW2 7563   6.844   1.750   4.572
 2222SOL     OW 7564   6.083   6.696   0.829
 2222SOL    HW1 7565   6.056   6.701   0.925
 2222SOL    HW2 7566   6.114   6.604   0.808
 2223SOL     OW 7567   6.991   1.065   5.901
 2223SOL    HW1 7568   6.984   1.050   5.803
 2223SOL    HW2 7569   0.021   1.147   5.918
 2224SOL     OW 7570   5.979   3.661   2.056
 2224SOL    HW1 7571   5.900   3.714   2.026
 2224SOL    HW2 7572   6.039   3.718   2.112
 2225SOL     OW 7573   0.389   6.794   2.977
 2225SOL    HW1 7574   0.444   6.718   3.012
 2225SOL    HW2 7575   0.429   6.827   2.891
 2226SOL     OW 7576   3.949   5.589   0.693
 2226SOL    HW1 7577   3.918   5.528   0.621
 2226SOL    HW2 7578   3.944   5.684   0.661
 2227SOL     OW 7579   4.627   2.702   1.562
 2227SOL    HW1 7580   4.690   2.640   1.609
 2227SOL    HW2 7581   4.593   2.770   1.627
 2228SOL     OW 7582   4.726   5.283   0.295
 2228SOL    HW1 7583   4.719   5.250   0.200
 2228SOL    HW2 7584   4.822   5.289   0.321
 2229SOL     OW 7585   3.644   3.489   4.897
 2229SOL    HW1 7586   3.583   3.556   4.854
 2229SOL    HW2 7587   3.609   3.397   4.880
 2230SOL     OW 7588   5.368   5.651   1.618
 2230SOL    HW1 7589   5.385   5.620   1.711
 2230SOL    HW2 7590   5.269   5.661   1.604
 2231SOL     OW 7591   0.768   0.524   6.424
 2231SOL    HW1 7592   0.851   0.481   6.388
 2231SOL    HW2 7593   0.742   0.601   6.366
 2232SOL     OW 7594   0.518   1.047   4.991
 2232SOL    HW1 7595   0.529   1.121   4.924
 2232SOL    HW2 7596   0.430   1.003   4.978
 2233SOL     OW 7597   2.807   3.449   0.975
 2233SOL    HW1 7598   2.832   3.352   0.968
 2233SOL    HW2 7599   2.731   3.468   0.914
 2234SOL     OW 7600   4.187   1.653   0.726
 2234SOL    HW1 7601   4.285   1.630   0.727
 2234SOL    HW2 7602   4.175   1.742   0.683
 2235SOL     OW 7603   2.418   0.285   2.590
 2235SOL    HW1 7604   2.335   0.303   2.643
 2235SOL    HW2 7605   2.408   0.324   2.499
 2236SOL     OW 7606   1.839   3.626   6.195
 2236SOL    HW1 7607   1.794   3.556   6.139
 2236SOL    HW2 7608   1.787   3.640   6.279
 2237SOL     OW 7609   6.028   4.457   4.576
 2237SOL    HW1 7610   6.087   4.508   4.639
 2237SOL    HW2 7611   5.977   4.388   4.628
 2238SOL     OW 7612   4.635   4.971   2.414
 2238SOL    HW1 7613   4.650   5.008   2.506
 2238SOL    HW2 7614   4.656   4.874   2.413
 2239SOL     OW 7615   4.438   5.420   4.221
 2239SOL    HW1 7616   4.390   5.463   4.145
 2239SOL    HW2 7617   4.521   5.375   4.187
 2240SOL     OW 7618   3.751   5.635   2.077
 2240SOL    HW1 7619   3.692   5.607   2.152
 2240SOL    HW2 7620   3.846   5.635   2.109
 2241SOL     OW 7621   6.536   7.014   1.983
 2241SOL    HW1 7622   6.583   0.076   1.998
 2241SOL    HW2 7623   6.503   6.979   2.071
 2242SOL     OW 7624   5.386   3.354   2.515
 2242SOL    HW1 7625   5.412   3.337   2.420
 2242SOL    HW2 7626   5.328   3.436   2.520
 2243SOL     OW 7627   1.771   6.591   0.225
 2243SOL    HW1 7628   1.843   6.527   0.197
 2243SOL    HW2 7629   1.741   6.644   0.147
 2244SOL     OW 7630   2.803   0.251   1.157
 2244SOL    HW1 7631   2.740   0.192   1.206
 2244SOL    HW2 7632   2.752   0.325   1.113
 2245SOL     OW 7633   6.807   1.667   0.701
 2245SOL    HW1 7634   6.866   1.694   0.625
 2245SOL    HW2 7635   6.854   1.687   0.788
 2246SOL     OW 7636   2.021   0.542   4.051
 2246SOL    HW1 7637   2.092   0.476   4.028
 2246SOL    HW2 7638   2.041   0.582   4.141
 2247SOL     OW 7639   3.137   3.706   2.498
 2247SOL    HW1 7640   3.231   3.684   2.472
 2247SOL    HW2 7641   3.135   3.793   2.547
 2248SOL     OW 7642   6.627   4.125   4.526
 2248SOL    HW1 7643   6.553   4.188   4.550
 2248SOL    HW2 7644   6.654   4.074   4.608
 2249SOL     OW 7645   4.210   6.776   3.912
 2249SOL    HW1 7646   4.263   6.725   3.844
 2249SOL    HW2 7647   4.128   6.813   3.869
 2250SOL     OW 7648   3.211   3.793   5.418
 2250SOL    HW1 7649   3.234   3.888   5.394
 2250SOL    HW2 7650   3.179   3.745   5.337
 2251SOL     OW 7651   5.534   0.203   5.966
 2251SOL    HW1 7652   5.503   0.182   6.058
 2251SOL    HW2 7653   5.456   0.226   5.908
 2252SOL     OW 7654   5.039   1.922   2.834
 2252SOL    HW1 7655   5.103   1.997   2.852
 2252SOL    HW2 7656   4.946   1.959   2.828
 2253SOL     OW 7657   0.153   3.753   6.836
 2253SOL    HW1 7658   0.057   3.773   6.817
 2253SOL    HW2 7659   0.165   3.738   6.934
 2254SOL     OW 7660   3.717   3.344   3.388
 2254SOL    HW1 7661   3.753   3.410   3.454
 2254SOL    HW2 7662   3.643   3.291   3.430
 2255SOL     OW 7663   3.027   3.396   5.577
 2255SOL    HW1 7664   2.990   3.422   5.666
 2255SOL    HW2 7665   3.006   3.300   5.558
 2256SOL     OW 7666   4.906   6.709   2.023
 2256SOL    HW1 7667   4.978   6.755   2.075
 2256SOL    HW2 7668   4.860   6.775   1.963
 2257SOL     OW 7669   1.043   1.284   4.311
 2257SOL    HW1 7670   1.011   1.197   4.272
 2257SOL    HW2 7671   1.037   1.279   4.411
 2258SOL     OW 7672   2.232   5.745   4.189
 2258SOL    HW1 7673   2.182   5.761   4.274
 2258SOL    HW2 7674   2.226   5.826   4.131
 2259SOL     OW 7675   5.320   2.821   5.369
 2259SOL    HW1 7676   5.414   2.798   5.342
 2259SOL    HW2 7677   5.267   2.845   5.288
 2260SOL     OW 7678   0.404   3.832   1.280
 2260SOL    HW1 7679   0.323   3.776   1.293
 2260SOL    HW2 7680   0.481   3.794   1.331
 2261SOL     OW 7681   6.811   4.528   0.721
 2261SOL    HW1 7682   6.861   4.471   0.787
 2261SOL    HW2 7683   6.873   4.599   0.686
 2262SOL     OW 7684   6.188   6.989   3.219
 2262SOL    HW1 7685   6.156   6.989   3.125
 2262SOL    HW2 7686   6.150   6.910   3.267
 2263SOL     OW 7687   1.802   5.903   0.634
 2263SOL    HW1 7688   1.722   5.963   0.630
 2263SOL    HW2 7689   1.882   5.956   0.664
 2264SOL     OW 7690   2.377   6.825   6.613
 2264SOL    HW1 7691   2.372   6.919   6.579
 2264SOL    HW2 7692   2.289   6.799   6.653
 2265SOL     OW 7693   2.172   0.625   4.352
 2265SOL    HW1 7694   2.256   0.635   4.405
 2265SOL    HW2 7695   2.116   0.707   4.362
 2266SOL     OW 7696   4.877   1.821   6.225
 2266SOL    HW1 7697   4.890   1.724   6.207
 2266SOL    HW2 7698   4.781   1.838   6.245
 2267SOL     OW 7699   5.030   2.735   5.081
 2267SOL    HW1 7700   5.085   2.665   5.128
 2267SOL    HW2 7701   5.035   2.821   5.132
 2268SOL     OW 7702   6.232   4.051   6.643
 2268SOL    HW1 7703   6.314   4.045   6.700
 2268SOL    HW2 7704   6.242   4.125   6.577
 2269SOL     OW 7705   1.241   3.500   4.890
 2269SOL    HW1 7706   1.187   3.549   4.959
 2269SOL    HW2 7707   1.301   3.434   4.934
 2270SOL     OW 7708   3.804   3.144   6.533
 2270SOL    HW1 7709   3.887   3.169   6.583
 2270SOL    HW2 7710   3.830   3.110   6.442
 2271SOL     OW 7711   5.570   4.621   7.020
 2271SOL    HW1 7712   5.571   4.585   0.087
 2271SOL    HW2 7713   5.629   4.566   6.962
 2272SOL     OW 7714   6.580   0.869   6.826
 2272SOL    HW1 7715   6.542   0.818   6.903
 2272SOL    HW2 7716   6.601   0.807   6.751
 2273SOL     OW 7717   1.603   2.387   1.951
 2273SOL    HW1 7718   1.540   2.455   1.989
 2273SOL    HW2 7719   1.573   2.363   1.858
 2274SOL     OW 7720   0.679   1.845   6.394
 2274SOL    HW1 7721   0.603   1.890   6.347
 2274SOL    HW2 7722   0.763   1.861   6.343
 2275SOL     OW 7723   5.874   6.248   2.934
 2275SOL    HW1 7724   5.972   6.265   2.925
 2275SOL    HW2 7725   5.841   6.199   2.854
 2276SOL     OW 7726   1.527   5.762   1.405
 2276SOL    HW1 7727   1.562   5.823   1.476
 2276SOL    HW2 7728   1.432   5.786   1.384
 2277SOL     OW 7729   3.442   3.662   4.796
 2277SOL    HW1 7730   3.368   3.633   4.855
 2277SOL    HW2 7731   3.408   3.729   4.729
 2278SOL     OW 7732   6.034   2.322   3.892
 2278SOL    HW1 7733   6.049   2.363   3.982
 2278SOL    HW2 7734   6.116   2.273   3.863
 2279SOL     OW 7735   6.668   6.701   5.205
 2279SOL    HW1 7736   6.572   6.728   5.212
 2279SOL    HW2 7737   6.714   6.718   5.292
 2280SOL     OW 7738   6.622   0.447   4.693
 2280SOL    HW1 7739   6.560   0.374   4.664
 2280SOL    HW2 7740   6.643   0.506   4.614
 2281SOL     OW 7741   2.867   0.567   1.800
 2281SOL    HW1 7742   2.828   0.632   1.866
 2281SOL    HW2 7743   2.966   0.562   1.813
 2282SOL     OW 7744   5.396   6.091   5.433
 2282SOL    HW1 7745   5.409   6.021   5.504
 2282SOL    HW2 7746   5.413   6.181   5.471
 2283SOL     OW 7747   1.697   0.867   1.906
 2283SOL    HW1 7748   1.640   0.907   1.978
 2283SOL    HW2 7749   1.782   0.833   1.945
 2284SOL     OW 7750   1.383   3.497   6.181
 2284SOL    HW1 7751   1.392   3.398   6.170
 2284SOL    HW2 7752   1.348   3.518   6.273
 2285SOL     OW 7753   1.276   3.099   6.952
 2285SOL    HW1 7754   1.231   3.009   6.950
 2285SOL    HW2 7755   1.362   3.091   7.002
 2286SOL     OW 7756   5.665   0.172   3.620
 2286SOL    HW1 7757   5.646   0.076   3.600
 2286SOL    HW2 7758   5.743   0.202   3.565
 2287SOL     OW 7759   2.394   0.934   3.798
 2287SOL    HW1 7760   2.472   0.966   3.851
 2287SOL    HW2 7761   2.421   0.856   3.742
 2288SOL     OW 7762   0.118   5.225   3.791
 2288SOL    HW1 7763   0.172   5.165   3.851
 2288SOL    HW2 7764   0.177   5.261   3.719
 2289SOL     OW 7765   0.051   5.171   0.695
 2289SOL    HW1 7766   0.001   5.175   0.782
 2289SOL    HW2 7767   0.042   5.257   0.646
 2290SOL     OW 7768   0.286   3.859   1.650
 2290SOL    HW1 7769   0.217   3.790   1.671
 2290SOL    HW2 7770   0.371   3.814   1.623
 2291SOL     OW 7771   2.540   2.599   5.715
 2291SOL    HW1 7772   2.440   2.594   5.718
 2291SOL    HW2 7773   2.578   2.506   5.715
 2292SOL     OW 7774   1.690   1.422   4.120
 2292SOL    HW1 7775   1.669   1.503   4.066
 2292SOL    HW2 7776   1.648   1.342   4.079
 2293SOL     OW 7777   5.330   5.885   2.013
 2293SOL    HW1 7778   5.259   5.942   1.972
 2293SOL    HW2 7779   5.416   5.936   2.014
 2294SOL     OW 7780   3.272   0.136   0.057
 2294SOL    HW1 7781   3.362   0.131   0.013
 2294SOL    HW2 7782   3.275   0.205   0.130
 2295SOL     OW 7783   0.392   1.649   2.328
 2295SOL    HW1 7784   0.488   1.627   2.347
 2295SOL    HW2 7785   0.371   1.626   2.233
 2296SOL     OW 7786   2.906   6.650   0.775
 2296SOL    HW1 7787   2.975   6.701   0.826
 2296SOL    HW2 7788   2.933   6.643   0.679
 2297SOL     OW 7789   3.614   4.169   5.134
 2297SOL    HW1 7790   3.622   4.084   5.188
 2297SOL    HW2 7791   3.694   4.177   5.074
 2298SOL     OW 7792   3.900   2.773   1.663
 2298SOL    HW1 7793   3.867   2.833   1.736
 2298SOL    HW2 7794   3.823   2.745   1.606
 2299SOL     OW 7795   5.719   0.755   6.805
 2299SOL    HW1 7796   5.721   0.688   6.731
 2299SOL    HW2 7797   5.634   0.808   6.800
 2300SOL     OW 7798   2.354   5.268   1.629
 2300SOL    HW1 7799   2.321   5.359   1.605
 2300SOL    HW2 7800   2.410   5.273   1.713
 2301SOL     OW 7801   2.890   3.357   2.908
 2301SOL    HW1 7802   2.910   3.454   2.921
 2301SOL    HW2 7803   2.809   3.348   2.849
 2302SOL     OW 7804   3.285   0.322   2.274
 2302SOL    HW1 7805   3.372   0.276   2.258
 2302SOL    HW2 7806   3.230   0.268   2.338
 2303SOL     OW 7807   1.448   3.397   5.616
 2303SOL    HW1 7808   1.439   3.324   5.683
 2303SOL    HW2 7809   1.422   3.364   5.526
 2304SOL     OW 7810   2.703   0.578   3.381
 2304SOL    HW1 7811   2.637   0.643   3.343
 2304SOL    HW2 7812   2.673   0.549   3.471
 2305SOL     OW 7813   3.811   5.912   3.117
 2305SOL    HW1 7814   3.731   5.969   3.136
 2305SOL    HW2 7815   3.785   5.836   3.059
 2306SOL     OW 7816   1.952   5.692   1.503
 2306SOL    HW1 7817   1.930   5.617   1.565
 2306SOL    HW2 7818   1.892   5.688   1.423
 2307SOL     OW 7819   2.378   4.726   2.481
 2307SOL    HW1 7820   2.418   4.723   2.573
 2307SOL    HW2 7821   2.383   4.636   2.439
 2308SOL     OW 7822   1.187   6.969   6.780
 2308SOL    HW1 7823   1.190   6.883   6.729
 2308SOL    HW2 7824   1.158   0.017   6.719
 2309SOL     OW 7825   2.413   6.479   0.494
 2309SOL    HW1 7826   2.427   6.479   0.593
 2309SOL    HW2 7827   2.390   6.386   0.464
 2310SOL     OW 7828   6.119   6.082   1.598
 2310SOL    HW1 7829   6.188   6.054   1.532
 2310SOL    HW2 7830   6.071   6.002   1.633
 2311SOL     OW 7831   2.890   6.515   2.553
 2311SOL    HW1 7832   2.851   6.528   2.462
 2311SOL    HW2 7833   2.949   6.592   2.576
 2312SOL     OW 7834   3.406   6.559   3.307
 2312SOL    HW1 7835   3.366   6.534   3.395
 2312SOL    HW2 7836   3.415   6.659   3.302
 2313SOL     OW 7837   4.610   5.552   2.103
 2313SOL    HW1 7838   4.686   5.521   2.046
 2313SOL    HW2 7839   4.645   5.613   2.174
 2314SOL     OW 7840   5.915   0.908   3.653
 2314SOL    HW1 7841   6.010   0.911   3.623
 2314SOL    HW2 7842   5.891   0.813   3.676
 2315SOL     OW 7843   5.072   3.550   5.092
 2315SOL    HW1 7844   4.977   3.578   5.075
 2315SOL    HW2 7845   5.081   3.452   5.076
 2316SOL     OW 7846   2.703   1.693   5.270
 2316SOL    HW1 7847   2.683   1.614   5.212
 2316SOL    HW2 7848   2.646   1.770   5.243
 2317SOL     OW 7849   6.522   6.556   3.630
 2317SOL    HW1 7850   6.459   6.620   3.672
 2317SOL    HW2 7851   6.599   6.606   3.590
 2318SOL     OW 7852   2.139   3.443   4.456
 2318SOL    HW1 7853   2.149   3.348   4.428
 2318SOL    HW2 7854   2.140   3.448   4.556
 2319SOL     OW 7855   3.097   5.417   5.131
 2319SOL    HW1 7856   3.162   5.362   5.184
 2319SOL    HW2 7857   3.005   5.379   5.142
 2320SOL     OW 7858   1.302   2.496   5.017
 2320SOL    HW1 7859   1.273   2.478   4.923
 2320SOL    HW2 7860   1.288   2.413   5.072
 2321SOL     OW 7861   2.321   5.659   6.794
 2321SOL    HW1 7862   2.248   5.664   6.726
 2321SOL    HW2 7863   2.311   5.736   6.858
 2322SOL     OW 7864   2.122   4.678   2.286
 2322SOL    HW1 7865   2.106   4.776   2.273
 2322SOL    HW2 7866   2.219   4.662   2.300
 2323SOL     OW 7867   3.391   4.718   1.654
 2323SOL    HW1 7868   3.461   4.682   1.716
 2323SOL    HW2 7869   3.312   4.748   1.708
 2324SOL     OW 7870   6.653   6.336   1.006
 2324SOL    HW1 7871   6.608   6.422   0.982
 2324SOL    HW2 7872   6.744   6.334   0.966
 2325SOL     OW 7873   0.317   4.384   1.338
 2325SOL    HW1 7874   0.377   4.411   1.262
 2325SOL    HW2 7875   0.263   4.304   1.311
 2326SOL     OW 7876   1.287   6.476   6.395
 2326SOL    HW1 7877   1.307   6.497   6.490
 2326SOL    HW2 7878   1.290   6.377   6.381
 2327SOL     OW 7879   0.668   1.483   3.031
 2327SOL    HW1 7880   0.677   1.405   3.093
 2327SOL    HW2 7881   0.683   1.452   2.937
 2328SOL     OW 7882   1.399   1.847   3.059
 2328SOL    HW1 7883   1.428   1.874   3.151
 2328SOL    HW2 7884   1.478   1.849   2.998
 2329SOL     OW 7885   0.709   4.437   4.946
 2329SOL    HW1 7886   0.777   4.366   4.925
 2329SOL    HW2 7887   0.742   4.493   5.022
 2330SOL     OW 7888   0.246   2.858   1.059
 2330SOL    HW1 7889   0.279   2.796   1.129
 2330SOL    HW2 7890   0.165   2.906   1.092
 2331SOL     OW 7891   3.760   5.148   0.327
 2331SOL    HW1 7892   3.816   5.142   0.409
 2331SOL    HW2 7893   3.803   5.211   0.262
 2332SOL     OW 7894   0.067   6.801   5.792
 2332SOL    HW1 7895   0.137   6.754   5.847
 2332SOL    HW2 7896   7.005   6.754   5.803
 2333SOL     OW 7897   6.935   4.477   3.483
 2333SOL    HW1 7898   6.845   4.463   3.441
 2333SOL    HW2 7899   6.980   4.388   3.493
 2334SOL     OW 7900   1.758   0.872   6.523
 2334SOL    HW1 7901   1.827   0.877   6.451
 2334SOL    HW2 7902   1.789   0.812   6.596
 2335SOL     OW 7903   5.967   0.714   4.036
 2335SOL    HW1 7904   5.980   0.667   3.948
 2335SOL    HW2 7905   5.911   0.658   4.096
 2336SOL     OW 7906   4.236   1.372   5.081
 2336SOL    HW1 7907   4.245   1.470   5.099
 2336SOL    HW2 7908   4.289   1.320   5.148
 2337SOL     OW 7909   4.153   0.446   1.365
 2337SOL    HW1 7910   4.184   0.383   1.436
 2337SOL    HW2 7911   4.223   0.454   1.294
 2338SOL     OW 7912   0.354   2.995   4.428
 2338SOL    HW1 7913   0.284   2.962   4.364
 2338SOL    HW2 7914   0.321   3.078   4.473
 2339SOL     OW 7915   3.746   4.121   3.437
 2339SOL    HW1 7916   3.745   4.072   3.350
 2339SOL    HW2 7917   3.682   4.198   3.432
 2340SOL     OW 7918   6.661   4.239   6.592
 2340SOL    HW1 7919   6.714   4.194   6.519
 2340SOL    HW2 7920   6.704   4.326   6.615
 2341SOL     OW 7921   2.979   4.892   2.313
 2341SOL    HW1 7922   3.013   4.830   2.243
 2341SOL    HW2 7923   3.040   4.971   2.319
 2342SOL     OW 7924   1.468   6.781   5.180
 2342SOL    HW1 7925   1.452   6.707   5.114
 2342SOL    HW2 7926   1.544   6.756   5.239
 2343SOL     OW 7927   1.611   5.569   2.204
 2343SOL    HW1 7928   1.648   5.490   2.253
 2343SOL    HW2 7929   1.630   5.561   2.107
 2344SOL     OW 7930   0.623   5.821   7.007
 2344SOL    HW1 7931   0.578   5.844   0.068
 2344SOL    HW2 7932   0.629   5.721   6.999
 2345SOL     OW 7933   2.465   5.217   5.156
 2345SOL    HW1 7934   2.478   5.185   5.062
 2345SOL    HW2 7935   2.415   5.148   5.209
 2346SOL     OW 7936   3.226   3.089   5.550
 2346SOL    HW1 7937   3.264   3.097   5.642
 2346SOL    HW2 7938   3.297   3.112   5.483
 2347SOL     OW 7939   2.673   2.502   1.436
 2347SOL    HW1 7940   2.737   2.476   1.508
 2347SOL    HW2 7941   2.618   2.423   1.409
 2348SOL     OW 7942   2.079   6.018   3.569
 2348SOL    HW1 7943   2.089   6.073   3.651
 2348SOL    HW2 7944   2.005   6.054   3.513
 2349SOL     OW 7945   1.115   4.739   5.801
 2349SOL    HW1 7946   1.061   4.722   5.719
 2349SOL    HW2 7947   1.196   4.681   5.800
 2350SOL     OW 7948   6.294   5.724   5.913
 2350SOL    HW1 7949   6.248   5.653   5.861
 2350SOL    HW2 7950   6.363   5.683   5.972
 2351SOL     OW 7951   2.971   5.358   4.346
 2351SOL    HW1 7952   2.916   5.276   4.364
 2351SOL    HW2 7953   2.911   5.432   4.314
 2352SOL     OW 7954   0.315   4.098   2.587
 2352SOL    HW1 7955   0.300   4.085   2.685
 2352SOL    HW2 7956   0.408   4.069   2.564
 2353SOL     OW 7957   3.295   5.559   4.624
 2353SOL    HW1 7958   3.306   5.599   4.714
 2353SOL    HW2 7959   3.337   5.468   4.622
 2354SOL     OW 7960   2.474   1.920   4.948
 2354SOL    HW1 7961   2.423   2.005   4.935
 2354SOL    HW2 7962   2.481   1.900   5.046
 2355SOL     OW 7963   2.254   7.017   6.177
 2355SOL    HW1 7964   2.235   6.919   6.173
 2355SOL    HW2 7965   2.167   0.042   6.175
 2356SOL     OW 7966   1.523   3.241   6.542
 2356SOL    HW1 7967   1.579   3.281   6.470
 2356SOL    HW2 7968   1.526   3.300   6.623
 2357SOL     OW 7969   3.844   0.080   2.804
 2357SOL    HW1 7970   3.824   0.133   2.721
 2357SOL    HW2 7971   3.934   0.038   2.795
 2358SOL     OW 7972   3.248   5.310   5.344
 2358SOL    HW1 7973   3.276   5.340   5.435
 2358SOL    HW2 7974   3.159   5.264   5.350
 2359SOL     OW 7975   6.814   0.937   5.090
 2359SOL    HW1 7976   6.878   0.974   5.157
 2359SOL    HW2 7977   6.864   0.888   5.019
 2360SOL     OW 7978   5.563   3.172   6.852
 2360SOL    HW1 7979   5.481   3.188   6.797
 2360SOL    HW2 7980   5.633   3.126   6.796
 2361SOL     OW 7981   2.246   0.877   5.926
 2361SOL    HW1 7982   2.283   0.839   6.010
 2361SOL    HW2 7983   2.297   0.842   5.847
 2362SOL     OW 7984   2.409   5.713   3.758
 2362SOL    HW1 7985   2.315   5.727   3.725
 2362SOL    HW2 7986   2.466   5.791   3.732
 2363SOL     OW 7987   5.053   1.842   4.795
 2363SOL    HW1 7988   5.109   1.770   4.835
 2363SOL    HW2 7989   4.971   1.802   4.754
 2364SOL     OW 7990   1.122   2.388   2.328
 2364SOL    HW1 7991   1.122   2.488   2.337
 2364SOL    HW2 7992   1.100   2.347   2.416
 2365SOL     OW 7993   6.567   2.526   6.736
 2365SOL    HW1 7994   6.487   2.512   6.794
 2365SOL    HW2 7995   6.631   2.450   6.750
 2366SOL     OW 7996   2.668   5.500   6.270
 2366SOL    HW1 7997   2.609   5.421   6.285
 2366SOL    HW2 7998   2.633   5.578   6.322
 2367SOL     OW 7999   2.717   4.113   0.900
 2367SOL    HW1 8000   2.728   4.076   0.992
 2367SOL    HW2 8001   2.621   4.110   0.874
 2368SOL     OW 8002   4.431   6.929   4.879
 2368SOL    HW1 8003   4.478   6.926   4.967
 2368SOL    HW2 8004   4.488   6.887   4.809
 2369SOL     OW 8005   2.298   0.816   5.258
 2369SOL    HW1 8006   2.292   0.755   5.337
 2369SOL    HW2 8007   2.235   0.785   5.187
 2370SOL     OW 8008   4.594   3.207   6.966
 2370SOL    HW1 8009   4.508   3.191   7.016
 2370SOL    HW2 8010   4.603   3.140   6.892
 2371SOL     OW 8011   0.864   6.810   1.290
 2371SOL    HW1 8012   0.868   6.805   1.389
 2371SOL    HW2 8013   0.911   6.892   1.259
 2372SOL     OW 8014   0.110   2.850   1.706
 2372SOL    HW1 8015   0.178   2.824   1.775
 2372SOL    HW2 8016   0.020   2.856   1.749
 2373SOL     OW 8017   1.169   2.433   6.141
 2373SOL    HW1 8018   1.249   2.473   6.096
 2373SOL    HW2 8019   1.155   2.478   6.230
 2374SOL     OW 8020   6.132   1.468   3.905
 2374SOL    HW1 8021   6.158   1.561   3.930
 2374SOL    HW2 8022   6.032   1.462   3.895
 2375SOL     OW 8023   3.199   6.582   4.875
 2375SOL    HW1 8024   3.152   6.503   4.836
 2375SOL    HW2 8025   3.162   6.601   4.966
 2376SOL     OW 8026   6.736   2.381   4.443
 2376SOL    HW1 8027   6.641   2.366   4.415
 2376SOL    HW2 8028   6.754   2.479   4.448
 2377SOL     OW 8029   3.917   3.782   3.920
 2377SOL    HW1 8030   3.962   3.807   4.006
 2377SOL    HW2 8031   3.981   3.729   3.864
 2378SOL     OW 8032   5.054   1.694   0.898
 2378SOL    HW1 8033   5.109   1.762   0.947
 2378SOL    HW2 8034   4.970   1.738   0.864
 2379SOL     OW 8035   6.693   1.506   0.049
 2379SOL    HW1 8036   6.713   1.565   6.996
 2379SOL    HW2 8037   6.710   1.556   0.134
 2380SOL     OW 8038   0.519   1.570   0.016
 2380SOL    HW1 8039   0.485   1.653   6.996
 2380SOL    HW2 8040   0.595   1.532   6.988
 2381SOL     OW 8041   1.849   5.000   4.652
 2381SOL    HW1 8042   1.938   4.999   4.608
 2381SOL    HW2 8043   1.856   4.958   4.743
 2382SOL     OW 8044   2.136   3.872   4.475
 2382SOL    HW1 8045   2.160   3.876   4.572
 2382SOL    HW2 8046   2.192   3.937   4.424
 2383SOL     OW 8047   4.754   6.026   0.886
 2383SOL    HW1 8048   4.659   5.997   0.897
 2383SOL    HW2 8049   4.760   6.125   0.899
 2384SOL     OW 8050   6.072   1.082   2.911
 2384SOL    HW1 8051   6.042   1.178   2.914
 2384SOL    HW2 8052   5.995   1.023   2.935
 2385SOL     OW 8053   0.991   6.987   0.448
 2385SOL    HW1 8054   0.986   6.917   0.377
 2385SOL    HW2 8055   0.942   0.043   0.417
 2386SOL     OW 8056   6.356   5.826   4.492
 2386SOL    HW1 8057   6.389   5.783   4.408
 2386SOL    HW2 8058   6.288   5.767   4.535
 2387SOL     OW 8059   1.564   1.911   4.172
 2387SOL    HW1 8060   1.582   1.848   4.097
 2387SOL    HW2 8061   1.467   1.907   4.197
 2388SOL     OW 8062   0.792   2.070   4.392
 2388SOL    HW1 8063   0.824   1.984   4.352
 2388SOL    HW2 8064   0.868   2.134   4.398
 2389SOL     OW 8065   4.841   3.987   2.913
 2389SOL    HW1 8066   4.785   3.993   2.995
 2389SOL    HW2 8067   4.810   3.910   2.856
 2390SOL     OW 8068   3.858   3.017   3.528
 2390SOL    HW1 8069   3.892   2.923   3.522
 2390SOL    HW2 8070   3.761   3.016   3.552
 2391SOL     OW 8071   4.697   3.821   5.820
 2391SOL    HW1 8072   4.630   3.859   5.757
 2391SOL    HW2 8073   4.739   3.895   5.873
 2392SOL     OW 8074   4.061   6.063   5.310
 2392SOL    HW1 8075   4.117   6.141   5.284
 2392SOL    HW2 8076   3.971   6.071   5.268
 2393SOL     OW 8077   4.784   3.577   6.177
 2393SOL    HW1 8078   4.877   3.607   6.157
 2393SOL    HW2 8079   4.785   3.482   6.209
 2394SOL     OW 8080   1.151   3.901   4.699
 2394SOL    HW1 8081   1.076   3.837   4.709
 2394SOL    HW2 8082   1.120   3.980   4.645
 2395SOL     OW 8083   5.430   1.899   6.008
 2395SOL    HW1 8084   5.488   1.848   5.945
 2395SOL    HW2 8085   5.478   1.913   6.095
 2396SOL     OW 8086   3.629   5.443   1.384
 2396SOL    HW1 8087   3.560   5.506   1.418
 2396SOL    HW2 8088   3.653   5.467   1.290
 2397SOL     OW 8089   6.870   3.895   5.781
 2397SOL    HW1 8090   6.932   3.832   5.827
 2397SOL    HW2 8091   6.799   3.842   5.734
 2398SOL     OW 8092   3.542   3.973   6.574
 2398SOL    HW1 8093   3.457   3.986   6.624
 2398SOL    HW2 8094   3.529   3.907   6.501
 2399SOL     OW 8095   4.577   0.988   1.668
 2399SOL    HW1 8096   4.496   0.998   1.725
 2399SOL    HW2 8097   4.565   0.912   1.605
 2400SOL     OW 8098   2.775   4.327   0.707
 2400SOL    HW1 8099   2.766   4.399   0.776
 2400SOL    HW2 8100   2.785   4.238   0.753
 2401SOL     OW 8101   5.373   6.135   6.703
 2401SOL    HW1 8102   5.363   6.233   6.724
 2401SOL    HW2 8103   5.352   6.119   6.607
 2402SOL     OW 8104   0.335   0.414   3.323
 2402SOL    HW1 8105   0.422   0.451   3.290
 2402SOL    HW2 8106   0.270   0.489   3.336
 2403SOL     OW 8107   2.302   2.454   6.539
 2403SOL    HW1 8108   2.267   2.368   6.576
 2403SOL    HW2 8109   2.348   2.505   6.613
 2404SOL     OW 8110   2.926   0.935   1.228
 2404SOL    HW1 8111   3.013   0.964   1.268
 2404SOL    HW2 8112   2.931   0.940   1.128
 2405SOL     OW 8113   3.650   3.584   2.380
 2405SOL    HW1 8114   3.687   3.492   2.377
 2405SOL    HW2 8115   3.707   3.642   2.439
 2406SOL     OW 8116   2.371   0.074   2.289
 2406SOL    HW1 8117   2.373   7.006   2.253
 2406SOL    HW2 8118   2.277   0.100   2.311
 2407SOL     OW 8119   5.557   1.732   2.621
 2407SOL    HW1 8120   5.457   1.722   2.620
 2407SOL    HW2 8121   5.597   1.652   2.667
 2408SOL     OW 8122   4.366   4.592   2.998
 2408SOL    HW1 8123   4.314   4.509   2.978
 2408SOL    HW2 8124   4.452   4.568   3.044
 2409SOL     OW 8125   2.172   4.707   1.960
 2409SOL    HW1 8126   2.163   4.608   1.971
 2409SOL    HW2 8127   2.233   4.743   2.031
 2410SOL     OW 8128   4.140   3.499   5.430
 2410SOL    HW1 8129   4.179   3.563   5.363
 2410SOL    HW2 8130   4.115   3.414   5.383
 2411SOL     OW 8131   4.959   5.823   4.887
 2411SOL    HW1 8132   4.987   5.918   4.900
 2411SOL    HW2 8133   4.903   5.816   4.805
 2412SOL     OW 8134   5.617   4.594   0.850
 2412SOL    HW1 8135   5.529   4.613   0.805
 2412SOL    HW2 8136   5.612   4.505   0.896
 2413SOL     OW 8137   6.114   1.319   0.656
 2413SOL    HW1 8138   6.122   1.250   0.728
 2413SOL    HW2 8139   6.194   1.314   0.596
 2414SOL     OW 8140   4.747   4.281   2.718
 2414SOL    HW1 8141   4.765   4.267   2.620
 2414SOL    HW2 8142   4.828   4.321   2.761
 2415SOL     OW 8143   6.456   0.953   3.157
 2415SOL    HW1 8144   6.410   0.981   3.073
 2415SOL    HW2 8145   6.444   1.024   3.226
 2416SOL     OW 8146   5.043   2.219   5.144
 2416SOL    HW1 8147   5.088   2.131   5.131
 2416SOL    HW2 8148   4.949   2.204   5.177
 2417SOL     OW 8149   3.869   3.551   5.040
 2417SOL    HW1 8150   3.839   3.641   5.073
 2417SOL    HW2 8151   3.791   3.502   5.001
 2418SOL     OW 8152   3.490   2.872   4.898
 2418SOL    HW1 8153   3.519   2.798   4.837
 2418SOL    HW2 8154   3.416   2.923   4.854
 2419SOL     OW 8155   7.020   0.159   4.501
 2419SOL    HW1 8156   0.046   0.140   4.417
 2419SOL    HW2 8157   0.006   0.256   4.525
 2420SOL     OW 8158   3.167   0.515   2.625
 2420SOL    HW1 8159   3.124   0.588   2.678
 2420SOL    HW2 8160   3.217   0.554   2.548
 2421SOL     OW 8161   2.010   2.636   5.343
 2421SOL    HW1 8162   1.981   2.680   5.428
 2421SOL    HW2 8163   2.103   2.601   5.354
 2422SOL     OW 8164   5.462   1.200   1.157
 2422SOL    HW1 8165   5.414   1.266   1.099
 2422SOL    HW2 8166   5.442   1.220   1.253
 2423SOL     OW 8167   1.743   5.915   2.654
 2423SOL    HW1 8168   1.706   6.008   2.665
 2423SOL    HW2 8169   1.836   5.912   2.688
 2424SOL     OW 8170   5.925   6.912   6.467
 2424SOL    HW1 8171   6.018   6.883   6.489
 2424SOL    HW2 8172   5.907   6.896   6.370
 2425SOL     OW 8173   5.633   0.618   4.276
 2425SOL    HW1 8174   5.605   0.556   4.349
 2425SOL    HW2 8175   5.698   0.571   4.216
 2426SOL     OW 8176   1.167   5.759   5.175
 2426SOL    HW1 8177   1.153   5.834   5.110
 2426SOL    HW2 8178   1.160   5.672   5.126
 2427SOL     OW 8179   5.087   5.798   5.349
 2427SOL    HW1 8180   5.162   5.829   5.409
 2427SOL    HW2 8181   5.003   5.790   5.402
 2428SOL     OW 8182   0.352   0.423   1.878
 2428SOL    HW1 8183   0.276   0.374   1.921
 2428SOL    HW2 8184   0.316   0.495   1.819
 2429SOL     OW 8185   5.837   5.514   2.900
 2429SOL    HW1 8186   5.755   5.458   2.915
 2429SOL    HW2 8187   5.810   5.602   2.861
 2430SOL     OW 8188   6.110   0.917   1.711
 2430SOL    HW1 8189   6.077   0.835   1.757
 2430SOL    HW2 8190   6.185   0.893   1.650
 2431SOL     OW 8191   3.840   0.788   1.778
 2431SOL    HW1 8192   3.753   0.822   1.743
 2431SOL    HW2 8193   3.825   0.737   1.863
 2432SOL     OW 8194   3.644   6.013   2.449
 2432SOL    HW1 8195   3.715   6.077   2.478
 2432SOL    HW2 8196   3.567   6.017   2.512
 2433SOL     OW 8197   4.163   1.653   0.250
 2433SOL    HW1 8198   4.125   1.654   0.342
 2433SOL    HW2 8199   4.245   1.710   0.246
 2434SOL     OW 8200   4.243   1.471   5.926
 2434SOL    HW1 8201   4.272   1.428   5.840
 2434SOL    HW2 8202   4.254   1.405   6.001
 2435SOL     OW 8203   4.559   5.010   5.699
 2435SOL    HW1 8204   4.506   5.033   5.780
 2435SOL    HW2 8205   4.499   5.009   5.619
 2436SOL     OW 8206   1.515   5.231   7.012
 2436SOL    HW1 8207   1.529   5.171   0.066
 2436SOL    HW2 8208   1.586   5.214   6.944
 2437SOL     OW 8209   5.542   6.707   6.703
 2437SOL    HW1 8210   5.503   6.659   6.781
 2437SOL    HW2 8211   5.622   6.760   6.732
 2438SOL     OW 8212   3.102   1.450   6.655
 2438SOL    HW1 8213   3.003   1.459   6.641
 2438SOL    HW2 8214   3.126   1.475   6.748
 2439SOL     OW 8215   0.787   4.705   6.368
 2439SOL    HW1 8216   0.737   4.649   6.434
 2439SOL    HW2 8217   0.765   4.675   6.275
 2440SOL     OW 8218   4.556   5.892   6.121
 2440SOL    HW1 8219   4.473   5.940   6.151
 2440SOL    HW2 8220   4.636   5.933   6.166
 2441SOL     OW 8221   6.833   2.446   6.586
 2441SOL    HW1 8222   6.819   2.348   6.571
 2441SOL    HW2 8223   6.758   2.497   6.543
 2442SOL     OW 8224   1.203   3.960   5.829
 2442SOL    HW1 8225   1.193   3.910   5.743
 2442SOL    HW2 8226   1.181   3.899   5.905
 2443SOL     OW 8227   3.742   5.133   6.634
 2443SOL    HW1 8228   3.665   5.134   6.569
 2443SOL    HW2 8229   3.814   5.073   6.600
 2444SOL     OW 8230   2.902   5.206   6.378
 2444SOL    HW1 8231   2.905   5.298   6.339
 2444SOL    HW2 8232   2.905   5.139   6.304
 2445SOL     OW 8233   6.979   1.231   1.228
 2445SOL    HW1 8234   0.032   1.273   1.276
 2445SOL    HW2 8235   6.972   1.270   1.136
 2446SOL     OW 8236   5.914   4.061   3.907
 2446SOL    HW1 8237   6.006   4.100   3.905
 2446SOL    HW2 8238   5.919   3.967   3.942
 2447SOL     OW 8239   2.366   2.901   6.991
 2447SOL    HW1 8240   2.316   2.973   6.943
 2447SOL    HW2 8241   2.385   2.930   0.059
 2448SOL     OW 8242   0.585   1.011   4.541
 2448SOL    HW1 8243   0.619   0.923   4.574
 2448SOL    HW2 8244   0.498   0.998   4.494
 2449SOL     OW 8245   6.790   3.953   0.376
 2449SOL    HW1 8246   6.717   4.015   0.347
 2449SOL    HW2 8247   6.878   3.988   0.345
 2450SOL     OW 8248   2.425   4.465   3.201
 2450SOL    HW1 8249   2.502   4.445   3.261
 2450SOL    HW2 8250   2.415   4.564   3.191
 2451SOL     OW 8251   1.864   6.287   4.174
 2451SOL    HW1 8252   1.863   6.387   4.180
 2451SOL    HW2 8253   1.888   6.248   4.262
 2452SOL     OW 8254   1.554   3.676   3.071
 2452SOL    HW1 8255   1.527   3.749   3.009
 2452SOL    HW2 8256   1.651   3.655   3.058
 2453SOL     OW 8257   6.426   4.942   1.381
 2453SOL    HW1 8258   6.347   4.959   1.323
 2453SOL    HW2 8259   6.398   4.943   1.477
 2454SOL     OW 8260   3.216   0.722   2.172
 2454SOL    HW1 8261   3.236   0.680   2.261
 2454SOL    HW2 8262   3.198   0.650   2.105
 2455SOL     OW 8263   5.802   5.229   0.675
 2455SOL    HW1 8264   5.725   5.269   0.724
 2455SOL    HW2 8265   5.878   5.215   0.738
 2456SOL     OW 8266   5.028   6.370   1.724
 2456SOL    HW1 8267   5.004   6.460   1.688
 2456SOL    HW2 8268   5.063   6.313   1.649
 2457SOL     OW 8269   6.028   0.062   0.350
 2457SOL    HW1 8270   6.013   0.119   0.431
 2457SOL    HW2 8271   5.946   0.064   0.292
 2458SOL     OW 8272   2.341   6.144   3.225
 2458SOL    HW1 8273   2.296   6.224   3.186
 2458SOL    HW2 8274   2.345   6.071   3.157
 2459SOL     OW 8275   1.728   0.104   0.412
 2459SOL    HW1 8276   1.659   0.061   0.471
 2459SOL    HW2 8277   1.683   0.144   0.332
 2460SOL     OW 8278   2.473   6.429   2.493
 2460SOL    HW1 8279   2.521   6.418   2.406
 2460SOL    HW2 8280   2.492   6.520   2.530
 2461SOL     OW 8281   5.613   0.127   2.284
 2461SOL    HW1 8282   5.576   0.094   2.197
 2461SOL    HW2 8283   5.543   0.179   2.332
 2462SOL     OW 8284   2.021   5.020   0.022
 2462SOL    HW1 8285   2.104   5.056   7.004
 2462SOL    HW2 8286   1.945   5.026   6.983
 2463SOL     OW 8287   6.685   1.903   3.271
 2463SOL    HW1 8288   6.754   1.865   3.210
 2463SOL    HW2 8289   6.618   1.954   3.218
 2464SOL     OW 8290   0.965   3.612   1.246
 2464SOL    HW1 8291   0.970   3.551   1.167
 2464SOL    HW2 8292   0.929   3.701   1.218
 2465SOL     OW 8293   0.113   5.633   2.219
 2465SOL    HW1 8294   0.131   5.637   2.317
 2465SOL    HW2 8295   0.023   5.672   2.200
 2466SOL     OW 8296   4.106   1.503   2.962
 2466SOL    HW1 8297   4.152   1.588   2.938
 2466SOL    HW2 8298   4.096   1.446   2.880
 2467SOL     OW 8299   0.111   0.509   6.111
 2467SOL    HW1 8300   0.076   0.565   6.187
 2467SOL    HW2 8301   0.152   0.569   6.043
 2468SOL     OW 8302   6.924   6.396   2.121
 2468SOL    HW1 8303   6.841   6.341   2.131
 2468SOL    HW2 8304   6.903   6.492   2.139
 2469SOL     OW 8305   2.872   3.916   5.136
 2469SOL    HW1 8306   2.942   3.987   5.127
 2469SOL    HW2 8307   2.910   3.840   5.190
 2470SOL     OW 8308   3.329   3.755   6.662
 2470SOL    HW1 8309   3.244   3.704   6.649
 2470SOL    HW2 8310   3.356   3.797   6.576
 2471SOL     OW 8311   0.194   6.316   2.413
 2471SOL    HW1 8312   0.116   6.378   2.402
 2471SOL    HW2 8313   0.232   6.294   2.323
 2472SOL     OW 8314   5.514   2.471   4.338
 2472SOL    HW1 8315   5.580   2.445   4.408
 2472SOL    HW2 8316   5.428   2.498   4.382
 2473SOL     OW 8317   0.454   5.501   4.318
 2473SOL    HW1 8318   0.424   5.590   4.350
 2473SOL    HW2 8319   0.530   5.512   4.254
 2474SOL     OW 8320   0.464   5.395   5.480
 2474SOL    HW1 8321   0.447   5.468   5.414
 2474SOL    HW2 8322   0.447   5.428   5.572
 2475SOL     OW 8323   4.312   2.476   0.546
 2475SOL    HW1 8324   4.249   2.446   0.617
 2475SOL    HW2 8325   4.262   2.529   0.477
 2476SOL     OW 8326   1.139   1.857   3.391
 2476SOL    HW1 8327   1.149   1.946   3.347
 2476SOL    HW2 8328   1.046   1.824   3.377
 2477SOL     OW 8329   5.610   5.524   1.436
 2477SOL    HW1 8330   5.513   5.542   1.420
 2477SOL    HW2 8331   5.621   5.470   1.519
 2478SOL     OW 8332   6.311   6.417   2.648
 2478SOL    HW1 8333   6.384   6.356   2.616
 2478SOL    HW2 8334   6.329   6.509   2.615
 2479SOL     OW 8335   0.159   2.525   0.660
 2479SOL    HW1 8336   0.189   2.438   0.701
 2479SOL    HW2 8337   0.062   2.540   0.682
 2480SOL     OW 8338   6.581   3.767   1.383
 2480SOL    HW1 8339   6.493   3.754   1.337
 2480SOL    HW2 8340   6.565   3.799   1.476
 2481SOL     OW 8341   4.382   5.688   1.848
 2481SOL    HW1 8342   4.347   5.781   1.836
 2481SOL    HW2 8343   4.308   5.628   1.877
 2482SOL     OW 8344   5.258   3.554   5.286
 2482SOL    HW1 8345   5.295   3.461   5.276
 2482SOL    HW2 8346   5.179   3.565   5.226
 2483SOL     OW 8347   1.057   1.433   6.923
 2483SOL    HW1 8348   1.053   1.496   7.001
 2483SOL    HW2 8349   1.061   1.485   6.838
 2484SOL     OW 8350   3.483   1.305   0.695
 2484SOL    HW1 8351   3.573   1.298   0.738
 2484SOL    HW2 8352   3.483   1.256   0.607
 2485SOL     OW 8353   0.299   5.212   2.442
 2485SOL    HW1 8354   0.241   5.213   2.523
 2485SOL    HW2 8355   0.383   5.161   2.462
 2486SOL     OW 8356   1.678   5.484   2.796
 2486SOL    HW1 8357   1.656   5.537   2.714
 2486SOL    HW2 8358   1.776   5.492   2.816
 2487SOL     OW 8359   4.318   0.314   1.074
 2487SOL    HW1 8360   4.223   0.299   1.049
 2487SOL    HW2 8361   4.377   0.288   0.997
 2488SOL     OW 8362   2.469   4.975   1.797
 2488SOL    HW1 8363   2.541   4.906   1.791
 2488SOL    HW2 8364   2.444   4.989   1.893
 2489SOL     OW 8365   1.455   5.619   5.086
 2489SOL    HW1 8366   1.362   5.608   5.120
 2489SOL    HW2 8367   1.511   5.541   5.114
 2490SOL     OW 8368   6.447   3.929   0.820
 2490SOL    HW1 8369   6.524   3.919   0.883
 2490SOL    HW2 8370   6.481   3.944   0.727
 2491SOL     OW 8371   3.079   5.035   3.209
 2491SOL    HW1 8372   3.031   4.959   3.253
 2491SOL    HW2 8373   3.024   5.119   3.218
 2492SOL     OW 8374   4.657   3.120   6.545
 2492SOL    HW1 8375   4.592   3.048   6.520
 2492SOL    HW2 8376   4.678   3.113   6.642
 2493SOL     OW 8377   6.040   1.682   3.125
 2493SOL    HW1 8378   5.941   1.673   3.111
 2493SOL    HW2 8379   6.088   1.625   3.059
 2494SOL     OW 8380   4.674   2.541   2.497
 2494SOL    HW1 8381   4.590   2.495   2.526
 2494SOL    HW2 8382   4.657   2.588   2.410
 2495SOL     OW 8383   5.262   0.989   4.813
 2495SOL    HW1 8384   5.311   1.059   4.865
 2495SOL    HW2 8385   5.255   0.905   4.867
 2496SOL     OW 8386   1.117   5.754   0.044
 2496SOL    HW1 8387   1.092   5.851   0.040
 2496SOL    HW2 8388   1.047   5.700   7.023
 2497SOL     OW 8389   6.639   1.880   6.660
 2497SOL    HW1 8390   6.604   1.971   6.682
 2497SOL    HW2 8391   6.614   1.857   6.566
 2498SOL     OW 8392   1.805   3.081   4.460
 2498SOL    HW1 8393   1.842   3.166   4.422
 2498SOL    HW2 8394   1.839   3.069   4.553
 2499SOL     OW 8395   5.034   0.659   4.317
 2499SOL    HW1 8396   5.100   0.688   4.248
 2499SOL    HW2 8397   5.077   0.663   4.407
 2500SOL     OW 8398   4.589   3.216   6.079
 2500SOL    HW1 8399   4.542   3.292   6.034
 2500SOL    HW2 8400   4.523   3.144   6.100
 2501SOL     OW 8401   6.070   4.434   6.887
 2501SOL    HW1 8402   6.155   4.383   6.880
 2501SOL    HW2 8403   5.992   4.371   6.883
 2502SOL     OW 8404   2.090   6.773   2.791
 2502SOL    HW1 8405   2.045   6.709   2.728
 2502SOL    HW2 8406   2.178   6.800   2.753
 2503SOL     OW 8407   4.002   4.932   5.644
 2503SOL    HW1 8408   3.987   4.953   5.740
 2503SOL    HW2 8409   4.004   5.017   5.591
 2504SOL     OW 8410   1.477   4.937   4.517
 2504SOL    HW1 8411   1.551   4.883   4.477
 2504SOL    HW2 8412   1.393   4.883   4.515
 2505SOL     OW 8413   4.676   5.396   4.497
 2505SOL    HW1 8414   4.603   5.461   4.518
 2505SOL    HW2 8415   4.717   5.420   4.409
 2506SOL     OW 8416   6.475   2.639   6.001
 2506SOL    HW1 8417   6.425   2.596   5.925
 2506SOL    HW2 8418   6.417   2.709   6.043
 2507SOL     OW 8419   6.508   5.653   0.494
 2507SOL    HW1 8420   6.440   5.700   0.551
 2507SOL    HW2 8421   6.598   5.658   0.538
 2508SOL     OW 8422   2.507   2.545   2.184
 2508SOL    HW1 8423   2.569   2.611   2.141
 2508SOL    HW2 8424   2.449   2.504   2.113
 2509SOL     OW 8425   5.580   2.784   3.278
 2509SOL    HW1 8426   5.546   2.769   3.185
 2509SOL    HW2 8427   5.502   2.798   3.339
 2510SOL     OW 8428   3.919   5.106   0.565
 2510SOL    HW1 8429   3.863   5.047   0.623
 2510SOL    HW2 8430   3.992   5.052   0.522
 2511SOL     OW 8431   0.836   0.738   5.453
 2511SOL    HW1 8432   0.877   0.828   5.437
 2511SOL    HW2 8433   0.900   0.682   5.506
 2512SOL     OW 8434   4.994   3.602   4.774
 2512SOL    HW1 8435   4.943   3.610   4.859
 2512SOL    HW2 8436   5.057   3.524   4.780
 2513SOL     OW 8437   0.540   2.616   6.926
 2513SOL    HW1 8438   0.593   2.699   6.940
 2513SOL    HW2 8439   0.450   2.627   6.967
 2514SOL     OW 8440   1.345   1.136   4.043
 2514SOL    HW1 8441   1.381   1.229   4.051
 2514SOL    HW2 8442   1.302   1.109   4.130
 2515SOL     OW 8443   0.708   5.580   0.727
 2515SOL    HW1 8444   0.730   5.507   0.792
 2515SOL    HW2 8445   0.769   5.574   0.648
 2516SOL     OW 8446   5.477   6.788   3.736
 2516SOL    HW1 8447   5.457   6.797   3.834
 2516SOL    HW2 8448   5.576   6.782   3.723
 2517SOL     OW 8449   2.307   4.751   0.436
 2517SOL    HW1 8450   2.325   4.668   0.489
 2517SOL    HW2 8451   2.321   4.731   0.339
 2518SOL     OW 8452   2.338   2.997   6.281
 2518SOL    HW1 8453   2.341   3.082   6.229
 2518SOL    HW2 8454   2.428   2.952   6.278
 2519SOL     OW 8455   4.642   4.865   4.942
 2519SOL    HW1 8456   4.585   4.788   4.971
 2519SOL    HW2 8457   4.609   4.899   4.854
 2520SOL     OW 8458   2.347   4.090   1.536
 2520SOL    HW1 8459   2.424   4.027   1.524
 2520SOL    HW2 8460   2.312   4.117   1.447
 2521SOL     OW 8461   6.103   6.811   5.650
 2521SOL    HW1 8462   6.009   6.794   5.678
 2521SOL    HW2 8463   6.104   6.873   5.572
 2522SOL     OW 8464   0.716   3.347   4.514
 2522SOL    HW1 8465   0.627   3.391   4.523
 2522SOL    HW2 8466   0.705   3.248   4.508
 2523SOL     OW 8467   0.672   3.603   0.088
 2523SOL    HW1 8468   0.648   3.508   0.065
 2523SOL    HW2 8469   0.602   3.641   0.148
 2524SOL     OW 8470   1.835   6.480   3.777
 2524SOL    HW1 8471   1.866   6.528   3.859
 2524SOL    HW2 8472   1.887   6.396   3.764
 2525SOL     OW 8473   0.925   3.738   3.570
 2525SOL    HW1 8474   0.927   3.646   3.609
 2525SOL    HW2 8475   0.906   3.732   3.472
 2526SOL     OW 8476   6.959   1.496   3.883
 2526SOL    HW1 8477   6.993   1.583   3.917
 2526SOL    HW2 8478   6.935   1.437   3.960
 2527SOL     OW 8479   5.557   6.445   4.205
 2527SOL    HW1 8480   5.601   6.356   4.216
 2527SOL    HW2 8481   5.477   6.435   4.146
 2528SOL     OW 8482   6.027   5.662   0.322
 2528SOL    HW1 8483   6.037   5.756   0.288
 2528SOL    HW2 8484   6.117   5.618   0.325
 2529SOL     OW 8485   5.312   4.633   4.412
 2529SOL    HW1 8486   5.300   4.689   4.330
 2529SOL    HW2 8487   5.394   4.664   4.461
 2530SOL     OW 8488   1.282   0.426   3.774
 2530SOL    HW1 8489   1.203   0.366   3.758
 2530SOL    HW2 8490   1.361   0.370   3.797
 2531SOL     OW 8491   3.853   1.283   6.210
 2531SOL    HW1 8492   3.896   1.309   6.124
 2531SOL    HW2 8493   3.836   1.365   6.265
 2532SOL     OW 8494   1.291   4.739   6.987
 2532SOL    HW1 8495   1.204   4.768   0.002
 2532SOL    HW2 8496   1.283   4.739   6.887
 2533SOL     OW 8497   5.892   6.606   6.344
 2533SOL    HW1 8498   5.868   6.676   6.276
 2533SOL    HW2 8499   5.820   6.599   6.412
 2534SOL     OW 8500   1.172   1.062   3.179
 2534SOL    HW1 8501   1.102   1.065   3.250
 2534SOL    HW2 8502   1.129   1.070   3.089
 2535SOL     OW 8503   2.476   1.261   3.619
 2535SOL    HW1 8504   2.464   1.333   3.550
 2535SOL    HW2 8505   2.449   1.296   3.709
 2536SOL     OW 8506   5.876   1.071   3.887
 2536SOL    HW1 8507   5.873   1.009   3.808
 2536SOL    HW2 8508   5.832   1.157   3.863
 2537SOL     OW 8509   5.366   5.243   1.656
 2537SOL    HW1 8510   5.295   5.175   1.676
 2537SOL    HW2 8511   5.325   5.321   1.609
 2538SOL     OW 8512   2.033   4.977   4.422
 2538SOL    HW1 8513   2.117   4.928   4.444
 2538SOL    HW2 8514   1.977   4.921   4.361
 2539SOL     OW 8515   3.751   6.927   5.648
 2539SOL    HW1 8516   3.690   6.858   5.609
 2539SOL    HW2 8517   3.841   6.918   5.607
 2540SOL     OW 8518   5.755   1.339   1.909
 2540SOL    HW1 8519   5.783   1.431   1.882
 2540SOL    HW2 8520   5.656   1.336   1.922
 2541SOL     OW 8521   0.971   6.395   6.348
 2541SOL    HW1 8522   0.941   6.386   6.253
 2541SOL    HW2 8523   1.045   6.329   6.366
 2542SOL     OW 8524   3.540   1.546   4.796
 2542SOL    HW1 8525   3.617   1.560   4.858
 2542SOL    HW2 8526   3.573   1.539   4.702
 2543SOL     OW 8527   0.973   1.829   2.978
 2543SOL    HW1 8528   0.883   1.810   3.018
 2543SOL    HW2 8529   1.042   1.773   3.025
 2544SOL     OW 8530   6.599   5.534   1.466
 2544SOL    HW1 8531   6.520   5.475   1.449
 2544SOL    HW2 8532   6.668   5.483   1.518
 2545SOL     OW 8533   0.758   1.753   1.353
 2545SOL    HW1 8534   0.697   1.832   1.354
 2545SOL    HW2 8535   0.852   1.783   1.368
 2546SOL     OW 8536   0.005   3.757   1.804
 2546SOL    HW1 8537   0.079   3.698   1.771
 2546SOL    HW2 8538   0.039   3.814   1.880
 2547SOL     OW 8539   5.469   3.647   0.480
 2547SOL    HW1 8540   5.385   3.643   0.425
 2547SOL    HW2 8541   5.445   3.641   0.577
 2548SOL     OW 8542   0.059   6.889   5.195
 2548SOL    HW1 8543   0.072   6.857   5.101
 2548SOL    HW2 8544   0.125   6.844   5.255
 2549SOL     OW 8545   2.581   2.254   0.549
 2549SOL    HW1 8546   2.519   2.221   0.619
 2549SOL    HW2 8547   2.561   2.350   0.529
 2550SOL     OW 8548   4.474   6.751   6.618
 2550SOL    HW1 8549   4.437   6.811   6.689
 2550SOL    HW2 8550   4.443   6.657   6.634
 2551SOL     OW 8551   2.949   5.694   6.942
 2551SOL    HW1 8552   2.981   5.677   6.848
 2551SOL    HW2 8553   2.985   5.623   7.002
 2552SOL     OW 8554   1.882   6.172   0.842
 2552SOL    HW1 8555   1.915   6.217   0.759
 2552SOL    HW2 8556   1.959   6.131   0.891
 2553SOL     OW 8557   4.196   1.546   6.878
 2553SOL    HW1 8558   4.149   1.472   6.927
 2553SOL    HW2 8559   4.294   1.544   6.899
 2554SOL     OW 8560   1.781   5.700   1.292
 2554SOL    HW1 8561   1.690   5.741   1.300
 2554SOL    HW2 8562   1.775   5.617   1.236
 2555SOL     OW 8563   6.026   5.736   5.017
 2555SOL    HW1 8564   6.044   5.654   4.963
 2555SOL    HW2 8565   5.932   5.767   5.001
 2556SOL     OW 8566   3.883   6.656   1.385
 2556SOL    HW1 8567   3.913   6.676   1.292
 2556SOL    HW2 8568   3.856   6.741   1.430
 2557SOL     OW 8569   4.324   0.290   6.896
 2557SOL    HW1 8570   4.352   0.369   6.951
 2557SOL    HW2 8571   4.224   0.280   6.902
 2558SOL     OW 8572   5.719   4.076   6.285
 2558SOL    HW1 8573   5.806   4.117   6.313
 2558SOL    HW2 8574   5.651   4.089   6.357
 2559SOL     OW 8575   1.058   4.245   3.954
 2559SOL    HW1 8576   0.963   4.225   3.931
 2559SOL    HW2 8577   1.116   4.170   3.923
 2560SOL     OW 8578   4.728   2.076   3.358
 2560SOL    HW1 8579   4.771   2.051   3.271
 2560SOL    HW2 8580   4.671   2.156   3.345
 2561SOL     OW 8581   3.488   0.909   4.721
 2561SOL    HW1 8582   3.527   0.938   4.634
 2561SOL    HW2 8583   3.412   0.847   4.705
 2562SOL     OW 8584   3.340   6.964   3.495
 2562SOL    HW1 8585   3.299   0.028   3.480
 2562SOL    HW2 8586   3.414   6.950   3.429
 2563SOL     OW 8587   3.427   1.175   0.473
 2563SOL    HW1 8588   3.493   1.130   0.412
 2563SOL    HW2 8589   3.378   1.246   0.423
 2564SOL     OW 8590   1.503   1.495   0.460
 2564SOL    HW1 8591   1.537   1.569   0.401
 2564SOL    HW2 8592   1.557   1.493   0.544
 2565SOL     OW 8593   1.007   2.326   6.648
 2565SOL    HW1 8594   0.916   2.307   6.610
 2565SOL    HW2 8595   1.076   2.307   6.579
 2566SOL     OW 8596   2.793   0.844   0.756
 2566SOL    HW1 8597   2.883   0.800   0.745
 2566SOL    HW2 8598   2.730   0.809   0.687
 2567SOL     OW 8599   1.270   0.087   0.026
 2567SOL    HW1 8600   1.203   0.074   0.099
 2567SOL    HW2 8601   1.231   0.059   6.964
 2568SOL     OW 8602   2.734   6.203   1.135
 2568SOL    HW1 8603   2.765   6.254   1.216
 2568SOL    HW2 8604   2.637   6.184   1.143
 2569SOL     OW 8605   0.925   1.191   1.360
 2569SOL    HW1 8606   0.897   1.157   1.271
 2569SOL    HW2 8607   0.939   1.114   1.423
 2570SOL     OW 8608   5.217   6.649   0.009
 2570SOL    HW1 8609   5.138   6.594   7.006
 2570SOL    HW2 8610   5.220   6.653   0.109
 2571SOL     OW 8611   3.765   3.435   4.606
 2571SOL    HW1 8612   3.812   3.454   4.520
 2571SOL    HW2 8613   3.739   3.522   4.649
 2572SOL     OW 8614   2.195   6.110   1.428
 2572SOL    HW1 8615   2.265   6.126   1.498
 2572SOL    HW2 8616   2.160   6.017   1.436
 2573SOL     OW 8617   6.552   2.174   4.020
 2573SOL    HW1 8618   6.587   2.227   3.943
 2573SOL    HW2 8619   6.561   2.076   4.000
 2574SOL     OW 8620   6.993   3.936   1.455
 2574SOL    HW1 8621   0.001   4.031   1.461
 2574SOL    HW2 8622   6.898   3.936   1.426
 2575SOL     OW 8623   5.747   3.816   0.683
 2575SOL    HW1 8624   5.821   3.881   0.664
 2575SOL    HW2 8625   5.764   3.731   0.633
 2576SOL     OW 8626   2.332   6.912   3.514
 2576SOL    HW1 8627   2.243   6.958   3.512
 2576SOL    HW2 8628   2.405   6.980   3.504
 2577SOL     OW 8629   2.791   6.816   2.920
 2577SOL    HW1 8630   2.693   6.802   2.907
 2577SOL    HW2 8631   2.833   6.842   2.833
 2578SOL     OW 8632   5.254   2.784   4.681
 2578SOL    HW1 8633   5.311   2.711   4.721
 2578SOL    HW2 8634   5.266   2.786   4.582
 2579SOL     OW 8635   0.007   2.404   6.875
 2579SOL    HW1 8636   0.084   2.445   6.826
 2579SOL    HW2 8637   6.968   2.476   6.902
 2580SOL     OW 8638   1.507   2.589   6.582
 2580SOL    HW1 8639   1.411   2.602   6.607
 2580SOL    HW2 8640   1.566   2.617   6.658
 2581SOL     OW 8641   5.642   5.866   2.311
 2581SOL    HW1 8642   5.636   5.867   2.411
 2581SOL    HW2 8643   5.724   5.816   2.283
 2582SOL     OW 8644   0.952   5.483   2.668
 2582SOL    HW1 8645   1.000   5.571   2.676
 2582SOL    HW2 8646   0.858   5.499   2.641
 2583SOL     OW 8647   1.062   0.256   0.931
 2583SOL    HW1 8648   1.160   0.275   0.940
 2583SOL    HW2 8649   1.038   0.249   0.834
 2584SOL     OW 8650   3.456   6.164   1.232
 2584SOL    HW1 8651   3.501   6.119   1.156
 2584SOL    HW2 8652   3.460   6.106   1.313
 2585SOL     OW 8653   3.078   0.220   1.196
 2585SOL    HW1 8654   2.979   0.220   1.191
 2585SOL    HW2 8655   3.115   0.157   1.127
 2586SOL     OW 8656   6.095   2.061   4.025
 2586SOL    HW1 8657   6.084   1.962   4.024
 2586SOL    HW2 8658   6.050   2.101   3.946
 2587SOL     OW 8659   5.721   6.709   4.144
 2587SOL    HW1 8660   5.785   6.679   4.074
 2587SOL    HW2 8661   5.713   6.639   4.215
 2588SOL     OW 8662   5.531   0.037   2.024
 2588SOL    HW1 8663   5.473   0.005   1.950
 2588SOL    HW2 8664   5.566   0.128   2.002
 2589SOL     OW 8665   6.500   6.553   5.536
 2589SOL    HW1 8666   6.451   6.475   5.498
 2589SOL    HW2 8667   6.440   6.603   5.598
 2590SOL     OW 8668   4.519   6.858   3.440
 2590SOL    HW1 8669   4.542   6.890   3.348
 2590SOL    HW2 8670   4.507   6.936   3.501
 2591SOL     OW 8671   5.076   5.962   1.904
 2591SOL    HW1 8672   5.007   6.023   1.864
 2591SOL    HW2 8673   5.067   5.963   2.003
 2592SOL     OW 8674   3.258   5.889   1.879
 2592SOL    HW1 8675   3.304   5.812   1.923
 2592SOL    HW2 8676   3.164   5.895   1.913
 2593SOL     OW 8677   3.755   6.547   2.518
 2593SOL    HW1 8678   3.742   6.508   2.427
 2593SOL    HW2 8679   3.850   6.577   2.529
 2594SOL     OW 8680   0.266   0.107   6.809
 2594SOL    HW1 8681   0.191   0.174   6.813
 2594SOL    HW2 8682   0.254   0.040   6.882
 2595SOL     OW 8683   6.523   3.223   4.917
 2595SOL    HW1 8684   6.556   3.314   4.892
 2595SOL    HW2 8685   6.435   3.231   4.964
 2596SOL     OW 8686   3.878   2.113   2.228
 2596SOL    HW1 8687   3.886   2.020   2.193
 2596SOL    HW2 8688   3.813   2.164   2.171
 2597SOL     OW 8689   2.357   3.259   0.893
 2597SOL    HW1 8690   2.329   3.351   0.867
 2597SOL    HW2 8691   2.392   3.260   0.987
 2598SOL     OW 8692   6.680   2.750   3.657
 2598SOL    HW1 8693   6.695   2.849   3.664
 2598SOL    HW2 8694   6.604   2.732   3.594
 2599SOL     OW 8695   4.074   5.632   0.325
 2599SOL    HW1 8696   4.166   5.594   0.317
 2599SOL    HW2 8697   4.018   5.598   0.250
 2600SOL     OW 8698   5.819   3.778   3.452
 2600SOL    HW1 8699   5.888   3.733   3.396
 2600SOL    HW2 8700   5.766   3.842   3.395
 2601SOL     OW 8701   3.778   3.772   5.943
 2601SOL    HW1 8702   3.719   3.764   6.023
 2601SOL    HW2 8703   3.842   3.695   5.940
 2602SOL     OW 8704   6.866   4.900   4.095
 2602SOL    HW1 8705   6.905   4.984   4.132
 2602SOL    HW2 8706   6.908   4.821   4.140
 2603SOL     OW 8707   2.621   2.353   1.039
 2603SOL    HW1 8708   2.553   2.424   1.018
 2603SOL    HW2 8709   2.680   2.340   0.960
 2604SOL     OW 8710   5.286   0.524   1.288
 2604SOL    HW1 8711   5.290   0.537   1.387
 2604SOL    HW2 8712   5.343   0.445   1.263
 2605SOL     OW 8713   4.149   4.845   4.290
 2605SOL    HW1 8714   4.159   4.801   4.379
 2605SOL    HW2 8715   4.201   4.794   4.221
 2606SOL     OW 8716   6.344   4.177   0.919
 2606SOL    HW1 8717   6.352   4.253   0.855
 2606SOL    HW2 8718   6.361   4.091   0.871
 2607SOL     OW 8719   0.953   0.407   3.073
 2607SOL    HW1 8720   1.032   0.365   3.117
 2607SOL    HW2 8721   0.931   0.493   3.120
 2608SOL     OW 8722   5.282   0.625   1.580
 2608SOL    HW1 8723   5.204   0.676   1.616
 2608SOL    HW2 8724   5.354   0.690   1.554
 2609SOL     OW 8725   0.761   2.089   2.930
 2609SOL    HW1 8726   0.811   2.043   2.856
 2609SOL    HW2 8727   0.712   2.021   2.984
 2610SOL     OW 8728   6.347   5.476   4.864
 2610SOL    HW1 8729   6.287   5.428   4.928
 2610SOL    HW2 8730   6.431   5.422   4.850
 2611SOL     OW 8731   5.464   6.321   1.348
 2611SOL    HW1 8732   5.436   6.334   1.443
 2611SOL    HW2 8733   5.394   6.360   1.287
 2612SOL     OW 8734   4.715   6.804   3.993
 2612SOL    HW1 8735   4.756   6.865   4.062
 2612SOL    HW2 8736   4.629   6.768   4.028
 2613SOL     OW 8737   3.584   0.506   2.407
 2613SOL    HW1 8738   3.568   0.448   2.486
 2613SOL    HW2 8739   3.636   0.587   2.435
 2614SOL     OW 8740   6.367   6.801   5.972
 2614SOL    HW1 8741   6.294   6.819   6.038
 2614SOL    HW2 8742   6.414   6.716   5.997
 2615SOL     OW 8743   4.984   4.976   3.024
 2615SOL    HW1 8744   5.000   4.928   2.938
 2615SOL    HW2 8745   4.914   4.928   3.077
 2616SOL     OW 8746   4.043   3.117   2.558
 2616SOL    HW1 8747   3.990   3.110   2.473
 2616SOL    HW2 8748   4.078   3.210   2.567
 2617SOL     OW 8749   3.558   6.029   1.022
 2617SOL    HW1 8750   3.546   6.041   0.924
 2617SOL    HW2 8751   3.635   5.968   1.040
 2618SOL     OW 8752   0.130   0.550   1.081
 2618SOL    HW1 8753   0.158   0.638   1.041
 2618SOL    HW2 8754   0.192   0.526   1.155
 2619SOL     OW 8755   4.073   1.562   2.008
 2619SOL    HW1 8756   4.128   1.577   1.926
 2619SOL    HW2 8757   4.084   1.639   2.070
 2620SOL     OW 8758   1.567   4.716   3.770
 2620SOL    HW1 8759   1.478   4.759   3.752
 2620SOL    HW2 8760   1.582   4.642   3.705
 2621SOL     OW 8761   0.643   6.018   3.800
 2621SOL    HW1 8762   0.694   6.093   3.759
 2621SOL    HW2 8763   0.645   5.938   3.739
 2622SOL     OW 8764   2.169   3.407   6.334
 2622SOL    HW1 8765   2.125   3.321   6.360
 2622SOL    HW2 8766   2.239   3.390   6.265
 2623SOL     OW 8767   3.502   1.297   5.459
 2623SOL    HW1 8768   3.550   1.223   5.412
 2623SOL    HW2 8769   3.506   1.380   5.405
 2624SOL     OW 8770   6.017   2.642   3.238
 2624SOL    HW1 8771   5.958   2.722   3.248
 2624SOL    HW2 8772   5.969   2.561   3.270
 2625SOL     OW 8773   2.279   2.755   5.669
 2625SOL    HW1 8774   2.252   2.850   5.655
 2625SOL    HW2 8775   2.218   2.712   5.735
 2626SOL     OW 8776   2.064   6.936   3.226
 2626SOL    HW1 8777   2.046   6.865   3.158
 2626SOL    HW2 8778   1.980   6.986   3.246
 2627SOL     OW 8779   0.261   0.583   4.690
 2627SOL    HW1 8780   0.356   0.590   4.659
 2627SOL    HW2 8781   0.227   0.673   4.717
 2628SOL     OW 8782   3.753   6.702   0.170
 2628SOL    HW1 8783   3.840   6.668   0.206
 2628SOL    HW2 8784   3.757   6.701   0.070
 2629SOL     OW 8785   3.853   4.097   1.579
 2629SOL    HW1 8786   3.778   4.157   1.604
 2629SOL    HW2 8787   3.823   4.032   1.509
 2630SOL     OW 8788   3.791   1.660   2.517
 2630SOL    HW1 8789   3.801   1.754   2.486
 2630SOL    HW2 8790   3.693   1.638   2.525
 2631SOL     OW 8791   4.661   6.424   4.590
 2631SOL    HW1 8792   4.752   6.439   4.628
 2631SOL    HW2 8793   4.596   6.406   4.664
 2632SOL     OW 8794   3.517   1.738   6.764
 2632SOL    HW1 8795   3.521   1.786   6.852
 2632SOL    HW2 8796   3.447   1.780   6.707
 2633SOL     OW 8797   6.159   2.393   6.705
 2633SOL    HW1 8798   6.171   2.462   6.634
 2633SOL    HW2 8799   6.213   2.418   6.785
 2634SOL     OW 8800   1.896   4.146   1.511
 2634SOL    HW1 8801   1.965   4.085   1.550
 2634SOL    HW2 8802   1.928   4.182   1.424
 2635SOL     OW 8803   5.510   5.576   4.341
 2635SOL    HW1 8804   5.600   5.584   4.299
 2635SOL    HW2 8805   5.444   5.631   4.291
 2636SOL     OW 8806   5.216   0.210   5.804
 2636SOL    HW1 8807   5.287   0.249   5.745
 2636SOL    HW2 8808   5.128   0.211   5.755
 2637SOL     OW 8809   5.279   6.597   3.693
 2637SOL    HW1 8810   5.377   6.613   3.705
 2637SOL    HW2 8811   5.228   6.656   3.756
 2638SOL     OW 8812   5.731   6.288   1.258
 2638SOL    HW1 8813   5.799   6.309   1.328
 2638SOL    HW2 8814   5.641   6.277   1.300
 2639SOL     OW 8815   5.818   6.406   1.511
 2639SOL    HW1 8816   5.909   6.372   1.489
 2639SOL    HW2 8817   5.810   6.417   1.610
 2640SOL     OW 8818   0.365   6.513   5.209
 2640SOL    HW1 8819   0.265   6.514   5.208
 2640SOL    HW2 8820   0.399   6.451   5.139
 2641SOL     OW 8821   5.228   3.805   6.813
 2641SOL    HW1 8822   5.299   3.743   6.778
 2641SOL    HW2 8823   5.141   3.756   6.818
 2642SOL     OW 8824   4.713   0.276   4.151
 2642SOL    HW1 8825   4.767   0.358   4.168
 2642SOL    HW2 8826   4.717   0.253   4.054
 2643SOL     OW 8827   0.242   6.595   3.377
 2643SOL    HW1 8828   0.205   6.624   3.289
 2643SOL    HW2 8829   0.176   6.617   3.449
 2644SOL     OW 8830   0.895   5.051   5.658
 2644SOL    HW1 8831   0.803   5.052   5.619
 2644SOL    HW2 8832   0.912   5.138   5.705
 2645SOL     OW 8833   5.307   6.500   5.725
 2645SOL    HW1 8834   5.242   6.573   5.703
 2645SOL    HW2 8835   5.398   6.540   5.735
 2646SOL     OW 8836   0.028   0.261   6.491
 2646SOL    HW1 8837   0.051   0.170   6.524
 2646SOL    HW2 8838   6.982   0.254   6.421
 2647SOL     OW 8839   4.587   1.775   1.057
 2647SOL    HW1 8840   4.674   1.726   1.050
 2647SOL    HW2 8841   4.560   1.810   0.967
 2648SOL     OW 8842   6.467   6.939   2.607
 2648SOL    HW1 8843   6.494   7.018   2.551
 2648SOL    HW2 8844   6.416   6.971   2.687
 2649SOL     OW 8845   3.480   1.383   6.200
 2649SOL    HW1 8846   3.516   1.474   6.181
 2649SOL    HW2 8847   3.463   1.335   6.115
 2650SOL     OW 8848   0.309   5.595   3.378
 2650SOL    HW1 8849   0.368   5.652   3.320
 2650SOL    HW2 8850   0.324   5.498   3.355
 2651SOL     OW 8851   0.108   1.355   1.783
 2651SOL    HW1 8852   0.115   1.276   1.722
 2651SOL    HW2 8853   0.015   1.392   1.780
 2652SOL     OW 8854   3.110   3.206   2.879
 2652SOL    HW1 8855   3.152   3.214   2.789
 2652SOL    HW2 8856   3.024   3.256   2.881
 2653SOL     OW 8857   5.425   6.580   6.336
 2653SOL    HW1 8858   5.475   6.626   6.263
 2653SOL    HW2 8859   5.365   6.647   6.382
 2654SOL     OW 8860   5.193   1.542   6.159
 2654SOL    HW1 8861   5.197   1.638   6.186
 2654SOL    HW2 8862   5.226   1.532   6.065
 2655SOL     OW 8863   4.172   6.011   4.904
 2655SOL    HW1 8864   4.267   5.980   4.905
 2655SOL    HW2 8865   4.168   6.103   4.865
 2656SOL     OW 8866   5.392   4.146   3.503
 2656SOL    HW1 8867   5.299   4.111   3.512
 2656SOL    HW2 8868   5.457   4.071   3.508
 2657SOL     OW 8869   1.746   4.296   6.744
 2657SOL    HW1 8870   1.828   4.336   6.703
 2657SOL    HW2 8871   1.765   4.203   6.775
 2658SOL     OW 8872   5.924   4.246   6.034
 2658SOL    HW1 8873   5.858   4.321   6.021
 2658SOL    HW2 8874   5.918   4.182   5.957
 2659SOL     OW 8875   6.627   2.267   4.836
 2659SOL    HW1 8876   6.532   2.277   4.807
 2659SOL    HW2 8877   6.665   2.358   4.856
 2660SOL     OW 8878   6.293   2.396   2.342
 2660SOL    HW1 8879   6.362   2.464   2.366
 2660SOL    HW2 8880   6.323   2.345   2.261
 2661SOL     OW 8881   3.393   5.721   1.098
 2661SOL    HW1 8882   3.483   5.762   1.112
 2661SOL    HW2 8883   3.336   5.738   1.178
 2662SOL     OW 8884   4.351   6.189   5.104
 2662SOL    HW1 8885   4.390   6.098   5.119
 2662SOL    HW2 8886   4.352   6.210   5.006
 2663SOL     OW 8887   1.995   5.095   2.027
 2663SOL    HW1 8888   1.978   5.008   1.979
 2663SOL    HW2 8889   2.074   5.140   1.988
 2664SOL     OW 8890   3.961   3.890   2.675
 2664SOL    HW1 8891   4.046   3.943   2.673
 2664SOL    HW2 8892   3.887   3.948   2.709
 2665SOL     OW 8893   3.619   1.681   5.219
 2665SOL    HW1 8894   3.693   1.744   5.241
 2665SOL    HW2 8895   3.586   1.698   5.126
 2666SOL     OW 8896   5.133   4.383   0.932
 2666SOL    HW1 8897   5.040   4.415   0.914
 2666SOL    HW2 8898   5.194   4.417   0.861
 2667SOL     OW 8899   2.068   5.897   5.254
 2667SOL    HW1 8900   2.054   5.902   5.353
 2667SOL    HW2 8901   2.151   5.845   5.235
 2668SOL     OW 8902   6.654   3.428   4.789
 2668SOL    HW1 8903   6.732   3.392   4.738
 2668SOL    HW2 8904   6.684   3.503   4.848
 2669SOL     OW 8905   4.378   5.041   5.458
 2669SOL    HW1 8906   4.463   5.005   5.418
 2669SOL    HW2 8907   4.300   4.994   5.418
 2670SOL     OW 8908   0.314   1.012   6.754
 2670SOL    HW1 8909   0.323   0.913   6.746
 2670SOL    HW2 8910   0.288   1.035   6.848
 2671SOL     OW 8911   2.669   3.920   6.697
 2671SOL    HW1 8912   2.652   3.831   6.739
 2671SOL    HW2 8913   2.720   3.978   6.761
 2672SOL     OW 8914   2.004   5.256   0.424
 2672SOL    HW1 8915   1.942   5.217   0.355
 2672SOL    HW2 8916   2.093   5.274   0.382
 2673SOL     OW 8917   4.223   2.197   3.055
 2673SOL    HW1 8918   4.284   2.170   3.130
 2673SOL    HW2 8919   4.129   2.172   3.078
 2674SOL     OW 8920   0.722   5.020   4.606
 2674SOL    HW1 8921   0.704   5.115   4.633
 2674SOL    HW2 8922   0.639   4.966   4.618
 2675SOL     OW 8923   0.148   4.262   5.383
 2675SOL    HW1 8924   0.103   4.192   5.328
 2675SOL    HW2 8925   0.120   4.353   5.350
 2676SOL     OW 8926   4.791   1.317   2.523
 2676SOL    HW1 8927   4.880   1.357   2.545
 2676SOL    HW2 8928   4.733   1.318   2.605
 2677SOL     OW 8929   1.296   4.634   1.789
 2677SOL    HW1 8930   1.354   4.558   1.818
 2677SOL    HW2 8931   1.276   4.626   1.692
 2678SOL     OW 8932   1.550   4.990   6.725
 2678SOL    HW1 8933   1.467   4.990   6.781
 2678SOL    HW2 8934   1.593   4.900   6.729
 2679SOL     OW 8935   3.365   5.119   0.876
 2679SOL    HW1 8936   3.353   5.132   0.974
 2679SOL    HW2 8937   3.432   5.184   0.841
 2680SOL     OW 8938   2.031   1.735   0.592
 2680SOL    HW1 8939   2.036   1.834   0.579
 2680SOL    HW2 8940   1.939   1.711   0.624
 2681SOL     OW 8941   1.155   3.149   4.162
 2681SOL    HW1 8942   1.137   3.214   4.089
 2681SOL    HW2 8943   1.136   3.191   4.251
 2682SOL     OW 8944   5.232   2.923   2.163
 2682SOL    HW1 8945   5.157   2.942   2.099
 2682SOL    HW2 8946   5.199   2.861   2.234
 2683SOL     OW 8947   0.516   5.125   0.966
 2683SOL    HW1 8948   0.506   5.072   0.883
 2683SOL    HW2 8949   0.431   5.121   1.019
 2684SOL     OW 8950   4.024   6.415   2.716
 2684SOL    HW1 8951   4.059   6.440   2.806
 2684SOL    HW2 8952   3.957   6.341   2.725
 2685SOL     OW 8953   5.304   6.234   4.828
 2685SOL    HW1 8954   5.376   6.226   4.897
 2685SOL    HW2 8955   5.334   6.191   4.743
 2686SOL     OW 8956   2.503   2.514   4.391
 2686SOL    HW1 8957   2.534   2.598   4.435
 2686SOL    HW2 8958   2.495   2.528   4.292
 2687SOL     OW 8959   3.869   4.819   2.330
 2687SOL    HW1 8960   3.922   4.863   2.403
 2687SOL    HW2 8961   3.790   4.772   2.370
 2688SOL     OW 8962   4.589   4.877   6.555
 2688SOL    HW1 8963   4.660   4.912   6.616
 2688SOL    HW2 8964   4.592   4.928   6.469
 2689SOL     OW 8965   1.360   2.289   3.358
 2689SOL    HW1 8966   1.420   2.270   3.280
 2689SOL    HW2 8967   1.370   2.385   3.385
 2690SOL     OW 8968   3.633   2.935   3.650
 2690SOL    HW1 8969   3.596   2.931   3.743
 2690SOL    HW2 8970   3.576   2.881   3.589
 2691SOL     OW 8971   1.753   5.240   2.088
 2691SOL    HW1 8972   1.805   5.155   2.085
 2691SOL    HW2 8973   1.704   5.246   2.174
 2692SOL     OW 8974   0.039   5.577   3.896
 2692SOL    HW1 8975   0.080   5.492   3.863
 2692SOL    HW2 8976   0.003   5.563   3.988
 2693SOL     OW 8977   2.153   3.745   3.703
 2693SOL    HW1 8978   2.056   3.718   3.705
 2693SOL    HW2 8979   2.188   3.738   3.609
 2694SOL     OW 8980   3.175   0.244   3.028
 2694SOL    HW1 8981   3.090   0.294   3.008
 2694SOL    HW2 8982   3.168   0.151   2.991
 2695SOL     OW 8983   4.663   1.788   2.523
 2695SOL    HW1 8984   4.709   1.876   2.511
 2695SOL    HW2 8985   4.567   1.804   2.549
 2696SOL     OW 8986   3.585   3.683   5.458
 2696SOL    HW1 8987   3.600   3.586   5.441
 2696SOL    HW2 8988   3.656   3.736   5.413
 2697SOL     OW 8989   4.197   2.295   3.454
 2697SOL    HW1 8990   4.248   2.361   3.510
 2697SOL    HW2 8991   4.150   2.343   3.381
 2698SOL     OW 8992   0.841   4.454   1.031
 2698SOL    HW1 8993   0.810   4.364   1.000
 2698SOL    HW2 8994   0.931   4.473   0.992
 2699SOL     OW 8995   3.719   5.716   0.860
 2699SOL    HW1 8996   3.729   5.677   0.951
 2699SOL    HW2 8997   3.806   5.757   0.832
 2700SOL     OW 8998   1.741   3.671   2.766
 2700SOL    HW1 8999   1.715   3.615   2.686
 2700SOL    HW2 9000   1.734   3.615   2.849
 2701SOL     OW 9001   3.277   0.237   6.596
 2701SOL    HW1 9002   3.302   0.141   6.606
 2701SOL    HW2 9003   3.301   0.287   6.680
 2702SOL     OW 9004   0.024   1.502   2.641
 2702SOL    HW1 9005   0.029   1.434   2.713
 2702SOL    HW2 9006   6.987   1.471   2.570
 2703SOL     OW 9007   2.828   1.986   2.226
 2703SOL    HW1 9008   2.808   2.078   2.259
 2703SOL    HW2 9009   2.743   1.942   2.196
 2704SOL     OW 9010   2.746   5.148   2.094
 2704SOL    HW1 9011   2.841   5.120   2.082
 2704SOL    HW2 9012   2.740   5.215   2.168
 2705SOL     OW 9013   6.567   6.336   3.851
 2705SOL    HW1 9014   6.534   6.412   3.907
 2705SOL    HW2 9015   6.516   6.334   3.765
 2706SOL     OW 9016   6.411   1.535   2.076
 2706SOL    HW1 9017   6.429   1.467   2.147
 2706SOL    HW2 9018   6.354   1.494   2.004
 2707SOL     OW 9019   1.992   1.836   6.608
 2707SOL    HW1 9020   2.037   1.838   6.519
 2707SOL    HW2 9021   2.031   1.906   6.667
 2708SOL     OW 9022   2.457   2.561   1.670
 2708SOL    HW1 9023   2.451   2.582   1.573
 2708SOL    HW2 9024   2.457   2.647   1.722
 2709SOL     OW 9025   5.204   5.776   1.249
 2709SOL    HW1 9026   5.276   5.789   1.318
 2709SOL    HW2 9027   5.159   5.688   1.264
 2710SOL     OW 9028   0.208   3.740   2.676
 2710SOL    HW1 9029   0.233   3.812   2.740
 2710SOL    HW2 9030   0.261   3.657   2.696
 2711SOL     OW 9031   1.429   0.228   1.922
 2711SOL    HW1 9032   1.518   0.270   1.909
 2711SOL    HW2 9033   1.389   0.206   1.833
 2712SOL     OW 9034   2.415   4.542   0.592
 2712SOL    HW1 9035   2.513   4.540   0.610
 2712SOL    HW2 9036   2.389   4.459   0.541
 2713SOL     OW 9037   2.157   3.003   4.998
 2713SOL    HW1 9038   2.250   2.977   5.024
 2713SOL    HW2 9039   2.091   2.951   5.052
 2714SOL     OW 9040   5.193   1.182   6.038
 2714SOL    HW1 9041   5.150   1.196   6.128
 2714SOL    HW2 9042   5.162   1.253   5.975
 2715SOL     OW 9043   5.365   1.544   0.335
 2715SOL    HW1 9044   5.395   1.450   0.348
 2715SOL    HW2 9045   5.369   1.593   0.422
 2716SOL     OW 9046   6.625   5.157   2.107
 2716SOL    HW1 9047   6.724   5.140   2.108
 2716SOL    HW2 9048   6.593   5.171   2.201
 2717SOL     OW 9049   0.779   6.534   2.426
 2717SOL    HW1 9050   0.788   6.547   2.525
 2717SOL    HW2 9051   0.850   6.470   2.395
 2718SOL     OW 9052   1.368   3.399   4.301
 2718SOL    HW1 9053   1.409   3.485   4.270
 2718SOL    HW2 9054   1.401   3.324   4.243
 2719SOL     OW 9055   4.126   5.153   2.607
 2719SOL    HW1 9056   4.050   5.123   2.664
 2719SOL    HW2 9057   4.212   5.138   2.656
 2720SOL     OW 9058   1.836   6.176   3.923
 2720SOL    HW1 9059   1.838   6.209   4.017
 2720SOL    HW2 9060   1.927   6.183   3.883
 2721SOL     OW 9061   2.684   0.190   4.634
 2721SOL    HW1 9062   2.693   0.125   4.559
 2721SOL    HW2 9063   2.659   0.141   4.718
 2722SOL     OW 9064   0.755   5.137   3.073
 2722SOL    HW1 9065   0.675   5.082   3.054
 2722SOL    HW2 9066   0.730   5.234   3.075
 2723SOL     OW 9067   1.987   1.365   5.664
 2723SOL    HW1 9068   2.052   1.387   5.737
 2723SOL    HW2 9069   2.017   1.283   5.616
 2724SOL     OW 9070   3.305   5.696   7.003
 2724SOL    HW1 9071   3.355   5.778   6.974
 2724SOL    HW2 9072   3.296   5.634   6.926
 2725SOL     OW 9073   4.729   4.675   2.847
 2725SOL    HW1 9074   4.673   4.718   2.918
 2725SOL    HW2 9075   4.810   4.634   2.888
 2726SOL     OW 9076   4.734   4.595   1.745
 2726SOL    HW1 9077   4.801   4.667   1.730
 2726SOL    HW2 9078   4.731   4.571   1.842
 2727SOL     OW 9079   0.791   4.580   2.656
 2727SOL    HW1 9080   0.780   4.587   2.557
 2727SOL    HW2 9081   0.701   4.568   2.699
 2728SOL     OW 9082   2.933   6.836   5.126
 2728SOL    HW1 9083   2.834   6.829   5.114
 2728SOL    HW2 9084   2.975   6.746   5.110
 2729SOL     OW 9085   6.566   5.040   3.259
 2729SOL    HW1 9086   6.604   4.956   3.298
 2729SOL    HW2 9087   6.480   5.062   3.305
 2730SOL     OW 9088   2.498   6.637   0.288
 2730SOL    HW1 9089   2.581   6.691   0.285
 2730SOL    HW2 9090   2.476   6.615   0.384
 2731SOL     OW 9091   2.892   4.066   1.614
 2731SOL    HW1 9092   2.856   4.151   1.576
 2731SOL    HW2 9093   2.911   4.078   1.711
 2732SOL     OW 9094   5.996   2.832   2.206
 2732SOL    HW1 9095   5.913   2.884   2.226
 2732SOL    HW2 9096   5.982   2.736   2.230
 2733SOL     OW 9097   0.724   6.795   5.490
 2733SOL    HW1 9098   0.680   6.829   5.573
 2733SOL    HW2 9099   0.798   6.857   5.464
 2734SOL     OW 9100   1.792   6.916   3.688
 2734SOL    HW1 9101   1.833   7.003   3.660
 2734SOL    HW2 9102   1.754   6.925   3.780
 2735SOL     OW 9103   0.994   4.095   2.450
 2735SOL    HW1 9104   1.039   4.143   2.375
 2735SOL    HW2 9105   0.985   4.156   2.529
 2736SOL     OW 9106   4.303   0.163   5.034
 2736SOL    HW1 9107   4.292   0.138   4.938
 2736SOL    HW2 9108   4.271   0.256   5.048
 2737SOL     OW 9109   3.800   3.500   6.143
 2737SOL    HW1 9110   3.838   3.511   6.051
 2737SOL    HW2 9111   3.856   3.436   6.195
 2738SOL     OW 9112   5.041   5.335   3.892
 2738SOL    HW1 9113   4.982   5.312   3.970
 2738SOL    HW2 9114   5.132   5.358   3.925
 2739SOL     OW 9115   5.484   3.951   0.704
 2739SOL    HW1 9116   5.543   3.886   0.656
 2739SOL    HW2 9117   5.474   3.923   0.799
 2740SOL     OW 9118   6.175   2.057   2.724
 2740SOL    HW1 9119   6.167   2.119   2.802
 2740SOL    HW2 9120   6.213   2.107   2.646
 2741SOL     OW 9121   6.995   2.166   5.718
 2741SOL    HW1 9122   6.898   2.147   5.700
 2741SOL    HW2 9123   7.014   2.154   5.816
 2742SOL     OW 9124   1.601   5.778   6.589
 2742SOL    HW1 9125   1.553   5.853   6.543
 2742SOL    HW2 9126   1.559   5.761   6.678
 2743SOL     OW 9127   5.427   5.102   1.436
 2743SOL    HW1 9128   5.354   5.040   1.406
 2743SOL    HW2 9129   5.408   5.134   1.529
 2744SOL     OW 9130   4.169   2.308   6.585
 2744SOL    HW1 9131   4.084   2.292   6.535
 2744SOL    HW2 9132   4.216   2.388   6.547
 2745SOL     OW 9133   2.045   6.097   1.078
 2745SOL    HW1 9134   2.013   6.006   1.104
 2745SOL    HW2 9135   2.049   6.155   1.160
 2746SOL     OW 9136   1.797   1.935   5.243
 2746SOL    HW1 9137   1.887   1.938   5.286
 2746SOL    HW2 9138   1.758   2.028   5.241
 2747SOL     OW 9139   5.917   5.751   4.404
 2747SOL    HW1 9140   5.948   5.662   4.371
 2747SOL    HW2 9141   5.824   5.768   4.373
 2748SOL     OW 9142   4.544   1.359   3.691
 2748SOL    HW1 9143   4.488   1.442   3.687
 2748SOL    HW2 9144   4.633   1.377   3.648
 2749SOL     OW 9145   4.701   4.183   4.359
 2749SOL    HW1 9146   4.636   4.175   4.434
 2749SOL    HW2 9147   4.701   4.099   4.305
 2750SOL     OW 9148   0.507   5.846   2.310
 2750SOL    HW1 9149   0.494   5.785   2.232
 2750SOL    HW2 9150   0.430   5.839   2.372
 2751SOL     OW 9151   2.118   0.050   6.913
 2751SOL    HW1 9152   2.102   0.033   6.815
 2751SOL    HW2 9153   2.051   0.115   6.947
 2752SOL     OW 9154   5.799   6.103   5.290
 2752SOL    HW1 9155   5.892   6.133   5.270
 2752SOL    HW2 9156   5.788   6.091   5.389
 2753SOL     OW 9157   3.790   6.081   6.641
 2753SOL    HW1 9158   3.773   6.067   6.738
 2753SOL    HW2 9159   3.859   6.016   6.609
 2754SOL     OW 9160   0.528   0.080   4.567
 2754SOL    HW1 9161   0.517   7.018   4.518
 2754SOL    HW2 9162   0.570   0.063   4.656
 2755SOL     OW 9163   3.305   6.650   2.555
 2755SOL    HW1 9164   3.221   6.704   2.562
 2755SOL    HW2 9165   3.329   6.614   2.645
 2756SOL     OW 9166   5.919   3.709   5.302
 2756SOL    HW1 9167   5.910   3.632   5.364
 2756SOL    HW2 9168   6.014   3.741   5.301
 2757SOL     OW 9169   4.901   2.161   0.114
 2757SOL    HW1 9170   5.000   2.151   0.105
 2757SOL    HW2 9171   4.858   2.071   0.109
 2758SOL     OW 9172   5.207   4.700   3.217
 2758SOL    HW1 9173   5.119   4.656   3.236
 2758SOL    HW2 9174   5.216   4.782   3.274
 2759SOL     OW 9175   3.309   4.568   6.242
 2759SOL    HW1 9176   3.305   4.581   6.143
 2759SOL    HW2 9177   3.273   4.478   6.265
 2760SOL     OW 9178   5.407   5.536   3.615
 2760SOL    HW1 9179   5.329   5.493   3.570
 2760SOL    HW2 9180   5.488   5.527   3.557
 2761SOL     OW 9181   1.894   3.863   3.023
 2761SOL    HW1 9182   1.888   3.763   3.028
 2761SOL    HW2 9183   1.976   3.889   2.973
 2762SOL     OW 9184   1.845   2.283   6.885
 2762SOL    HW1 9185   1.854   2.271   6.984
 2762SOL    HW2 9186   1.748   2.286   6.861
 2763SOL     OW 9187   4.881   1.270   6.082
 2763SOL    HW1 9188   4.912   1.177   6.103
 2763SOL    HW2 9189   4.924   1.335   6.145
 2764SOL     OW 9190   0.539   3.768   1.914
 2764SOL    HW1 9191   0.561   3.860   1.884
 2764SOL    HW2 9192   0.593   3.702   1.863
 2765SOL     OW 9193   6.171   6.811   0.134
 2765SOL    HW1 9194   6.129   6.720   0.133
 2765SOL    HW2 9195   6.189   6.838   0.229
 2766SOL     OW 9196   5.307   0.958   7.009
 2766SOL    HW1 9197   5.247   0.982   6.932
 2766SOL    HW2 9198   5.299   0.861   0.004
 2767SOL     OW 9199   6.208   5.042   6.153
 2767SOL    HW1 9200   6.142   4.977   6.191
 2767SOL    HW2 9201   6.160   5.124   6.122
 2768SOL     OW 9202   4.794   0.563   0.897
 2768SOL    HW1 9203   4.777   0.647   0.846
 2768SOL    HW2 9204   4.772   0.577   0.993
 2769SOL     OW 9205   1.503   4.325   5.647
 2769SOL    HW1 9206   1.486   4.379   5.565
 2769SOL    HW2 9207   1.434   4.346   5.716
 2770SOL     OW 9208   2.560   6.858   0.004
 2770SOL    HW1 9209   2.652   6.841   0.039
 2770SOL    HW2 9210   2.520   6.773   6.997
 2771SOL     OW 9211   4.713   0.230   4.959
 2771SOL    HW1 9212   4.734   0.138   4.993
 2771SOL    HW2 9213   4.644   0.223   4.887
 2772SOL     OW 9214   4.367   0.743   2.841
 2772SOL    HW1 9215   4.454   0.791   2.851
 2772SOL    HW2 9216   4.363   0.700   2.751
 2773SOL     OW 9217   6.298   3.088   4.364
 2773SOL    HW1 9218   6.262   3.074   4.456
 2773SOL    HW2 9219   6.310   3.000   4.318
 2774SOL     OW 9220   5.276   1.842   3.283
 2774SOL    HW1 9221   5.265   1.939   3.306
 2774SOL    HW2 9222   5.346   1.832   3.213
 2775SOL     OW 9223   0.183   4.360   4.959
 2775SOL    HW1 9224   0.281   4.374   4.974
 2775SOL    HW2 9225   0.164   4.263   4.942
 2776SOL     OW 9226   4.781   4.572   6.101
 2776SOL    HW1 9227   4.737   4.502   6.045
 2776SOL    HW2 9228   4.798   4.653   6.044
 2777SOL     OW 9229   3.213   2.484   5.983
 2777SOL    HW1 9230   3.275   2.407   5.998
 2777SOL    HW2 9231   3.254   2.547   5.918
 2778SOL     OW 9232   2.481   6.287   6.476
 2778SOL    HW1 9233   2.461   6.360   6.542
 2778SOL    HW2 9234   2.458   6.199   6.517
 2779SOL     OW 9235   6.070   6.033   2.279
 2779SOL    HW1 9236   6.090   5.951   2.226
 2779SOL    HW2 9237   6.152   6.061   2.330
 2780SOL     OW 9238   0.438   1.439   6.071
 2780SOL    HW1 9239   0.475   1.533   6.070
 2780SOL    HW2 9240   0.385   1.426   6.154
 2781SOL     OW 9241   6.463   0.432   2.527
 2781SOL    HW1 9242   6.544   0.469   2.481
 2781SOL    HW2 9243   6.482   0.425   2.625
 2782SOL     OW 9244   4.550   1.310   6.800
 2782SOL    HW1 9245   4.545   1.393   6.856
 2782SOL    HW2 9246   4.466   1.300   6.747
 2783SOL     OW 9247   5.281   3.264   1.700
 2783SOL    HW1 9248   5.251   3.311   1.617
 2783SOL    HW2 9249   5.214   3.281   1.773
 2784SOL     OW 9250   1.599   1.705   0.336
 2784SOL    HW1 9251   1.676   1.662   0.289
 2784SOL    HW2 9252   1.590   1.800   0.305
 2785SOL     OW 9253   5.212   3.119   1.363
 2785SOL    HW1 9254   5.165   3.090   1.446
 2785SOL    HW2 9255   5.304   3.080   1.361
 2786SOL     OW 9256   6.885   5.989   0.285
 2786SOL    HW1 9257   6.815   5.934   0.241
 2786SOL    HW2 9258   6.846   6.077   0.314
 2787SOL     OW 9259   6.291   5.333   5.881
 2787SOL    HW1 9260   6.384   5.358   5.852
 2787SOL    HW2 9261   6.252   5.268   5.816
 2788SOL     OW 9262   3.351   6.216   5.792
 2788SOL    HW1 9263   3.353   6.158   5.874
 2788SOL    HW2 9264   3.425   6.282   5.796
 2789SOL     OW 9265   0.572   2.710   4.904
 2789SOL    HW1 9266   0.655   2.654   4.909
 2789SOL    HW2 9267   0.519   2.683   4.824
 2790SOL     OW 9268   2.437   5.564   0.652
 2790SOL    HW1 9269   2.377   5.626   0.602
 2790SOL    HW2 9270   2.532   5.580   0.625
 2791SOL     OW 9271   6.729   3.906   3.343
 2791SOL    HW1 9272   6.641   3.860   3.330
 2791SOL    HW2 9273   6.792   3.844   3.389
 2792SOL     OW 9274   3.455   1.637   5.408
 2792SOL    HW1 9275   3.526   1.641   5.339
 2792SOL    HW2 9276   3.365   1.644   5.365
 2793SOL     OW 9277   3.781   4.481   1.361
 2793SOL    HW1 9278   3.777   4.447   1.455
 2793SOL    HW2 9279   3.852   4.551   1.354
 2794SOL     OW 9280   0.415   1.934   6.027
 2794SOL    HW1 9281   0.347   1.927   6.100
 2794SOL    HW2 9282   0.373   1.973   5.945
 2795SOL     OW 9283   0.979   4.284   1.701
 2795SOL    HW1 9284   1.002   4.212   1.635
 2795SOL    HW2 9285   0.899   4.334   1.668
 2796SOL     OW 9286   0.783   6.025   5.375
 2796SOL    HW1 9287   0.859   5.961   5.378
 2796SOL    HW2 9288   0.708   5.987   5.321
 2797SOL     OW 9289   5.324   0.042   4.213
 2797SOL    HW1 9290   5.232   0.079   4.205
 2797SOL    HW2 9291   5.367   0.038   4.123
 2798SOL     OW 9292   5.865   6.417   2.144
 2798SOL    HW1 9293   5.879   6.511   2.112
 2798SOL    HW2 9294   5.945   6.361   2.122
 2799SOL     OW 9295   3.889   6.063   4.680
 2799SOL    HW1 9296   3.931   6.000   4.616
 2799SOL    HW2 9297   3.825   6.013   4.739
 2800SOL     OW 9298   6.186   1.045   6.710
 2800SOL    HW1 9299   6.190   0.949   6.735
 2800SOL    HW2 9300   6.091   1.073   6.696
 2801SOL     OW 9301   0.747   4.702   5.586
 2801SOL    HW1 9302   0.653   4.709   5.553
 2801SOL    HW2 9303   0.751   4.734   5.681
 2802SOL     OW 9304   6.799   5.743   5.166
 2802SOL    HW1 9305   6.728   5.756   5.097
 2802SOL    HW2 9306   6.862   5.671   5.136
 2803SOL     OW 9307   3.526   3.553   6.373
 2803SOL    HW1 9308   3.538   3.469   6.319
 2803SOL    HW2 9309   3.509   3.528   6.469
 2804SOL     OW 9310   0.467   2.772   3.802
 2804SOL    HW1 9311   0.431   2.699   3.744
 2804SOL    HW2 9312   0.477   2.855   3.748
 2805SOL     OW 9313   4.051   3.431   1.497
 2805SOL    HW1 9314   4.140   3.418   1.454
 2805SOL    HW2 9315   4.017   3.343   1.530
 2806SOL     OW 9316   0.716   4.616   6.109
 2806SOL    HW1 9317   0.804   4.653   6.080
 2806SOL    HW2 9318   0.664   4.587   6.028
 2807SOL     OW 9319   3.154   0.163   3.600
 2807SOL    HW1 9320   3.082   0.114   3.648
 2807SOL    HW2 9321   3.113   0.230   3.537
 2808SOL     OW 9322   6.050   5.236   6.898
 2808SOL    HW1 9323   6.079   5.315   6.952
 2808SOL    HW2 9324   6.054   5.258   6.801
 2809SOL     OW 9325   6.675   4.774   2.069
 2809SOL    HW1 9326   6.616   4.815   2.139
 2809SOL    HW2 9327   6.638   4.684   2.043
 2810SOL     OW 9328   2.391   5.434   3.656
 2810SOL    HW1 9329   2.472   5.376   3.667
 2810SOL    HW2 9330   2.417   5.530   3.669
 2811SOL     OW 9331   1.113   0.935   2.153
 2811SOL    HW1 9332   1.060   0.936   2.068
 2811SOL    HW2 9333   1.059   0.976   2.226
 2812SOL     OW 9334   0.340   3.529   0.782
 2812SOL    HW1 9335   0.241   3.542   0.784
 2812SOL    HW2 9336   0.372   3.534   0.688
 2813SOL     OW 9337   0.541   1.977   1.332
 2813SOL    HW1 9338   0.531   2.024   1.420
 2813SOL    HW2 9339   0.476   2.014   1.266
 2814SOL     OW 9340   2.076   4.238   0.361
 2814SOL    HW1 9341   1.990   4.238   0.411
 2814SOL    HW2 9342   2.148   4.277   0.418
 2815SOL     OW 9343   0.652   5.716   5.578
 2815SOL    HW1 9344   0.732   5.693   5.522
 2815SOL    HW2 9345   0.593   5.636   5.584
 2816SOL     OW 9346   0.375   5.956   5.867
 2816SOL    HW1 9347   0.277   5.939   5.865
 2816SOL    HW2 9348   0.394   6.048   5.834
 2817SOL     OW 9349   4.050   0.495   2.160
 2817SOL    HW1 9350   4.007   0.421   2.211
 2817SOL    HW2 9351   4.149   0.479   2.154
 2818SOL     OW 9352   1.279   0.501   1.407
 2818SOL    HW1 9353   1.257   0.491   1.309
 2818SOL    HW2 9354   1.217   0.443   1.460
 2819SOL     OW 9355   0.665   0.616   0.938
 2819SOL    HW1 9356   0.588   0.571   0.892
 2819SOL    HW2 9357   0.735   0.548   0.961
 2820SOL     OW 9358   1.349   2.647   1.277
 2820SOL    HW1 9359   1.382   2.741   1.281
 2820SOL    HW2 9360   1.308   2.622   1.365
 2821SOL     OW 9361   2.970   4.523   6.376
 2821SOL    HW1 9362   3.004   4.598   6.319
 2821SOL    HW2 9363   2.942   4.558   6.465
 2822SOL     OW 9364   4.567   2.680   0.844
 2822SOL    HW1 9365   4.579   2.689   0.745
 2822SOL    HW2 9366   4.475   2.710   0.870
 2823SOL     OW 9367   4.803   2.068   0.972
 2823SOL    HW1 9368   4.717   2.107   1.003
 2823SOL    HW2 9369   4.792   2.032   0.879
 2824SOL     OW 9370   1.020   3.380   5.507
 2824SOL    HW1 9371   1.052   3.434   5.585
 2824SOL    HW2 9372   1.052   3.421   5.422
 2825SOL     OW 9373   5.374   1.431   6.363
 2825SOL    HW1 9374   5.328   1.473   6.286
 2825SOL    HW2 9375   5.371   1.492   6.442
 2826SOL     OW 9376   1.807   4.091   6.533
 2826SOL    HW1 9377   1.769   4.029   6.601
 2826SOL    HW2 9378   1.737   4.114   6.465
 2827SOL     OW 9379   0.088   0.758   6.527
 2827SOL    HW1 9380   0.018   0.780   6.458
 2827SOL    HW2 9381   0.090   0.659   6.542
 2828SOL     OW 9382   2.081   4.228   0.937
 2828SOL    HW1 9383   2.113   4.295   0.870
 2828SOL    HW2 9384   2.016   4.166   0.894
 2829SOL     OW 9385   4.037   3.820   3.325
 2829SOL    HW1 9386   4.038   3.917   3.349
 2829SOL    HW2 9387   4.043   3.810   3.225
 2830SOL     OW 9388   3.834   5.274   5.835
 2830SOL    HW1 9389   3.805   5.181   5.859
 2830SOL    HW2 9390   3.756   5.326   5.802
 2831SOL     OW 9391   6.381   1.814   1.868
 2831SOL    HW1 9392   6.440   1.736   1.845
 2831SOL    HW2 9393   6.396   1.840   1.963
 2832SOL     OW 9394   0.511   3.294   0.750
 2832SOL    HW1 9395   0.468   3.385   0.741
 2832SOL    HW2 9396   0.448   3.232   0.796
 2833SOL     OW 9397   1.604   2.133   1.512
 2833SOL    HW1 9398   1.521   2.101   1.466
 2833SOL    HW2 9399   1.666   2.172   1.444
 2834SOL     OW 9400   4.137   5.829   5.230
 2834SOL    HW1 9401   4.096   5.815   5.140
 2834SOL    HW2 9402   4.119   5.923   5.260
 2835SOL     OW 9403   0.698   6.699   0.754
 2835SOL    HW1 9404   0.725   6.796   0.755
 2835SOL    HW2 9405   0.689   6.666   0.848
 2836SOL     OW 9406   3.810   6.117   3.461
 2836SOL    HW1 9407   3.721   6.132   3.417
 2836SOL    HW2 9408   3.803   6.038   3.523
 2837SOL     OW 9409   5.337   4.140   2.179
 2837SOL    HW1 9410   5.250   4.150   2.227
 2837SOL    HW2 9411   5.333   4.191   2.093
 2838SOL     OW 9412   5.039   3.644   5.893
 2838SOL    HW1 9413   4.994   3.657   5.804
 2838SOL    HW2 9414   5.043   3.547   5.915
 2839SOL     OW 9415   6.268   2.922   5.261
 2839SOL    HW1 9416   6.229   2.850   5.317
 2839SOL    HW2 9417   6.365   2.934   5.285
 2840SOL     OW 9418   0.564   6.066   2.980
 2840SOL    HW1 9419   0.612   6.116   3.052
 2840SOL    HW2 9420   0.519   5.986   3.019
 2841SOL     OW 9421   5.570   2.726   1.776
 2841SOL    HW1 9422   5.503   2.800   1.773
 2841SOL    HW2 9423   5.662   2.765   1.783
 2842SOL     OW 9424   1.736   6.636   3.251
 2842SOL    HW1 9425   1.826   6.594   3.256
 2842SOL    HW2 9426   1.713   6.654   3.155
 2843SOL     OW 9427   2.192   3.049   3.005
 2843SOL    HW1 9428   2.244   2.992   3.069
 2843SOL    HW2 9429   2.127   3.105   3.057
 2844SOL     OW 9430   4.781   4.421   1.353
 2844SOL    HW1 9431   4.752   4.401   1.259
 2844SOL    HW2 9432   4.855   4.358   1.379
 2845SOL     OW 9433   3.921   2.022   2.890
 2845SOL    HW1 9434   3.933   1.925   2.872
 2845SOL    HW2 9435   3.984   2.051   2.962
 2846SOL     OW 9436   5.093   0.659   0.701
 2846SOL    HW1 9437   4.996   0.661   0.726
 2846SOL    HW2 9438   5.111   0.731   0.634
 2847SOL     OW 9439   5.408   4.215   2.565
 2847SOL    HW1 9440   5.401   4.149   2.490
 2847SOL    HW2 9441   5.411   4.307   2.527
 2848SOL     OW 9442   0.782   3.976   4.862
 2848SOL    HW1 9443   0.796   4.044   4.933
 2848SOL    HW2 9444   0.745   4.020   4.780
 2849SOL     OW 9445   4.368   0.444   2.958
 2849SOL    HW1 9446   4.442   0.387   2.993
 2849SOL    HW2 9447   4.310   0.474   3.033
 2850SOL     OW 9448   2.475   0.263   3.038
 2850SOL    HW1 9449   2.402   0.240   3.103
 2850SOL    HW2 9450   2.543   0.320   3.084
 2851SOL     OW 9451   3.879   3.167   0.903
 2851SOL    HW1 9452   3.940   3.110   0.958
 2851SOL    HW2 9453   3.861   3.253   0.950
 2852SOL     OW 9454   6.223   4.364   5.827
 2852SOL    HW1 9455   6.147   4.385   5.889
 2852SOL    HW2 9456   6.240   4.266   5.828
 2853SOL     OW 9457   0.664   4.034   0.131
 2853SOL    HW1 9458   0.729   3.981   0.077
 2853SOL    HW2 9459   0.712   4.108   0.179
 2854SOL     OW 9460   3.566   1.684   5.863
 2854SOL    HW1 9461   3.548   1.782   5.871
 2854SOL    HW2 9462   3.496   1.642   5.806
 2855SOL     OW 9463   2.050   1.138   4.147
 2855SOL    HW1 9464   2.001   1.103   4.067
 2855SOL    HW2 9465   1.998   1.213   4.188
 2856SOL     OW 9466   1.060   4.486   3.467
 2856SOL    HW1 9467   1.016   4.574   3.451
 2856SOL    HW2 9468   1.042   4.426   3.389
 2857SOL     OW 9469   6.620   3.441   0.542
 2857SOL    HW1 9470   6.666   3.402   0.621
 2857SOL    HW2 9471   6.688   3.469   0.474
 2858SOL     OW 9472   4.890   4.533   3.008
 2858SOL    HW1 9473   4.969   4.472   3.009
 2858SOL    HW2 9474   4.806   4.478   3.013
 2859SOL     OW 9475   5.538   4.705   1.789
 2859SOL    HW1 9476   5.579   4.699   1.698
 2859SOL    HW2 9477   5.574   4.632   1.847
 2860SOL     OW 9478   1.216   6.094   1.223
 2860SOL    HW1 9479   1.286   6.162   1.201
 2860SOL    HW2 9480   1.138   6.139   1.266
 2861SOL     OW 9481   4.400   4.893   6.823
 2861SOL    HW1 9482   4.358   4.877   6.734
 2861SOL    HW2 9483   4.500   4.890   6.813
 2862SOL     OW 9484   4.337   3.039   0.928
 2862SOL    HW1 9485   4.258   3.042   0.867
 2862SOL    HW2 9486   4.359   2.943   0.951
 2863SOL     OW 9487   6.009   0.307   5.264
 2863SOL    HW1 9488   5.950   0.282   5.341
 2863SOL    HW2 9489   6.060   0.227   5.233
 2864SOL     OW 9490   3.982   3.733   0.105
 2864SOL    HW1 9491   3.988   3.707   0.202
 2864SOL    HW2 9492   3.940   3.824   0.098
 2865SOL     OW 9493   5.033   5.942   4.416
 2865SOL    HW1 9494   5.013   5.970   4.322
 2865SOL    HW2 9495   5.131   5.950   4.433
 2866SOL     OW 9496   4.008   4.451   6.968
 2866SOL    HW1 9497   4.102   4.480   6.951
 2866SOL    HW2 9498   3.972   4.405   6.887
 2867SOL     OW 9499   5.857   6.100   1.941
 2867SOL    HW1 9500   5.831   6.177   1.883
 2867SOL    HW2 9501   5.923   6.131   2.010
 2868SOL     OW 9502   1.679   1.404   6.178
 2868SOL    HW1 9503   1.750   1.365   6.120
 2868SOL    HW2 9504   1.613   1.332   6.203
 2869SOL     OW 9505   4.967   5.512   3.689
 2869SOL    HW1 9506   5.000   5.431   3.736
 2869SOL    HW2 9507   4.937   5.487   3.596
 2870SOL     OW 9508   7.017   1.895   1.436
 2870SOL    HW1 9509   6.928   1.856   1.460
 2870SOL    HW2 9510   7.019   1.992   1.459
 2871SOL     OW 9511   5.767   1.829   1.199
 2871SOL    HW1 9512   5.677   1.786   1.205
 2871SOL    HW2 9513   5.833   1.775   1.251
 2872SOL     OW 9514   2.237   1.956   2.245
 2872SOL    HW1 9515   2.276   1.930   2.156
 2872SOL    HW2 9516   2.186   1.880   2.283
 2873SOL     OW 9517   0.651   6.597   1.029
 2873SOL    HW1 9518   0.617   6.662   1.096
 2873SOL    HW2 9519   0.724   6.541   1.069
 2874SOL     OW 9520   1.838   0.914   3.037
 2874SOL    HW1 9521   1.744   0.946   3.043
 2874SOL    HW2 9522   1.883   0.957   2.959
 2875SOL     OW 9523   2.839   6.850   3.183
 2875SOL    HW1 9524   2.838   6.839   3.083
 2875SOL    HW2 9525   2.928   6.886   3.211
 2876SOL     OW 9526   1.204   6.257   1.916
 2876SOL    HW1 9527   1.218   6.272   2.014
 2876SOL    HW2 9528   1.119   6.206   1.901
 2877SOL     OW 9529   1.536   1.010   6.038
 2877SOL    HW1 9530   1.538   1.090   6.099
 2877SOL    HW2 9531   1.477   1.029   5.960
 2878SOL     OW 9532   4.154   3.443   4.777
 2878SOL    HW1 9533   4.068   3.472   4.734
 2878SOL    HW2 9534   4.222   3.425   4.706
 2879SOL     OW 9535   4.415   5.137   6.422
 2879SOL    HW1 9536   4.492   5.086   6.385
 2879SOL    HW2 9537   4.449   5.214   6.476
 2880SOL     OW 9538   1.558   1.216   4.659
 2880SOL    HW1 9539   1.538   1.214   4.561
 2880SOL    HW2 9540   1.642   1.164   4.677
 2881SOL     OW 9541   3.777   6.191   6.914
 2881SOL    HW1 9542   3.785   6.217   7.011
 2881SOL    HW2 9543   3.692   6.226   6.877
 2882SOL     OW 9544   4.503   6.180   0.550
 2882SOL    HW1 9545   4.448   6.205   0.629
 2882SOL    HW2 9546   4.586   6.236   0.548
 2883SOL     OW 9547   6.152   6.217   3.502
 2883SOL    HW1 9548   6.081   6.171   3.554
 2883SOL    HW2 9549   6.133   6.207   3.404
 2884SOL     OW 9550   0.067   5.459   3.078
 2884SOL    HW1 9551   7.023   5.440   3.148
 2884SOL    HW2 9552   0.144   5.396   3.090
 2885SOL     OW 9553   1.087   2.853   2.909
 2885SOL    HW1 9554   1.023   2.916   2.953
 2885SOL    HW2 9555   1.042   2.765   2.894
 2886SOL     OW 9556   2.544   4.604   6.136
 2886SOL    HW1 9557   2.622   4.544   6.154
 2886SOL    HW2 9558   2.470   4.581   6.199
 2887SOL     OW 9559   1.404   5.927   3.471
 2887SOL    HW1 9560   1.437   5.833   3.468
 2887SOL    HW2 9561   1.442   5.979   3.395
 2888SOL     OW 9562   6.186   6.456   0.844
 2888SOL    HW1 9563   6.114   6.420   0.903
 2888SOL    HW2 9564   6.235   6.380   0.800
 2889SOL     OW 9565   3.506   6.350   3.519
 2889SOL    HW1 9566   3.428   6.398   3.561
 2889SOL    HW2 9567   3.591   6.395   3.546
 2890SOL     OW 9568   2.253   0.554   0.973
 2890SOL    HW1 9569   2.170   0.606   0.992
 2890SOL    HW2 9570   2.233   0.456   0.976
 2891SOL     OW 9571   0.499   3.047   3.680
 2891SOL    HW1 9572   0.434   3.114   3.644
 2891SOL    HW2 9573   0.539   3.082   3.765
 2892SOL     OW 9574   6.751   3.548   1.527
 2892SOL    HW1 9575   6.757   3.588   1.618
 2892SOL    HW2 9576   6.693   3.605   1.469
 2893SOL     OW 9577   0.143   5.032   4.341
 2893SOL    HW1 9578   0.213   5.079   4.395
 2893SOL    HW2 9579   0.100   4.962   4.398
 2894SOL     OW 9580   1.288   5.269   2.055
 2894SOL    HW1 9581   1.295   5.170   2.068
 2894SOL    HW2 9582   1.378   5.305   2.030
 2895SOL     OW 9583   4.113   6.447   6.063
 2895SOL    HW1 9584   4.035   6.433   6.001
 2895SOL    HW2 9585   4.197   6.456   6.010
 2896SOL     OW 9586   6.085   6.055   4.993
 2896SOL    HW1 9587   6.091   6.063   5.093
 2896SOL    HW2 9588   6.155   5.991   4.961
 2897SOL     OW 9589   3.953   4.862   2.594
 2897SOL    HW1 9590   3.951   4.912   2.681
 2897SOL    HW2 9591   4.011   4.781   2.604
 2898SOL     OW 9592   5.848   4.161   2.125
 2898SOL    HW1 9593   5.846   4.101   2.205
 2898SOL    HW2 9594   5.943   4.179   2.100
 2899SOL     OW 9595   6.844   3.258   0.774
 2899SOL    HW1 9596   6.943   3.251   0.785
 2899SOL    HW2 9597   6.807   3.166   0.757
 2900SOL     OW 9598   3.102   4.044   0.173
 2900SOL    HW1 9599   3.102   3.944   0.177
 2900SOL    HW2 9600   3.193   4.076   0.147
 2901SOL     OW 9601   1.537   3.787   3.330
 2901SOL    HW1 9602   1.629   3.825   3.344
 2901SOL    HW2 9603   1.538   3.730   3.248
 2902SOL     OW 9604   1.150   5.741   4.092
 2902SOL    HW1 9605   1.108   5.831   4.080
 2902SOL    HW2 9606   1.222   5.746   4.161
 2903SOL     OW 9607   4.171   5.952   1.090
 2903SOL    HW1 9608   4.152   6.026   1.025
 2903SOL    HW2 9609   4.123   5.969   1.176
 2904SOL     OW 9610   2.528   4.485   5.197
 2904SOL    HW1 9611   2.605   4.534   5.158
 2904SOL    HW2 9612   2.443   4.531   5.173
 2905SOL     OW 9613   0.690   4.937   1.821
 2905SOL    HW1 9614   0.627   4.912   1.747
 2905SOL    HW2 9615   0.712   5.034   1.813
 2906SOL     OW 9616   5.974   5.969   3.511
 2906SOL    HW1 9617   6.031   5.988   3.591
 2906SOL    HW2 9618   5.904   5.902   3.536
 2907SOL     OW 9619   1.043   0.503   3.456
 2907SOL    HW1 9620   1.035   0.538   3.362
 2907SOL    HW2 9621   0.952   0.490   3.494
 2908SOL     OW 9622   4.538   6.934   3.145
 2908SOL    HW1 9623   4.452   6.976   3.177
 2908SOL    HW2 9624   4.564   6.974   3.057
 2909SOL     OW 9625   1.163   5.709   2.685
 2909SOL    HW1 9626   1.202   5.683   2.597
 2909SOL    HW2 9627   1.226   5.683   2.758
 2910SOL     OW 9628   0.162   0.230   3.207
 2910SOL    HW1 9629   0.074   0.255   3.247
 2910SOL    HW2 9630   0.234   0.289   3.245
 2911SOL     OW 9631   6.829   3.828   4.480
 2911SOL    HW1 9632   6.809   3.906   4.540
 2911SOL    HW2 9633   6.814   3.743   4.531
 2912SOL     OW 9634   7.004   6.952   0.625
 2912SOL    HW1 9635   0.066   6.903   0.627
 2912SOL    HW2 9636   6.983   6.980   0.532
 2913SOL     OW 9637   2.446   5.891   0.992
 2913SOL    HW1 9638   2.428   5.911   1.088
 2913SOL    HW2 9639   2.458   5.977   0.942
 2914SOL     OW 9640   5.102   4.987   0.502
 2914SOL    HW1 9641   5.189   5.013   0.461
 2914SOL    HW2 9642   5.116   4.912   0.567
 2915SOL     OW 9643   3.034   1.388   3.305
 2915SOL    HW1 9644   2.947   1.434   3.290
 2915SOL    HW2 9645   3.045   1.315   3.238
 2916SOL     OW 9646   1.424   5.890   0.694
 2916SOL    HW1 9647   1.337   5.856   0.659
 2916SOL    HW2 9648   1.407   5.964   0.759
 2917SOL     OW 9649   2.607   6.697   4.059
 2917SOL    HW1 9650   2.632   6.610   4.017
 2917SOL    HW2 9651   2.535   6.741   4.006
 2918SOL     OW 9652   6.243   3.481   1.163
 2918SOL    HW1 9653   6.311   3.538   1.209
 2918SOL    HW2 9654   6.166   3.465   1.223
 2919SOL     OW 9655   1.110   5.797   3.701
 2919SOL    HW1 9656   1.173   5.856   3.750
 2919SOL    HW2 9657   1.138   5.792   3.605
 2920SOL     OW 9658   1.294   2.483   1.593
 2920SOL    HW1 9659   1.274   2.398   1.545
 2920SOL    HW2 9660   1.280   2.471   1.691
 2921SOL     OW 9661   0.374   6.924   5.755
 2921SOL    HW1 9662   0.345   6.838   5.714
 2921SOL    HW2 9663   0.359   6.998   5.690
 2922SOL     OW 9664   3.764   0.758   3.477
 2922SOL    HW1 9665   3.832   0.783   3.408
 2922SOL    HW2 9666   3.805   0.761   3.568
 2923SOL     OW 9667   6.209   4.802   4.522
 2923SOL    HW1 9668   6.155   4.846   4.593
 2923SOL    HW2 9669   6.150   4.775   4.446
 2924SOL     OW 9670   6.522   2.853   5.410
 2924SOL    HW1 9671   6.556   2.783   5.348
 2924SOL    HW2 9672   6.555   2.835   5.503
 2925SOL     OW 9673   5.226   0.206   6.094
 2925SOL    HW1 9674   5.210   0.304   6.101
 2925SOL    HW2 9675   5.214   0.177   5.999
 2926SOL     OW 9676   0.210   1.792   4.750
 2926SOL    HW1 9677   0.309   1.780   4.741
 2926SOL    HW2 9678   0.190   1.835   4.838
 2927SOL     OW 9679   1.376   2.883   1.526
 2927SOL    HW1 9680   1.433   2.964   1.540
 2927SOL    HW2 9681   1.284   2.912   1.499
 2928SOL     OW 9682   6.784   2.285   0.375
 2928SOL    HW1 9683   6.841   2.293   0.457
 2928SOL    HW2 9684   6.803   2.362   0.314
 2929SOL     OW 9685   1.596   2.516   4.779
 2929SOL    HW1 9686   1.525   2.449   4.758
 2929SOL    HW2 9687   1.588   2.594   4.717
 2930SOL     OW 9688   0.834   5.584   5.400
 2930SOL    HW1 9689   0.929   5.552   5.405
 2930SOL    HW2 9690   0.775   5.508   5.372
 2931SOL     OW 9691   4.699   4.367   5.950
 2931SOL    HW1 9692   4.796   4.365   5.929
 2931SOL    HW2 9693   4.671   4.280   5.990
 2932SOL     OW 9694   6.549   5.447   0.318
 2932SOL    HW1 9695   6.544   5.530   0.374
 2932SOL    HW2 9696   6.468   5.390   0.334
 2933SOL     OW 9697   1.320   0.181   0.620
 2933SOL    HW1 9698   1.367   0.267   0.638
 2933SOL    HW2 9699   1.385   0.105   0.623
 2934SOL     OW 9700   4.006   4.506   0.225
 2934SOL    HW1 9701   4.004   4.485   0.127
 2934SOL    HW2 9702   4.093   4.475   0.264
 2935SOL     OW 9703   6.898   2.435   6.208
 2935SOL    HW1 9704   6.875   2.393   6.120
 2935SOL    HW2 9705   6.906   2.364   6.277
 2936SOL     OW 9706   4.556   6.903   1.353
 2936SOL    HW1 9707   4.611   6.964   1.296
 2936SOL    HW2 9708   4.544   6.944   1.444
 2937SOL     OW 9709   4.549   5.625   2.413
 2937SOL    HW1 9710   4.579   5.672   2.496
 2937SOL    HW2 9711   4.590   5.670   2.333
 2938SOL     OW 9712   6.443   5.666   6.631
 2938SOL    HW1 9713   6.464   5.758   6.663
 2938SOL    HW2 9714   6.361   5.632   6.678
 2939SOL     OW 9715   0.197   5.901   1.607
 2939SOL    HW1 9716   0.187   5.805   1.581
 2939SOL    HW2 9717   0.111   5.949   1.592
 2940SOL     OW 9718   4.760   5.522   4.243
 2940SOL    HW1 9719   4.848   5.563   4.218
 2940SOL    HW2 9720   4.687   5.568   4.194
 2941SOL     OW 9721   1.924   3.704   3.976
 2941SOL    HW1 9722   1.844   3.662   4.019
 2941SOL    HW2 9723   1.999   3.638   3.975
 2942SOL     OW 9724   3.931   1.319   0.770
 2942SOL    HW1 9725   3.925   1.240   0.708
 2942SOL    HW2 9726   3.981   1.393   0.725
 2943SOL     OW 9727   5.804   4.375   3.328
 2943SOL    HW1 9728   5.818   4.359   3.426
 2943SOL    HW2 9729   5.893   4.383   3.283
 2944SOL     OW 9730   2.171   5.779   3.658
 2944SOL    HW1 9731   2.136   5.868   3.627
 2944SOL    HW2 9732   2.173   5.715   3.581
 2945SOL     OW 9733   5.023   4.416   1.193
 2945SOL    HW1 9734   5.078   4.411   1.110
 2945SOL    HW2 9735   4.977   4.329   1.208
 2946SOL     OW 9736   3.070   4.210   6.077
 2946SOL    HW1 9737   3.107   4.150   6.006
 2946SOL    HW2 9738   3.121   4.196   6.162
 2947SOL     OW 9739   5.855   6.560   0.593
 2947SOL    HW1 9740   5.928   6.493   0.579
 2947SOL    HW2 9741   5.839   6.574   0.691
 2948SOL     OW 9742   5.919   3.818   2.547
 2948SOL    HW1 9743   5.905   3.852   2.454
 2948SOL    HW2 9744   5.870   3.731   2.559
 2949SOL     OW 9745   1.093   7.003   0.683
 2949SOL    HW1 9746   1.147   0.061   0.679
 2949SOL    HW2 9747   1.055   6.983   0.592
 2950SOL     OW 9748   4.951   4.491   2.519
 2950SOL    HW1 9749   4.891   4.418   2.488
 2950SOL    HW2 9750   4.899   4.576   2.530
 2951SOL     OW 9751   5.850   1.594   1.567
 2951SOL    HW1 9752   5.939   1.596   1.522
 2951SOL    HW2 9753   5.862   1.605   1.666
 2952SOL     OW 9754   5.876   1.434   4.048
 2952SOL    HW1 9755   5.814   1.486   4.107
 2952SOL    HW2 9756   5.941   1.382   4.104
 2953SOL     OW 9757   0.944   5.491   3.377
 2953SOL    HW1 9758   0.969   5.516   3.471
 2953SOL    HW2 9759   1.025   5.457   3.330
 2954SOL     OW 9760   0.050   4.659   6.325
 2954SOL    HW1 9761   7.018   4.656   6.243
 2954SOL    HW2 9762   0.083   4.567   6.346
 2955SOL     OW 9763   2.012   4.098   0.137
 2955SOL    HW1 9764   2.062   4.137   0.214
 2955SOL    HW2 9765   2.061   4.017   0.104
 2956SOL     OW 9766   6.246   4.265   3.277
 2956SOL    HW1 9767   6.157   4.226   3.302
 2956SOL    HW2 9768   6.287   4.306   3.358
 2957SOL     OW 9769   2.670   5.563   2.166
 2957SOL    HW1 9770   2.745   5.625   2.188
 2957SOL    HW2 9771   2.650   5.569   2.068
 2958SOL     OW 9772   2.322   5.119   3.343
 2958SOL    HW1 9773   2.265   5.115   3.261
 2958SOL    HW2 9774   2.418   5.128   3.315
 2959SOL     OW 9775   6.634   2.619   3.058
 2959SOL    HW1 9776   6.629   2.554   3.134
 2959SOL    HW2 9777   6.543   2.630   3.017
 2960SOL     OW 9778   4.765   0.847   0.460
 2960SOL    HW1 9779   4.675   0.871   0.424
 2960SOL    HW2 9780   4.835   0.871   0.393
 2961SOL     OW 9781   5.605   3.908   2.548
 2961SOL    HW1 9782   5.607   3.964   2.466
 2961SOL    HW2 9783   5.560   3.821   2.528
 2962SOL     OW 9784   7.022   6.716   2.106
 2962SOL    HW1 9785   0.005   6.801   2.158
 2962SOL    HW2 9786   6.956   6.730   2.032
 2963SOL     OW 9787   1.884   1.206   4.824
 2963SOL    HW1 9788   1.952   1.218   4.896
 2963SOL    HW2 9789   1.907   1.266   4.747
 2964SOL     OW 9790   0.843   2.397   0.023
 2964SOL    HW1 9791   0.764   2.338   0.005
 2964SOL    HW2 9792   0.830   2.445   0.110
 2965SOL     OW 9793   0.744   0.319   4.575
 2965SOL    HW1 9794   0.725   0.244   4.638
 2965SOL    HW2 9795   0.842   0.338   4.575
 2966SOL     OW 9796   4.355   5.708   3.369
 2966SOL    HW1 9797   4.307   5.775   3.314
 2966SOL    HW2 9798   4.454   5.718   3.356
 2967SOL     OW 9799   6.535   0.613   5.377
 2967SOL    HW1 9800   6.608   0.601   5.444
 2967SOL    HW2 9801   6.561   0.570   5.291
 2968SOL     OW 9802   1.919   2.313   0.828
 2968SOL    HW1 9803   1.949   2.313   0.923
 2968SOL    HW2 9804   1.995   2.341   0.769
 2969SOL     OW 9805   5.301   3.358   4.603
 2969SOL    HW1 9806   5.261   3.363   4.512
 2969SOL    HW2 9807   5.370   3.286   4.605
 2970SOL     OW 9808   2.328   2.518   4.594
 2970SOL    HW1 9809   2.238   2.505   4.551
 2970SOL    HW2 9810   2.399   2.514   4.524
 2971SOL     OW 9811   5.383   3.410   6.507
 2971SOL    HW1 9812   5.480   3.387   6.512
 2971SOL    HW2 9813   5.333   3.355   6.575
 2972SOL     OW 9814   5.338   4.939   6.866
 2972SOL    HW1 9815   5.346   4.840   6.854
 2972SOL    HW2 9816   5.422   4.984   6.835
 2973SOL     OW 9817   5.307   6.918   2.394
 2973SOL    HW1 9818   5.375   6.847   2.374
 2973SOL    HW2 9819   5.219   6.875   2.416
 2974SOL     OW 9820   4.682   5.453   3.406
 2974SOL    HW1 9821   4.776   5.420   3.404
 2974SOL    HW2 9822   4.650   5.468   3.313
 2975SOL     OW 9823   4.816   4.757   4.271
 2975SOL    HW1 9824   4.895   4.700   4.295
 2975SOL    HW2 9825   4.797   4.748   4.174
 2976SOL     OW 9826   4.353   2.298   1.968
 2976SOL    HW1 9827   4.344   2.316   1.870
 2976SOL    HW2 9828   4.263   2.275   2.006
 2977SOL     OW 9829   1.383   0.708   1.738
 2977SOL    HW1 9830   1.321   0.706   1.816
 2977SOL    HW2 9831   1.473   0.673   1.766
 2978SOL     OW 9832   4.544   4.631   6.652
 2978SOL    HW1 9833   4.580   4.639   6.745
 2978SOL    HW2 9834   4.543   4.721   6.609
 2979SOL     OW 9835   3.348   1.296   4.211
 2979SOL    HW1 9836   3.254   1.263   4.207
 2979SOL    HW2 9837   3.376   1.325   4.120
 2980SOL     OW 9838   3.821   4.115   5.598
 2980SOL    HW1 9839   3.825   4.015   5.598
 2980SOL    HW2 9840   3.909   4.152   5.628
 2981SOL     OW 9841   1.507   1.053   0.521
 2981SOL    HW1 9842   1.415   1.091   0.511
 2981SOL    HW2 9843   1.557   1.064   0.435
 2982SOL     OW 9844   0.994   0.998   1.571
 2982SOL    HW1 9845   1.038   0.918   1.529
 2982SOL    HW2 9846   0.900   0.975   1.596
 2983SOL     OW 9847   6.011   2.990   6.552
 2983SOL    HW1 9848   6.095   3.013   6.600
 2983SOL    HW2 9849   5.985   2.896   6.572
 2984SOL     OW 9850   6.966   4.718   0.589
 2984SOL    HW1 9851   6.967   4.791   0.658
 2984SOL    HW2 9852   0.033   4.703   0.554
 2985SOL     OW 9853   0.550   0.521   4.615
 2985SOL    HW1 9854   0.615   0.445   4.603
 2985SOL    HW2 9855   0.526   0.559   4.526
 2986SOL     OW 9856   3.742   4.033   2.757
 2986SOL    HW1 9857   3.757   4.122   2.713
 2986SOL    HW2 9858   3.644   4.011   2.754
 2987SOL     OW 9859   1.536   1.043   4.398
 2987SOL    HW1 9860   1.452   1.090   4.371
 2987SOL    HW2 9861   1.515   0.949   4.426
 2988SOL     OW 9862   0.682   1.671   0.394
 2988SOL    HW1 9863   0.648   1.724   0.316
 2988SOL    HW2 9864   0.756   1.612   0.365
 2989SOL     OW 9865   4.911   3.480   4.560
 2989SOL    HW1 9866   4.915   3.539   4.641
 2989SOL    HW2 9867   4.862   3.528   4.487
 2990SOL     OW 9868   5.115   2.144   4.496
 2990SOL    HW1 9869   5.077   2.059   4.459
 2990SOL    HW2 9870   5.147   2.129   4.590
 2991SOL     OW 9871   5.670   3.379   0.885
 2991SOL    HW1 9872   5.587   3.340   0.846
 2991SOL    HW2 9873   5.650   3.467   0.926
 2992SOL     OW 9874   0.338   3.284   5.534
 2992SOL    HW1 9875   0.340   3.197   5.485
 2992SOL    HW2 9876   0.409   3.344   5.499
 2993SOL     OW 9877   1.198   4.538   0.338
 2993SOL    HW1 9878   1.186   4.587   0.425
 2993SOL    HW2 9879   1.132   4.572   0.271
 2994SOL     OW 9880   5.099   0.072   0.073
 2994SOL    HW1 9881   5.067   0.139   0.140
 2994SOL    HW2 9882   5.133   0.120   7.017
 2995SOL     OW 9883   4.941   6.917   0.872
 2995SOL    HW1 9884   4.951   6.978   0.794
 2995SOL    HW2 9885   5.017   6.932   0.936
 2996SOL     OW 9886   0.500   1.434   4.772
 2996SOL    HW1 9887   0.434   1.370   4.812
 2996SOL    HW2 9888   0.501   1.519   4.825
 2997SOL     OW 9889   5.051   0.649   3.858
 2997SOL    HW1 9890   4.952   0.632   3.856
 2997SOL    HW2 9891   5.095   0.602   3.781
 2998SOL     OW 9892   2.564   1.446   2.498
 2998SOL    HW1 9893   2.520   1.415   2.414
 2998SOL    HW2 9894   2.569   1.546   2.499
 2999SOL     OW 9895   3.033   4.501   0.216
 2999SOL    HW1 9896   2.999   4.420   0.262
 2999SOL    HW2 9897   2.999   4.504   0.122
 3000SOL     OW 9898   3.077   3.669   5.192
 3000SOL    HW1 9899   3.031   3.591   5.235
 3000SOL    HW2 9900   3.145   3.635   5.127
 3001SOL     OW 9901   6.591   1.178   5.951
 3001SOL    HW1 9902   6.608   1.248   5.882
 3001SOL    HW2 9903   6.492   1.163   5.959
 3002SOL     OW 9904   2.260   1.251   1.601
 3002SOL    HW1 9905   2.347   1.295   1.578
 3002SOL    HW2 9906   2.230   1.195   1.523
 3003SOL     OW 9907   1.446   6.176   0.181
 3003SOL    HW1 9908   1.463   6.078   0.177
 3003SOL    HW2 9909   1.347   6.192   0.176
 3004SOL     OW 9910   2.803   5.809   4.130
 3004SOL    HW1 9911   2.778   5.753   4.051
 3004SOL    HW2 9912   2.723   5.825   4.187
 3005SOL     OW 9913   0.846   2.386   5.296
 3005SOL    HW1 9914   0.773   2.391   5.227
 3005SOL    HW2 9915   0.916   2.455   5.275
 3006SOL     OW 9916   5.683   1.508   5.128
 3006SOL    HW1 9917   5.700   1.479   5.034
 3006SOL    HW2 9918   5.612   1.578   5.129
 3007SOL     OW 9919   5.090   4.250   6.792
 3007SOL    HW1 9920   5.051   4.158   6.799
 3007SOL    HW2 9921   5.028   4.309   6.741
 3008SOL     OW 9922   4.794   2.364   5.650
 3008SOL    HW1 9923   4.868   2.431   5.643
 3008SOL    HW2 9924   4.823   2.278   5.609
 3009SOL     OW 9925   0.748   3.010   2.662
 3009SOL    HW1 9926   0.690   3.030   2.741
 3009SOL    HW2 9927   0.692   2.977   2.587
 3010SOL     OW 9928   4.316   6.039   6.188
 3010SOL    HW1 9929   4.257   6.043   6.107
 3010SOL    HW2 9930   4.285   5.967   6.249
 3011SOL     OW 9931   6.168   0.336   0.908
 3011SOL    HW1 9932   6.135   0.251   0.866
 3011SOL    HW2 9933   6.226   0.313   0.987
 3012SOL     OW 9934   2.745   2.957   6.066
 3012SOL    HW1 9935   2.731   2.898   5.986
 3012SOL    HW2 9936   2.762   3.051   6.035
 3013SOL     OW 9937   0.653   6.159   4.631
 3013SOL    HW1 9938   0.625   6.230   4.696
 3013SOL    HW2 9939   0.722   6.195   4.569
 3014SOL     OW 9940   4.768   0.446   5.604
 3014SOL    HW1 9941   4.819   0.368   5.639
 3014SOL    HW2 9942   4.832   0.512   5.563
 3015SOL     OW 9943   1.204   1.425   0.132
 3015SOL    HW1 9944   1.190   1.358   0.059
 3015SOL    HW2 9945   1.280   1.395   0.190
 3016SOL     OW 9946   2.409   6.263   4.853
 3016SOL    HW1 9947   2.499   6.228   4.877
 3016SOL    HW2 9948   2.404   6.279   4.755
 3017SOL     OW 9949   6.822   5.822   1.612
 3017SOL    HW1 9950   6.778   5.800   1.525
 3017SOL    HW2 9951   6.752   5.849   1.678
 3018SOL     OW 9952   3.882   6.973   0.115
 3018SOL    HW1 9953   3.847   6.881   0.131
 3018SOL    HW2 9954   3.807   0.013   0.123
 3019SOL     OW 9955   1.554   0.609   5.263
 3019SOL    HW1 9956   1.570   0.529   5.205
 3019SOL    HW2 9957   1.456   0.628   5.266
 3020SOL     OW 9958   4.855   3.797   0.070
 3020SOL    HW1 9959   4.770   3.751   0.044
 3020SOL    HW2 9960   4.874   3.779   0.167
 3021SOL     OW 9961   3.922   6.364   5.056
 3021SOL    HW1 9962   3.853   6.419   5.010
 3021SOL    HW2 9963   3.879   6.287   5.103
 3022SOL     OW 9964   4.402   5.595   3.819
 3022SOL    HW1 9965   4.426   5.691   3.803
 3022SOL    HW2 9966   4.468   5.536   3.774
 3023SOL     OW 9967   4.066   6.682   3.175
 3023SOL    HW1 9968   4.162   6.670   3.198
 3023SOL    HW2 9969   4.037   6.775   3.197
 3024SOL     OW 9970   0.265   6.418   6.604
 3024SOL    HW1 9971   0.221   6.485   6.665
 3024SOL    HW2 9972   0.361   6.407   6.629
 3025SOL     OW 9973   3.441   6.265   0.576
 3025SOL    HW1 9974   3.471   6.266   0.481
 3025SOL    HW2 9975   3.353   6.311   0.584
 3026SOL     OW 9976   6.104   1.247   0.296
 3026SOL    HW1 9977   6.156   1.285   0.372
 3026SOL    HW2 9978   6.153   1.168   0.259
 3027SOL     OW 9979   5.036   1.704   1.337
 3027SOL    HW1 9980   5.032   1.803   1.351
 3027SOL    HW2 9981   4.984   1.658   1.409
 3028SOL     OW 9982   2.536   4.660   5.869
 3028SOL    HW1 9983   2.544   4.662   5.969
 3028SOL    HW2 9984   2.465   4.594   5.843
 3029SOL     OW 9985   0.889   2.395   3.956
 3029SOL    HW1 9986   0.849   2.303   3.951
 3029SOL    HW2 9987   0.818   2.463   3.934
 3030SOL     OW 9988   2.167   3.093   0.530
 3030SOL    HW1 9989   2.077   3.092   0.572
 3030SOL    HW2 9990   2.219   3.172   0.564
 3031SOL     OW 9991   1.032   6.392   1.379
 3031SOL    HW1 9992   1.048   6.368   1.474
 3031SOL    HW2 9993   0.954   6.339   1.344
 3032SOL     OW 9994   1.822   0.151   2.786
 3032SOL    HW1 9995   1.822   0.223   2.856
 3032SOL    HW2 9996   1.855   0.189   2.700
 3033SOL     OW 9997   6.708   2.146   4.266
 3033SOL    HW1 9998   6.695   2.220   4.332
 3033SOL    HW2 9999   6.646   2.159   4.189
 3034SOL     OW10000   0.273   5.805   3.600
 3034SOL    HW110001   0.332   5.875   3.639
 3034SOL    HW210002   0.323   5.758   3.527
 3035SOL     OW10003   0.990   2.726   6.171
 3035SOL    HW110004   0.965   2.758   6.262
 3035SOL    HW210005   1.081   2.759   6.147
 3036SOL     OW10006   3.102   2.344   6.314
 3036SOL    HW110007   3.065   2.435   6.330
 3036SOL    HW210008   3.202   2.348   6.308
 3037SOL     OW10009   0.228   5.352   6.879
 3037SOL    HW110010   0.195   5.400   6.798
 3037SOL    HW210011   0.161   5.282   6.905
 3038SOL     OW10012   5.248   4.162   6.552
 3038SOL    HW110013   5.214   4.199   6.638
 3038SOL    HW210014   5.328   4.214   6.522
 3039SOL     OW10015   6.591   4.107   0.272
 3039SOL    HW110016   6.497   4.087   0.244
 3039SOL    HW210017   6.597   4.202   0.303
 3040SOL     OW10018   4.245   4.129   5.945
 3040SOL    HW110019   4.209   4.218   5.973
 3040SOL    HW210020   4.297   4.089   6.020
 3041SOL     OW10021   2.224   4.283   4.937
 3041SOL    HW110022   2.258   4.189   4.950
 3041SOL    HW210023   2.145   4.298   4.996
 3042SOL     OW10024   0.231   5.030   3.113
 3042SOL    HW110025   0.136   5.062   3.104
 3042SOL    HW210026   0.288   5.075   3.045
 3043SOL     OW10027   3.437   4.792   0.866
 3043SOL    HW110028   3.453   4.768   0.770
 3043SOL    HW210029   3.411   4.888   0.872
 3044SOL     OW10030   3.353   3.136   5.307
 3044SOL    HW110031   3.255   3.128   5.287
 3044SOL    HW210032   3.405   3.097   5.231
 3045SOL     OW10033   4.625   1.114   2.033
 3045SOL    HW110034   4.560   1.059   1.981
 3045SOL    HW210035   4.579   1.197   2.067
 3046SOL     OW10036   5.374   5.556   0.807
 3046SOL    HW110037   5.460   5.519   0.845
 3046SOL    HW210038   5.373   5.655   0.819
 3047SOL     OW10039   6.327   0.438   5.935
 3047SOL    HW110040   6.284   0.504   5.996
 3047SOL    HW210041   6.273   0.429   5.852
 3048SOL     OW10042   3.659   3.332   0.923
 3048SOL    HW110043   3.620   3.240   0.930
 3048SOL    HW210044   3.642   3.368   0.831
 3049SOL     OW10045   1.213   0.895   4.280
 3049SOL    HW110046   1.126   0.937   4.255
 3049SOL    HW210047   1.206   0.796   4.271
 3050SOL     OW10048   2.838   2.642   1.209
 3050SOL    HW110049   2.926   2.595   1.219
 3050SOL    HW210050   2.769   2.594   1.263
 3051SOL     OW10051   2.380   6.470   5.331
 3051SOL    HW110052   2.320   6.520   5.394
 3051SOL    HW210053   2.371   6.372   5.348
 3052SOL     OW10054   6.341   6.194   2.237
 3052SOL    HW110055   6.408   6.266   2.222
 3052SOL    HW210056   6.365   6.114   2.182
 3053SOL     OW10057   1.456   4.529   0.466
 3053SOL    HW110058   1.379   4.564   0.412
 3053SOL    HW210059   1.542   4.550   0.419
 3054SOL     OW10060   5.291   1.671   2.601
 3054SOL    HW110061   5.296   1.584   2.553
 3054SOL    HW210062   5.222   1.666   2.673
 3055SOL     OW10063   6.117   5.693   6.188
 3055SOL    HW110064   6.144   5.627   6.259
 3055SOL    HW210065   6.194   5.706   6.125
 3056SOL     OW10066   4.907   1.369   6.396
 3056SOL    HW110067   4.866   1.444   6.447
 3056SOL    HW210068   4.848   1.288   6.400
 3057SOL     OW10069   6.289   5.529   2.965
 3057SOL    HW110070   6.344   5.612   2.956
 3057SOL    HW210071   6.337   5.465   3.025
 3058SOL     OW10072   6.752   4.594   6.916
 3058SOL    HW110073   6.843   4.621   6.885
 3058SOL    HW210074   6.759   4.519   6.982
 3059SOL     OW10075   2.071   2.451   4.475
 3059SOL    HW110076   2.006   2.396   4.528
 3059SOL    HW210077   2.021   2.509   4.411
 3060SOL     OW10078   4.825   5.326   5.487
 3060SOL    HW110079   4.771   5.402   5.452
 3060SOL    HW210080   4.788   5.240   5.453
 3061SOL     OW10081   5.823   5.193   4.843
 3061SOL    HW110082   5.869   5.128   4.903
 3061SOL    HW210083   5.891   5.250   4.797
 3062SOL     OW10084   5.021   4.058   2.146
 3062SOL    HW110085   4.996   4.043   2.050
 3062SOL    HW210086   4.985   3.984   2.202
 3063SOL     OW10087   0.398   4.343   1.583
 3063SOL    HW110088   0.382   4.345   1.484
 3063SOL    HW210089   0.333   4.281   1.626
 3064SOL     OW10090   4.545   1.830   6.625
 3064SOL    HW110091   4.519   1.927   6.629
 3064SOL    HW210092   4.535   1.798   6.531
 3065SOL     OW10093   0.687   1.028   6.521
 3065SOL    HW110094   0.704   1.000   6.427
 3065SOL    HW210095   0.712   0.954   6.583
 3066SOL     OW10096   5.312   5.978   5.858
 3066SOL    HW110097   5.318   5.939   5.766
 3066SOL    HW210098   5.332   6.076   5.853
 3067SOL     OW10099   2.177   2.494   6.262
 3067SOL    HW110100   2.203   2.590   6.251
 3067SOL    HW210101   2.201   2.463   6.355
 3068SOL     OW10102   0.799   1.138   1.088
 3068SOL    HW110103   0.739   1.208   1.048
 3068SOL    HW210104   0.770   1.048   1.058
 3069SOL     OW10105   4.897   0.250   3.080
 3069SOL    HW110106   4.819   0.276   3.137
 3069SOL    HW210107   4.906   0.151   3.078
 3070SOL     OW10108   2.775   1.449   1.130
 3070SOL    HW110109   2.783   1.548   1.137
 3070SOL    HW210110   2.812   1.419   1.041
 3071SOL     OW10111   6.928   2.875   3.513
 3071SOL    HW110112   6.935   2.823   3.598
 3071SOL    HW210113   6.896   2.968   3.534
 3072SOL     OW10114   1.975   6.841   6.407
 3072SOL    HW110115   2.020   6.819   6.320
 3072SOL    HW210116   1.980   6.763   6.469
 3073SOL     OW10117   6.082   4.885   0.294
 3073SOL    HW110118   6.019   4.878   0.372
 3073SOL    HW210119   6.029   4.888   0.209
 3074SOL     OW10120   2.090   3.149   1.006
 3074SOL    HW110121   2.103   3.053   0.981
 3074SOL    HW210122   2.146   3.171   1.086
 3075SOL     OW10123   2.078   5.450   3.116
 3075SOL    HW110124   1.992   5.452   3.167
 3075SOL    HW210125   2.152   5.417   3.175
 3076SOL     OW10126   7.005   0.456   4.631
 3076SOL    HW110127   6.953   0.414   4.705
 3076SOL    HW210128   0.068   0.488   4.666
 3077SOL     OW10129   6.551   4.078   1.866
 3077SOL    HW110130   6.595   4.084   1.776
 3077SOL    HW210131   6.462   4.033   1.856
 3078SOL     OW10132   6.506   3.268   1.698
 3078SOL    HW110133   6.466   3.240   1.611
 3078SOL    HW210134   6.452   3.342   1.737
 3079SOL     OW10135   2.443   3.270   5.349
 3079SOL    HW110136   2.526   3.293   5.399
 3079SOL    HW210137   2.458   3.186   5.296
 3080SOL     OW10138   4.254   5.278   1.080
 3080SOL    HW110139   4.154   5.277   1.093
 3080SOL    HW210140   4.296   5.336   1.151
 3081SOL     OW10141   2.166   4.361   0.700
 3081SOL    HW110142   2.246   4.321   0.656
 3081SOL    HW210143   2.121   4.423   0.636
 3082SOL     OW10144   4.005   4.837   4.631
 3082SOL    HW110145   4.066   4.761   4.608
 3082SOL    HW210146   4.059   4.917   4.655
 3083SOL     OW10147   2.463   5.803   2.704
 3083SOL    HW110148   2.372   5.842   2.716
 3083SOL    HW210149   2.532   5.874   2.719
 3084SOL     OW10150   0.644   3.092   3.915
 3084SOL    HW110151   0.718   3.157   3.929
 3084SOL    HW210152   0.584   3.093   3.996
 3085SOL     OW10153   4.750   4.714   0.891
 3085SOL    HW110154   4.843   4.749   0.881
 3085SOL    HW210155   4.706   4.758   0.969
 3086SOL     OW10156   6.323   1.268   6.643
 3086SOL    HW110157   6.264   1.191   6.665
 3086SOL    HW210158   6.303   1.344   6.705
 3087SOL     OW10159   2.856   6.911   2.282
 3087SOL    HW110160   2.762   6.876   2.276
 3087SOL    HW210161   2.855   7.011   2.271
 3088SOL     OW10162   1.233   2.558   5.346
 3088SOL    HW110163   1.316   2.524   5.389
 3088SOL    HW210164   1.227   2.657   5.358
 3089SOL     OW10165   5.014   6.858   5.244
 3089SOL    HW110166   5.073   6.784   5.213
 3089SOL    HW210167   4.986   6.841   5.339
 3090SOL     OW10168   1.528   2.655   1.560
 3090SOL    HW110169   1.480   2.571   1.586
 3090SOL    HW210170   1.464   2.732   1.560
 3091SOL     OW10171   1.157   2.225   0.558
 3091SOL    HW110172   1.114   2.250   0.471
 3091SOL    HW210173   1.093   2.174   0.615
 3092SOL     OW10174   6.867   6.916   2.468
 3092SOL    HW110175   6.791   6.858   2.441
 3092SOL    HW210176   6.943   6.860   2.501
 3093SOL     OW10177   5.082   5.015   7.011
 3093SOL    HW110178   5.151   4.984   6.946
 3093SOL    HW210179   5.095   4.969   0.073
 3094SOL     OW10180   2.694   1.607   6.134
 3094SOL    HW110181   2.792   1.601   6.114
 3094SOL    HW210182   2.651   1.675   6.074
 3095SOL     OW10183   1.995   3.466   5.490
 3095SOL    HW110184   2.043   3.385   5.454
 3095SOL    HW210185   1.997   3.538   5.421
 3096SOL     OW10186   0.557   4.001   4.668
 3096SOL    HW110187   0.549   3.916   4.616
 3096SOL    HW210188   0.476   4.058   4.653
 3097SOL     OW10189   5.566   2.321   6.642
 3097SOL    HW110190   5.595   2.243   6.699
 3097SOL    HW210191   5.640   2.345   6.579
 3098SOL     OW10192   2.110   2.201   2.221
 3098SOL    HW110193   2.143   2.107   2.218
 3098SOL    HW210194   2.043   2.215   2.147
 3099SOL     OW10195   0.235   6.234   3.730
 3099SOL    HW110196   0.270   6.324   3.706
 3099SOL    HW210197   0.192   6.238   3.820
 3100SOL     OW10198   6.838   5.381   2.072
 3100SOL    HW110199   6.827   5.458   2.135
 3100SOL    HW210200   6.875   5.303   2.121
 3101SOL     OW10201   4.068   6.045   5.607
 3101SOL    HW110202   4.075   6.017   5.511
 3101SOL    HW210203   3.975   6.030   5.640
 3102SOL     OW10204   0.283   4.797   0.804
 3102SOL    HW110205   0.287   4.812   0.902
 3102SOL    HW210206   0.204   4.843   0.766
 3103SOL     OW10207   3.482   0.425   1.260
 3103SOL    HW110208   3.434   0.498   1.309
 3103SOL    HW210209   3.470   0.438   1.162
 3104SOL     OW10210   4.443   0.421   6.053
 3104SOL    HW110211   4.495   0.428   6.138
 3104SOL    HW210212   4.345   0.417   6.074
 3105SOL     OW10213   5.081   3.357   0.245
 3105SOL    HW110214   5.135   3.407   0.178
 3105SOL    HW210215   4.984   3.364   0.223
 3106SOL     OW10216   5.797   0.508   4.894
 3106SOL    HW110217   5.762   0.508   4.800
 3106SOL    HW210218   5.844   0.422   4.912
 3107SOL     OW10219   3.833   1.005   6.144
 3107SOL    HW110220   3.739   1.015   6.113
 3107SOL    HW210221   3.868   1.094   6.174
 3108SOL     OW10222   1.915   4.433   4.329
 3108SOL    HW110223   1.960   4.399   4.411
 3108SOL    HW210224   1.963   4.514   4.296
 3109SOL     OW10225   6.830   6.483   3.700
 3109SOL    HW110226   6.753   6.443   3.750
 3109SOL    HW210227   6.853   6.424   3.623
 3110SOL     OW10228   2.164   4.662   3.938
 3110SOL    HW110229   2.240   4.646   3.875
 3110SOL    HW210230   2.192   4.726   4.010
 3111SOL     OW10231   6.309   4.511   4.753
 3111SOL    HW110232   6.395   4.558   4.729
 3111SOL    HW210233   6.306   4.497   4.852
 3112SOL     OW10234   3.323   2.044   7.022
 3112SOL    HW110235   3.289   1.966   6.971
 3112SOL    HW210236   3.301   2.034   0.094
 3113SOL     OW10237   1.744   4.994   3.119
 3113SOL    HW110238   1.828   4.989   3.065
 3113SOL    HW210239   1.725   5.089   3.142
 3114SOL     OW10240   4.309   0.869   6.956
 3114SOL    HW110241   4.380   0.832   7.016
 3114SOL    HW210242   4.344   0.950   6.910
 3115SOL     OW10243   4.150   4.889   5.369
 3115SOL    HW110244   4.106   4.847   5.448
 3115SOL    HW210245   4.090   4.959   5.331
 3116SOL     OW10246   0.279   2.299   0.769
 3116SOL    HW110247   0.266   2.200   0.766
 3116SOL    HW210248   0.371   2.320   0.802
 3117SOL     OW10249   5.236   1.505   5.295
 3117SOL    HW110250   5.307   1.434   5.298
 3117SOL    HW210251   5.255   1.573   5.365
 3118SOL     OW10252   1.923   1.325   2.842
 3118SOL    HW110253   1.992   1.335   2.914
 3118SOL    HW210254   1.961   1.272   2.766
 3119SOL     OW10255   4.044   3.946   5.957
 3119SOL    HW110256   4.133   3.991   5.950
 3119SOL    HW210257   4.051   3.867   6.017
 3120SOL     OW10258   1.999   6.572   4.823
 3120SOL    HW110259   2.095   6.545   4.832
 3120SOL    HW210260   1.991   6.671   4.834
 3121SOL     OW10261   4.856   1.167   4.214
 3121SOL    HW110262   4.837   1.185   4.311
 3121SOL    HW210263   4.953   1.148   4.203
 3122SOL     OW10264   4.448   4.928   4.570
 3122SOL    HW110265   4.545   4.936   4.591
 3122SOL    HW210266   4.418   5.010   4.520
 3123SOL     OW10267   2.401   2.077   3.370
 3123SOL    HW110268   2.326   2.082   3.436
 3123SOL    HW210269   2.481   2.036   3.414
 3124SOL     OW10270   4.819   0.026   4.147
 3124SOL    HW110271   4.888   0.017   4.219
 3124SOL    HW210272   4.779   0.117   4.149
 3125SOL     OW10273   1.678   2.178   5.349
 3125SOL    HW110274   1.708   2.271   5.326
 3125SOL    HW210275   1.579   2.176   5.357
 3126SOL     OW10276   5.597   5.149   4.291
 3126SOL    HW110277   5.629   5.144   4.385
 3126SOL    HW210278   5.585   5.057   4.254
 3127SOL     OW10279   7.018   1.226   4.472
 3127SOL    HW110280   0.032   1.297   4.531
 3127SOL    HW210281   0.043   1.141   4.486
 3128SOL     OW10282   4.478   0.586   0.355
 3128SOL    HW110283   4.500   0.611   0.449
 3128SOL    HW210284   4.413   0.510   0.354
 3129SOL     OW10285   4.815   3.533   1.047
 3129SOL    HW110286   4.914   3.529   1.063
 3129SOL    HW210287   4.777   3.610   1.097
 3130SOL     OW10288   1.081   4.421   1.470
 3130SOL    HW110289   1.076   4.517   1.443
 3130SOL    HW210290   1.087   4.415   1.570
 3131SOL     OW10291   6.742   4.013   2.255
 3131SOL    HW110292   6.842   4.017   2.256
 3131SOL    HW210293   6.710   3.967   2.337
 3132SOL     OW10294   4.078   4.812   0.016
 3132SOL    HW110295   4.044   4.844   6.953
 3132SOL    HW210296   4.113   4.719   0.007
 3133SOL     OW10297   4.167   0.911   3.785
 3133SOL    HW110298   4.255   0.885   3.745
 3133SOL    HW210299   4.164   0.882   3.880
 3134SOL     OW10300   3.843   5.237   2.435
 3134SOL    HW110301   3.846   5.204   2.341
 3134SOL    HW210302   3.777   5.183   2.487
 3135SOL     OW10303   5.509   6.698   6.096
 3135SOL    HW110304   5.547   6.788   6.118
 3135SOL    HW210305   5.525   6.678   5.999
 3136SOL     OW10306   5.938   1.102   2.470
 3136SOL    HW110307   5.937   1.020   2.413
 3136SOL    HW210308   5.851   1.108   2.520
 3137SOL     OW10309   6.502   6.840   6.943
 3137SOL    HW110310   6.451   6.776   7.000
 3137SOL    HW210311   6.535   6.793   6.862
 3138SOL     OW10312   5.681   5.082   3.817
 3138SOL    HW110313   5.748   5.116   3.883
 3138SOL    HW210314   5.728   5.063   3.730
 3139SOL     OW10315   2.471   5.230   1.056
 3139SOL    HW110316   2.535   5.271   0.990
 3139SOL    HW210317   2.395   5.188   1.006
 3140SOL     OW10318   6.728   6.387   5.611
 3140SOL    HW110319   6.765   6.328   5.683
 3140SOL    HW210320   6.630   6.399   5.624
 3141SOL     OW10321   6.343   2.464   6.894
 3141SOL    HW110322   6.346   2.511   6.982
 3141SOL    HW210323   6.350   2.366   6.907
 3142SOL     OW10324   5.696   0.665   2.390
 3142SOL    HW110325   5.601   0.646   2.415
 3142SOL    HW210326   5.730   0.593   2.329
 3143SOL     OW10327   6.259   1.465   0.128
 3143SOL    HW110328   6.276   1.528   0.052
 3143SOL    HW210329   6.261   1.371   0.095
 3144SOL     OW10330   4.231   4.009   6.223
 3144SOL    HW110331   4.315   3.975   6.263
 3144SOL    HW210332   4.156   3.946   6.245
 3145SOL     OW10333   0.961   5.726   1.303
 3145SOL    HW110334   0.880   5.783   1.290
 3145SOL    HW210335   1.036   5.760   1.246
 3146SOL     OW10336   0.457   0.796   4.877
 3146SOL    HW110337   0.540   0.828   4.831
 3146SOL    HW210338   0.481   0.764   4.969
 3147SOL     OW10339   3.972   5.032   6.528
 3147SOL    HW110340   3.989   4.938   6.498
 3147SOL    HW210341   4.059   5.074   6.556
 3148SOL     OW10342   0.621   5.680   2.960
 3148SOL    HW110343   0.703   5.737   2.962
 3148SOL    HW210344   0.565   5.707   2.881
 3149SOL     OW10345   2.934   1.247   0.936
 3149SOL    HW110346   2.918   1.148   0.934
 3149SOL    HW210347   2.988   1.270   1.016
 3150SOL     OW10348   6.964   6.303   5.239
 3150SOL    HW110349   6.895   6.280   5.308
 3150SOL    HW210350   6.963   6.233   5.167
 3151SOL     OW10351   5.742   1.759   6.277
 3151SOL    HW110352   5.816   1.717   6.330
 3151SOL    HW210353   5.767   1.758   6.180
 3152SOL     OW10354   1.423   3.123   6.309
 3152SOL    HW110355   1.434   3.165   6.399
 3152SOL    HW210356   1.348   3.057   6.311
 3153SOL     OW10357   6.499   5.189   0.694
 3153SOL    HW110358   6.490   5.139   0.780
 3153SOL    HW210359   6.595   5.200   0.671
 3154SOL     OW10360   5.376   1.175   1.427
 3154SOL    HW110361   5.290   1.221   1.451
 3154SOL    HW210362   5.449   1.205   1.489
 3155SOL     OW10363   0.455   4.621   0.705
 3155SOL    HW110364   0.412   4.533   0.724
 3155SOL    HW210365   0.394   4.695   0.735
 3156SOL     OW10366   3.593   4.154   2.021
 3156SOL    HW110367   3.686   4.118   2.024
 3156SOL    HW210368   3.592   4.239   1.968
 3157SOL     OW10369   0.661   1.897   5.252
 3157SOL    HW110370   0.727   1.873   5.181
 3157SOL    HW210371   0.710   1.913   5.338
 3158SOL     OW10372   2.899   1.591   5.600
 3158SOL    HW110373   2.804   1.570   5.578
 3158SOL    HW210374   2.905   1.683   5.637
 3159SOL     OW10375   5.577   0.002   0.383
 3159SOL    HW110376   5.500   0.066   0.388
 3159SOL    HW210377   5.546   6.937   0.415
 3160SOL     OW10378   2.358   0.173   6.006
 3160SOL    HW110379   2.308   0.167   5.920
 3160SOL    HW210380   2.314   0.114   6.075
 3161SOL     OW10381   2.074   2.717   3.256
 3161SOL    HW110382   2.168   2.750   3.244
 3161SOL    HW210383   2.017   2.752   3.181
 3162SOL     OW10384   2.032   5.488   0.633
 3162SOL    HW110385   2.065   5.394   0.625
 3162SOL    HW210386   1.963   5.493   0.706
 3163SOL     OW10387   4.104   3.985   0.521
 3163SOL    HW110388   4.157   4.067   0.499
 3163SOL    HW210389   4.160   3.904   0.504
 3164SOL     OW10390   2.859   6.057   3.532
 3164SOL    HW110391   2.903   6.145   3.547
 3164SOL    HW210392   2.918   5.984   3.564
 3165SOL     OW10393   1.158   5.864   0.589
 3165SOL    HW110394   1.133   5.946   0.539
 3165SOL    HW210395   1.194   5.796   0.525
 3166SOL     OW10396   4.021   1.058   5.427
 3166SOL    HW110397   4.011   1.060   5.527
 3166SOL    HW210398   3.933   1.036   5.385
 3167SOL     OW10399   4.655   4.100   1.034
 3167SOL    HW110400   4.656   4.195   1.063
 3167SOL    HW210401   4.567   4.059   1.055
 3168SOL     OW10402   4.224   1.929   0.662
 3168SOL    HW110403   4.286   1.951   0.587
 3168SOL    HW210404   4.154   2.000   0.669
 3169SOL     OW10405   1.480   4.879   2.261
 3169SOL    HW110406   1.431   4.920   2.185
 3169SOL    HW210407   1.574   4.913   2.264
 3170SOL     OW10408   3.495   5.262   3.250
 3170SOL    HW110409   3.496   5.302   3.158
 3170SOL    HW210410   3.566   5.192   3.256
 3171SOL     OW10411   5.727   2.563   3.145
 3171SOL    HW110412   5.651   2.557   3.209
 3171SOL    HW210413   5.755   2.658   3.134
 3172SOL     OW10414   0.205   4.757   0.529
 3172SOL    HW110415   0.203   4.857   0.526
 3172SOL    HW210416   0.251   4.727   0.612
 3173SOL     OW10417   3.388   1.279   0.076
 3173SOL    HW110418   3.312   1.308   0.134
 3173SOL    HW210419   3.433   1.359   0.037
 3174SOL     OW10420   2.893   3.566   5.869
 3174SOL    HW110421   2.869   3.594   5.962
 3174SOL    HW210422   2.817   3.514   5.829
 3175SOL     OW10423   7.015   0.486   3.664
 3175SOL    HW110424   0.001   0.514   3.759
 3175SOL    HW210425   7.013   0.386   3.658
 3176SOL     OW10426   0.972   4.436   4.803
 3176SOL    HW110427   1.071   4.423   4.800
 3176SOL    HW210428   0.934   4.420   4.712
 3177SOL     OW10429   5.728   3.778   3.052
 3177SOL    HW110430   5.729   3.770   2.952
 3177SOL    HW210431   5.799   3.719   3.091
 3178SOL     OW10432   6.851   0.947   0.809
 3178SOL    HW110433   6.807   0.979   0.893
 3178SOL    HW210434   6.817   0.856   0.786
 3179SOL     OW10435   0.901   1.920   1.720
 3179SOL    HW110436   0.950   2.007   1.716
 3179SOL    HW210437   0.837   1.921   1.797
 3180SOL     OW10438   6.518   5.909   6.421
 3180SOL    HW110439   6.505   5.814   6.391
 3180SOL    HW210440   6.521   5.913   6.520
 3181SOL     OW10441   0.820   1.406   4.853
 3181SOL    HW110442   0.798   1.309   4.837
 3181SOL    HW210443   0.750   1.463   4.808
 3182SOL     OW10444   2.983   0.627   0.208
 3182SOL    HW110445   2.900   0.665   0.250
 3182SOL    HW210446   3.047   0.700   0.187
 3183SOL     OW10447   4.444   4.554   2.087
 3183SOL    HW110448   4.494   4.630   2.045
 3183SOL    HW210449   4.472   4.468   2.044
 3184SOL     OW10450   0.477   2.413   4.262
 3184SOL    HW110451   0.524   2.392   4.348
 3184SOL    HW210452   0.381   2.389   4.270
 3185SOL     OW10453   0.246   6.147   6.173
 3185SOL    HW110454   0.182   6.166   6.099
 3185SOL    HW210455   0.323   6.210   6.168
 3186SOL     OW10456   1.134   1.423   6.067
 3186SOL    HW110457   1.035   1.425   6.054
 3186SOL    HW210458   1.180   1.435   5.979
 3187SOL     OW10459   4.245   5.898   2.766
 3187SOL    HW110460   4.241   5.851   2.854
 3187SOL    HW210461   4.302   5.980   2.776
 3188SOL     OW10462   2.618   4.913   6.264
 3188SOL    HW110463   2.545   4.899   6.198
 3188SOL    HW210464   2.581   4.908   6.357
 3189SOL     OW10465   3.082   1.628   0.535
 3189SOL    HW110466   3.146   1.589   0.601
 3189SOL    HW210467   3.055   1.557   0.470
 3190SOL     OW10468   0.219   6.091   4.736
 3190SOL    HW110469   0.167   6.005   4.735
 3190SOL    HW210470   0.269   6.099   4.822
 3191SOL     OW10471   4.741   5.731   1.833
 3191SOL    HW110472   4.668   5.750   1.899
 3191SOL    HW210473   4.815   5.681   1.879
 3192SOL     OW10474   6.234   2.048   1.715
 3192SOL    HW110475   6.313   2.020   1.769
 3192SOL    HW210476   6.261   2.062   1.620
 3193SOL     OW10477   3.757   0.620   5.493
 3193SOL    HW110478   3.772   0.707   5.539
 3193SOL    HW210479   3.751   0.635   5.394
 3194SOL     OW10480   1.381   1.043   5.824
 3194SOL    HW110481   1.462   1.071   5.772
 3194SOL    HW210482   1.328   0.978   5.770
 3195SOL     OW10483   0.296   1.392   1.481
 3195SOL    HW110484   0.334   1.441   1.559
 3195SOL    HW210485   0.225   1.447   1.437
 3196SOL     OW10486   6.669   0.504   5.091
 3196SOL    HW110487   6.755   0.452   5.091
 3196SOL    HW210488   6.592   0.443   5.074
 3197SOL     OW10489   2.102   0.667   6.265
 3197SOL    HW110490   2.121   0.589   6.325
 3197SOL    HW210491   2.031   0.724   6.306
 3198SOL     OW10492   6.629   2.244   3.535
 3198SOL    HW110493   6.624   2.145   3.535
 3198SOL    HW210494   6.537   2.282   3.539
 3199SOL     OW10495   5.726   4.628   2.804
 3199SOL    HW110496   5.677   4.577   2.733
 3199SOL    HW210497   5.815   4.656   2.769
 3200SOL     OW10498   5.733   3.252   3.954
 3200SOL    HW110499   5.714   3.187   3.880
 3200SOL    HW210500   5.819   3.226   3.999
 3201SOL     OW10501   6.227   4.251   2.704
 3201SOL    HW110502   6.234   4.282   2.609
 3201SOL    HW210503   6.198   4.327   2.762
 3202SOL     OW10504   1.191   4.931   0.452
 3202SOL    HW110505   1.288   4.907   0.463
 3202SOL    HW210506   1.163   4.991   0.527
 3203SOL     OW10507   4.311   6.515   1.236
 3203SOL    HW110508   4.302   6.441   1.302
 3203SOL    HW210509   4.294   6.602   1.282
 3204SOL     OW10510   2.922   1.323   4.084
 3204SOL    HW110511   2.905   1.323   4.182
 3204SOL    HW210512   2.962   1.410   4.056
 3205SOL     OW10513   5.601   3.102   5.549
 3205SOL    HW110514   5.581   3.177   5.613
 3205SOL    HW210515   5.523   3.040   5.546
 3206SOL     OW10516   2.527   2.841   1.608
 3206SOL    HW110517   2.474   2.868   1.689
 3206SOL    HW210518   2.605   2.903   1.597
 3207SOL     OW10519   0.736   0.314   5.246
 3207SOL    HW110520   0.762   0.275   5.335
 3207SOL    HW210521   0.696   0.405   5.260
 3208SOL     OW10522   6.252   5.843   4.884
 3208SOL    HW110523   6.193   5.789   4.943
 3208SOL    HW210524   6.225   5.829   4.788
 3209SOL     OW10525   4.821   5.803   6.235
 3209SOL    HW110526   4.775   5.800   6.324
 3209SOL    HW210527   4.837   5.710   6.203
 3210SOL     OW10528   0.299   5.243   1.212
 3210SOL    HW110529   0.270   5.279   1.301
 3210SOL    HW210530   0.325   5.147   1.222
 3211SOL     OW10531   1.592   5.950   0.182
 3211SOL    HW110532   1.561   5.960   0.276
 3211SOL    HW210533   1.663   5.880   0.178
 3212SOL     OW10534   2.989   0.105   2.772
 3212SOL    HW110535   3.015   0.161   2.693
 3212SOL    HW210536   2.917   0.152   2.824
 3213SOL     OW10537   1.832   1.097   6.236
 3213SOL    HW110538   1.896   1.173   6.226
 3213SOL    HW210539   1.754   1.126   6.292
 3214SOL     OW10540   3.847   0.852   2.793
 3214SOL    HW110541   3.777   0.923   2.785
 3214SOL    HW210542   3.804   0.762   2.792
 3215SOL     OW10543   1.279   3.214   0.749
 3215SOL    HW110544   1.204   3.245   0.691
 3215SOL    HW210545   1.364   3.216   0.697
 3216SOL     OW10546   5.801   4.188   0.879
 3216SOL    HW110547   5.812   4.248   0.958
 3216SOL    HW210548   5.888   4.182   0.830
 3217SOL     OW10549   0.251   4.814   2.925
 3217SOL    HW110550   0.221   4.879   2.995
 3217SOL    HW210551   0.225   4.721   2.953
 3218SOL     OW10552   7.020   1.993   2.837
 3218SOL    HW110553   0.036   2.054   2.770
 3218SOL    HW210554   0.061   1.973   2.910
 3219SOL     OW10555   0.005   0.552   4.952
 3219SOL    HW110556   6.970   0.477   4.924
 3219SOL    HW210557   6.983   0.639   4.940
 3220SOL     OW10558   6.636   5.735   6.895
 3220SOL    HW110559   6.596   5.807   6.838
 3220SOL    HW210560   6.583   5.651   6.884
 3221SOL     OW10561   4.278   0.570   2.437
 3221SOL    HW110562   4.335   0.491   2.460
 3221SOL    HW210563   4.202   0.577   2.503
 3222SOL     OW10564   3.004   1.504   2.432
 3222SOL    HW110565   3.094   1.461   2.430
 3222SOL    HW210566   2.992   1.552   2.519
 3223SOL     OW10567   1.792   6.608   0.728
 3223SOL    HW110568   1.744   6.566   0.805
 3223SOL    HW210569   1.876   6.557   0.710
 3224SOL     OW10570   4.603   2.490   4.704
 3224SOL    HW110571   4.697   2.461   4.725
 3224SOL    HW210572   4.585   2.577   4.750
 3225SOL     OW10573   3.951   0.910   4.254
 3225SOL    HW110574   3.854   0.919   4.232
 3225SOL    HW210575   3.979   0.984   4.316
 3226SOL     OW10576   0.964   0.108   2.139
 3226SOL    HW110577   1.025   0.034   2.169
 3226SOL    HW210578   0.943   0.167   2.217
 3227SOL     OW10579   4.195   2.627   6.213
 3227SOL    HW110580   4.173   2.569   6.134
 3227SOL    HW210581   4.277   2.681   6.192
 3228SOL     OW10582   1.327   4.386   0.671
 3228SOL    HW110583   1.275   4.313   0.625
 3228SOL    HW210584   1.359   4.451   0.602
 3229SOL     OW10585   2.595   1.360   6.224
 3229SOL    HW110586   2.635   1.444   6.188
 3229SOL    HW210587   2.527   1.383   6.294
 3230SOL     OW10588   2.576   5.819   5.666
 3230SOL    HW110589   2.656   5.820   5.726
 3230SOL    HW210590   2.503   5.874   5.706
 3231SOL     OW10591   3.310   1.055   2.542
 3231SOL    HW110592   3.322   1.091   2.450
 3231SOL    HW210593   3.390   1.000   2.567
 3232SOL     OW10594   4.341   5.792   4.288
 3232SOL    HW110595   4.322   5.767   4.383
 3232SOL    HW210596   4.412   5.862   4.286
 3233SOL     OW10597   0.302   2.695   0.052
 3233SOL    HW110598   0.349   2.783   0.055
 3233SOL    HW210599   0.302   2.654   0.143
 3234SOL     OW10600   2.222   2.783   0.487
 3234SOL    HW110601   2.209   2.867   0.540
 3234SOL    HW210602   2.320   2.767   0.475
 3235SOL     OW10603   6.864   5.795   1.964
 3235SOL    HW110604   6.949   5.796   1.912
 3235SOL    HW210605   6.793   5.748   1.912
 3236SOL     OW10606   2.520   4.237   0.632
 3236SOL    HW110607   2.608   4.283   0.644
 3236SOL    HW210608   2.535   4.143   0.601
 3237SOL     OW10609   5.990   1.388   4.707
 3237SOL    HW110610   5.988   1.459   4.636
 3237SOL    HW210611   5.950   1.304   4.672
 3238SOL     OW10612   6.184   5.044   0.614
 3238SOL    HW110613   6.095   5.012   0.581
 3238SOL    HW210614   6.257   4.998   0.564
 3239SOL     OW10615   0.377   0.237   3.517
 3239SOL    HW110616   0.352   0.293   3.437
 3239SOL    HW210617   0.388   0.296   3.597
 3240SOL     OW10618   0.497   0.391   6.456
 3240SOL    HW110619   0.416   0.389   6.397
 3240SOL    HW210620   0.468   0.405   6.551
 3241SOL     OW10621   5.108   1.304   6.249
 3241SOL    HW110622   5.055   1.311   6.333
 3241SOL    HW210623   5.154   1.391   6.231
 3242SOL     OW10624   4.851   4.236   5.503
 3242SOL    HW110625   4.772   4.280   5.546
 3242SOL    HW210626   4.895   4.175   5.568
 3243SOL     OW10627   4.093   5.687   6.208
 3243SOL    HW110628   4.015   5.629   6.233
 3243SOL    HW210629   4.147   5.640   6.138
 3244SOL     OW10630   5.712   6.285   6.479
 3244SOL    HW110631   5.809   6.262   6.486
 3244SOL    HW210632   5.698   6.380   6.509
 3245SOL     OW10633   4.262   2.319   4.109
 3245SOL    HW110634   4.292   2.414   4.116
 3245SOL    HW210635   4.285   2.270   4.193
 3246SOL     OW10636   0.639   0.127   2.142
 3246SOL    HW110637   0.682   0.087   2.061
 3246SOL    HW210638   0.694   0.204   2.175
 3247SOL     OW10639   0.080   4.317   2.170
 3247SOL    HW110640   0.063   4.406   2.211
 3247SOL    HW210641   0.171   4.284   2.197
 3248SOL     OW10642   5.516   2.067   2.919
 3248SOL    HW110643   5.575   2.012   2.860
 3248SOL    HW210644   5.573   2.125   2.979
 3249SOL     OW10645   3.727   3.574   3.889
 3249SOL    HW110646   3.799   3.643   3.886
 3249SOL    HW210647   3.649   3.608   3.941
 3250SOL     OW10648   5.402   5.697   2.657
 3250SOL    HW110649   5.364   5.787   2.637
 3250SOL    HW210650   5.422   5.690   2.755
 3251SOL     OW10651   2.456   0.525   5.116
 3251SOL    HW110652   2.522   0.455   5.087
 3251SOL    HW210653   2.491   0.615   5.092
 3252SOL     OW10654   2.732   1.275   3.896
 3252SOL    HW110655   2.770   1.292   3.805
 3252SOL    HW210656   2.805   1.279   3.964
 3253SOL     OW10657   5.963   3.211   1.198
 3253SOL    HW110658   5.930   3.246   1.110
 3253SOL    HW210659   6.056   3.175   1.186
 3254SOL     OW10660   5.744   0.766   0.365
 3254SOL    HW110661   5.735   0.716   0.451
 3254SOL    HW210662   5.684   0.726   0.296
 3255SOL     OW10663   6.088   5.207   1.072
 3255SOL    HW110664   6.065   5.227   1.167
 3255SOL    HW210665   6.141   5.122   1.068
 3256SOL     OW10666   4.841   2.113   1.377
 3256SOL    HW110667   4.821   2.206   1.408
 3256SOL    HW210668   4.768   2.082   1.316
 3257SOL     OW10669   2.795   2.264   2.277
 3257SOL    HW110670   2.706   2.306   2.295
 3257SOL    HW210671   2.829   2.292   2.188
 3258SOL     OW10672   3.548   5.564   3.451
 3258SOL    HW110673   3.487   5.609   3.386
 3258SOL    HW210674   3.505   5.480   3.485
 3259SOL     OW10675   5.545   4.444   4.255
 3259SOL    HW110676   5.605   4.381   4.207
 3259SOL    HW210677   5.452   4.438   4.217
 3260SOL     OW10678   1.477   4.409   1.809
 3260SOL    HW110679   1.546   4.417   1.738
 3260SOL    HW210680   1.449   4.313   1.818
 3261SOL     OW10681   5.406   0.708   2.987
 3261SOL    HW110682   5.496   0.737   2.954
 3261SOL    HW210683   5.377   0.627   2.937
 3262SOL     OW10684   3.890   2.176   2.668
 3262SOL    HW110685   3.947   2.256   2.653
 3262SOL    HW210686   3.915   2.134   2.755
 3263SOL     OW10687   2.572   1.311   3.060
 3263SOL    HW110688   2.634   1.374   3.012
 3263SOL    HW210689   2.615   1.221   3.066
 3264SOL     OW10690   2.385   5.276   0.075
 3264SOL    HW110691   2.357   5.320   7.015
 3264SOL    HW210692   2.485   5.269   0.077
 3265SOL     OW10693   6.259   5.645   5.220
 3265SOL    HW110694   6.177   5.701   5.227
 3265SOL    HW210695   6.247   5.561   5.273
 3266SOL     OW10696   3.201   4.559   0.424
 3266SOL    HW110697   3.218   4.462   0.444
 3266SOL    HW210698   3.128   4.567   0.356
 3267SOL     OW10699   4.179   0.578   0.993
 3267SOL    HW110700   4.214   0.609   0.904
 3267SOL    HW210701   4.227   0.495   1.020
 3268SOL     OW10702   0.210   4.862   1.519
 3268SOL    HW110703   0.136   4.911   1.472
 3268SOL    HW210704   0.183   4.767   1.533
 3269SOL     OW10705   1.079   5.299   2.490
 3269SOL    HW110706   1.100   5.222   2.550
 3269SOL    HW210707   1.027   5.367   2.541
 3270SOL     OW10708   0.781   2.649   5.419
 3270SOL    HW110709   0.721   2.568   5.421
 3270SOL    HW210710   0.870   2.625   5.458
 3271SOL     OW10711   6.983   3.377   1.933
 3271SOL    HW110712   0.048   3.390   1.891
 3271SOL    HW210713   6.926   3.322   1.872
 3272SOL     OW10714   4.339   5.811   0.324
 3272SOL    HW110715   4.279   5.781   0.250
 3272SOL    HW210716   4.289   5.871   0.386
 3273SOL     OW10717   4.486   3.383   5.897
 3273SOL    HW110718   4.486   3.375   5.797
 3273SOL    HW210719   4.508   3.477   5.922
 3274SOL     OW10720   6.029   0.948   0.217
 3274SOL    HW110721   6.023   0.848   0.216
 3274SOL    HW210722   5.994   0.982   0.304
 3275SOL     OW10723   4.793   0.550   1.186
 3275SOL    HW110724   4.713   0.552   1.245
 3275SOL    HW210725   4.874   0.574   1.240
 3276SOL     OW10726   4.791   0.163   0.326
 3276SOL    HW110727   4.749   0.251   0.305
 3276SOL    HW210728   4.723   0.103   0.368
 3277SOL     OW10729   2.948   1.460   1.966
 3277SOL    HW110730   3.007   1.440   1.888
 3277SOL    HW210731   2.906   1.550   1.954
 3278SOL     OW10732   0.056   0.483   6.657
 3278SOL    HW110733   0.121   0.474   6.732
 3278SOL    HW210734   0.065   0.405   6.595
 3279SOL     OW10735   4.289   6.722   1.428
 3279SOL    HW110736   4.225   6.799   1.416
 3279SOL    HW210737   4.382   6.757   1.436
 3280SOL     OW10738   5.378   3.488   4.077
 3280SOL    HW110739   5.310   3.446   4.017
 3280SOL    HW210740   5.438   3.418   4.115
 3281SOL     OW10741   6.909   4.738   1.672
 3281SOL    HW110742   6.926   4.646   1.706
 3281SOL    HW210743   6.829   4.777   1.719
 3282SOL     OW10744   0.214   3.859   5.189
 3282SOL    HW110745   0.180   3.789   5.252
 3282SOL    HW210746   0.293   3.905   5.230
 3283SOL     OW10747   3.197   1.057   1.297
 3283SOL    HW110748   3.291   1.067   1.266
 3283SOL    HW210749   3.180   1.121   1.372
 3284SOL     OW10750   1.882   5.828   5.002
 3284SOL    HW110751   1.898   5.875   5.089
 3284SOL    HW210752   1.952   5.855   4.937
 3285SOL     OW10753   5.057   1.071   4.442
 3285SOL    HW110754   5.118   1.000   4.477
 3285SOL    HW210755   5.092   1.105   4.354
 3286SOL     OW10756   3.219   2.032   1.685
 3286SOL    HW110757   3.231   2.039   1.586
 3286SOL    HW210758   3.263   2.110   1.729
 3287SOL     OW10759   1.001   7.012   5.997
 3287SOL    HW110760   0.925   7.008   6.061
 3287SOL    HW210761   1.041   6.921   5.986
 3288SOL     OW10762   1.577   6.629   0.410
 3288SOL    HW110763   1.642   6.622   0.335
 3288SOL    HW210764   1.579   6.544   0.464
 3289SOL     OW10765   3.144   1.565   6.951
 3289SOL    HW110766   3.234   1.521   6.944
 3289SOL    HW210767   3.086   1.512   7.013
 3290SOL     OW10768   6.340   5.256   0.415
 3290SOL    HW110769   6.321   5.176   0.357
 3290SOL    HW210770   6.374   5.225   0.504
 3291SOL     OW10771   4.249   0.187   6.205
 3291SOL    HW110772   4.238   0.280   6.172
 3291SOL    HW210773   4.341   0.155   6.182
 3292SOL     OW10774   0.709   1.753   0.684
 3292SOL    HW110775   0.733   1.726   0.591
 3292SOL    HW210776   0.748   1.688   0.749
 3293SOL     OW10777   6.474   4.899   2.490
 3293SOL    HW110778   6.418   4.939   2.563
 3293SOL    HW210779   6.487   4.802   2.507
 3294SOL     OW10780   5.559   2.527   5.664
 3294SOL    HW110781   5.537   2.506   5.759
 3294SOL    HW210782   5.534   2.621   5.644
 3295SOL     OW10783   1.806   2.794   0.572
 3295SOL    HW110784   1.854   2.865   0.623
 3295SOL    HW210785   1.793   2.714   0.630
 3296SOL     OW10786   6.875   6.781   5.393
 3296SOL    HW110787   6.955   6.837   5.415
 3296SOL    HW210788   6.891   6.687   5.423
 3297SOL     OW10789   2.897   2.173   5.444
 3297SOL    HW110790   2.885   2.082   5.403
 3297SOL    HW210791   2.994   2.193   5.455
 3298SOL     OW10792   6.088   3.734   4.802
 3298SOL    HW110793   5.999   3.702   4.835
 3298SOL    HW210794   6.081   3.756   4.704
 3299SOL     OW10795   3.694   4.907   3.669
 3299SOL    HW110796   3.734   4.935   3.757
 3299SOL    HW210797   3.610   4.959   3.654
 3300SOL     OW10798   2.171   6.890   5.480
 3300SOL    HW110799   2.205   6.983   5.495
 3300SOL    HW210800   2.137   6.883   5.386
 3301SOL     OW10801   1.429   3.166   2.308
 3301SOL    HW110802   1.522   3.179   2.343
 3301SOL    HW210803   1.433   3.146   2.210
 3302SOL     OW10804   2.094   4.921   6.308
 3302SOL    HW110805   2.150   4.872   6.376
 3302SOL    HW210806   2.070   4.858   6.234
 3303SOL     OW10807   3.688   2.526   0.525
 3303SOL    HW110808   3.611   2.577   0.486
 3303SOL    HW210809   3.772   2.578   0.513
 3304SOL     OW10810   2.279   4.529   6.597
 3304SOL    HW110811   2.361   4.582   6.573
 3304SOL    HW210812   2.306   4.454   6.659
 3305SOL     OW10813   3.364   0.437   1.011
 3305SOL    HW110814   3.367   0.380   0.928
 3305SOL    HW210815   3.271   0.437   1.048
 3306SOL     OW10816   1.453   6.387   6.846
 3306SOL    HW110817   1.412   6.451   6.910
 3306SOL    HW210818   1.551   6.376   6.867
 3307SOL     OW10819   1.330   6.833   5.414
 3307SOL    HW110820   1.377   6.910   5.456
 3307SOL    HW210821   1.356   6.826   5.318
 3308SOL     OW10822   4.109   4.275   1.217
 3308SOL    HW110823   4.131   4.364   1.177
 3308SOL    HW210824   4.177   4.252   1.287
 3309SOL     OW10825   5.240   4.289   3.974
 3309SOL    HW110826   5.298   4.232   3.916
 3309SOL    HW210827   5.256   4.385   3.952
 3310SOL     OW10828   0.500   4.901   4.666
 3310SOL    HW110829   0.487   4.803   4.674
 3310SOL    HW210830   0.418   4.948   4.699
 3311SOL     OW10831   3.315   3.658   1.030
 3311SOL    HW110832   3.400   3.613   1.058
 3311SOL    HW210833   3.244   3.641   1.100
 3312SOL     OW10834   5.417   2.709   6.327
 3312SOL    HW110835   5.444   2.802   6.350
 3312SOL    HW210836   5.322   2.708   6.296
 3313SOL     OW10837   0.868   0.769   3.033
 3313SOL    HW110838   0.937   0.763   2.960
 3313SOL    HW210839   0.831   0.861   3.037
 3314SOL     OW10840   2.304   0.327   3.405
 3314SOL    HW110841   2.273   0.288   3.318
 3314SOL    HW210842   2.317   0.426   3.393
 3315SOL     OW10843   0.586   4.852   5.281
 3315SOL    HW110844   0.572   4.807   5.193
 3315SOL    HW210845   0.654   4.925   5.271
 3316SOL     OW10846   3.258   1.243   6.322
 3316SOL    HW110847   3.264   1.254   6.421
 3316SOL    HW210848   3.342   1.279   6.280
 3317SOL     OW10849   5.389   2.214   2.058
 3317SOL    HW110850   5.420   2.163   1.977
 3317SOL    HW210851   5.468   2.236   2.116
 3318SOL     OW10852   2.748   2.197   6.468
 3318SOL    HW110853   2.807   2.119   6.450
 3318SOL    HW210854   2.803   2.273   6.503
 3319SOL     OW10855   6.844   0.154   2.437
 3319SOL    HW110856   6.935   0.196   2.440
 3319SOL    HW210857   6.853   0.055   2.455
 3320SOL     OW10858   6.575   0.710   0.718
 3320SOL    HW110859   6.555   0.776   0.790
 3320SOL    HW210860   6.572   0.617   0.757
 3321SOL     OW10861   6.069   1.487   1.120
 3321SOL    HW110862   6.099   1.571   1.075
 3321SOL    HW210863   6.148   1.428   1.138
 3322SOL     OW10864   6.408   3.337   0.748
 3322SOL    HW110865   6.418   3.436   0.756
 3322SOL    HW210866   6.423   3.295   0.838
 3323SOL     OW10867   2.470   1.953   1.641
 3323SOL    HW110868   2.513   2.009   1.712
 3323SOL    HW210869   2.371   1.961   1.647
 3324SOL     OW10870   4.665   5.525   5.775
 3324SOL    HW110871   4.589   5.590   5.779
 3324SOL    HW210872   4.690   5.509   5.680
 3325SOL     OW10873   1.012   3.492   6.463
 3325SOL    HW110874   1.069   3.459   6.538
 3325SOL    HW210875   0.975   3.414   6.413
 3326SOL     OW10876   5.272   0.949   3.057
 3326SOL    HW110877   5.334   0.871   3.048
 3326SOL    HW210878   5.178   0.918   3.051
 3327SOL     OW10879   1.583   5.963   1.599
 3327SOL    HW110880   1.547   5.937   1.689
 3327SOL    HW210881   1.513   6.015   1.550
 3328SOL     OW10882   3.681   1.889   1.319
 3328SOL    HW110883   3.606   1.832   1.286
 3328SOL    HW210884   3.761   1.876   1.259
 3329SOL     OW10885   6.422   5.978   5.803
 3329SOL    HW110886   6.457   6.028   5.882
 3329SOL    HW210887   6.390   5.887   5.833
 3330SOL     OW10888   6.649   3.287   2.415
 3330SOL    HW110889   6.716   3.241   2.473
 3330SOL    HW210890   6.578   3.328   2.472
 3331SOL     OW10891   1.745   2.615   0.982
 3331SOL    HW110892   1.650   2.599   1.010
 3331SOL    HW210893   1.754   2.598   0.884
 3332SOL     OW10894   5.262   4.459   0.696
 3332SOL    HW110895   5.312   4.546   0.704
 3332SOL    HW210896   5.327   4.383   0.697
 3333SOL     OW10897   3.965   5.281   6.778
 3333SOL    HW110898   4.032   5.243   6.714
 3333SOL    HW210899   3.873   5.252   6.751
 3334SOL     OW10900   3.289   3.220   1.407
 3334SOL    HW110901   3.340   3.302   1.435
 3334SOL    HW210902   3.351   3.157   1.360
 3335SOL     OW10903   4.827   4.795   5.926
 3335SOL    HW110904   4.770   4.797   5.844
 3335SOL    HW210905   4.911   4.847   5.910
 3336SOL     OW10906   2.980   5.531   5.973
 3336SOL    HW110907   3.042   5.457   5.947
 3336SOL    HW210908   2.918   5.551   5.897
 3337SOL     OW10909   3.706   2.079   1.506
 3337SOL    HW110910   3.705   2.004   1.439
 3337SOL    HW210911   3.797   2.120   1.508
 3338SOL     OW10912   6.612   4.017   1.583
 3338SOL    HW110913   6.570   4.095   1.537
 3338SOL    HW210914   6.705   4.041   1.612
 3339SOL     OW10915   6.603   6.141   6.843
 3339SOL    HW110916   6.596   6.235   6.809
 3339SOL    HW210917   6.663   6.139   6.922
 3340SOL     OW10918   3.409   6.481   1.756
 3340SOL    HW110919   3.417   6.534   1.671
 3340SOL    HW210920   3.314   6.454   1.769
 3341SOL     OW10921   0.427   6.928   2.746
 3341SOL    HW110922   0.341   6.878   2.733
 3341SOL    HW210923   0.463   6.956   2.658
 3342SOL     OW10924   2.185   0.339   3.847
 3342SOL    HW110925   2.111   0.277   3.872
 3342SOL    HW210926   2.241   0.296   3.776
 3343SOL     OW10927   5.007   2.719   0.752
 3343SOL    HW110928   4.926   2.740   0.806
 3343SOL    HW210929   5.080   2.783   0.775
 3344SOL     OW10930   5.289   3.674   4.943
 3344SOL    HW110931   5.215   3.612   4.968
 3344SOL    HW210932   5.315   3.729   5.022
 3345SOL     OW10933   3.103   4.035   5.840
 3345SOL    HW110934   3.029   4.101   5.822
 3345SOL    HW210935   3.070   3.943   5.819
 3346SOL     OW10936   0.475   1.697   2.018
 3346SOL    HW110937   0.519   1.709   1.929
 3346SOL    HW210938   0.543   1.706   2.091
 3347SOL     OW10939   6.419   3.872   4.260
 3347SOL    HW110940   6.493   3.939   4.262
 3347SOL    HW210941   6.340   3.912   4.213
 3348SOL     OW10942   3.263   3.550   3.609
 3348SOL    HW110943   3.289   3.647   3.614
 3348SOL    HW210944   3.288   3.514   3.519
 3349SOL     OW10945   6.588   4.116   4.245
 3349SOL    HW110946   6.555   4.198   4.198
 3349SOL    HW210947   6.589   4.131   4.344
 3350SOL     OW10948   1.968   1.113   6.844
 3350SOL    HW110949   2.056   1.160   6.837
 3350SOL    HW210950   1.900   1.162   6.790
 3351SOL     OW10951   5.535   0.535   0.980
 3351SOL    HW110952   5.475   0.583   0.916
 3351SOL    HW210953   5.604   0.598   1.015
 3352SOL     OW10954   1.024   4.314   0.747
 3352SOL    HW110955   0.926   4.320   0.732
 3352SOL    HW210956   1.061   4.406   0.760
 3353SOL     OW10957   1.441   6.901   6.857
 3353SOL    HW110958   1.452   6.850   6.943
 3353SOL    HW210959   1.347   6.936   6.851
 3354SOL     OW10960   6.948   2.259   3.132
 3354SOL    HW110961   6.858   2.228   3.100
 3354SOL    HW210962   6.978   2.202   3.208
 3355SOL     OW10963   0.174   2.297   1.054
 3355SOL    HW110964   0.178   2.306   0.954
 3355SOL    HW210965   0.264   2.317   1.092
 3356SOL     OW10966   2.531   3.629   0.246
 3356SOL    HW110967   2.513   3.711   0.192
 3356SOL    HW210968   2.573   3.559   0.188
 3357SOL     OW10969   2.024   5.406   1.152
 3357SOL    HW110970   2.098   5.450   1.101
 3357SOL    HW210971   2.046   5.408   1.250
 3358SOL     OW10972   5.032   6.494   2.311
 3358SOL    HW110973   4.978   6.564   2.264
 3358SOL    HW210974   4.985   6.406   2.304
 3359SOL     OW10975   0.434   0.322   2.697
 3359SOL    HW110976   0.457   0.252   2.764
 3359SOL    HW210977   0.349   0.367   2.722
 3360SOL     OW10978   0.716   0.890   0.133
 3360SOL    HW110979   0.662   0.822   0.083
 3360SOL    HW210980   0.802   0.906   0.085
 3361SOL     OW10981   6.732   5.816   3.153
 3361SOL    HW110982   6.820   5.767   3.154
 3361SOL    HW210983   6.744   5.907   3.193
 3362SOL     OW10984   2.994   1.361   4.589
 3362SOL    HW110985   3.088   1.394   4.584
 3362SOL    HW210986   2.933   1.437   4.610
 3363SOL     OW10987   0.391   1.578   6.573
 3363SOL    HW110988   0.356   1.495   6.616
 3363SOL    HW210989   0.490   1.571   6.561
 3364SOL     OW10990   0.975   5.867   6.329
 3364SOL    HW110991   0.937   5.931   6.263
 3364SOL    HW210992   1.037   5.916   6.391
 3365SOL     OW10993   0.287   2.113   5.035
 3365SOL    HW110994   0.291   2.148   4.941
 3365SOL    HW210995   0.276   2.013   5.033
 3366SOL     OW10996   5.273   0.690   4.902
 3366SOL    HW110997   5.339   0.650   4.839
 3366SOL    HW210998   5.316   0.702   4.992
 3367SOL     OW10999   1.721   2.119   1.781
 3367SOL    HW111000   1.797   2.180   1.761
 3367SOL    HW211001   1.654   2.123   1.707
 3368SOL     OW11002   6.365   5.312   6.166
 3368SOL    HW111003   6.338   5.317   6.070
 3368SOL    HW211004   6.283   5.307   6.223
 3369SOL     OW11005   3.675   0.789   0.513
 3369SOL    HW111006   3.737   0.796   0.591
 3369SOL    HW211007   3.705   0.713   0.454
 3370SOL     OW11008   6.676   0.058   4.952
 3370SOL    HW111009   6.667   7.012   4.884
 3370SOL    HW211010   6.762   0.047   5.002
 3371SOL     OW11011   0.882   4.413   2.252
 3371SOL    HW111012   0.878   4.410   2.152
 3371SOL    HW211013   0.854   4.324   2.289
 3372SOL     OW11014   0.396   1.101   2.242
 3372SOL    HW111015   0.321   1.040   2.216
 3372SOL    HW211016   0.417   1.162   2.166
 3373SOL     OW11017   5.994   1.203   4.308
 3373SOL    HW111018   5.955   1.169   4.222
 3373SOL    HW211019   6.055   1.280   4.289
 3374SOL     OW11020   3.264   6.056   5.590
 3374SOL    HW111021   3.312   5.970   5.602
 3374SOL    HW211022   3.298   6.122   5.658
 3375SOL     OW11023   4.569   4.621   4.999
 3375SOL    HW111024   4.624   4.538   5.011
 3375SOL    HW211025   4.475   4.602   5.026
 3376SOL     OW11026   3.436   3.056   2.566
 3376SOL    HW111027   3.409   2.995   2.640
 3376SOL    HW211028   3.459   3.003   2.485
 3377SOL     OW11029   1.471   6.552   5.005
 3377SOL    HW111030   1.451   6.564   4.908
 3377SOL    HW211031   1.445   6.460   5.033
 3378SOL     OW11032   6.689   1.500   1.248
 3378SOL    HW111033   6.733   1.481   1.336
 3378SOL    HW211034   6.743   1.566   1.196
 3379SOL     OW11035   0.549   4.515   5.911
 3379SOL    HW111036   0.573   4.427   5.951
 3379SOL    HW211037   0.514   4.502   5.818
 3380SOL     OW11038   6.465   4.678   6.321
 3380SOL    HW111039   6.516   4.592   6.315
 3380SOL    HW211040   6.369   4.660   6.298
 3381SOL     OW11041   2.565   2.544   0.600
 3381SOL    HW111042   2.511   2.545   0.685
 3381SOL    HW211043   2.661   2.561   0.622
 3382SOL     OW11044   0.013   1.402   6.807
 3382SOL    HW111045   0.104   1.373   6.837
 3382SOL    HW211046   7.002   1.469   6.871
 3383SOL     OW11047   5.803   5.039   2.689
 3383SOL    HW111048   5.846   5.112   2.636
 3383SOL    HW211049   5.765   4.970   2.627
 3384SOL     OW11050   3.419   3.325   4.818
 3384SOL    HW111051   3.363   3.331   4.735
 3384SOL    HW211052   3.361   3.342   4.898
 3385SOL     OW11053   6.008   3.974   3.265
 3385SOL    HW111054   6.055   3.930   3.189
 3385SOL    HW211055   6.006   3.912   3.343
 3386SOL     OW11056   5.965   4.203   4.713
 3386SOL    HW111057   5.970   4.158   4.802
 3386SOL    HW211058   5.891   4.163   4.659
 3387SOL     OW11059   2.461   2.504   2.641
 3387SOL    HW111060   2.462   2.588   2.696
 3387SOL    HW211061   2.526   2.438   2.681
 3388SOL     OW11062   5.720   2.759   1.255
 3388SOL    HW111063   5.805   2.808   1.237
 3388SOL    HW211064   5.721   2.725   1.349
 3389SOL     OW11065   4.717   4.157   3.938
 3389SOL    HW111066   4.683   4.239   3.983
 3389SOL    HW211067   4.738   4.087   4.006
 3390SOL     OW11068   5.162   2.670   6.238
 3390SOL    HW111069   5.107   2.693   6.158
 3390SOL    HW211070   5.223   2.593   6.216
 3391SOL     OW11071   3.936   2.063   5.019
 3391SOL    HW111072   4.022   2.092   5.061
 3391SOL    HW211073   3.884   2.008   5.084
 3392SOL     OW11074   2.447   0.781   4.343
 3392SOL    HW111075   2.521   0.762   4.278
 3392SOL    HW211076   2.453   0.876   4.374
 3393SOL     OW11077   6.470   6.837   0.634
 3393SOL    HW111078   6.557   6.798   0.663
 3393SOL    HW211079   6.474   6.859   0.537
 3394SOL     OW11080   5.917   2.932   1.166
 3394SOL    HW111081   5.910   2.997   1.242
 3394SOL    HW211082   5.945   2.982   1.083
 3395SOL     OW11083   6.823   3.283   3.856
 3395SOL    HW111084   6.811   3.213   3.785
 3395SOL    HW211085   6.749   3.274   3.924
 3396SOL     OW11086   0.256   3.083   3.499
 3396SOL    HW111087   0.182   3.144   3.528
 3396SOL    HW211088   0.228   2.988   3.512
 3397SOL     OW11089   4.143   0.716   5.829
 3397SOL    HW111090   4.212   0.737   5.760
 3397SOL    HW211091   4.126   0.618   5.831
 3398SOL     OW11092   1.101   0.112   4.060
 3398SOL    HW111093   1.060   0.148   4.145
 3398SOL    HW211094   1.200   0.123   4.064
 3399SOL     OW11095   4.465   4.571   4.504
 3399SOL    HW111096   4.545   4.528   4.462
 3399SOL    HW211097   4.478   4.576   4.603
 3400SOL     OW11098   4.932   2.546   5.942
 3400SOL    HW111099   4.833   2.534   5.940
 3400SOL    HW211100   4.977   2.457   5.952
 3401SOL     OW11101   6.933   3.912   0.648
 3401SOL    HW111102   6.904   3.961   0.566
 3401SOL    HW211103   0.007   3.922   0.659
 3402SOL     OW11104   5.606   5.666   1.047
 3402SOL    HW111105   5.574   5.749   1.003
 3402SOL    HW211106   5.625   5.596   0.978
 3403SOL     OW11107   3.859   0.332   5.124
 3403SOL    HW111108   3.919   0.405   5.155
 3403SOL    HW211109   3.795   0.368   5.056
 3404SOL     OW11110   4.376   1.275   0.359
 3404SOL    HW111111   4.396   1.265   0.457
 3404SOL    HW211112   4.415   1.197   0.309
 3405SOL     OW11113   6.555   3.765   6.100
 3405SOL    HW111114   6.621   3.829   6.139
 3405SOL    HW211115   6.463   3.789   6.131
 3406SOL     OW11116   2.296   4.709   1.693
 3406SOL    HW111117   2.249   4.679   1.775
 3406SOL    HW211118   2.395   4.706   1.707
 3407SOL     OW11119   1.374   6.001   1.881
 3407SOL    HW111120   1.312   6.079   1.879
 3407SOL    HW211121   1.367   5.955   1.969
 3408SOL     OW11122   4.816   4.007   3.447
 3408SOL    HW111123   4.907   3.969   3.430
 3408SOL    HW211124   4.807   4.030   3.544
 3409SOL     OW11125   3.845   6.816   5.895
 3409SOL    HW111126   3.831   6.836   5.798
 3409SOL    HW211127   3.851   6.902   5.946
 3410SOL     OW11128   5.924   5.401   6.656
 3410SOL    HW111129   5.896   5.305   6.662
 3410SOL    HW211130   5.906   5.435   6.563
 3411SOL     OW11131   5.541   2.340   2.251
 3411SOL    HW111132   5.537   2.263   2.316
 3411SOL    HW211133   5.460   2.397   2.262
 3412SOL     OW11134   3.930   2.932   6.990
 3412SOL    HW111135   3.907   2.869   0.038
 3412SOL    HW211136   3.953   3.021   0.002
 3413SOL     OW11137   4.096   1.352   2.737
 3413SOL    HW111138   4.039   1.306   2.669
 3413SOL    HW211139   4.173   1.397   2.691
 3414SOL     OW11140   3.408   1.707   5.000
 3414SOL    HW111141   3.324   1.659   5.022
 3414SOL    HW211142   3.425   1.703   4.901
 3415SOL     OW11143   1.045   4.605   4.130
 3415SOL    HW111144   1.093   4.686   4.163
 3415SOL    HW211145   1.078   4.525   4.180
 3416SOL     OW11146   0.048   4.080   5.887
 3416SOL    HW111147   0.089   4.166   5.858
 3416SOL    HW211148   6.992   4.061   5.831
 3417SOL     OW11149   6.610   5.985   2.334
 3417SOL    HW111150   6.547   5.972   2.258
 3417SOL    HW211151   6.577   5.935   2.414
 3418SOL     OW11152   3.772   1.381   4.637
 3418SOL    HW111153   3.757   1.310   4.569
 3418SOL    HW211154   3.715   1.460   4.616
 3419SOL     OW11155   4.230   4.920   6.381
 3419SOL    HW111156   4.165   4.955   6.314
 3419SOL    HW211157   4.291   4.993   6.410
 3420SOL     OW11158   5.511   1.979   3.482
 3420SOL    HW111159   5.436   2.004   3.419
 3420SOL    HW211160   5.472   1.935   3.563
 3421SOL     OW11161   6.770   0.500   5.965
 3421SOL    HW111162   6.706   0.454   6.026
 3421SOL    HW211163   6.736   0.591   5.943
 3422SOL     OW11164   3.204   0.073   1.013
 3422SOL    HW111165   3.184   0.017   0.933
 3422SOL    HW211166   3.292   0.045   1.052
 3423SOL     OW11167   2.437   0.940   6.982
 3423SOL    HW111168   2.426   0.898   6.892
 3423SOL    HW211169   2.348   0.945   0.002
 3424SOL     OW11170   3.673   1.048   2.839
 3424SOL    HW111171   3.713   1.098   2.916
 3424SOL    HW211172   3.685   1.102   2.755
 3425SOL     OW11173   5.205   4.475   2.428
 3425SOL    HW111174   5.112   4.504   2.452
 3425SOL    HW211175   5.201   4.401   2.362
 3426SOL     OW11176   3.521   3.440   0.291
 3426SOL    HW111177   3.555   3.479   0.377
 3426SOL    HW211178   3.425   3.415   0.301
 3427SOL     OW11179   6.614   6.950   0.138
 3427SOL    HW111180   6.691   7.007   0.109
 3427SOL    HW211181   6.579   6.899   0.059
 3428SOL     OW11182   4.118   5.248   1.964
 3428SOL    HW111183   4.065   5.320   2.008
 3428SOL    HW211184   4.198   5.288   1.918
 3429SOL     OW11185   0.591   2.303   6.945
 3429SOL    HW111186   0.569   2.400   6.934
 3429SOL    HW211187   0.658   2.277   6.876
 3430SOL     OW11188   1.336   6.577   6.993
 3430SOL    HW111189   1.400   6.628   0.025
 3430SOL    HW211190   1.259   6.635   6.970
 3431SOL     OW11191   2.148   6.463   1.211
 3431SOL    HW111192   2.169   6.503   1.300
 3431SOL    HW211193   2.100   6.376   1.224
 3432SOL     OW11194   2.817   2.315   5.228
 3432SOL    HW111195   2.749   2.381   5.260
 3432SOL    HW211196   2.866   2.277   5.307
 3433SOL     OW11197   2.625   1.077   6.625
 3433SOL    HW111198   2.629   1.176   6.612
 3433SOL    HW211199   2.535   1.052   6.662
 3434SOL     OW11200   3.280   2.688   0.569
 3434SOL    HW111201   3.294   2.758   0.640
 3434SOL    HW211202   3.319   2.601   0.600
 3435SOL     OW11203   0.372   2.684   1.225
 3435SOL    HW111204   0.311   2.666   1.302
 3435SOL    HW211205   0.455   2.729   1.259
 3436SOL     OW11206   4.645   6.642   4.907
 3436SOL    HW111207   4.574   6.669   4.973
 3436SOL    HW211208   4.735   6.667   4.943
 3437SOL     OW11209   4.190   0.427   6.093
 3437SOL    HW111210   4.097   0.419   6.059
 3437SOL    HW211211   4.193   0.492   6.169
 3438SOL     OW11212   1.536   2.978   6.786
 3438SOL    HW111213   1.532   2.886   6.825
 3438SOL    HW211214   1.466   2.987   6.715
 3439SOL     OW11215   2.735   0.040   5.139
 3439SOL    HW111216   2.753   0.131   5.174
 3439SOL    HW211217   2.694   7.009   5.211
 3440SOL     OW11218   4.216   3.653   1.105
 3440SOL    HW111219   4.209   3.749   1.079
 3440SOL    HW211220   4.201   3.644   1.204
 3441SOL     OW11221   4.714   0.515   3.531
 3441SOL    HW111222   4.703   0.575   3.610
 3441SOL    HW211223   4.638   0.450   3.528
 3442SOL     OW11224   2.343   4.895   3.506
 3442SOL    HW111225   2.321   4.975   3.451
 3442SOL    HW211226   2.294   4.815   3.469
 3443SOL     OW11227   5.673   1.110   3.238
 3443SOL    HW111228   5.712   1.119   3.329
 3443SOL    HW211229   5.660   1.013   3.217
 3444SOL     OW11230   4.849   5.436   6.639
 3444SOL    HW111231   4.839   5.412   6.543
 3444SOL    HW211232   4.912   5.372   6.683
 3445SOL     OW11233   6.332   3.831   4.511
 3445SOL    HW111234   6.383   3.762   4.561
 3445SOL    HW211235   6.367   3.837   4.417
 3446SOL     OW11236   4.916   1.129   2.773
 3446SOL    HW111237   4.937   1.142   2.676
 3446SOL    HW211238   4.817   1.137   2.787
 3447SOL     OW11239   5.598   4.902   0.008
 3447SOL    HW111240   5.606   4.925   6.937
 3447SOL    HW211241   5.590   4.803   0.019
 3448SOL     OW11242   3.476   6.650   0.933
 3448SOL    HW111243   3.463   6.551   0.933
 3448SOL    HW211244   3.542   6.675   0.863
 3449SOL     OW11245   6.454   6.218   2.530
 3449SOL    HW111246   6.456   6.149   2.603
 3449SOL    HW211247   6.415   6.178   2.448
 3450SOL     OW11248   0.873   2.173   0.814
 3450SOL    HW111249   0.819   2.102   0.769
 3450SOL    HW211250   0.839   2.263   0.785
 3451SOL     OW11251   0.734   5.833   3.611
 3451SOL    HW111252   0.743   5.740   3.646
 3451SOL    HW211253   0.667   5.835   3.537
 3452SOL     OW11254   6.328   0.670   6.945
 3452SOL    HW111255   6.394   0.689   7.018
 3452SOL    HW211256   6.296   0.575   6.953
 3453SOL     OW11257   5.725   5.768   5.039
 3453SOL    HW111258   5.683   5.679   5.021
 3453SOL    HW211259   5.671   5.840   4.997
 3454SOL     OW11260   1.646   1.108   6.468
 3454SOL    HW111261   1.631   1.147   6.559
 3454SOL    HW211262   1.681   1.015   6.478
 3455SOL     OW11263   1.190   2.868   4.688
 3455SOL    HW111264   1.197   2.784   4.742
 3455SOL    HW211265   1.273   2.923   4.700
 3456SOL     OW11266   5.882   5.723   2.204
 3456SOL    HW111267   5.968   5.769   2.182
 3456SOL    HW211268   5.881   5.700   2.302
 3457SOL     OW11269   2.748   5.401   4.021
 3457SOL    HW111270   2.710   5.475   4.077
 3457SOL    HW211271   2.802   5.340   4.079
 3458SOL     OW11272   5.466   0.070   0.051
 3458SOL    HW111273   5.519   7.022   0.009
 3458SOL    HW211274   5.508   0.158   0.029
 3459SOL     OW11275   0.556   3.445   3.198
 3459SOL    HW111276   0.643   3.400   3.174
 3459SOL    HW211277   0.562   3.543   3.177
 3460SOL     OW11278   3.512   3.133   0.459
 3460SOL    HW111279   3.435   3.078   0.426
 3460SOL    HW211280   3.503   3.227   0.425
 3461SOL     OW11281   3.779   5.155   4.368
 3461SOL    HW111282   3.738   5.067   4.344
 3461SOL    HW211283   3.770   5.170   4.466
 3462SOL     OW11284   6.303   2.930   2.253
 3462SOL    HW111285   6.344   2.851   2.300
 3462SOL    HW211286   6.203   2.925   2.263
 3463SOL     OW11287   0.618   2.982   2.901
 3463SOL    HW111288   0.540   2.991   2.962
 3463SOL    HW211289   0.702   3.007   2.949
 3464SOL     OW11290   5.717   2.199   0.212
 3464SOL    HW111291   5.652   2.180   0.138
 3464SOL    HW211292   5.702   2.292   0.245
 3465SOL     OW11293   1.886   3.495   1.522
 3465SOL    HW111294   1.893   3.594   1.527
 3465SOL    HW211295   1.909   3.463   1.430
 3466SOL     OW11296   5.514   5.225   5.557
 3466SOL    HW111297   5.528   5.298   5.490
 3466SOL    HW211298   5.417   5.202   5.562
 3467SOL     OW11299   3.307   1.550   0.736
 3467SOL    HW111300   3.372   1.480   0.707
 3467SOL    HW211301   3.350   1.611   0.801
 3468SOL     OW11302   4.942   1.502   2.264
 3468SOL    HW111303   4.990   1.478   2.348
 3468SOL    HW211304   4.844   1.511   2.282
 3469SOL     OW11305   5.022   0.238   6.438
 3469SOL    HW111306   5.017   0.161   6.374
 3469SOL    HW211307   5.118   0.259   6.457
 3470SOL     OW11308   0.527   2.995   1.788
 3470SOL    HW111309   0.544   2.977   1.885
 3470SOL    HW211310   0.533   2.910   1.737
 3471SOL     OW11311   4.627   4.347   3.698
 3471SOL    HW111312   4.556   4.281   3.726
 3471SOL    HW211313   4.616   4.432   3.750
 3472SOL     OW11314   3.395   1.445   2.533
 3472SOL    HW111315   3.368   1.369   2.592
 3472SOL    HW211316   3.408   1.528   2.588
 3473SOL     OW11317   6.992   3.569   3.582
 3473SOL    HW111318   6.950   3.660   3.580
 3473SOL    HW211319   0.053   3.571   3.533
 3474SOL     OW11320   0.286   4.115   3.950
 3474SOL    HW111321   0.209   4.177   3.964
 3474SOL    HW211322   0.287   4.046   4.023
 3475SOL     OW11323   0.442   4.922   3.685
 3475SOL    HW111324   0.378   4.847   3.673
 3475SOL    HW211325   0.457   4.938   3.783
 3476SOL     OW11326   1.627   1.546   3.187
 3476SOL    HW111327   1.597   1.467   3.134
 3476SOL    HW211328   1.596   1.630   3.142
 3477SOL     OW11329   1.000   3.745   0.380
 3477SOL    HW111330   0.917   3.756   0.325
 3477SOL    HW211331   1.016   3.648   0.398
 3478SOL     OW11332   2.281   0.306   6.848
 3478SOL    HW111333   2.374   0.310   6.886
 3478SOL    HW211334   2.228   0.238   6.898
 3479SOL     OW11335   1.037   1.608   3.645
 3479SOL    HW111336   1.132   1.579   3.635
 3479SOL    HW211337   0.987   1.543   3.702
 3480SOL     OW11338   0.720   5.889   6.415
 3480SOL    HW111339   0.693   5.817   6.479
 3480SOL    HW211340   0.818   5.879   6.395
 3481SOL     OW11341   5.523   0.968   0.769
 3481SOL    HW111342   5.499   0.916   0.688
 3481SOL    HW211343   5.623   0.969   0.779
 3482SOL     OW11344   6.308   1.751   2.883
 3482SOL    HW111345   6.302   1.744   2.983
 3482SOL    HW211346   6.405   1.755   2.857
 3483SOL     OW11347   5.591   2.238   3.129
 3483SOL    HW111348   5.627   2.215   3.220
 3483SOL    HW211349   5.612   2.333   3.108
 3484SOL     OW11350   1.497   3.435   6.737
 3484SOL    HW111351   1.587   3.431   6.780
 3484SOL    HW211352   1.468   3.531   6.731
 3485SOL     OW11353   0.656   2.377   5.076
 3485SOL    HW111354   0.713   2.410   5.000
 3485SOL    HW211355   0.630   2.282   5.059
 3486SOL     OW11356   2.165   0.226   4.206
 3486SOL    HW111357   2.215   0.307   4.176
 3486SOL    HW211358   2.087   0.254   4.263
 3487SOL     OW11359   6.394   2.544   0.121
 3487SOL    HW111360   6.329   2.577   0.189
 3487SOL    HW211361   6.475   2.507   0.167
 3488SOL     OW11362   5.715   0.838   4.492
 3488SOL    HW111363   5.704   0.900   4.570
 3488SOL    HW211364   5.674   0.880   4.411
 3489SOL     OW11365   3.272   6.980   1.310
 3489SOL    HW111366   3.243   0.020   1.240
 3489SOL    HW211367   3.348   7.018   1.362
 3490SOL     OW11368   3.789   5.144   1.621
 3490SOL    HW111369   3.744   5.063   1.659
 3490SOL    HW211370   3.790   5.217   1.689
 3491SOL     OW11371   4.112   3.346   5.880
 3491SOL    HW111372   4.132   3.366   5.976
 3491SOL    HW211373   4.182   3.387   5.822
 3492SOL     OW11374   6.660   4.665   1.511
 3492SOL    HW111375   6.588   4.734   1.501
 3492SOL    HW211376   6.688   4.633   1.420
 3493SOL     OW11377   6.510   3.889   3.799
 3493SOL    HW111378   6.506   3.818   3.728
 3493SOL    HW211379   6.532   3.847   3.887
 3494SOL     OW11380   2.432   1.281   1.955
 3494SOL    HW111381   2.440   1.335   1.871
 3494SOL    HW211382   2.486   1.197   1.946
 3495SOL     OW11383   0.497   3.875   2.768
 3495SOL    HW111384   0.517   3.899   2.673
 3495SOL    HW211385   0.464   3.956   2.817
 3496SOL     OW11386   5.715   4.845   0.915
 3496SOL    HW111387   5.670   4.759   0.895
 3496SOL    HW211388   5.648   4.908   0.956
 3497SOL     OW11389   2.975   1.044   4.093
 3497SOL    HW111390   2.891   1.003   4.128
 3497SOL    HW211391   2.959   1.141   4.074
 3498SOL     OW11392   2.970   1.329   2.182
 3498SOL    HW111393   2.964   1.377   2.269
 3498SOL    HW211394   2.976   1.395   2.108
 3499SOL     OW11395   6.866   5.212   4.592
 3499SOL    HW111396   6.876   5.113   4.588
 3499SOL    HW211397   6.841   5.239   4.685
 3500SOL     OW11398   2.202   3.049   3.966
 3500SOL    HW111399   2.130   2.995   3.923
 3500SOL    HW211400   2.286   2.995   3.972
 3501SOL     OW11401   2.582   6.963   6.195
 3501SOL    HW111402   2.566   6.981   6.292
 3501SOL    HW211403   2.495   6.968   6.145
 3502SOL     OW11404   6.317   3.212   1.468
 3502SOL    HW111405   6.235   3.203   1.525
 3502SOL    HW211406   6.334   3.309   1.450
 3503SOL     OW11407   0.002   6.433   5.843
 3503SOL    HW111408   0.001   6.404   5.748
 3503SOL    HW211409   6.958   6.503   5.858
 3504SOL     OW11410   2.215   1.129   2.207
 3504SOL    HW111411   2.184   1.184   2.130
 3504SOL    HW211412   2.248   1.190   2.280
 3505SOL     OW11413   5.600   5.452   5.410
 3505SOL    HW111414   5.698   5.446   5.388
 3505SOL    HW211415   5.583   5.533   5.465
 3506SOL     OW11416   5.660   4.501   4.788
 3506SOL    HW111417   5.621   4.461   4.705
 3506SOL    HW211418   5.697   4.591   4.767
 3507SOL     OW11419   2.302   6.989   0.095
 3507SOL    HW111420   2.243   0.012   0.030
 3507SOL    HW211421   2.377   6.944   0.045
 3508SOL     OW11422   2.815   2.553   6.150
 3508SOL    HW111423   2.725   2.586   6.179
 3508SOL    HW211424   2.881   2.567   6.224
 3509SOL     OW11425   5.896   6.576   0.138
 3509SOL    HW111426   5.832   6.643   0.176
 3509SOL    HW211427   5.871   6.558   0.043
 3510SOL     OW11428   1.659   0.711   1.300
 3510SOL    HW111429   1.586   0.688   1.363
 3510SOL    HW211430   1.671   0.637   1.234
 3511SOL     OW11431   1.801   4.322   1.693
 3511SOL    HW111432   1.819   4.267   1.612
 3511SOL    HW211433   1.810   4.265   1.775
 3512SOL     OW11434   1.066   3.885   0.806
 3512SOL    HW111435   1.022   3.957   0.860
 3512SOL    HW211436   1.134   3.838   0.864
 3513SOL     OW11437   6.116   1.847   1.343
 3513SOL    HW111438   6.166   1.812   1.264
 3513SOL    HW211439   6.041   1.905   1.311
 3514SOL     OW11440   6.012   0.285   2.009
 3514SOL    HW111441   5.978   0.224   1.937
 3514SOL    HW211442   5.967   0.262   2.096
 3515SOL     OW11443   5.388   6.001   3.647
 3515SOL    HW111444   5.478   6.014   3.689
 3515SOL    HW211445   5.339   6.088   3.646
 3516SOL     OW11446   5.305   6.079   1.413
 3516SOL    HW111447   5.329   5.982   1.400
 3516SOL    HW211448   5.367   6.136   1.359
 3517SOL     OW11449   0.083   1.888   1.156
 3517SOL    HW111450   0.081   1.874   1.255
 3517SOL    HW211451   0.000   1.935   1.127
 3518SOL     OW11452   5.334   2.032   5.216
 3518SOL    HW111453   5.422   1.995   5.245
 3518SOL    HW211454   5.347   2.123   5.178
 3519SOL     OW11455   2.171   1.170   5.853
 3519SOL    HW111456   2.160   1.130   5.762
 3519SOL    HW211457   2.101   1.134   5.914
 3520SOL     OW11458   2.874   6.819   0.127
 3520SOL    HW111459   2.892   6.879   0.205
 3520SOL    HW211460   2.810   6.748   0.153
 3521SOL     OW11461   3.836   2.747   6.637
 3521SOL    HW111462   3.804   2.670   6.581
 3521SOL    HW211463   3.760   2.781   6.693
 3522SOL     OW11464   6.301   5.238   6.718
 3522SOL    HW111465   6.353   5.160   6.750
 3522SOL    HW211466   6.271   5.222   6.624
 3523SOL     OW11467   1.672   4.320   5.187
 3523SOL    HW111468   1.722   4.331   5.101
 3523SOL    HW211469   1.615   4.238   5.182
 3524SOL     OW11470   4.866   1.866   2.001
 3524SOL    HW111471   4.957   1.875   2.040
 3524SOL    HW211472   4.800   1.845   2.073
 3525SOL     OW11473   6.444   3.571   4.600
 3525SOL    HW111474   6.428   3.553   4.503
 3525SOL    HW211475   6.542   3.571   4.618
 3526SOL     OW11476   1.957   0.197   3.644
 3526SOL    HW111477   2.007   0.280   3.620
 3526SOL    HW211478   1.957   0.186   3.743
 3527SOL     OW11479   5.684   3.546   6.146
 3527SOL    HW111480   5.704   3.467   6.203
 3527SOL    HW211481   5.614   3.602   6.190
 3528SOL     OW11482   2.380   6.001   5.043
 3528SOL    HW111483   2.298   6.040   5.000
 3528SOL    HW211484   2.366   5.994   5.142
 3529SOL     OW11485   4.114   6.852   0.537
 3529SOL    HW111486   4.109   6.814   0.629
 3529SOL    HW211487   4.210   6.870   0.514
 3530SOL     OW11488   0.084   5.225   1.697
 3530SOL    HW111489   0.078   5.267   1.787
 3530SOL    HW211490   0.013   5.156   1.688
 3531SOL     OW11491   5.536   2.589   0.741
 3531SOL    HW111492   5.609   2.608   0.808
 3531SOL    HW211493   5.574   2.536   0.666
 3532SOL     OW11494   2.539   0.997   1.505
 3532SOL    HW111495   2.534   1.060   1.428
 3532SOL    HW211496   2.570   1.047   1.586
 3533SOL     OW11497   0.646   1.144   2.705
 3533SOL    HW111498   0.546   1.138   2.709
 3533SOL    HW211499   0.677   1.113   2.615
 3534SOL     OW11500   0.781   2.275   1.283
 3534SOL    HW111501   0.734   2.260   1.371
 3534SOL    HW211502   0.769   2.194   1.226
 3535SOL     OW11503   1.981   5.669   6.266
 3535SOL    HW111504   1.887   5.637   6.277
 3535SOL    HW211505   1.988   5.764   6.296
 3536SOL     OW11506   3.214   2.199   3.328
 3536SOL    HW111507   3.183   2.154   3.245
 3536SOL    HW211508   3.312   2.182   3.341
 3537SOL     OW11509   1.973   5.756   2.081
 3537SOL    HW111510   1.972   5.668   2.034
 3537SOL    HW211511   1.912   5.752   2.160
 3538SOL     OW11512   2.574   5.906   5.395
 3538SOL    HW111513   2.580   5.881   5.492
 3538SOL    HW211514   2.638   5.850   5.343
 3539SOL     OW11515   3.314   3.299   4.559
 3539SOL    HW111516   3.385   3.330   4.496
 3539SOL    HW211517   3.275   3.213   4.525
 3540SOL     OW11518   1.826   2.366   4.648
 3540SOL    HW111519   1.738   2.377   4.693
 3540SOL    HW211520   1.826   2.283   4.593
 3541SOL     OW11521   2.925   2.423   5.768
 3541SOL    HW111522   2.952   2.494   5.833
 3541SOL    HW211523   2.998   2.410   5.701
 3542SOL     OW11524   1.380   4.922   2.851
 3542SOL    HW111525   1.440   4.871   2.911
 3542SOL    HW211526   1.424   4.936   2.762
 3543SOL     OW11527   6.258   2.560   3.791
 3543SOL    HW111528   6.234   2.464   3.807
 3543SOL    HW211529   6.175   2.614   3.781
 3544SOL     OW11530   1.928   4.439   6.605
 3544SOL    HW111531   2.027   4.427   6.603
 3544SOL    HW211532   1.892   4.439   6.512
 3545SOL     OW11533   3.552   6.338   6.818
 3545SOL    HW111534   3.515   6.408   6.756
 3545SOL    HW211535   3.477   6.298   6.870
 3546SOL     OW11536   0.316   4.311   3.287
 3546SOL    HW111537   0.369   4.393   3.308
 3546SOL    HW211538   0.378   4.234   3.271
 3547SOL     OW11539   4.651   4.411   4.067
 3547SOL    HW111540   4.681   4.477   3.999
 3547SOL    HW211541   4.569   4.444   4.112
 3548SOL     OW11542   5.633   1.558   6.029
 3548SOL    HW111543   5.610   1.475   6.078
 3548SOL    HW211544   5.590   1.637   6.074
 3549SOL     OW11545   6.916   4.935   4.599
 3549SOL    HW111546   6.980   4.889   4.538
 3549SOL    HW211547   6.941   4.917   4.694
 3550SOL     OW11548   4.973   2.895   2.378
 3550SOL    HW111549   4.903   2.874   2.309
 3550SOL    HW211550   5.048   2.830   2.371
 3551SOL     OW11551   4.032   6.073   2.696
 3551SOL    HW111552   3.982   6.082   2.782
 3551SOL    HW211553   4.124   6.037   2.714
 3552SOL     OW11554   4.998   6.192   2.392
 3552SOL    HW111555   5.074   6.193   2.456
 3552SOL    HW211556   5.013   6.122   2.322
 3553SOL     OW11557   5.867   3.083   1.418
 3553SOL    HW111558   5.905   3.141   1.346
 3553SOL    HW211559   5.769   3.097   1.423
 3554SOL     OW11560   3.266   3.219   1.043
 3554SOL    HW111561   3.323   3.155   1.095
 3554SOL    HW211562   3.217   3.279   1.106
 3555SOL     OW11563   0.871   3.086   3.055
 3555SOL    HW111564   0.947   3.121   3.000
 3555SOL    HW211565   0.864   3.140   3.140
 3556SOL     OW11566   3.979   0.935   5.094
 3556SOL    HW111567   3.945   0.956   5.186
 3556SOL    HW211568   3.906   0.893   5.040
 3557SOL     OW11569   0.626   0.590   3.821
 3557SOL    HW111570   0.609   0.558   3.727
 3557SOL    HW211571   0.560   0.549   3.883
 3558SOL     OW11572   0.168   6.218   1.356
 3558SOL    HW111573   0.233   6.168   1.414
 3558SOL    HW211574   0.111   6.277   1.413
 3559SOL     OW11575   0.255   0.232   4.371
 3559SOL    HW111576   0.264   0.314   4.315
 3559SOL    HW211577   0.319   0.237   4.448
 3560SOL     OW11578   1.515   5.445   0.995
 3560SOL    HW111579   1.524   5.542   0.971
 3560SOL    HW211580   1.563   5.389   0.928
 3561SOL     OW11581   4.843   5.119   5.713
 3561SOL    HW111582   4.880   5.146   5.624
 3561SOL    HW211583   4.748   5.090   5.703
 3562SOL     OW11584   4.673   0.977   4.118
 3562SOL    HW111585   4.724   1.044   4.172
 3562SOL    HW211586   4.684   0.886   4.158
 3563SOL     OW11587   5.264   0.927   1.668
 3563SOL    HW111588   5.317   1.011   1.668
 3563SOL    HW211589   5.223   0.914   1.578
 3564SOL     OW11590   1.505   4.639   4.035
 3564SOL    HW111591   1.503   4.666   3.938
 3564SOL    HW211592   1.484   4.541   4.042
 3565SOL     OW11593   3.735   6.606   4.992
 3565SOL    HW111594   3.774   6.690   4.953
 3565SOL    HW211595   3.654   6.579   4.941
 3566SOL     OW11596   0.009   3.169   5.995
 3566SOL    HW111597   0.002   3.186   6.094
 3566SOL    HW211598   0.083   3.225   5.957
 3567SOL     OW11599   1.562   2.378   0.119
 3567SOL    HW111600   1.649   2.330   0.112
 3567SOL    HW211601   1.509   2.364   0.035
 3568SOL     OW11602   5.448   4.978   2.943
 3568SOL    HW111603   5.403   4.889   2.940
 3568SOL    HW211604   5.541   4.970   2.905
 3569SOL     OW11605   3.071   3.069   5.226
 3569SOL    HW111606   3.093   3.045   5.132
 3569SOL    HW211607   3.050   2.986   5.278
 3570SOL     OW11608   5.204   0.626   5.305
 3570SOL    HW111609   5.272   0.615   5.232
 3570SOL    HW211610   5.248   0.611   5.394
 3571SOL     OW11611   1.480   0.934   5.018
 3571SOL    HW111612   1.564   0.907   5.065
 3571SOL    HW211613   1.453   0.863   4.954
 3572SOL     OW11614   5.302   3.629   2.698
 3572SOL    HW111615   5.256   3.595   2.780
 3572SOL    HW211616   5.303   3.729   2.701
 3573SOL     OW11617   6.664   4.398   2.278
 3573SOL    HW111618   6.667   4.318   2.218
 3573SOL    HW211619   6.617   4.375   2.363
 3574SOL     OW11620   1.993   3.450   6.998
 3574SOL    HW111621   2.033   3.445   6.906
 3574SOL    HW211622   1.896   3.474   6.990
 3575SOL     OW11623   5.277   5.421   1.443
 3575SOL    HW111624   5.181   5.447   1.444
 3575SOL    HW211625   5.320   5.456   1.360
 3576SOL     OW11626   0.279   2.591   0.326
 3576SOL    HW111627   0.242   2.499   0.338
 3576SOL    HW211628   0.240   2.653   0.394
 3577SOL     OW11629   2.193   3.264   5.467
 3577SOL    HW111630   2.282   3.259   5.422
 3577SOL    HW211631   2.185   3.190   5.534
 3578SOL     OW11632   3.988   3.053   1.116
 3578SOL    HW111633   4.073   3.056   1.169
 3578SOL    HW211634   3.914   3.091   1.171
 3579SOL     OW11635   0.040   3.322   3.276
 3579SOL    HW111636   0.133   3.357   3.271
 3579SOL    HW211637   0.021   3.266   3.195
 3580SOL     OW11638   6.738   4.013   1.288
 3580SOL    HW111639   6.676   4.074   1.238
 3580SOL    HW211640   6.685   3.941   1.332
 3581SOL     OW11641   1.236   6.473   3.253
 3581SOL    HW111642   1.302   6.447   3.324
 3581SOL    HW211643   1.177   6.545   3.288
 3582SOL     OW11644   3.526   5.037   5.653
 3582SOL    HW111645   3.543   4.977   5.575
 3582SOL    HW211646   3.610   5.049   5.705
 3583SOL     OW11647   0.878   4.596   0.682
 3583SOL    HW111648   0.819   4.518   0.666
 3583SOL    HW211649   0.929   4.618   0.599
 3584SOL     OW11650   5.926   5.090   5.494
 3584SOL    HW111651   5.895   5.141   5.574
 3584SOL    HW211652   5.934   4.993   5.517
 3585SOL     OW11653   3.161   1.915   5.201
 3585SOL    HW111654   3.072   1.932   5.159
 3585SOL    HW211655   3.232   1.965   5.151
 3586SOL     OW11656   6.288   2.826   4.193
 3586SOL    HW111657   6.325   2.733   4.199
 3586SOL    HW211658   6.188   2.821   4.186
 3587SOL     OW11659   3.402   5.958   6.908
 3587SOL    HW111660   3.373   6.001   6.994
 3587SOL    HW211661   3.412   6.028   6.838
 3588SOL     OW11662   6.514   4.349   4.126
 3588SOL    HW111663   6.528   4.429   4.069
 3588SOL    HW211664   6.447   4.370   4.197
 3589SOL     OW11665   6.910   0.004   6.219
 3589SOL    HW111666   6.849   7.005   6.143
 3589SOL    HW211667   7.004   0.008   6.186
 3590SOL     OW11668   0.024   4.062   0.362
 3590SOL    HW111669   0.052   4.157   0.350
 3590SOL    HW211670   0.085   4.002   0.309
 3591SOL     OW11671   5.542   2.823   0.380
 3591SOL    HW111672   5.557   2.921   0.364
 3591SOL    HW211673   5.578   2.770   0.304
 3592SOL     OW11674   0.599   0.469   2.332
 3592SOL    HW111675   0.685   0.434   2.369
 3592SOL    HW211676   0.605   0.474   2.232
 3593SOL     OW11677   0.152   4.592   5.872
 3593SOL    HW111678   0.228   4.593   5.806
 3593SOL    HW211679   0.110   4.682   5.875
 3594SOL     OW11680   4.591   6.283   5.183
 3594SOL    HW111681   4.584   6.339   5.266
 3594SOL    HW211682   4.500   6.270   5.144
 3595SOL     OW11683   6.171   6.149   0.085
 3595SOL    HW111684   6.115   6.216   0.134
 3595SOL    HW211685   6.225   6.195   0.015
 3596SOL     OW11686   4.481   1.949   3.017
 3596SOL    HW111687   4.552   1.990   3.074
 3596SOL    HW211688   4.408   1.913   3.075
 3597SOL     OW11689   1.822   3.276   5.805
 3597SOL    HW111690   1.910   3.232   5.787
 3597SOL    HW211691   1.749   3.218   5.770
 3598SOL     OW11692   1.658   6.559   5.703
 3598SOL    HW111693   1.570   6.606   5.712
 3598SOL    HW211694   1.643   6.466   5.669
 3599SOL     OW11695   4.832   1.563   5.920
 3599SOL    HW111696   4.877   1.552   6.008
 3599SOL    HW211697   4.832   1.475   5.871
 3600SOL     OW11698   1.782   3.237   1.080
 3600SOL    HW111699   1.837   3.318   1.099
 3600SOL    HW211700   1.839   3.155   1.090
 3601SOL     OW11701   5.327   1.701   5.451
 3601SOL    HW111702   5.401   1.699   5.518
 3601SOL    HW211703   5.240   1.718   5.497
 3602SOL     OW11704   2.266   2.632   1.400
 3602SOL    HW111705   2.218   2.545   1.414
 3602SOL    HW211706   2.271   2.652   1.303
 3603SOL     OW11707   3.525   0.965   6.483
 3603SOL    HW111708   3.618   0.952   6.449
 3603SOL    HW211709   3.508   1.063   6.497
 3604SOL     OW11710   6.695   0.638   3.340
 3604SOL    HW111711   6.708   0.664   3.436
 3604SOL    HW211712   6.690   0.538   3.332
 3605SOL     OW11713   1.653   5.291   3.999
 3605SOL    HW111714   1.667   5.293   4.098
 3605SOL    HW211715   1.736   5.260   3.953
 3606SOL     OW11716   1.422   6.154   1.475
 3606SOL    HW111717   1.456   6.202   1.394
 3606SOL    HW211718   1.338   6.197   1.507
 3607SOL     OW11719   5.349   2.897   2.749
 3607SOL    HW111720   5.349   2.799   2.768
 3607SOL    HW211721   5.285   2.943   2.811
 3608SOL     OW11722   5.040   2.168   4.075
 3608SOL    HW111723   5.008   2.214   4.158
 3608SOL    HW211724   4.964   2.154   4.012
 3609SOL     OW11725   2.139   6.426   4.569
 3609SOL    HW111726   2.238   6.410   4.565
 3609SOL    HW211727   2.113   6.443   4.664
 3610SOL     OW11728   1.848   0.230   5.628
 3610SOL    HW111729   1.763   0.208   5.675
 3610SOL    HW211730   1.871   0.327   5.643
 3611SOL     OW11731   4.689   4.447   4.366
 3611SOL    HW111732   4.641   4.467   4.281
 3611SOL    HW211733   4.705   4.348   4.372
 3612SOL     OW11734   6.586   1.504   6.519
 3612SOL    HW111735   6.532   1.428   6.482
 3612SOL    HW211736   6.657   1.468   6.580
 3613SOL     OW11737   4.618   5.059   1.764
 3613SOL    HW111738   4.633   4.989   1.694
 3613SOL    HW211739   4.666   5.034   1.848
 3614SOL     OW11740   3.229   3.756   6.944
 3614SOL    HW111741   3.253   3.762   6.847
 3614SOL    HW211742   3.169   3.833   6.968
 3615SOL     OW11743   5.858   3.183   5.695
 3615SOL    HW111744   5.794   3.137   5.634
 3615SOL    HW211745   5.952   3.156   5.671
 3616SOL     OW11746   1.776   2.356   6.279
 3616SOL    HW111747   1.787   2.353   6.180
 3616SOL    HW211748   1.794   2.266   6.317
 3617SOL     OW11749   4.441   6.231   5.743
 3617SOL    HW111750   4.343   6.251   5.746
 3617SOL    HW211751   4.488   6.285   5.813
 3618SOL     OW11752   2.154   3.626   5.168
 3618SOL    HW111753   2.225   3.635   5.237
 3618SOL    HW211754   2.136   3.529   5.151
 3619SOL     OW11755   5.624   3.425   0.515
 3619SOL    HW111756   5.559   3.382   0.579
 3619SOL    HW211757   5.578   3.499   0.467
 3620SOL     OW11758   6.267   6.048   4.623
 3620SOL    HW111759   6.183   6.031   4.572
 3620SOL    HW211760   6.341   5.995   4.583
 3621SOL     OW11761   3.563   3.333   4.139
 3621SOL    HW111762   3.529   3.362   4.228
 3621SOL    HW211763   3.657   3.366   4.126
 3622SOL     OW11764   0.878   0.740   1.282
 3622SOL    HW111765   0.973   0.755   1.309
 3622SOL    HW211766   0.827   0.704   1.360
 3623SOL     OW11767   0.474   5.596   6.130
 3623SOL    HW111768   0.507   5.653   6.054
 3623SOL    HW211769   0.551   5.552   6.175
 3624SOL     OW11770   1.974   0.261   1.492
 3624SOL    HW111771   2.063   0.269   1.448
 3624SOL    HW211772   1.960   0.340   1.552
 3625SOL     OW11773   6.827   3.082   6.815
 3625SOL    HW111774   6.803   3.159   6.755
 3625SOL    HW211775   6.857   3.005   6.759
 3626SOL     OW11776   0.104   3.787   4.238
 3626SOL    HW111777   0.104   3.763   4.335
 3626SOL    HW211778   0.136   3.709   4.184
 3627SOL     OW11779   4.567   3.082   1.234
 3627SOL    HW111780   4.643   3.017   1.248
 3627SOL    HW211781   4.604   3.173   1.218
 3628SOL     OW11782   1.126   1.856   1.903
 3628SOL    HW111783   1.158   1.949   1.922
 3628SOL    HW211784   1.051   1.860   1.838
 3629SOL     OW11785   0.997   0.814   3.411
 3629SOL    HW111786   1.081   0.787   3.458
 3629SOL    HW211787   0.918   0.782   3.464
 3630SOL     OW11788   6.858   2.618   2.886
 3630SOL    HW111789   6.786   2.603   2.953
 3630SOL    HW211790   6.935   2.557   2.906
 3631SOL     OW11791   1.828   0.035   3.354
 3631SOL    HW111792   1.840   0.086   3.440
 3631SOL    HW211793   1.734   7.025   3.349
 3632SOL     OW11794   4.309   3.662   0.589
 3632SOL    HW111795   4.366   3.743   0.599
 3632SOL    HW211796   4.290   3.622   0.679
 3633SOL     OW11797   3.259   2.610   5.672
 3633SOL    HW111798   3.162   2.610   5.698
 3633SOL    HW211799   3.285   2.518   5.644
 3634SOL     OW11800   2.569   6.268   5.770
 3634SOL    HW111801   2.612   6.357   5.755
 3634SOL    HW211802   2.573   6.246   5.868
 3635SOL     OW11803   2.780   1.236   1.582
 3635SOL    HW111804   2.723   1.175   1.637
 3635SOL    HW211805   2.782   1.204   1.487
 3636SOL     OW11806   6.755   5.234   0.595
 3636SOL    HW111807   6.749   5.329   0.625
 3636SOL    HW211808   6.825   5.226   0.524
 3637SOL     OW11809   0.757   3.286   6.746
 3637SOL    HW111810   0.736   3.291   6.649
 3637SOL    HW211811   0.788   3.376   6.778
 3638SOL     OW11812   6.606   3.671   2.864
 3638SOL    HW111813   6.541   3.741   2.892
 3638SOL    HW211814   6.685   3.715   2.820
 3639SOL     OW11815   3.951   3.947   4.955
 3639SOL    HW111816   4.035   3.897   4.933
 3639SOL    HW211817   3.872   3.897   4.922
 3640SOL     OW11818   5.327   3.039   0.239
 3640SOL    HW111819   5.314   3.063   0.335
 3640SOL    HW211820   5.397   2.967   0.231
 3641SOL     OW11821   6.111   3.828   1.102
 3641SOL    HW111822   6.038   3.821   1.034
 3641SOL    HW211823   6.123   3.924   1.129
 3642SOL     OW11824   5.723   2.407   6.452
 3642SOL    HW111825   5.809   2.392   6.501
 3642SOL    HW211826   5.742   2.448   6.362
 3643SOL     OW11827   4.414   6.239   6.343
 3643SOL    HW111828   4.449   6.185   6.421
 3643SOL    HW211829   4.380   6.177   6.273
 3644SOL     OW11830   2.378   0.773   1.707
 3644SOL    HW111831   2.369   0.862   1.751
 3644SOL    HW211832   2.406   0.786   1.612
 3645SOL     OW11833   1.502   3.975   4.224
 3645SOL    HW111834   1.591   3.978   4.179
 3645SOL    HW211835   1.468   4.069   4.237
 3646SOL     OW11836   2.920   4.855   4.946
 3646SOL    HW111837   2.963   4.898   5.026
 3646SOL    HW211838   2.879   4.768   4.972
 3647SOL     OW11839   1.983   6.729   0.380
 3647SOL    HW111840   2.032   6.699   0.463
 3647SOL    HW211841   1.894   6.684   0.376
 3648SOL     OW11842   5.046   5.849   3.361
 3648SOL    HW111843   5.126   5.908   3.351
 3648SOL    HW211844   5.029   5.832   3.458
 3649SOL     OW11845   5.849   3.357   6.875
 3649SOL    HW111846   5.892   3.440   6.838
 3649SOL    HW211847   5.764   3.381   6.922
 3650SOL     OW11848   4.698   4.370   1.104
 3650SOL    HW111849   4.627   4.438   1.090
 3650SOL    HW211850   4.733   4.339   1.016
 3651SOL     OW11851   1.869   2.253   5.571
 3651SOL    HW111852   1.924   2.304   5.505
 3651SOL    HW211853   1.812   2.187   5.523
 3652SOL     OW11854   5.372   0.785   2.552
 3652SOL    HW111855   5.332   0.749   2.468
 3652SOL    HW211856   5.310   0.851   2.594
 3653SOL     OW11857   1.292   1.179   2.187
 3653SOL    HW111858   1.238   1.096   2.172
 3653SOL    HW211859   1.385   1.154   2.214
 3654SOL     OW11860   5.257   6.191   1.059
 3654SOL    HW111861   5.234   6.106   1.011
 3654SOL    HW211862   5.173   6.236   1.089
 3655SOL     OW11863   3.101   0.990   4.374
 3655SOL    HW111864   3.031   0.927   4.340
 3655SOL    HW211865   3.192   0.956   4.350
 3656SOL     OW11866   1.026   5.653   2.040
 3656SOL    HW111867   1.069   5.577   2.089
 3656SOL    HW211868   0.965   5.617   1.969
 3657SOL     OW11869   5.125   6.300   5.661
 3657SOL    HW111870   5.194   6.364   5.696
 3657SOL    HW211871   5.127   6.301   5.561
 3658SOL     OW11872   1.343   5.560   6.576
 3658SOL    HW111873   1.389   5.508   6.648
 3658SOL    HW211874   1.370   5.524   6.486
 3659SOL     OW11875   0.161   1.714   6.276
 3659SOL    HW111876   0.222   1.692   6.353
 3659SOL    HW211877   0.067   1.691   6.300
 3660SOL     OW11878   5.250   5.841   5.586
 3660SOL    HW111879   5.172   5.900   5.607
 3660SOL    HW211880   5.240   5.754   5.636
 3661SOL     OW11881   6.915   1.362   4.769
 3661SOL    HW111882   6.827   1.360   4.722
 3661SOL    HW211883   6.970   1.438   4.733
 3662SOL     OW11884   3.706   0.711   5.870
 3662SOL    HW111885   3.636   0.762   5.919
 3662SOL    HW211886   3.666   0.627   5.833
 3663SOL     OW11887   2.401   3.278   0.354
 3663SOL    HW111888   2.364   3.306   0.442
 3663SOL    HW211889   2.360   3.333   0.281
 3664SOL     OW11890   4.487   1.344   2.104
 3664SOL    HW111891   4.475   1.436   2.067
 3664SOL    HW211892   4.409   1.287   2.079
 3665SOL     OW11893   0.633   6.547   5.374
 3665SOL    HW111894   0.615   6.642   5.400
 3665SOL    HW211895   0.576   6.522   5.295
 3666SOL     OW11896   1.644   2.793   3.726
 3666SOL    HW111897   1.735   2.758   3.748
 3666SOL    HW211898   1.627   2.784   3.628
 3667SOL     OW11899   1.292   1.583   2.528
 3667SOL    HW111900   1.269   1.588   2.625
 3667SOL    HW211901   1.320   1.673   2.495
 3668SOL     OW11902   1.330   0.207   1.675
 3668SOL    HW111903   1.307   0.286   1.618
 3668SOL    HW211904   1.267   0.132   1.655
 3669SOL     OW11905   6.080   2.413   4.147
 3669SOL    HW111906   6.162   2.356   4.137
 3669SOL    HW211907   6.081   2.457   4.236
 3670SOL     OW11908   3.678   5.145   1.355
 3670SOL    HW111909   3.680   5.113   1.449
 3670SOL    HW211910   3.636   5.236   1.352
 3671SOL     OW11911   6.665   0.354   3.329
 3671SOL    HW111912   6.750   0.308   3.302
 3671SOL    HW211913   6.644   0.332   3.424
 3672SOL     OW11914   5.220   0.987   2.635
 3672SOL    HW111915   5.176   0.954   2.719
 3672SOL    HW211916   5.150   1.010   2.567
 3673SOL     OW11917   4.987   5.898   0.522
 3673SOL    HW111918   5.038   5.822   0.481
 3673SOL    HW211919   4.939   5.948   0.451
 3674SOL     OW11920   1.883   5.761   5.701
 3674SOL    HW111921   1.842   5.671   5.689
 3674SOL    HW211922   1.961   5.755   5.763
 3675SOL     OW11923   0.187   1.931   3.844
 3675SOL    HW111924   0.133   1.853   3.811
 3675SOL    HW211925   0.126   1.999   3.884
 3676SOL     OW11926   4.958   2.970   2.942
 3676SOL    HW111927   5.048   2.991   2.980
 3676SOL    HW211928   4.954   2.999   2.847
 3677SOL     OW11929   2.195   0.907   4.176
 3677SOL    HW111930   2.158   1.000   4.182
 3677SOL    HW211931   2.284   0.904   4.222
 3678SOL     OW11932   1.674   0.613   3.910
 3678SOL    HW111933   1.651   0.541   3.845
 3678SOL    HW211934   1.659   0.579   4.003
 3679SOL     OW11935   4.838   0.368   2.833
 3679SOL    HW111936   4.871   0.327   2.918
 3679SOL    HW211937   4.784   0.450   2.854
 3680SOL     OW11938   4.745   1.661   3.337
 3680SOL    HW111939   4.713   1.739   3.392
 3680SOL    HW211940   4.784   1.695   3.251
 3681SOL     OW11941   1.343   0.663   4.924
 3681SOL    HW111942   1.389   0.680   4.837
 3681SOL    HW211943   1.376   0.577   4.963
 3682SOL     OW11944   5.341   2.452   0.835
 3682SOL    HW111945   5.303   2.509   0.908
 3682SOL    HW211946   5.426   2.492   0.802
 3683SOL     OW11947   0.195   0.826   4.762
 3683SOL    HW111948   0.285   0.828   4.805
 3683SOL    HW211949   0.125   0.837   4.832
 3684SOL     OW11950   1.961   6.830   5.656
 3684SOL    HW111951   2.022   6.856   5.581
 3684SOL    HW211952   1.952   6.906   5.720
 3685SOL     OW11953   2.348   6.041   5.312
 3685SOL    HW111954   2.303   6.093   5.385
 3685SOL    HW211955   2.416   5.980   5.351
 3686SOL     OW11956   6.419   3.686   3.206
 3686SOL    HW111957   6.351   3.613   3.215
 3686SOL    HW211958   6.439   3.702   3.110
 3687SOL     OW11959   4.733   5.864   3.621
 3687SOL    HW111960   4.712   5.961   3.609
 3687SOL    HW211961   4.832   5.851   3.613
 3688SOL     OW11962   6.030   3.068   0.114
 3688SOL    HW111963   6.058   3.000   0.182
 3688SOL    HW211964   5.930   3.072   0.112
 3689SOL     OW11965   2.301   1.633   5.204
 3689SOL    HW111966   2.362   1.653   5.128
 3689SOL    HW211967   2.287   1.535   5.212
 3690SOL     OW11968   5.192   5.230   1.236
 3690SOL    HW111969   5.115   5.294   1.233
 3690SOL    HW211970   5.260   5.262   1.302
 3691SOL     OW11971   2.837   1.916   6.543
 3691SOL    HW111972   2.893   1.942   6.464
 3691SOL    HW211973   2.793   1.828   6.525
 3692SOL     OW11974   0.035   3.884   6.129
 3692SOL    HW111975   0.037   3.982   6.151
 3692SOL    HW211976   0.129   3.849   6.126
 3693SOL     OW11977   0.956   1.938   2.737
 3693SOL    HW111978   0.979   1.895   2.824
 3693SOL    HW211979   0.904   1.873   2.681
 3694SOL     OW11980   1.186   0.724   1.926
 3694SOL    HW111981   1.105   0.781   1.916
 3694SOL    HW211982   1.224   0.735   2.018
 3695SOL     OW11983   6.563   2.410   2.585
 3695SOL    HW111984   6.628   2.486   2.575
 3695SOL    HW211985   6.580   2.342   2.514
 3696SOL     OW11986   4.856   0.832   4.864
 3696SOL    HW111987   4.857   0.748   4.810
 3696SOL    HW211988   4.926   0.894   4.830
 3697SOL     OW11989   6.535   6.187   3.569
 3697SOL    HW111990   6.611   6.154   3.626
 3697SOL    HW211991   6.453   6.135   3.591
 3698SOL     OW11992   1.660   0.522   3.527
 3698SOL    HW111993   1.663   0.479   3.436
 3698SOL    HW211994   1.723   0.600   3.529
 3699SOL     OW11995   2.593   1.896   4.221
 3699SOL    HW111996   2.501   1.872   4.190
 3699SOL    HW211997   2.606   1.866   4.315
 3700SOL     OW11998   1.655   5.164   4.823
 3700SOL    HW111999   1.733   5.132   4.769
 3700SOL    HW212000   1.688   5.216   4.902
 3701SOL     OW12001   0.922   6.648   3.180
 3701SOL    HW112002   0.992   6.710   3.216
 3701SOL    HW212003   0.949   6.616   3.090
 3702SOL     OW12004   5.302   5.402   3.941
 3702SOL    HW112005   5.329   5.336   3.871
 3702SOL    HW212006   5.364   5.395   4.019
 3703SOL     OW12007   1.428   1.428   5.654
 3703SOL    HW112008   1.375   1.400   5.734
 3703SOL    HW212009   1.512   1.375   5.649
 3704SOL     OW12010   5.982   2.461   1.219
 3704SOL    HW112011   5.928   2.451   1.135
 3704SOL    HW212012   6.026   2.550   1.220
 3705SOL     OW12013   4.756   4.729   4.011
 3705SOL    HW112014   4.851   4.736   3.980
 3705SOL    HW212015   4.702   4.802   3.969
 3706SOL     OW12016   1.135   3.894   0.554
 3706SOL    HW112017   1.102   3.923   0.644
 3706SOL    HW212018   1.068   3.833   0.512
 3707SOL     OW12019   2.940   4.805   3.879
 3707SOL    HW112020   2.932   4.782   3.976
 3707SOL    HW212021   2.852   4.841   3.846
 3708SOL     OW12022   3.579   6.877   1.306
 3708SOL    HW112023   3.525   6.798   1.277
 3708SOL    HW212024   3.523   6.960   1.301
 3709SOL     OW12025   1.885   0.547   2.380
 3709SOL    HW112026   1.802   0.504   2.417
 3709SOL    HW212027   1.898   0.517   2.286
 3710SOL     OW12028   0.608   4.982   5.587
 3710SOL    HW112029   0.517   5.025   5.588
 3710SOL    HW212030   0.647   4.989   5.496
 3711SOL     OW12031   1.761   6.228   5.149
 3711SOL    HW112032   1.839   6.203   5.206
 3711SOL    HW212033   1.791   6.244   5.055
 3712SOL     OW12034   2.156   5.672   5.503
 3712SOL    HW112035   2.110   5.756   5.531
 3712SOL    HW212036   2.136   5.653   5.407
 3713SOL     OW12037   6.870   6.702   4.812
 3713SOL    HW112038   6.844   6.799   4.812
 3713SOL    HW212039   6.811   6.652   4.748
 3714SOL     OW12040   0.969   4.883   0.279
 3714SOL    HW112041   0.899   4.830   0.327
 3714SOL    HW212042   1.039   4.913   0.344
 3715SOL     OW12043   6.948   5.980   3.370
 3715SOL    HW112044   6.964   5.891   3.413
 3715SOL    HW212045   7.014   6.046   3.406
 3716SOL     OW12046   6.177   5.763   3.984
 3716SOL    HW112047   6.148   5.857   4.005
 3716SOL    HW212048   6.110   5.721   3.924
 3717SOL     OW12049   4.803   1.177   1.121
 3717SOL    HW112050   4.811   1.078   1.117
 3717SOL    HW212051   4.732   1.208   1.057
 3718SOL     OW12052   6.884   6.705   6.298
 3718SOL    HW112053   6.932   6.758   6.367
 3718SOL    HW212054   6.869   6.612   6.331
 3719SOL     OW12055   4.317   3.672   6.528
 3719SOL    HW112056   4.404   3.627   6.547
 3719SOL    HW212057   4.278   3.636   6.443
 3720SOL     OW12058   6.385   3.265   1.030
 3720SOL    HW112059   6.318   3.328   1.069
 3720SOL    HW212060   6.476   3.290   1.062
 3721SOL     OW12061   6.373   4.952   6.768
 3721SOL    HW112062   6.397   4.881   6.835
 3721SOL    HW212063   6.438   4.948   6.692
 3722SOL     OW12064   3.985   0.230   2.205
 3722SOL    HW112065   3.980   0.169   2.126
 3722SOL    HW212066   3.893   0.259   2.232
 3723SOL     OW12067   4.422   5.365   0.286
 3723SOL    HW112068   4.501   5.317   0.325
 3723SOL    HW212069   4.390   5.435   0.349
 3724SOL     OW12070   1.429   4.853   5.270
 3724SOL    HW112071   1.413   4.757   5.249
 3724SOL    HW212072   1.513   4.884   5.226
 3725SOL     OW12073   0.091   6.237   0.071
 3725SOL    HW112074   0.080   6.190   0.159
 3725SOL    HW212075   0.151   6.183   0.012
 3726SOL     OW12076   5.127   3.927   3.822
 3726SOL    HW112077   5.078   3.855   3.871
 3726SOL    HW212078   5.188   3.974   3.884
 3727SOL     OW12079   0.194   2.413   4.337
 3727SOL    HW112080   0.204   2.479   4.411
 3727SOL    HW212081   0.097   2.399   4.317
 3728SOL     OW12082   3.323   3.911   0.476
 3728SOL    HW112083   3.348   3.902   0.380
 3728SOL    HW212084   3.406   3.923   0.531
 3729SOL     OW12085   0.450   0.389   5.492
 3729SOL    HW112086   0.362   0.422   5.527
 3729SOL    HW212087   0.443   0.378   5.393
 3730SOL     OW12088   4.586   6.335   6.139
 3730SOL    HW112089   4.547   6.306   6.226
 3730SOL    HW212090   4.663   6.396   6.156
 3731SOL     OW12091   0.220   1.806   6.554
 3731SOL    HW112092   0.301   1.747   6.554
 3731SOL    HW212093   0.142   1.755   6.591
 3732SOL     OW12094   2.601   1.555   0.417
 3732SOL    HW112095   2.585   1.585   0.511
 3732SOL    HW212096   2.635   1.633   0.363
 3733SOL     OW12097   1.942   3.051   3.635
 3733SOL    HW112098   1.879   3.038   3.559
 3733SOL    HW212099   2.021   2.990   3.623
 3734SOL     OW12100   4.239   0.176   1.802
 3734SOL    HW112101   4.144   0.196   1.828
 3734SOL    HW212102   4.252   0.077   1.800
 3735SOL     OW12103   4.183   6.932   2.280
 3735SOL    HW112104   4.094   6.886   2.278
 3735SOL    HW212105   4.176   7.021   2.235
 3736SOL     OW12106   6.670   1.020   1.317
 3736SOL    HW112107   6.633   0.929   1.298
 3736SOL    HW212108   6.603   1.072   1.370
 3737SOL     OW12109   6.952   2.181   3.467
 3737SOL    HW112110   6.870   2.235   3.451
 3737SOL    HW212111   6.926   2.090   3.500
 3738SOL     OW12112   6.724   6.141   0.611
 3738SOL    HW112113   6.797   6.074   0.605
 3738SOL    HW212114   6.663   6.132   0.532
 3739SOL     OW12115   3.206   4.856   1.837
 3739SOL    HW112116   3.147   4.931   1.808
 3739SOL    HW212117   3.161   4.803   1.909
 3740SOL     OW12118   5.805   5.561   6.426
 3740SOL    HW112119   5.776   5.524   6.338
 3740SOL    HW212120   5.821   5.659   6.418
 3741SOL     OW12121   5.271   2.650   0.324
 3741SOL    HW112122   5.211   2.690   0.392
 3741SOL    HW212123   5.366   2.677   0.342
 3742SOL     OW12124   4.380   5.581   0.446
 3742SOL    HW112125   4.377   5.677   0.422
 3742SOL    HW212126   4.443   5.567   0.522
 3743SOL     OW12127   3.927   3.755   0.963
 3743SOL    HW112128   3.968   3.664   0.956
 3743SOL    HW212129   3.829   3.746   0.982
 3744SOL     OW12130   0.833   6.251   1.645
 3744SOL    HW112131   0.772   6.311   1.697
 3744SOL    HW212132   0.925   6.255   1.684
 3745SOL     OW12133   4.895   3.570   2.362
 3745SOL    HW112134   4.965   3.509   2.399
 3745SOL    HW212135   4.846   3.524   2.288
 3746SOL     OW12136   6.482   0.160   3.662
 3746SOL    HW112137   6.414   0.095   3.628
 3746SOL    HW212138   6.572   0.139   3.623
 3747SOL     OW12139   4.726   6.891   6.440
 3747SOL    HW112140   4.636   6.853   6.422
 3747SOL    HW212141   4.767   6.846   6.519
 3748SOL     OW12142   5.715   1.111   2.679
 3748SOL    HW112143   5.704   1.203   2.715
 3748SOL    HW212144   5.630   1.060   2.691
 3749SOL     OW12145   0.857   4.873   2.745
 3749SOL    HW112146   0.869   4.972   2.753
 3749SOL    HW212147   0.809   4.851   2.660
 3750SOL     OW12148   5.457   3.962   0.160
 3750SOL    HW112149   5.361   3.959   0.186
 3750SOL    HW212150   5.514   3.945   0.241
 3751SOL     OW12151   1.742   3.022   0.890
 3751SOL    HW112152   1.744   3.099   0.954
 3751SOL    HW212153   1.714   2.939   0.939
 3752SOL     OW12154   0.315   6.987   0.012
 3752SOL    HW112155   0.352   6.910   6.984
 3752SOL    HW212156   0.266   6.951   0.092
 3753SOL     OW12157   0.876   6.205   4.137
 3753SOL    HW112158   0.784   6.244   4.141
 3753SOL    HW212159   0.891   6.147   4.217
 3754SOL     OW12160   5.589   6.661   1.091
 3754SOL    HW112161   5.574   6.568   1.056
 3754SOL    HW212162   5.537   6.674   1.174
 3755SOL     OW12163   5.007   4.683   3.861
 3755SOL    HW112164   5.008   4.782   3.850
 3755SOL    HW212165   4.991   4.640   3.773
 3756SOL     OW12166   1.913   2.139   6.095
 3756SOL    HW112167   1.979   2.064   6.100
 3756SOL    HW212168   1.963   2.226   6.086
 3757SOL     OW12169   3.012   5.686   5.579
 3757SOL    HW112170   2.971   5.705   5.490
 3757SOL    HW212171   2.961   5.614   5.625
 3758SOL     OW12172   2.457   1.012   5.125
 3758SOL    HW112173   2.521   1.058   5.187
 3758SOL    HW212174   2.394   0.955   5.178
 3759SOL     OW12175   5.107   5.065   5.775
 3759SOL    HW112176   5.125   4.982   5.722
 3759SOL    HW212177   5.010   5.088   5.769
 3760SOL     OW12178   1.476   3.169   4.166
 3760SOL    HW112179   1.470   3.085   4.111
 3760SOL    HW212180   1.496   3.145   4.261
 3761SOL     OW12181   0.757   6.715   5.098
 3761SOL    HW112182   0.700   6.727   5.017
 3761SOL    HW212183   0.757   6.799   5.152
 3762SOL     OW12184   0.759   4.332   0.682
 3762SOL    HW112185   0.707   4.320   0.598
 3762SOL    HW212186   0.713   4.285   0.757
 3763SOL     OW12187   6.340   3.683   6.392
 3763SOL    HW112188   6.336   3.699   6.490
 3763SOL    HW212189   6.411   3.615   6.372
 3764SOL     OW12190   2.034   0.369   4.394
 3764SOL    HW112191   2.008   0.366   4.491
 3764SOL    HW212192   2.075   0.458   4.374
 3765SOL     OW12193   5.121   1.006   3.631
 3765SOL    HW112194   5.052   1.026   3.700
 3765SOL    HW212195   5.100   1.058   3.548
 3766SOL     OW12196   0.563   1.211   3.897
 3766SOL    HW112197   0.564   1.112   3.883
 3766SOL    HW212198   0.500   1.233   3.971
 3767SOL     OW12199   1.578   5.022   0.197
 3767SOL    HW112200   1.575   4.932   0.154
 3767SOL    HW212201   1.542   5.016   0.290
 3768SOL     OW12202   4.472   6.492   6.819
 3768SOL    HW112203   4.382   6.450   6.805
 3768SOL    HW212204   4.539   6.446   6.760
 3769SOL     OW12205   5.738   6.002   4.691
 3769SOL    HW112206   5.759   6.089   4.737
 3769SOL    HW212207   5.803   5.932   4.723
 3770SOL     OW12208   1.891   1.590   5.980
 3770SOL    HW112209   1.868   1.672   6.033
 3770SOL    HW212210   1.979   1.604   5.934
 3771SOL     OW12211   4.704   2.240   0.710
 3771SOL    HW112212   4.712   2.340   0.706
 3771SOL    HW212213   4.743   2.200   0.628
 3772SOL     OW12214   6.043   0.878   1.374
 3772SOL    HW112215   5.966   0.871   1.438
 3772SOL    HW212216   6.127   0.852   1.421
 3773SOL     OW12217   5.963   3.616   5.566
 3773SOL    HW112218   6.012   3.550   5.623
 3773SOL    HW212219   5.901   3.669   5.623
 3774SOL     OW12220   1.098   0.102   6.585
 3774SOL    HW112221   1.079   0.090   6.488
 3774SOL    HW212222   1.084   0.198   6.610
 3775SOL     OW12223   5.722   3.757   2.792
 3775SOL    HW112224   5.755   3.837   2.742
 3775SOL    HW212225   5.649   3.714   2.740
 3776SOL     OW12226   2.386   2.147   1.160
 3776SOL    HW112227   2.442   2.216   1.206
 3776SOL    HW212228   2.307   2.191   1.117
 3777SOL     OW12229   2.929   5.205   4.693
 3777SOL    HW112230   2.914   5.156   4.607
 3777SOL    HW212231   2.895   5.150   4.769
 3778SOL     OW12232   2.636   5.971   2.798
 3778SOL    HW112233   2.715   5.926   2.839
 3778SOL    HW212234   2.635   6.067   2.824
 3779SOL     OW12235   2.424   4.453   0.242
 3779SOL    HW112236   2.447   4.382   0.175
 3779SOL    HW212237   2.409   4.540   0.195
 3780SOL     OW12238   3.154   5.690   5.067
 3780SOL    HW112239   3.227   5.727   5.125
 3780SOL    HW212240   3.121   5.604   5.105
 3781SOL     OW12241   2.736   6.719   4.294
 3781SOL    HW112242   2.696   6.718   4.203
 3781SOL    HW212243   2.825   6.671   4.292
 3782SOL     OW12244   2.733   1.641   4.412
 3782SOL    HW112245   2.724   1.559   4.357
 3782SOL    HW212246   2.756   1.719   4.354
 3783SOL     OW12247   6.007   6.266   4.640
 3783SOL    HW112248   6.038   6.193   4.580
 3783SOL    HW212249   5.967   6.226   4.723
 3784SOL     OW12250   6.225   0.971   3.341
 3784SOL    HW112251   6.186   1.062   3.326
 3784SOL    HW212252   6.171   0.903   3.292
 3785SOL     OW12253   2.663   1.843   0.350
 3785SOL    HW112254   2.605   1.924   0.351
 3785SOL    HW212255   2.720   1.843   0.268
 3786SOL     OW12256   3.035   4.928   3.641
 3786SOL    HW112257   3.008   5.023   3.660
 3786SOL    HW212258   3.030   4.874   3.725
 3787SOL     OW12259   5.520   1.119   4.309
 3787SOL    HW112260   5.545   1.025   4.288
 3787SOL    HW212261   5.601   1.170   4.338
 3788SOL     OW12262   6.500   2.714   3.886
 3788SOL    HW112263   6.562   2.712   3.808
 3788SOL    HW212264   6.421   2.655   3.867
 3789SOL     OW12265   1.424   4.251   4.253
 3789SOL    HW112266   1.501   4.291   4.303
 3789SOL    HW212267   1.403   4.307   4.173
 3790SOL     OW12268   2.140   3.669   4.870
 3790SOL    HW112269   2.136   3.570   4.869
 3790SOL    HW212270   2.162   3.701   4.962
 3791SOL     OW12271   5.268   6.505   1.254
 3791SOL    HW112272   5.205   6.453   1.197
 3791SOL    HW212273   5.296   6.588   1.205
 3792SOL     OW12274   6.448   0.212   5.268
 3792SOL    HW112275   6.536   0.175   5.298
 3792SOL    HW212276   6.459   0.253   5.178
 3793SOL     OW12277   1.921   1.265   2.400
 3793SOL    HW112278   1.941   1.354   2.439
 3793SOL    HW212279   1.945   1.265   2.303
 3794SOL     OW12280   4.127   5.591   1.908
 3794SOL    HW112281   4.048   5.643   1.876
 3794SOL    HW212282   4.102   5.539   1.990
 3795SOL     OW12283   5.125   0.756   6.890
 3795SOL    HW112284   5.108   0.838   6.836
 3795SOL    HW212285   5.096   0.675   6.839
 3796SOL     OW12286   1.350   2.054   1.065
 3796SOL    HW112287   1.355   2.019   1.158
 3796SOL    HW212288   1.422   2.010   1.010
 3797SOL     OW12289   1.034   5.171   1.938
 3797SOL    HW112290   1.040   5.200   1.842
 3797SOL    HW212291   1.123   5.136   1.967
 3798SOL     OW12292   2.643   4.701   3.271
 3798SOL    HW112293   2.682   4.662   3.188
 3798SOL    HW212294   2.546   4.721   3.256
 3799SOL     OW12295   1.054   1.627   4.694
 3799SOL    HW112296   1.079   1.530   4.691
 3799SOL    HW212297   1.125   1.678   4.743
 3800SOL     OW12298   5.127   2.248   4.889
 3800SOL    HW112299   5.167   2.170   4.840
 3800SOL    HW212300   5.081   2.215   4.971
 3801SOL     OW12301   6.710   6.196   5.373
 3801SOL    HW112302   6.683   6.236   5.460
 3801SOL    HW212303   6.633   6.198   5.310
 3802SOL     OW12304   1.018   1.983   4.872
 3802SOL    HW112305   0.963   1.980   4.789
 3802SOL    HW212306   1.109   2.018   4.851
 3803SOL     OW12307   4.418   0.290   1.953
 3803SOL    HW112308   4.380   0.239   1.876
 3803SOL    HW212309   4.419   0.387   1.932
 3804SOL     OW12310   4.533   1.692   4.714
 3804SOL    HW112311   4.476   1.610   4.703
 3804SOL    HW212312   4.522   1.751   4.633
 3805SOL     OW12313   2.741   4.272   1.475
 3805SOL    HW112314   2.815   4.329   1.439
 3805SOL    HW212315   2.654   4.302   1.437
 3806SOL     OW12316   3.447   3.140   0.152
 3806SOL    HW112317   3.442   3.112   0.248
 3806SOL    HW212318   3.500   3.072   0.101
 3807SOL     OW12319   1.226   6.710   4.087
 3807SOL    HW112320   1.248   6.649   4.163
 3807SOL    HW212321   1.271   6.677   4.004
 3808SOL     OW12322   2.807   0.436   2.340
 3808SOL    HW112323   2.841   0.428   2.434
 3808SOL    HW212324   2.774   0.529   2.325
 3809SOL     OW12325   6.186   1.914   7.004
 3809SOL    HW112326   6.111   1.966   6.963
 3809SOL    HW212327   6.191   1.934   0.076
 3810SOL     OW12328   2.864   3.010   5.787
 3810SOL    HW112329   2.879   3.080   5.857
 3810SOL    HW212330   2.899   3.042   5.699
 3811SOL     OW12331   0.667   4.125   4.356
 3811SOL    HW112332   0.626   4.093   4.441
 3811SOL    HW212333   0.741   4.063   4.329
 3812SOL     OW12334   6.437   2.430   5.780
 3812SOL    HW112335   6.405   2.351   5.832
 3812SOL    HW212336   6.492   2.398   5.702
 3813SOL     OW12337   3.534   5.504   0.784
 3813SOL    HW112338   3.599   5.571   0.820
 3813SOL    HW212339   3.575   5.458   0.705
 3814SOL     OW12340   6.401   5.962   1.204
 3814SOL    HW112341   6.376   5.994   1.295
 3814SOL    HW212342   6.460   6.030   1.160
 3815SOL     OW12343   5.261   2.344   1.299
 3815SOL    HW112344   5.295   2.250   1.305
 3815SOL    HW212345   5.212   2.367   1.383
 3816SOL     OW12346   6.734   6.730   2.020
 3816SOL    HW112347   6.647   6.780   2.011
 3816SOL    HW212348   6.747   6.702   2.115
 3817SOL     OW12349   4.441   2.521   4.071
 3817SOL    HW112350   4.453   2.506   4.170
 3817SOL    HW212351   4.468   2.615   4.048
 3818SOL     OW12352   4.366   6.135   2.795
 3818SOL    HW112353   4.347   6.210   2.732
 3818SOL    HW212354   4.387   6.172   2.885
 3819SOL     OW12355   5.742   5.180   0.398
 3819SOL    HW112356   5.712   5.089   0.426
 3819SOL    HW212357   5.802   5.218   0.468
 3820SOL     OW12358   5.325   5.728   4.205
 3820SOL    HW112359   5.343   5.777   4.119
 3820SOL    HW212360   5.226   5.713   4.214
 3821SOL     OW12361   1.734   3.706   2.046
 3821SOL    HW112362   1.750   3.799   2.078
 3821SOL    HW212363   1.816   3.672   1.999
 3822SOL     OW12364   2.214   5.006   1.651
 3822SOL    HW112365   2.270   5.088   1.662
 3822SOL    HW212366   2.270   4.924   1.666
 3823SOL     OW12367   4.037   2.076   5.863
 3823SOL    HW112368   4.026   2.163   5.814
 3823SOL    HW212369   3.948   2.043   5.893
 3824SOL     OW12370   6.002   2.228   6.305
 3824SOL    HW112371   6.000   2.165   6.227
 3824SOL    HW212372   6.054   2.310   6.281
 3825SOL     OW12373   0.037   0.226   6.855
 3825SOL    HW112374   6.970   0.189   6.850
 3825SOL    HW212375   0.033   0.325   6.864
 3826SOL     OW12376   0.015   3.381   0.533
 3826SOL    HW112377   0.042   3.475   0.554
 3826SOL    HW212378   0.012   3.327   0.617
 3827SOL     OW12379   3.672   3.940   0.162
 3827SOL    HW112380   3.598   3.893   0.113
 3827SOL    HW212381   3.633   4.016   0.214
 3828SOL     OW12382   4.659   2.280   1.619
 3828SOL    HW112383   4.695   2.188   1.637
 3828SOL    HW212384   4.721   2.329   1.558
 3829SOL     OW12385   2.191   5.371   3.360
 3829SOL    HW112386   2.126   5.367   3.436
 3829SOL    HW212387   2.249   5.289   3.360
 3830SOL     OW12388   2.272   0.090   5.592
 3830SOL    HW112389   2.229   0.142   5.667
 3830SOL    HW212390   2.358   0.051   5.624
 3831SOL     OW12391   4.155   1.853   2.500
 3831SOL    HW112392   4.074   1.908   2.479
 3831SOL    HW212393   4.163   1.779   2.433
 3832SOL     OW12394   6.293   0.824   1.527
 3832SOL    HW112395   6.322   0.728   1.524
 3832SOL    HW212396   6.372   0.883   1.507
 3833SOL     OW12397   0.483   4.995   0.737
 3833SOL    HW112398   0.392   4.962   0.711
 3833SOL    HW212399   0.543   4.917   0.753
 3834SOL     OW12400   3.258   1.837   0.532
 3834SOL    HW112401   3.197   1.911   0.558
 3834SOL    HW212402   3.204   1.756   0.509
 3835SOL     OW12403   3.709   5.742   6.095
 3835SOL    HW112404   3.666   5.783   6.015
 3835SOL    HW212405   3.809   5.751   6.087
 3836SOL     OW12406   1.555   4.327   6.057
 3836SOL    HW112407   1.573   4.239   6.101
 3836SOL    HW212408   1.459   4.351   6.070
 3837SOL     OW12409   4.591   3.727   0.020
 3837SOL    HW112410   4.591   3.661   0.094
 3837SOL    HW212411   4.563   3.817   0.056
 3838SOL     OW12412   5.696   2.367   4.557
 3838SOL    HW112413   5.619   2.387   4.619
 3838SOL    HW212414   5.754   2.297   4.599
 3839SOL     OW12415   5.904   6.646   5.243
 3839SOL    HW112416   5.959   6.678   5.319
 3839SOL    HW212417   5.818   6.698   5.240
 3840SOL     OW12418   1.612   1.174   4.013
 3840SOL    HW112419   1.548   1.103   4.041
 3840SOL    HW212420   1.651   1.151   3.924
 3841SOL     OW12421   1.161   3.543   5.294
 3841SOL    HW112422   1.244   3.578   5.337
 3841SOL    HW212423   1.090   3.613   5.297
 3842SOL     OW12424   0.838   5.311   0.298
 3842SOL    HW112425   0.754   5.294   0.245
 3842SOL    HW212426   0.877   5.398   0.270
 3843SOL     OW12427   6.291   3.160   0.543
 3843SOL    HW112428   6.315   3.242   0.596
 3843SOL    HW212429   6.194   3.140   0.554
 3844SOL     OW12430   1.912   5.029   5.700
 3844SOL    HW112431   1.815   5.005   5.695
 3844SOL    HW212432   1.928   5.079   5.785
 3845SOL     OW12433   3.271   3.293   3.100
 3845SOL    HW112434   3.209   3.264   3.027
 3845SOL    HW212435   3.350   3.233   3.103
 3846SOL     OW12436   0.344   4.197   4.610
 3846SOL    HW112437   0.307   4.188   4.518
 3846SOL    HW212438   0.391   4.285   4.620
 3847SOL     OW12439   6.830   0.265   6.286
 3847SOL    HW112440   6.838   0.168   6.261
 3847SOL    HW212441   6.796   0.317   6.208
 3848SOL     OW12442   2.804   5.021   1.805
 3848SOL    HW112443   2.891   5.037   1.852
 3848SOL    HW212444   2.755   4.948   1.852
 3849SOL     OW12445   0.671   1.976   5.734
 3849SOL    HW112446   0.696   2.038   5.808
 3849SOL    HW212447   0.678   1.881   5.766
 3850SOL     OW12448   3.248   4.019   1.744
 3850SOL    HW112449   3.344   4.011   1.773
 3850SOL    HW212450   3.191   4.039   1.823
 3851SOL     OW12451   1.994   3.601   3.262
 3851SOL    HW112452   1.955   3.563   3.346
 3851SOL    HW212453   2.055   3.676   3.285
 3852SOL     OW12454   4.274   0.652   5.282
 3852SOL    HW112455   4.338   0.594   5.232
 3852SOL    HW212456   4.191   0.600   5.302
 3853SOL     OW12457   0.801   3.470   2.211
 3853SOL    HW112458   0.708   3.459   2.247
 3853SOL    HW212459   0.818   3.399   2.143
 3854SOL     OW12460   0.937   3.633   4.318
 3854SOL    HW112461   0.961   3.595   4.407
 3854SOL    HW212462   0.879   3.567   4.268
 3855SOL     OW12463   5.860   4.096   5.808
 3855SOL    HW112464   5.891   4.078   5.714
 3855SOL    HW212465   5.763   4.118   5.808
 3856SOL     OW12466   6.969   0.055   5.674
 3856SOL    HW112467   6.886   0.107   5.692
 3856SOL    HW212468   6.988   7.021   5.752
 3857SOL     OW12469   1.321   6.148   4.976
 3857SOL    HW112470   1.264   6.231   4.972
 3857SOL    HW212471   1.266   6.069   4.950
 3858SOL     OW12472   1.659   5.758   6.159
 3858SOL    HW112473   1.652   5.668   6.115
 3858SOL    HW212474   1.567   5.797   6.167
 3859SOL     OW12475   7.024   3.117   3.014
 3859SOL    HW112476   6.937   3.166   3.017
 3859SOL    HW212477   7.011   3.027   2.973
 3860SOL     OW12478   2.384   5.997   6.161
 3860SOL    HW112479   2.316   6.069   6.147
 3860SOL    HW212480   2.339   5.908   6.154
 3861SOL     OW12481   4.513   4.343   1.461
 3861SOL    HW112482   4.540   4.335   1.557
 3861SOL    HW212483   4.595   4.354   1.405
 3862SOL     OW12484   0.882   6.115   6.212
 3862SOL    HW112485   0.932   6.156   6.135
 3862SOL    HW212486   0.789   6.092   6.183
 3863SOL     OW12487   3.214   3.737   1.365
 3863SOL    HW112488   3.261   3.811   1.317
 3863SOL    HW212489   3.135   3.774   1.414
 3864SOL     OW12490   3.235   1.836   6.666
 3864SOL    HW112491   3.255   1.912   6.604
 3864SOL    HW212492   3.178   1.768   6.619
 3865SOL     OW12493   4.430   0.235   2.228
 3865SOL    HW112494   4.340   0.224   2.269
 3865SOL    HW212495   4.422   0.287   2.142
 3866SOL     OW12496   3.828   0.256   1.019
 3866SOL    HW112497   3.738   0.227   1.050
 3866SOL    HW212498   3.825   0.352   0.991
 3867SOL     OW12499   2.123   3.215   3.237
 3867SOL    HW112500   2.170   3.301   3.220
 3867SOL    HW212501   2.160   3.172   3.319
 3868SOL     OW12502   2.646   6.712   2.276
 3868SOL    HW112503   2.591   6.764   2.340
 3868SOL    HW212504   2.596   6.699   2.191
 3869SOL     OW12505   0.650   2.866   3.219
 3869SOL    HW112506   0.589   2.920   3.161
 3869SOL    HW212507   0.618   2.870   3.313
 3870SOL     OW12508   2.850   5.453   0.384
 3870SOL    HW112509   2.938   5.405   0.392
 3870SOL    HW212510   2.798   5.442   0.468
 3871SOL     OW12511   2.994   0.303   3.444
 3871SOL    HW112512   3.037   0.389   3.417
 3871SOL    HW212513   2.908   0.292   3.395
 3872SOL     OW12514   4.218   3.534   0.832
 3872SOL    HW112515   4.203   3.560   0.928
 3872SOL    HW212516   4.146   3.472   0.802
 3873SOL     OW12517   5.627   4.637   1.548
 3873SOL    HW112518   5.712   4.585   1.550
 3873SOL    HW212519   5.559   4.587   1.495
 3874SOL     OW12520   4.292   0.368   0.353
 3874SOL    HW112521   4.202   0.409   0.337
 3874SOL    HW212522   4.300   0.284   0.298
 3875SOL     OW12523   1.343   4.563   1.528
 3875SOL    HW112524   1.277   4.612   1.471
 3875SOL    HW212525   1.377   4.483   1.478
 3876SOL     OW12526   5.408   3.758   4.062
 3876SOL    HW112527   5.315   3.792   4.047
 3876SOL    HW212528   5.407   3.658   4.069
 3877SOL     OW12529   5.972   1.227   2.048
 3877SOL    HW112530   5.890   1.284   2.036
 3877SOL    HW212531   5.945   1.132   2.058
 3878SOL     OW12532   3.818   6.594   6.162
 3878SOL    HW112533   3.792   6.564   6.070
 3878SOL    HW212534   3.891   6.662   6.155
 3879SOL     OW12535   4.543   5.447   1.744
 3879SOL    HW112536   4.509   5.541   1.751
 3879SOL    HW212537   4.475   5.391   1.698
 3880SOL     OW12538   5.584   3.193   3.276
 3880SOL    HW112539   5.624   3.285   3.278
 3880SOL    HW212540   5.632   3.135   3.342
 3881SOL     OW12541   0.881   4.093   0.949
 3881SOL    HW112542   0.801   4.119   1.003
 3881SOL    HW212543   0.956   4.157   0.967
 3882SOL     OW12544   6.983   0.899   5.521
 3882SOL    HW112545   7.020   0.879   5.612
 3882SOL    HW212546   6.887   0.925   5.529
 3883SOL     OW12547   4.037   0.321   5.429
 3883SOL    HW112548   4.132   0.330   5.459
 3883SOL    HW212549   3.976   0.333   5.508
 3884SOL     OW12550   1.722   6.095   6.008
 3884SOL    HW112551   1.653   6.033   5.970
 3884SOL    HW212552   1.759   6.054   6.092
 3885SOL     OW12553   6.999   0.735   3.886
 3885SOL    HW112554   0.008   0.776   3.970
 3885SOL    HW212555   6.922   0.788   3.852
 3886SOL     OW12556   6.869   6.566   5.046
 3886SOL    HW112557   6.877   6.596   4.951
 3886SOL    HW212558   6.823   6.637   5.100
 3887SOL     OW12559   4.491   2.040   5.650
 3887SOL    HW112560   4.582   2.061   5.685
 3887SOL    HW212561   4.472   1.943   5.660
 3888SOL     OW12562   0.047   2.083   0.955
 3888SOL    HW112563   0.118   2.042   0.898
 3888SOL    HW212564   0.089   2.143   1.023
 3889SOL     OW12565   0.816   6.720   6.508
 3889SOL    HW112566   0.790   6.787   6.577
 3889SOL    HW212567   0.904   6.679   6.533
 3890SOL     OW12568   5.402   4.547   3.111
 3890SOL    HW112569   5.320   4.587   3.153
 3890SOL    HW212570   5.426   4.600   3.029
 3891SOL     OW12571   5.517   5.282   4.772
 3891SOL    HW112572   5.604   5.326   4.794
 3891SOL    HW212573   5.520   5.248   4.678
 3892SOL     OW12574   4.795   6.854   3.334
 3892SOL    HW112575   4.789   6.952   3.356
 3892SOL    HW212576   4.733   6.834   3.258
 3893SOL     OW12577   3.350   5.943   4.250
 3893SOL    HW112578   3.355   5.849   4.217
 3893SOL    HW212579   3.255   5.968   4.266
 3894SOL     OW12580   4.720   3.669   6.784
 3894SOL    HW112581   4.803   3.622   6.815
 3894SOL    HW212582   4.646   3.652   6.848
 3895SOL     OW12583   2.647   1.858   5.576
 3895SOL    HW112584   2.745   1.850   5.562
 3895SOL    HW212585   2.606   1.766   5.573
 3896SOL     OW12586   6.394   3.257   5.403
 3896SOL    HW112587   6.436   3.196   5.336
 3896SOL    HW212588   6.294   3.252   5.395
 3897SOL     OW12589   3.700   6.884   2.047
 3897SOL    HW112590   3.647   6.939   1.982
 3897SOL    HW212591   3.644   6.807   2.078
 3898SOL     OW12592   3.527   4.160   4.354
 3898SOL    HW112593   3.454   4.159   4.423
 3898SOL    HW212594   3.486   4.159   4.262
 3899SOL     OW12595   4.616   1.397   5.549
 3899SOL    HW112596   4.555   1.323   5.578
 3899SOL    HW212597   4.654   1.375   5.459
 3900SOL     OW12598   6.578   2.409   3.236
 3900SOL    HW112599   6.516   2.379   3.308
 3900SOL    HW212600   6.672   2.411   3.272
 3901SOL     OW12601   1.442   6.280   5.655
 3901SOL    HW112602   1.378   6.296   5.579
 3901SOL    HW212603   1.390   6.264   5.739
 3902SOL     OW12604   4.007   5.034   1.428
 3902SOL    HW112605   3.943   5.107   1.450
 3902SOL    HW212606   4.054   5.055   1.342
 3903SOL     OW12607   4.282   2.773   6.614
 3903SOL    HW112608   4.264   2.766   6.713
 3903SOL    HW212609   4.198   2.802   6.568
 3904SOL     OW12610   1.059   6.539   0.755
 3904SOL    HW112611   1.044   6.466   0.821
 3904SOL    HW212612   0.983   6.540   0.689
 3905SOL     OW12613   6.869   0.314   5.095
 3905SOL    HW112614   6.855   0.225   5.137
 3905SOL    HW212615   6.897   0.380   5.164
 3906SOL     OW12616   1.495   4.994   4.229
 3906SOL    HW112617   1.580   4.949   4.204
 3906SOL    HW212618   1.478   4.981   4.327
 3907SOL     OW12619   0.581   0.923   3.872
 3907SOL    HW112620   0.528   0.894   3.952
 3907SOL    HW212621   0.569   0.858   3.798
 3908SOL     OW12622   1.096   0.524   5.023
 3908SOL    HW112623   1.154   0.599   4.992
 3908SOL    HW212624   1.030   0.558   5.090
 3909SOL     OW12625   5.725   2.513   6.223
 3909SOL    HW112626   5.665   2.589   6.249
 3909SOL    HW212627   5.743   2.517   6.125
 3910SOL     OW12628   3.717   1.365   0.163
 3910SOL    HW112629   3.796   1.345   0.221
 3910SOL    HW212630   3.699   1.463   0.163
 3911SOL     OW12631   7.023   1.383   0.927
 3911SOL    HW112632   0.061   1.452   0.893
 3911SOL    HW212633   7.020   1.306   0.863
 3912SOL     OW12634   3.991   1.647   0.514
 3912SOL    HW112635   3.916   1.713   0.515
 3912SOL    HW212636   4.045   1.656   0.597
 3913SOL     OW12637   5.625   5.450   0.891
 3913SOL    HW112638   5.715   5.431   0.930
 3913SOL    HW212639   5.565   5.372   0.906
 3914SOL     OW12640   6.747   1.666   6.825
 3914SOL    HW112641   6.691   1.731   6.774
 3914SOL    HW212642   6.814   1.715   6.880
 3915SOL     OW12643   4.796   5.489   7.024
 3915SOL    HW112644   4.812   5.511   0.094
 3915SOL    HW212645   4.787   5.389   7.014
 3916SOL     OW12646   1.912   1.839   2.009
 3916SOL    HW112647   1.899   1.835   2.108
 3916SOL    HW212648   1.975   1.913   1.987
 3917SOL     OW12649   3.474   5.672   1.566
 3917SOL    HW112650   3.542   5.740   1.595
 3917SOL    HW212651   3.460   5.606   1.639
 3918SOL     OW12652   5.577   1.264   0.744
 3918SOL    HW112653   5.498   1.310   0.703
 3918SOL    HW212654   5.554   1.169   0.764
 3919SOL     OW12655   3.123   0.477   2.104
 3919SOL    HW112656   3.178   0.427   2.170
 3919SOL    HW212657   3.042   0.424   2.080
 3920SOL     OW12658   2.945   1.854   5.656
 3920SOL    HW112659   3.021   1.860   5.721
 3920SOL    HW212660   2.979   1.871   5.563
 3921SOL     OW12661   6.957   2.709   5.978
 3921SOL    HW112662   0.010   2.749   5.931
 3921SOL    HW212663   6.899   2.783   6.014
 3922SOL     OW12664   5.617   4.453   2.627
 3922SOL    HW112665   5.552   4.465   2.553
 3922SOL    HW212666   5.590   4.375   2.683
 3923SOL     OW12667   5.101   1.250   1.778
 3923SOL    HW112668   5.083   1.325   1.842
 3923SOL    HW212669   5.068   1.164   1.817
 3924SOL     OW12670   5.587   4.882   4.253
 3924SOL    HW112671   5.676   4.841   4.231
 3924SOL    HW212672   5.561   4.857   4.346
 3925SOL     OW12673   4.714   3.945   0.664
 3925SOL    HW112674   4.799   3.927   0.713
 3925SOL    HW212675   4.637   3.908   0.715
 3926SOL     OW12676   0.569   6.619   6.377
 3926SOL    HW112677   0.643   6.641   6.441
 3926SOL    HW212678   0.529   6.704   6.343
 3927SOL     OW12679   5.806   2.508   5.539
 3927SOL    HW112680   5.719   2.494   5.587
 3927SOL    HW212681   5.869   2.558   5.598
 3928SOL     OW12682   2.730   6.275   2.356
 3928SOL    HW112683   2.752   6.363   2.314
 3928SOL    HW212684   2.774   6.269   2.445
 3929SOL     OW12685   6.646   1.905   5.176
 3929SOL    HW112686   6.695   1.977   5.223
 3929SOL    HW212687   6.570   1.944   5.124
 3930SOL     OW12688   0.840   4.105   3.877
 3930SOL    HW112689   0.889   4.112   3.790
 3930SOL    HW212690   0.771   4.033   3.871
 3931SOL     OW12691   1.875   2.377   1.426
 3931SOL    HW112692   1.846   2.316   1.352
 3931SOL    HW212693   1.821   2.460   1.424
 3932SOL     OW12694   2.501   5.349   3.926
 3932SOL    HW112695   2.595   5.344   3.962
 3932SOL    HW212696   2.477   5.444   3.908
 3933SOL     OW12697   2.449   5.623   1.040
 3933SOL    HW112698   2.543   5.591   1.031
 3933SOL    HW212699   2.435   5.704   0.982
 3934SOL     OW12700   0.361   1.229   1.252
 3934SOL    HW112701   0.345   1.268   1.343
 3934SOL    HW212702   0.449   1.262   1.217
 3935SOL     OW12703   6.432   3.109   6.205
 3935SOL    HW112704   6.406   3.017   6.176
 3935SOL    HW212705   6.475   3.105   6.295
 3936SOL     OW12706   0.490   4.809   5.775
 3936SOL    HW112707   0.529   4.883   5.720
 3936SOL    HW212708   0.429   4.848   5.844
 3937SOL     OW12709   0.103   0.004   1.720
 3937SOL    HW112710   0.050   0.088   1.709
 3937SOL    HW212711   0.042   6.950   1.714
 3938SOL     OW12712   0.319   4.078   2.854
 3938SOL    HW112713   0.358   4.152   2.910
 3938SOL    HW212714   0.280   4.008   2.914
 3939SOL     OW12715   1.515   0.978   2.098
 3939SOL    HW112716   1.479   1.037   2.026
 3939SOL    HW212717   1.597   1.020   2.138
 3940SOL     OW12718   3.419   5.420   1.073
 3940SOL    HW112719   3.475   5.412   0.990
 3940SOL    HW212720   3.405   5.517   1.094
 3941SOL     OW12721   5.251   6.031   3.384
 3941SOL    HW112722   5.240   6.130   3.372
 3941SOL    HW212723   5.298   6.012   3.470
 3942SOL     OW12724   6.500   5.695   5.323
 3942SOL    HW112725   6.564   5.728   5.253
 3942SOL    HW212726   6.407   5.696   5.286
 3943SOL     OW12727   1.430   2.726   6.856
 3943SOL    HW112728   1.426   2.753   6.953
 3943SOL    HW212729   1.341   2.690   6.828
 3944SOL     OW12730   5.679   2.277   6.915
 3944SOL    HW112731   5.639   2.185   6.907
 3944SOL    HW212732   5.612   2.339   6.954
 3945SOL     OW12733   6.264   0.587   3.363
 3945SOL    HW112734   6.325   0.624   3.293
 3945SOL    HW212735   6.316   0.528   3.425
 3946SOL     OW12736   1.063   3.084   0.288
 3946SOL    HW112737   1.129   3.023   0.332
 3946SOL    HW212738   1.112   3.156   0.239
 3947SOL     OW12739   5.939   4.903   2.411
 3947SOL    HW112740   5.862   4.849   2.446
 3947SOL    HW212741   5.908   4.996   2.390
 3948SOL     OW12742   0.876   2.798   6.428
 3948SOL    HW112743   0.882   2.797   6.528
 3948SOL    HW212744   0.809   2.731   6.397
 3949SOL     OW12745   5.675   6.744   1.759
 3949SOL    HW112746   5.756   6.688   1.745
 3949SOL    HW212747   5.697   6.819   1.822
 3950SOL     OW12748   3.103   4.424   1.660
 3950SOL    HW112749   3.042   4.457   1.732
 3950SOL    HW212750   3.068   4.452   1.571
 3951SOL     OW12751   0.900   2.384   4.926
 3951SOL    HW112752   0.830   2.407   4.859
 3951SOL    HW212753   0.947   2.467   4.956
 3952SOL     OW12754   5.793   3.347   6.312
 3952SOL    HW112755   5.792   3.406   6.393
 3952SOL    HW212756   5.887   3.317   6.294
 3953SOL     OW12757   3.182   4.350   6.331
 3953SOL    HW112758   3.098   4.399   6.355
 3953SOL    HW212759   3.168   4.252   6.346
 3954SOL     OW12760   0.442   3.186   5.196
 3954SOL    HW112761   0.467   3.169   5.100
 3954SOL    HW212762   0.435   3.284   5.211
 3955SOL     OW12763   6.591   4.604   0.295
 3955SOL    HW112764   6.683   4.640   0.282
 3955SOL    HW212765   6.562   4.620   0.390
 3956SOL     OW12766   1.002   2.571   5.549
 3956SOL    HW112767   0.982   2.518   5.631
 3956SOL    HW212768   1.097   2.604   5.552
 3957SOL     OW12769   0.946   1.449   2.802
 3957SOL    HW112770   0.965   1.402   2.888
 3957SOL    HW212771   0.858   1.420   2.766
 3958SOL     OW12772   5.654   6.350   5.882
 3958SOL    HW112773   5.702   6.306   5.806
 3958SOL    HW212774   5.713   6.354   5.962
 3959SOL     OW12775   2.537   4.937   0.785
 3959SOL    HW112776   2.630   4.908   0.810
 3959SOL    HW212777   2.472   4.866   0.812
 3960SOL     OW12778   4.297   3.577   0.336
 3960SOL    HW112779   4.225   3.510   0.317
 3960SOL    HW212780   4.293   3.603   0.433
 3961SOL     OW12781   5.768   0.645   2.675
 3961SOL    HW112782   5.866   0.639   2.693
 3961SOL    HW212783   5.752   0.671   2.580
 3962SOL     OW12784   0.686   6.846   5.785
 3962SOL    HW112785   0.594   6.874   5.811
 3962SOL    HW212786   0.753   6.892   5.843
 3963SOL     OW12787   4.968   5.423   3.394
 3963SOL    HW112788   4.939   5.483   3.320
 3963SOL    HW212789   4.971   5.329   3.361
 3964SOL     OW12790   5.594   6.621   5.807
 3964SOL    HW112791   5.634   6.529   5.806
 3964SOL    HW212792   5.618   6.668   5.722
 3965SOL     OW12793   3.532   3.633   0.116
 3965SOL    HW112794   3.604   3.596   0.057
 3965SOL    HW212795   3.517   3.570   0.192
 3966SOL     OW12796   5.622   4.204   5.120
 3966SOL    HW112797   5.530   4.227   5.088
 3966SOL    HW212798   5.653   4.120   5.074
 3967SOL     OW12799   0.551   5.300   6.310
 3967SOL    HW112800   0.469   5.347   6.343
 3967SOL    HW212801   0.604   5.362   6.252
 3968SOL     OW12802   5.890   0.186   1.562
 3968SOL    HW112803   5.868   0.265   1.505
 3968SOL    HW212804   5.858   0.103   1.516
 3969SOL     OW12805   0.173   5.312   1.462
 3969SOL    HW112806   0.087   5.359   1.441
 3969SOL    HW212807   0.173   5.284   1.557
 3970SOL     OW12808   4.221   4.760   3.179
 3970SOL    HW112809   4.279   4.836   3.208
 3970SOL    HW212810   4.270   4.703   3.113
 3971SOL     OW12811   1.751   5.685   3.729
 3971SOL    HW112812   1.743   5.783   3.747
 3971SOL    HW212813   1.682   5.635   3.782
 3972SOL     OW12814   1.565   0.011   0.634
 3972SOL    HW112815   1.610   6.951   0.609
 3972SOL    HW212816   1.559   0.019   0.733
 3973SOL     OW12817   2.965   3.295   3.459
 3973SOL    HW112818   3.047   3.352   3.448
 3973SOL    HW212819   2.917   3.289   3.371
 3974SOL     OW12820   6.315   1.828   6.308
 3974SOL    HW112821   6.252   1.787   6.374
 3974SOL    HW212822   6.313   1.775   6.223
 3975SOL     OW12823   0.084   0.844   6.014
 3975SOL    HW112824   0.142   0.790   5.952
 3975SOL    HW212825   0.064   0.933   5.972
 3976SOL     OW12826   0.905   3.465   0.099
 3976SOL    HW112827   0.904   3.385   0.159
 3976SOL    HW212828   0.824   3.522   0.118
 3977SOL     OW12829   4.200   6.639   6.924
 3977SOL    HW112830   4.229   6.593   6.840
 3977SOL    HW212831   4.157   6.574   6.986
 3978SOL     OW12832   5.612   3.126   6.058
 3978SOL    HW112833   5.594   3.168   5.969
 3978SOL    HW212834   5.620   3.196   6.128
 3979SOL     OW12835   1.090   6.957   2.924
 3979SOL    HW112836   1.027   0.003   2.954
 3979SOL    HW212837   1.166   6.950   2.988
 3980SOL     OW12838   5.536   3.180   4.629
 3980SOL    HW112839   5.568   3.132   4.710
 3980SOL    HW212840   5.592   3.261   4.612
 3981SOL     OW12841   6.862   1.602   6.194
 3981SOL    HW112842   6.901   1.597   6.286
 3981SOL    HW212843   6.863   1.697   6.163
 3982SOL     OW12844   3.139   1.878   3.720
 3982SOL    HW112845   3.147   1.973   3.690
 3982SOL    HW212846   3.072   1.831   3.663
 3983SOL     OW12847   3.376   6.472   3.831
 3983SOL    HW112848   3.426   6.386   3.832
 3983SOL    HW212849   3.392   6.521   3.917
 3984SOL     OW12850   1.344   6.671   1.428
 3984SOL    HW112851   1.265   6.660   1.368
 3984SOL    HW212852   1.354   6.589   1.485
 3985SOL     OW12853   1.815   3.397   1.774
 3985SOL    HW112854   1.850   3.444   1.693
 3985SOL    HW212855   1.718   3.418   1.786
 3986SOL     OW12856   0.844   2.646   2.299
 3986SOL    HW112857   0.930   2.666   2.345
 3986SOL    HW212858   0.860   2.633   2.201
 3987SOL     OW12859   2.531   4.876   6.980
 3987SOL    HW112860   2.550   4.944   6.909
 3987SOL    HW212861   2.591   4.891   0.033
 3988SOL     OW12862   3.739   2.277   0.626
 3988SOL    HW112863   3.716   2.370   0.597
 3988SOL    HW212864   3.670   2.245   0.691
 3989SOL     OW12865   4.795   0.137   6.563
 3989SOL    HW112866   4.846   0.179   6.487
 3989SOL    HW212867   4.712   0.095   6.527
 3990SOL     OW12868   1.026   3.094   3.865
 3990SOL    HW112869   0.974   3.009   3.860
 3990SOL    HW212870   1.108   3.080   3.919
 3991SOL     OW12871   0.343   1.738   4.024
 3991SOL    HW112872   0.378   1.665   3.965
 3991SOL    HW212873   0.413   1.809   4.033
 3992SOL     OW12874   4.572   3.637   6.328
 3992SOL    HW112875   4.660   3.639   6.280
 3992SOL    HW212876   4.588   3.636   6.426
 3993SOL     OW12877   2.492   2.219   3.004
 3993SOL    HW112878   2.455   2.311   3.020
 3993SOL    HW212879   2.417   2.154   2.993
 3994SOL     OW12880   2.352   2.354   3.272
 3994SOL    HW112881   2.369   2.256   3.267
 3994SOL    HW212882   2.320   2.378   3.364
 3995SOL     OW12883   1.805   3.936   2.705
 3995SOL    HW112884   1.857   3.850   2.707
 3995SOL    HW212885   1.741   3.938   2.781
 3996SOL     OW12886   5.846   0.370   3.237
 3996SOL    HW112887   5.796   0.402   3.156
 3996SOL    HW212888   5.857   0.446   3.301
 3997SOL     OW12889   5.723   3.668   2.370
 3997SOL    HW112890   5.685   3.634   2.455
 3997SOL    HW212891   5.658   3.652   2.295
 3998SOL     OW12892   6.449   2.017   2.807
 3998SOL    HW112893   6.370   2.040   2.750
 3998SOL    HW212894   6.429   1.934   2.859
 3999SOL     OW12895   5.406   2.969   1.818
 3999SOL    HW112896   5.319   2.950   1.864
 3999SOL    HW212897   5.388   3.014   1.730
 4000SOL     OW12898   3.421   5.710   2.014
 4000SOL    HW112899   3.492   5.780   2.005
 4000SOL    HW212900   3.393   5.702   2.109
 4001SOL     OW12901   2.087   4.089   5.163
 4001SOL    HW112902   2.136   4.062   5.080
 4001SOL    HW212903   2.151   4.130   5.228
 4002SOL     OW12904   3.574   3.238   3.847
 4002SOL    HW112905   3.525   3.323   3.830
 4002SOL    HW212906   3.576   3.219   3.945
 4003SOL     OW12907   2.251   0.373   5.222
 4003SOL    HW112908   2.163   0.419   5.231
 4003SOL    HW212909   2.320   0.438   5.190
 4004SOL     OW12910   0.571   3.885   3.439
 4004SOL    HW112911   0.646   3.898   3.505
 4004SOL    HW212912   0.493   3.845   3.487
 4005SOL     OW12913   4.924   3.303   1.298
 4005SOL    HW112914   4.924   3.323   1.396
 4005SOL    HW212915   4.831   3.307   1.262
 4006SOL     OW12916   5.156   5.028   3.272
 4006SOL    HW112917   5.101   5.000   3.193
 4006SOL    HW212918   5.119   4.986   3.355
 4007SOL     OW12919   6.666   1.394   2.512
 4007SOL    HW112920   6.753   1.435   2.484
 4007SOL    HW212921   6.596   1.413   2.444
 4008SOL     OW12922   1.946   0.350   0.814
 4008SOL    HW112923   1.976   0.327   0.906
 4008SOL    HW212924   1.961   0.447   0.797
 4009SOL     OW12925   3.954   1.966   1.230
 4009SOL    HW112926   3.961   1.931   1.324
 4009SOL    HW212927   3.950   2.065   1.231
 4010SOL     OW12928   2.649   5.514   1.687
 4010SOL    HW112929   2.641   5.437   1.750
 4010SOL    HW212930   2.645   5.479   1.593
 4011SOL     OW12931   6.115   5.895   0.069
 4011SOL    HW112932   6.171   5.978   0.071
 4011SOL    HW212933   6.058   5.891   0.151
 4012SOL     OW12934   3.945   0.019   2.037
 4012SOL    HW112935   4.001   0.002   1.956
 4012SOL    HW212936   3.858   6.995   2.028
 4013SOL     OW12937   1.180   1.209   6.823
 4013SOL    HW112938   1.119   1.280   6.858
 4013SOL    HW212939   1.225   1.163   6.899
 4014SOL     OW12940   2.669   5.480   3.512
 4014SOL    HW112941   2.603   5.519   3.447
 4014SOL    HW212942   2.636   5.390   3.542
 4015SOL     OW12943   4.176   5.447   6.521
 4015SOL    HW112944   4.262   5.495   6.540
 4015SOL    HW212945   4.100   5.496   6.563
 4016SOL     OW12946   3.974   5.826   5.996
 4016SOL    HW112947   4.032   5.902   5.967
 4016SOL    HW212948   3.979   5.815   6.095
 4017SOL     OW12949   1.406   4.807   6.327
 4017SOL    HW112950   1.446   4.813   6.418
 4017SOL    HW212951   1.371   4.715   6.311
 4018SOL     OW12952   4.422   6.314   1.837
 4018SOL    HW112953   4.454   6.374   1.910
 4018SOL    HW212954   4.322   6.311   1.837
 4019SOL     OW12955   4.851   3.249   3.012
 4019SOL    HW112956   4.867   3.272   3.108
 4019SOL    HW212957   4.834   3.151   3.004
 4020SOL     OW12958   6.588   4.583   4.673
 4020SOL    HW112959   6.637   4.535   4.600
 4020SOL    HW212960   6.630   4.562   4.761
 4021SOL     OW12961   3.241   3.516   5.454
 4021SOL    HW112962   3.164   3.466   5.492
 4021SOL    HW212963   3.221   3.614   5.455
 4022SOL     OW12964   2.353   0.498   0.456
 4022SOL    HW112965   2.402   0.413   0.474
 4022SOL    HW212966   2.416   0.566   0.420
 4023SOL     OW12967   0.248   2.599   5.381
 4023SOL    HW112968   0.328   2.603   5.322
 4023SOL    HW212969   0.225   2.691   5.412
 4024SOL     OW12970   0.963   4.665   3.758
 4024SOL    HW112971   0.952   4.660   3.658
 4024SOL    HW212972   1.059   4.652   3.781
 4025SOL     OW12973   1.060   6.043   3.417
 4025SOL    HW112974   1.080   6.129   3.371
 4025SOL    HW212975   1.088   5.967   3.359
 4026SOL     OW12976   6.670   6.040   3.844
 4026SOL    HW112977   6.763   6.050   3.808
 4026SOL    HW212978   6.636   6.129   3.874
 4027SOL     OW12979   2.505   3.818   5.898
 4027SOL    HW112980   2.406   3.807   5.895
 4027SOL    HW212981   2.546   3.776   5.817
 4028SOL     OW12982   4.341   1.459   2.731
 4028SOL    HW112983   4.380   1.536   2.681
 4028SOL    HW212984   4.402   1.434   2.806
 4029SOL     OW12985   2.665   4.614   6.852
 4029SOL    HW112986   2.652   4.696   6.909
 4029SOL    HW212987   2.627   4.631   6.761
 4030SOL     OW12988   0.196   0.988   2.400
 4030SOL    HW112989   0.149   0.901   2.386
 4030SOL    HW212990   0.280   0.974   2.452
 4031SOL     OW12991   5.594   0.136   1.225
 4031SOL    HW112992   5.650   0.083   1.289
 4031SOL    HW212993   5.584   0.085   1.139
 4032SOL     OW12994   6.015   6.995   1.359
 4032SOL    HW112995   6.015   0.059   1.314
 4032SOL    HW212996   6.088   6.992   1.428
 4033SOL     OW12997   3.190   2.153   2.603
 4033SOL    HW112998   3.232   2.072   2.561
 4033SOL    HW212999   3.236   2.235   2.571
 4034SOL     OW13000   0.332   3.118   4.849
 4034SOL    HW113001   0.378   3.058   4.915
 4034SOL    HW213002   0.400   3.165   4.794
 4035SOL     OW13003   6.599   2.286   1.170
 4035SOL    HW113004   6.691   2.247   1.177
 4035SOL    HW213005   6.532   2.217   1.199
 4036SOL     OW13006   3.182   5.599   3.666
 4036SOL    HW113007   3.183   5.614   3.764
 4036SOL    HW213008   3.190   5.501   3.647
 4037SOL     OW13009   2.035   1.107   5.580
 4037SOL    HW113010   1.955   1.075   5.631
 4037SOL    HW213011   2.068   1.034   5.520
 4038SOL     OW13012   3.513   4.323   6.009
 4038SOL    HW113013   3.556   4.249   6.061
 4038SOL    HW213014   3.567   4.406   6.018
 4039SOL     OW13015   5.301   4.679   1.633
 4039SOL    HW113016   5.388   4.702   1.679
 4039SOL    HW213017   5.229   4.670   1.701
 4040SOL     OW13018   3.764   5.209   5.392
 4040SOL    HW113019   3.735   5.114   5.402
 4040SOL    HW213020   3.731   5.245   5.304
 4041SOL     OW13021   1.968   6.709   1.341
 4041SOL    HW113022   1.934   6.796   1.306
 4041SOL    HW213023   1.928   6.634   1.289
 4042SOL     OW13024   6.229   0.227   2.916
 4042SOL    HW113025   6.283   0.311   2.920
 4042SOL    HW213026   6.140   0.243   2.960
 4043SOL     OW13027   5.514   3.726   6.283
 4043SOL    HW113028   5.544   3.795   6.217
 4043SOL    HW213029   5.521   3.763   6.375
 4044SOL     OW13030   3.997   4.764   2.887
 4044SOL    HW113031   4.030   4.806   2.971
 4044SOL    HW213032   4.074   4.752   2.824
 4045SOL     OW13033   4.897   6.833   6.251
 4045SOL    HW113034   4.820   6.855   6.311
 4045SOL    HW213035   4.950   6.758   6.291
 4046SOL     OW13036   0.780   1.783   3.143
 4046SOL    HW113037   0.717   1.826   3.208
 4046SOL    HW213038   0.840   1.720   3.191
 4047SOL     OW13039   2.624   3.103   6.494
 4047SOL    HW113040   2.708   3.081   6.543
 4047SOL    HW213041   2.550   3.116   6.560
 4048SOL     OW13042   4.961   0.542   2.177
 4048SOL    HW113043   4.990   0.563   2.270
 4048SOL    HW213044   5.036   0.561   2.114
 4049SOL     OW13045   3.793   5.772   6.936
 4049SOL    HW113046   3.729   5.699   6.910
 4049SOL    HW213047   3.848   5.798   6.858
 4050SOL     OW13048   0.843   6.265   2.755
 4050SOL    HW113049   0.830   6.166   2.744
 4050SOL    HW213050   0.756   6.312   2.737
 4051SOL     OW13051   5.175   0.875   6.306
 4051SOL    HW113052   5.147   0.797   6.249
 4051SOL    HW213053   5.271   0.863   6.332
 4052SOL     OW13054   6.577   1.748   2.859
 4052SOL    HW113055   6.644   1.819   2.839
 4052SOL    HW213056   6.615   1.659   2.835
 4053SOL     OW13057   0.910   5.373   4.756
 4053SOL    HW113058   0.968   5.295   4.776
 4053SOL    HW213059   0.826   5.342   4.710
 4054SOL     OW13060   4.432   4.009   1.212
 4054SOL    HW113061   4.384   3.976   1.130
 4054SOL    HW213062   4.375   4.076   1.260
 4055SOL     OW13063   1.513   3.998   2.119
 4055SOL    HW113064   1.442   3.938   2.156
 4055SOL    HW213065   1.589   4.003   2.184
 4056SOL     OW13066   5.406   3.660   0.743
 4056SOL    HW113067   5.482   3.653   0.808
 4056SOL    HW213068   5.344   3.733   0.773
 4057SOL     OW13069   6.294   3.360   6.614
 4057SOL    HW113070   6.247   3.420   6.679
 4057SOL    HW213071   6.266   3.383   6.521
 4058SOL     OW13072   2.396   5.403   4.759
 4058SOL    HW113073   2.396   5.493   4.802
 4058SOL    HW213074   2.484   5.358   4.774
 4059SOL     OW13075   0.853   2.510   4.224
 4059SOL    HW113076   0.810   2.600   4.222
 4059SOL    HW213077   0.864   2.476   4.130
 4060SOL     OW13078   6.959   5.649   4.908
 4060SOL    HW113079   6.863   5.644   4.937
 4060SOL    HW213080   6.992   5.558   4.883
 4061SOL     OW13081   2.622   5.265   1.823
 4061SOL    HW113082   2.713   5.228   1.838
 4061SOL    HW213083   2.555   5.209   1.872
 4062SOL     OW13084   2.441   1.469   1.745
 4062SOL    HW113085   2.362   1.519   1.708
 4062SOL    HW213086   2.523   1.497   1.695
 4063SOL     OW13087   5.649   0.187   0.893
 4063SOL    HW113088   5.573   0.199   0.958
 4063SOL    HW213089   5.732   0.165   0.943
 4064SOL     OW13090   1.980   2.043   4.284
 4064SOL    HW113091   1.960   2.113   4.214
 4064SOL    HW213092   1.896   1.996   4.309
 4065SOL     OW13093   1.364   6.954   0.257
 4065SOL    HW113094   1.383   7.006   0.340
 4065SOL    HW213095   1.342   7.016   0.182
 4066SOL     OW13096   6.289   3.984   2.777
 4066SOL    HW113097   6.289   4.083   2.762
 4066SOL    HW213098   6.316   3.938   2.692
 4067SOL     OW13099   5.957   4.188   2.519
 4067SOL    HW113100   5.884   4.214   2.456
 4067SOL    HW213101   6.009   4.270   2.545
 4068SOL     OW13102   1.846   3.126   4.874
 4068SOL    HW113103   1.896   3.065   4.812
 4068SOL    HW213104   1.821   3.076   4.957
 4069SOL     OW13105   3.790   6.702   6.920
 4069SOL    HW113106   3.858   6.735   6.854
 4069SOL    HW213107   3.699   6.733   6.891
 4070SOL     OW13108   1.274   2.816   3.103
 4070SOL    HW113109   1.215   2.807   3.023
 4070SOL    HW213110   1.234   2.881   3.168
 4071SOL     OW13111   1.226   0.645   3.931
 4071SOL    HW113112   1.218   0.735   3.888
 4071SOL    HW213113   1.238   0.576   3.860
 4072SOL     OW13114   1.029   5.359   4.478
 4072SOL    HW113115   0.999   5.278   4.428
 4072SOL    HW213116   0.950   5.409   4.512
 4073SOL     OW13117   2.275   5.289   0.340
 4073SOL    HW113118   2.319   5.367   0.383
 4073SOL    HW213119   2.309   5.278   0.246
 4074SOL     OW13120   1.193   4.799   1.972
 4074SOL    HW113121   1.197   4.740   2.053
 4074SOL    HW213122   1.215   4.745   1.891
 4075SOL     OW13123   5.202   1.504   0.772
 4075SOL    HW113124   5.162   1.567   0.839
 4075SOL    HW213125   5.221   1.416   0.817
 4076SOL     OW13126   3.337   3.383   5.226
 4076SOL    HW113127   3.361   3.290   5.254
 4076SOL    HW213128   3.321   3.439   5.307
 4077SOL     OW13129   4.332   1.377   1.398
 4077SOL    HW113130   4.316   1.392   1.495
 4077SOL    HW213131   4.385   1.453   1.360
 4078SOL     OW13132   2.910   4.796   2.902
 4078SOL    HW113133   2.960   4.772   2.819
 4078SOL    HW213134   2.930   4.891   2.927
 4079SOL     OW13135   1.702   2.168   4.263
 4079SOL    HW113136   1.671   2.251   4.308
 4079SOL    HW213137   1.623   2.113   4.236
 4080SOL     OW13138   5.031   1.941   5.072
 4080SOL    HW113139   4.950   1.956   5.016
 4080SOL    HW213140   5.056   1.844   5.071
 4081SOL     OW13141   1.889   2.892   4.269
 4081SOL    HW113142   1.907   2.966   4.204
 4081SOL    HW213143   1.868   2.930   4.358
 4082SOL     OW13144   1.384   3.345   1.202
 4082SOL    HW113145   1.357   3.442   1.204
 4082SOL    HW213146   1.482   3.338   1.182
 4083SOL     OW13147   6.178   2.660   3.518
 4083SOL    HW113148   6.130   2.637   3.433
 4083SOL    HW213149   6.135   2.614   3.595
 4084SOL     OW13150   6.107   1.790   4.020
 4084SOL    HW113151   6.036   1.774   3.952
 4084SOL    HW213152   6.196   1.764   3.982
 4085SOL     OW13153   4.257   6.204   0.717
 4085SOL    HW113154   4.233   6.296   0.686
 4085SOL    HW213155   4.279   6.207   0.815
 4086SOL     OW13156   1.899   5.283   1.494
 4086SOL    HW113157   1.883   5.285   1.593
 4086SOL    HW213158   1.905   5.189   1.463
 4087SOL     OW13159   2.372   2.672   2.996
 4087SOL    HW113160   2.440   2.601   3.011
 4087SOL    HW213161   2.372   2.735   3.074
 4088SOL     OW13162   6.743   1.847   1.420
 4088SOL    HW113163   6.706   1.793   1.344
 4088SOL    HW213164   6.667   1.883   1.474
 4089SOL     OW13165   0.938   6.915   3.467
 4089SOL    HW113166   0.921   7.013   3.465
 4089SOL    HW213167   0.890   6.874   3.545
 4090SOL     OW13168   2.800   4.214   6.143
 4090SOL    HW113169   2.895   4.191   6.119
 4090SOL    HW213170   2.740   4.190   6.067
 4091SOL     OW13171   5.463   6.557   0.333
 4091SOL    HW113172   5.534   6.625   0.313
 4091SOL    HW213173   5.373   6.597   0.317
 4092SOL     OW13174   0.008   2.786   5.065
 4092SOL    HW113175   6.939   2.775   5.097
 4092SOL    HW213176   0.051   2.863   5.113
 4093SOL     OW13177   5.246   0.389   3.782
 4093SOL    HW113178   5.264   0.475   3.734
 4093SOL    HW213179   5.277   0.312   3.726
 4094SOL     OW13180   1.991   4.657   5.030
 4094SOL    HW113181   2.069   4.653   4.966
 4094SOL    HW213182   1.925   4.586   5.006
 4095SOL     OW13183   1.273   3.701   6.020
 4095SOL    HW113184   1.324   3.644   6.084
 4095SOL    HW213185   1.320   3.701   5.931
 4096SOL     OW13186   4.735   5.713   1.124
 4096SOL    HW113187   4.797   5.699   1.201
 4096SOL    HW213188   4.789   5.729   1.041
 4097SOL     OW13189   3.004   4.441   5.920
 4097SOL    HW113190   3.039   4.357   5.959
 4097SOL    HW213191   2.905   4.434   5.909
 4098SOL     OW13192   0.549   2.773   2.696
 4098SOL    HW113193   0.512   2.857   2.656
 4098SOL    HW213194   0.595   2.794   2.783
 4099SOL     OW13195   3.285   5.292   1.847
 4099SOL    HW113196   3.209   5.343   1.888
 4099SOL    HW213197   3.353   5.357   1.812
 4100SOL     OW13198   4.979   5.784   4.086
 4100SOL    HW113199   5.002   5.739   4.172
 4100SOL    HW213200   5.043   5.754   4.015
 4101SOL     OW13201   5.652   1.576   0.268
 4101SOL    HW113202   5.605   1.500   0.312
 4101SOL    HW213203   5.590   1.655   0.263
 4102SOL     OW13204   6.463   0.399   1.321
 4102SOL    HW113205   6.466   0.309   1.363
 4102SOL    HW213206   6.533   0.405   1.250
 4103SOL     OW13207   0.754   1.011   1.877
 4103SOL    HW113208   0.695   1.032   1.955
 4103SOL    HW213209   0.739   1.079   1.805
 4104SOL     OW13210   1.743   4.385   2.469
 4104SOL    HW113211   1.781   4.416   2.382
 4104SOL    HW213212   1.680   4.309   2.453
 4105SOL     OW13213   3.983   5.840   0.850
 4105SOL    HW113214   4.053   5.769   0.840
 4105SOL    HW213215   3.997   5.910   0.780
 4106SOL     OW13216   0.229   3.852   4.737
 4106SOL    HW113217   0.244   3.945   4.770
 4106SOL    HW213218   0.274   3.787   4.799
 4107SOL     OW13219   0.515   6.213   0.968
 4107SOL    HW113220   0.497   6.246   1.060
 4107SOL    HW213221   0.614   6.206   0.954
 4108SOL     OW13222   6.786   4.790   6.406
 4108SOL    HW113223   6.761   4.835   6.492
 4108SOL    HW213224   6.819   4.859   6.341
 4109SOL     OW13225   4.329   6.254   4.397
 4109SOL    HW113226   4.427   6.240   4.407
 4109SOL    HW213227   4.311   6.349   4.370
 4110SOL     OW13228   4.060   3.999   6.518
 4110SOL    HW113229   4.156   3.977   6.534
 4110SOL    HW213230   4.021   3.933   6.454
 4111SOL     OW13231   3.796   3.001   0.264
 4111SOL    HW113232   3.793   3.100   0.276
 4111SOL    HW213233   3.757   2.957   0.345
 4112SOL     OW13234   5.136   1.276   5.473
 4112SOL    HW113235   5.046   1.235   5.485
 4112SOL    HW213236   5.145   1.354   5.535
 4113SOL     OW13237   3.691   5.717   5.023
 4113SOL    HW113238   3.638   5.635   5.003
 4113SOL    HW213239   3.631   5.789   5.057
 4114SOL     OW13240   3.100   2.161   3.702
 4114SOL    HW113241   3.051   2.197   3.781
 4114SOL    HW213242   3.066   2.205   3.619
 4115SOL     OW13243   5.214   6.214   2.607
 4115SOL    HW113244   5.290   6.226   2.671
 4115SOL    HW213245   5.176   6.304   2.584
 4116SOL     OW13246   3.940   1.763   1.626
 4116SOL    HW113247   3.954   1.841   1.566
 4116SOL    HW213248   3.989   1.683   1.591
 4117SOL     OW13249   0.461   5.633   1.422
 4117SOL    HW113250   0.505   5.667   1.339
 4117SOL    HW213251   0.449   5.534   1.415
 4118SOL     OW13252   1.215   6.723   0.865
 4118SOL    HW113253   1.236   6.773   0.782
 4118SOL    HW213254   1.156   6.645   0.844
 4119SOL     OW13255   4.107   1.468   4.527
 4119SOL    HW113256   4.101   1.391   4.463
 4119SOL    HW213257   4.017   1.483   4.568
 4120SOL     OW13258   4.701   6.969   2.100
 4120SOL    HW113259   4.719   0.034   2.137
 4120SOL    HW213260   4.745   6.960   2.011
 4121SOL     OW13261   6.224   1.830   4.668
 4121SOL    HW113262   6.225   1.869   4.761
 4121SOL    HW213263   6.249   1.733   4.673
 4122SOL     OW13264   0.743   6.438   5.029
 4122SOL    HW113265   0.695   6.383   5.097
 4122SOL    HW213266   0.774   6.523   5.071
 4123SOL     OW13267   5.723   4.436   5.942
 4123SOL    HW113268   5.719   4.515   5.881
 4123SOL    HW213269   5.637   4.428   5.993
 4124SOL     OW13270   5.863   5.770   4.716
 4124SOL    HW113271   5.864   5.754   4.617
 4124SOL    HW213272   5.886   5.686   4.764
 4125SOL     OW13273   4.757   0.429   1.541
 4125SOL    HW113274   4.815   0.507   1.562
 4125SOL    HW213275   4.808   0.363   1.485
 4126SOL     OW13276   1.228   4.151   4.391
 4126SOL    HW113277   1.311   4.170   4.339
 4126SOL    HW213278   1.157   4.117   4.329
 4127SOL     OW13279   5.265   3.236   3.949
 4127SOL    HW113280   5.243   3.310   3.886
 4127SOL    HW213281   5.274   3.150   3.899
 4128SOL     OW13282   2.041   4.031   2.470
 4128SOL    HW113283   1.943   4.035   2.448
 4128SOL    HW213284   2.063   3.939   2.504
 4129SOL     OW13285   5.219   1.785   6.277
 4129SOL    HW113286   5.211   1.824   6.369
 4129SOL    HW213287   5.274   1.845   6.219
 4130SOL     OW13288   0.072   3.620   5.614
 4130SOL    HW113289   0.064   3.520   5.610
 4130SOL    HW213290   0.061   3.651   5.709
 4131SOL     OW13291   0.856   5.822   3.920
 4131SOL    HW113292   0.790   5.897   3.918
 4131SOL    HW213293   0.935   5.847   3.865
 4132SOL     OW13294   5.799   3.548   3.587
 4132SOL    HW113295   5.815   3.643   3.560
 4132SOL    HW213296   5.713   3.542   3.637
 4133SOL     OW13297   3.147   6.948   0.798
 4133SOL    HW113298   3.170   6.966   0.702
 4133SOL    HW213299   3.164   6.852   0.819
 4134SOL     OW13300   1.796   2.382   0.487
 4134SOL    HW113301   1.881   2.429   0.511
 4134SOL    HW213302   1.785   2.302   0.546
 4135SOL     OW13303   2.305   0.905   2.075
 4135SOL    HW113304   2.293   0.929   1.979
 4135SOL    HW213305   2.301   0.988   2.131
 4136SOL     OW13306   0.355   2.147   3.960
 4136SOL    HW113307   0.424   2.163   3.890
 4136SOL    HW213308   0.304   2.064   3.938
 4137SOL     OW13309   2.672   3.805   0.888
 4137SOL    HW113310   2.763   3.847   0.883
 4137SOL    HW213311   2.681   3.705   0.888
 4138SOL     OW13312   3.788   5.009   3.910
 4138SOL    HW113313   3.774   5.096   3.863
 4138SOL    HW213314   3.883   4.981   3.902
 4139SOL     OW13315   2.296   2.170   5.914
 4139SOL    HW113316   2.274   2.085   5.866
 4139SOL    HW213317   2.263   2.166   6.008
 4140SOL     OW13318   3.516   0.913   5.459
 4140SOL    HW113319   3.473   0.940   5.544
 4140SOL    HW213320   3.449   0.866   5.401
 4141SOL     OW13321   5.009   4.901   1.425
 4141SOL    HW113322   4.957   4.827   1.467
 4141SOL    HW213323   5.008   4.980   1.486
 4142SOL     OW13324   6.568   5.386   1.111
 4142SOL    HW113325   6.554   5.484   1.117
 4142SOL    HW213326   6.486   5.339   1.144
 4143SOL     OW13327   6.852   3.390   0.333
 4143SOL    HW113328   6.912   3.372   0.412
 4143SOL    HW213329   6.877   3.329   0.258
 4144SOL     OW13330   5.900   2.159   0.833
 4144SOL    HW113331   5.853   2.128   0.750
 4144SOL    HW213332   5.876   2.254   0.852
 4145SOL     OW13333   6.540   6.368   1.709
 4145SOL    HW113334   6.503   6.339   1.621
 4145SOL    HW213335   6.590   6.292   1.751
 4146SOL     OW13336   5.982   0.432   5.973
 4146SOL    HW113337   5.988   0.376   6.056
 4146SOL    HW213338   6.031   0.386   5.899
 4147SOL     OW13339   3.480   1.942   5.879
 4147SOL    HW113340   3.442   1.971   5.792
 4147SOL    HW213341   3.412   1.953   5.951
 4148SOL     OW13342   0.360   0.405   3.720
 4148SOL    HW113343   0.395   0.377   3.809
 4148SOL    HW213344   0.291   0.476   3.731
 4149SOL     OW13345   0.297   3.058   6.701
 4149SOL    HW113346   0.291   3.075   6.800
 4149SOL    HW213347   0.295   3.145   6.652
 4150SOL     OW13348   5.810   0.631   6.068
 4150SOL    HW113349   5.861   0.651   6.152
 4150SOL    HW213350   5.854   0.555   6.020
 4151SOL     OW13351   5.345   5.928   6.965
 4151SOL    HW113352   5.436   5.887   6.961
 4151SOL    HW213353   5.354   6.026   6.984
 4152SOL     OW13354   3.601   5.198   1.936
 4152SOL    HW113355   3.615   5.192   2.035
 4152SOL    HW213356   3.559   5.114   1.902
 4153SOL     OW13357   5.262   5.252   5.647
 4153SOL    HW113358   5.274   5.288   5.739
 4153SOL    HW213359   5.200   5.173   5.650
 4154SOL     OW13360   6.577   3.892   5.199
 4154SOL    HW113361   6.624   3.905   5.287
 4154SOL    HW213362   6.550   3.796   5.190
 4155SOL     OW13363   0.295   3.370   3.219
 4155SOL    HW113364   0.392   3.396   3.210
 4155SOL    HW213365   0.266   3.322   3.136
 4156SOL     OW13366   5.834   0.247   4.989
 4156SOL    HW113367   5.800   0.162   4.949
 4156SOL    HW213368   5.933   0.242   4.999
 4157SOL     OW13369   3.835   0.330   4.067
 4157SOL    HW113370   3.742   0.295   4.065
 4157SOL    HW213371   3.856   0.375   3.980
 4158SOL     OW13372   1.016   5.175   3.930
 4158SOL    HW113373   1.113   5.162   3.951
 4158SOL    HW213374   0.984   5.100   3.872
 4159SOL     OW13375   1.841   3.315   3.712
 4159SOL    HW113376   1.922   3.258   3.721
 4159SOL    HW213377   1.759   3.261   3.735
 4160SOL     OW13378   6.138   0.529   1.339
 4160SOL    HW113379   6.207   0.458   1.326
 4160SOL    HW213380   6.135   0.588   1.258
 4161SOL     OW13381   1.796   0.504   6.416
 4161SOL    HW113382   1.811   0.501   6.317
 4161SOL    HW213383   1.712   0.555   6.435
 4162SOL     OW13384   6.089   0.170   4.997
 4162SOL    HW113385   6.138   0.249   5.032
 4162SOL    HW213386   6.098   0.166   4.898
 4163SOL     OW13387   6.164   1.464   3.040
 4163SOL    HW113388   6.191   1.403   3.115
 4163SOL    HW213389   6.091   1.421   2.987
 4164SOL     OW13390   1.848   0.364   6.910
 4164SOL    HW113391   1.915   0.432   6.939
 4164SOL    HW213392   1.789   0.403   6.839
 4165SOL     OW13393   4.273   6.495   0.974
 4165SOL    HW113394   4.305   6.516   1.067
 4165SOL    HW213395   4.173   6.488   0.975
 4166SOL     OW13396   3.903   2.339   1.152
 4166SOL    HW113397   3.804   2.346   1.143
 4166SOL    HW213398   3.928   2.328   1.248
 4167SOL     OW13399   2.402   2.521   0.974
 4167SOL    HW113400   2.437   2.612   0.997
 4167SOL    HW213401   2.347   2.526   0.891
 4168SOL     OW13402   0.134   5.301   0.993
 4168SOL    HW113403   0.192   5.289   1.073
 4168SOL    HW213404   0.190   5.300   0.910
 4169SOL     OW13405   5.319   3.748   4.350
 4169SOL    HW113406   5.297   3.826   4.291
 4169SOL    HW213407   5.277   3.762   4.440
 4170SOL     OW13408   4.143   2.578   5.598
 4170SOL    HW113409   4.070   2.645   5.587
 4170SOL    HW213410   4.201   2.605   5.674
 4171SOL     OW13411   4.894   3.938   1.126
 4171SOL    HW113412   4.825   3.997   1.085
 4171SOL    HW213413   4.848   3.864   1.177
 4172SOL     OW13414   6.927   2.448   0.163
 4172SOL    HW113415   6.983   2.531   0.153
 4172SOL    HW213416   6.981   2.368   0.137
 4173SOL     OW13417   5.466   3.360   5.305
 4173SOL    HW113418   5.536   3.428   5.322
 4173SOL    HW213419   5.431   3.326   5.393
 4174SOL     OW13420   4.703   0.613   3.781
 4174SOL    HW113421   4.616   0.563   3.790
 4174SOL    HW213422   4.689   0.708   3.807
 4175SOL     OW13423   3.593   0.152   4.079
 4175SOL    HW113424   3.551   0.225   4.132
 4175SOL    HW213425   3.522   0.087   4.049
 4176SOL     OW13426   4.077   0.299   2.572
 4176SOL    HW113427   3.978   0.285   2.563
 4176SOL    HW213428   4.095   0.361   2.648
 4177SOL     OW13429   0.525   5.181   5.000
 4177SOL    HW113430   0.604   5.121   4.988
 4177SOL    HW213431   0.500   5.184   5.097
 4178SOL     OW13432   3.580   1.024   6.077
 4178SOL    HW113433   3.524   1.104   6.098
 4178SOL    HW213434   3.523   0.956   6.030
 4179SOL     OW13435   6.031   2.917   4.118
 4179SOL    HW113436   6.006   2.942   4.212
 4179SOL    HW213437   6.011   2.820   4.104
 4180SOL     OW13438   5.642   4.521   1.960
 4180SOL    HW113439   5.741   4.531   1.970
 4180SOL    HW213440   5.619   4.423   1.961
 4181SOL     OW13441   1.083   2.139   6.293
 4181SOL    HW113442   1.159   2.091   6.248
 4181SOL    HW213443   1.119   2.211   6.352
 4182SOL     OW13444   0.669   0.220   2.593
 4182SOL    HW113445   0.588   0.276   2.607
 4182SOL    HW213446   0.705   0.191   2.682
 4183SOL     OW13447   2.698   1.748   1.652
 4183SOL    HW113448   2.761   1.806   1.600
 4183SOL    HW213449   2.614   1.799   1.671
 4184SOL     OW13450   3.719   5.575   1.122
 4184SOL    HW113451   3.812   5.541   1.109
 4184SOL    HW213452   3.720   5.647   1.191
 4185SOL     OW13453   0.676   6.139   3.279
 4185SOL    HW113454   0.750   6.205   3.286
 4185SOL    HW213455   0.712   6.051   3.247
 4186SOL     OW13456   2.343   3.850   6.805
 4186SOL    HW113457   2.370   3.754   6.810
 4186SOL    HW213458   2.321   3.873   6.711
 4187SOL     OW13459   3.286   3.159   5.806
 4187SOL    HW113460   3.304   3.251   5.772
 4187SOL    HW213461   3.351   3.137   5.880
 4188SOL     OW13462   4.653   0.468   4.510
 4188SOL    HW113463   4.641   0.553   4.560
 4188SOL    HW213464   4.708   0.405   4.565
 4189SOL     OW13465   3.240   1.626   4.542
 4189SOL    HW113466   3.265   1.538   4.581
 4189SOL    HW213467   3.205   1.613   4.449
 4190SOL     OW13468   2.230   0.532   6.709
 4190SOL    HW113469   2.300   0.550   6.640
 4190SOL    HW213470   2.253   0.447   6.757
 4191SOL     OW13471   5.672   3.213   2.845
 4191SOL    HW113472   5.607   3.162   2.789
 4191SOL    HW213473   5.722   3.149   2.904
 4192SOL     OW13474   5.975   1.351   2.906
 4192SOL    HW113475   5.879   1.341   2.933
 4192SOL    HW213476   5.980   1.399   2.818
 4193SOL     OW13477   2.418   6.857   2.170
 4193SOL    HW113478   2.433   6.901   2.082
 4193SOL    HW213479   2.338   6.797   2.164
 4194SOL     OW13480   6.881   1.905   4.581
 4194SOL    HW113481   6.936   1.974   4.627
 4194SOL    HW213482   6.866   1.933   4.486
 4195SOL     OW13483   4.558   0.518   1.327
 4195SOL    HW113484   4.569   0.543   1.423
 4195SOL    HW213485   4.519   0.427   1.320
 4196SOL     OW13486   5.611   2.301   3.924
 4196SOL    HW113487   5.588   2.203   3.923
 4196SOL    HW213488   5.536   2.351   3.968
 4197SOL     OW13489   5.286   4.274   4.444
 4197SOL    HW113490   5.383   4.294   4.458
 4197SOL    HW213491   5.230   4.346   4.487
 4198SOL     OW13492   5.613   3.104   0.257
 4198SOL    HW113493   5.544   3.171   0.229
 4198SOL    HW213494   5.676   3.088   0.181
 4199SOL     OW13495   3.176   3.040   4.972
 4199SOL    HW113496   3.129   3.031   4.884
 4199SOL    HW213497   3.220   3.129   4.978
 4200SOL     OW13498   2.294   6.736   6.198
 4200SOL    HW113499   2.377   6.691   6.231
 4200SOL    HW213500   2.219   6.670   6.192
 4201SOL     OW13501   6.450   6.921   3.108
 4201SOL    HW113502   6.385   6.976   3.161
 4201SOL    HW213503   6.427   6.824   3.117
 4202SOL     OW13504   5.347   4.553   5.724
 4202SOL    HW113505   5.361   4.640   5.675
 4202SOL    HW213506   5.359   4.477   5.661
 4203SOL     OW13507   4.812   6.397   3.055
 4203SOL    HW113508   4.846   6.397   2.961
 4203SOL    HW213509   4.797   6.491   3.084
 4204SOL     OW13510   2.756   3.035   1.562
 4204SOL    HW113511   2.812   2.954   1.543
 4204SOL    HW213512   2.810   3.101   1.613
 4205SOL     OW13513   3.265   5.135   4.521
 4205SOL    HW113514   3.220   5.152   4.433
 4205SOL    HW213515   3.330   5.060   4.511
 4206SOL     OW13516   4.484   6.980   5.145
 4206SOL    HW113517   4.428   0.032   5.115
 4206SOL    HW213518   4.428   6.919   5.201
 4207SOL     OW13519   1.510   1.370   1.714
 4207SOL    HW113520   1.558   1.431   1.652
 4207SOL    HW213521   1.522   1.402   1.808
 4208SOL     OW13522   1.773   2.854   1.152
 4208SOL    HW113523   1.678   2.861   1.183
 4208SOL    HW213524   1.788   2.765   1.108
 4209SOL     OW13525   1.366   7.012   4.732
 4209SOL    HW113526   1.426   6.942   4.693
 4209SOL    HW213527   1.356   6.996   4.830
 4210SOL     OW13528   3.910   3.492   1.270
 4210SOL    HW113529   3.944   3.474   1.362
 4210SOL    HW213530   3.821   3.448   1.258
 4211SOL     OW13531   4.914   4.845   4.938
 4211SOL    HW113532   4.816   4.834   4.920
 4211SOL    HW213533   4.927   4.927   4.994
 4212SOL     OW13534   6.184   1.340   2.435
 4212SOL    HW113535   6.258   1.356   2.501
 4212SOL    HW213536   6.157   1.244   2.439
 4213SOL     OW13537   1.994   1.260   1.986
 4213SOL    HW113538   2.003   1.337   1.923
 4213SOL    HW213539   1.944   1.186   1.942
 4214SOL     OW13540   0.820   3.399   5.906
 4214SOL    HW113541   0.745   3.356   5.956
 4214SOL    HW213542   0.903   3.345   5.917
 4215SOL     OW13543   0.644   5.873   4.707
 4215SOL    HW113544   0.735   5.833   4.697
 4215SOL    HW213545   0.643   5.963   4.663
 4216SOL     OW13546   1.228   2.360   4.080
 4216SOL    HW113547   1.188   2.424   4.015
 4216SOL    HW213548   1.291   2.299   4.033
 4217SOL     OW13549   0.344   0.193   2.336
 4217SOL    HW113550   0.346   0.138   2.252
 4217SOL    HW213551   0.327   0.289   2.312
 4218SOL     OW13552   5.063   0.132   1.715
 4218SOL    HW113553   5.148   0.183   1.700
 4218SOL    HW213554   4.992   0.193   1.750
 4219SOL     OW13555   3.603   5.091   5.144
 4219SOL    HW113556   3.539   5.034   5.194
 4219SOL    HW213557   3.602   5.066   5.047
 4220SOL     OW13558   6.673   3.526   3.519
 4220SOL    HW113559   6.596   3.466   3.499
 4220SOL    HW213560   6.755   3.470   3.536
 4221SOL     OW13561   5.280   5.316   5.929
 4221SOL    HW113562   5.186   5.281   5.935
 4221SOL    HW213563   5.298   5.378   6.006
 4222SOL     OW13564   5.831   2.235   1.961
 4222SOL    HW113565   5.759   2.295   1.997
 4222SOL    HW213566   5.910   2.290   1.935
 4223SOL     OW13567   3.405   3.935   2.441
 4223SOL    HW113568   3.390   3.842   2.408
 4223SOL    HW213569   3.352   3.999   2.386
 4224SOL     OW13570   4.917   2.547   4.922
 4224SOL    HW113571   4.943   2.455   4.949
 4224SOL    HW213572   4.968   2.614   4.977
 4225SOL     OW13573   6.085   0.554   4.549
 4225SOL    HW113574   6.019   0.582   4.480
 4225SOL    HW213575   6.094   0.625   4.618
 4226SOL     OW13576   0.949   1.087   3.318
 4226SOL    HW113577   0.955   0.990   3.345
 4226SOL    HW213578   0.899   1.138   3.388
 4227SOL     OW13579   4.036   4.775   0.391
 4227SOL    HW113580   3.937   4.768   0.399
 4227SOL    HW213581   4.074   4.688   0.361
 4228SOL     OW13582   5.765   5.811   3.709
 4228SOL    HW113583   5.700   5.748   3.751
 4228SOL    HW213584   5.747   5.904   3.741
 4229SOL     OW13585   4.277   5.278   6.203
 4229SOL    HW113586   4.261   5.235   6.292
 4229SOL    HW213587   4.366   5.250   6.168
 4230SOL     OW13588   3.112   0.495   5.202
 4230SOL    HW113589   3.047   0.510   5.277
 4230SOL    HW213590   3.129   0.397   5.191
 4231SOL     OW13591   5.212   6.508   5.357
 4231SOL    HW113592   5.240   6.414   5.378
 4231SOL    HW213593   5.116   6.520   5.383
 4232SOL     OW13594   1.403   5.241   2.392
 4232SOL    HW113595   1.370   5.297   2.468
 4232SOL    HW213596   1.370   5.280   2.305
 4233SOL     OW13597   5.855   0.421   6.932
 4233SOL    HW113598   5.757   0.406   6.929
 4233SOL    HW213599   5.874   0.519   6.938
 4234SOL     OW13600   3.179   5.572   6.335
 4234SOL    HW113601   3.088   5.538   6.312
 4234SOL    HW213602   3.246   5.501   6.318
 4235SOL     OW13603   6.123   4.581   5.656
 4235SOL    HW113604   6.162   4.529   5.732
 4235SOL    HW213605   6.177   4.663   5.641
 4236SOL     OW13606   0.412   2.568   3.639
 4236SOL    HW113607   0.415   2.587   3.541
 4236SOL    HW213608   0.492   2.514   3.665
 4237SOL     OW13609   5.030   4.167   5.071
 4237SOL    HW113610   5.047   4.073   5.099
 4237SOL    HW213611   5.055   4.177   4.974
 4238SOL     OW13612   3.988   5.281   3.688
 4238SOL    HW113613   3.951   5.330   3.609
 4238SOL    HW213614   3.969   5.332   3.771
 4239SOL     OW13615   4.596   6.453   5.404
 4239SOL    HW113616   4.619   6.533   5.348
 4239SOL    HW213617   4.547   6.483   5.486
 4240SOL     OW13618   2.869   5.092   0.389
 4240SOL    HW113619   2.881   5.017   0.454
 4240SOL    HW213620   2.789   5.147   0.415
 4241SOL     OW13621   5.223   0.071   1.200
 4241SOL    HW113622   5.212   0.079   1.299
 4241SOL    HW213623   5.147   0.017   1.162
 4242SOL     OW13624   2.540   6.893   2.456
 4242SOL    HW113625   2.544   6.973   2.516
 4242SOL    HW213626   2.477   6.911   2.380
 4243SOL     OW13627   0.774   3.755   2.195
 4243SOL    HW113628   0.788   3.658   2.213
 4243SOL    HW213629   0.676   3.776   2.198
 4244SOL     OW13630   5.065   6.420   1.073
 4244SOL    HW113631   4.993   6.352   1.087
 4244SOL    HW213632   5.041   6.480   0.997
 4245SOL     OW13633   6.445   2.901   0.534
 4245SOL    HW113634   6.438   2.932   0.439
 4245SOL    HW213635   6.475   2.977   0.592
 4246SOL     OW13636   5.227   2.603   3.094
 4246SOL    HW113637   5.231   2.702   3.078
 4246SOL    HW213638   5.133   2.571   3.083
 4247SOL     OW13639   1.944   4.939   4.934
 4247SOL    HW113640   1.968   4.846   4.964
 4247SOL    HW213641   1.984   5.005   4.998
 4248SOL     OW13642   1.959   0.898   2.661
 4248SOL    HW113643   2.009   0.876   2.577
 4248SOL    HW213644   1.868   0.932   2.637
 4249SOL     OW13645   0.037   0.791   4.423
 4249SOL    HW113646   6.997   0.844   4.369
 4249SOL    HW213647   7.015   0.745   4.498
 4250SOL     OW13648   0.010   6.153   4.040
 4250SOL    HW113649   6.942   6.178   4.067
 4250SOL    HW213650   0.043   6.080   4.100
 4251SOL     OW13651   6.168   2.610   6.528
 4251SOL    HW113652   6.081   2.652   6.501
 4251SOL    HW213653   6.217   2.580   6.446
 4252SOL     OW13654   6.442   5.917   5.509
 4252SOL    HW113655   6.518   5.863   5.472
 4252SOL    HW213656   6.447   5.920   5.608
 4253SOL     OW13657   4.669   6.072   2.668
 4253SOL    HW113658   4.601   6.112   2.730
 4253SOL    HW213659   4.686   6.134   2.592
 4254SOL     OW13660   2.016   3.493   6.735
 4254SOL    HW113661   2.047   3.583   6.703
 4254SOL    HW213662   2.052   3.422   6.674
 4255SOL     OW13663   0.479   3.591   2.871
 4255SOL    HW113664   0.507   3.672   2.820
 4255SOL    HW213665   0.466   3.614   2.967
 4256SOL     OW13666   0.560   5.115   2.486
 4256SOL    HW113667   0.632   5.079   2.428
 4256SOL    HW213668   0.601   5.162   2.564
 4257SOL     OW13669   5.936   1.060   4.954
 4257SOL    HW113670   5.853   1.115   4.950
 4257SOL    HW213671   5.912   0.963   4.967
 4258SOL     OW13672   3.840   6.169   0.456
 4258SOL    HW113673   3.769   6.099   0.450
 4258SOL    HW213674   3.820   6.243   0.392
 4259SOL     OW13675   0.761   6.694   1.557
 4259SOL    HW113676   0.724   6.773   1.507
 4259SOL    HW213677   0.828   6.725   1.623
 4260SOL     OW13678   5.196   0.135   4.934
 4260SOL    HW113679   5.149   0.088   4.859
 4260SOL    HW213680   5.140   0.132   5.016
 4261SOL     OW13681   1.637   0.129   4.117
 4261SOL    HW113682   1.733   0.157   4.125
 4261SOL    HW213683   1.631   0.047   4.060
 4262SOL     OW13684   1.469   4.656   6.556
 4262SOL    HW113685   1.536   4.656   6.631
 4262SOL    HW213686   1.490   4.581   6.494
 4263SOL     OW13687   2.656   2.056   3.494
 4263SOL    HW113688   2.724   1.993   3.455
 4263SOL    HW213689   2.658   2.050   3.593
 4264SOL     OW13690   5.517   1.758   4.124
 4264SOL    HW113691   5.502   1.839   4.068
 4264SOL    HW213692   5.479   1.678   4.078
 4265SOL     OW13693   2.967   0.373   0.901
 4265SOL    HW113694   2.918   0.339   0.982
 4265SOL    HW213695   3.045   0.428   0.931
 4266SOL     OW13696   1.322   6.615   0.399
 4266SOL    HW113697   1.288   6.653   0.485
 4266SOL    HW213698   1.422   6.605   0.405
 4267SOL     OW13699   1.816   3.952   4.437
 4267SOL    HW113700   1.904   3.908   4.457
 4267SOL    HW213701   1.751   3.882   4.407
 4268SOL     OW13702   1.280   4.790   6.710
 4268SOL    HW113703   1.353   4.734   6.672
 4268SOL    HW213704   1.230   4.835   6.636
 4269SOL     OW13705   3.359   1.850   4.398
 4269SOL    HW113706   3.348   1.942   4.436
 4269SOL    HW213707   3.321   1.783   4.462
 4270SOL     OW13708   3.890   2.682   0.397
 4270SOL    HW113709   3.918   2.597   0.352
 4270SOL    HW213710   3.948   2.757   0.367
 4271SOL     OW13711   6.528   0.492   0.891
 4271SOL    HW113712   6.584   0.440   0.956
 4271SOL    HW213713   6.459   0.544   0.942
 4272SOL     OW13714   6.172   3.082   5.810
 4272SOL    HW113715   6.260   3.036   5.821
 4272SOL    HW213716   6.174   3.169   5.860
 4273SOL     OW13717   4.534   5.640   5.077
 4273SOL    HW113718   4.529   5.678   4.984
 4273SOL    HW213719   4.625   5.601   5.091
 4274SOL     OW13720   6.439   0.049   1.655
 4274SOL    HW113721   6.386   0.097   1.725
 4274SOL    HW213722   6.485   6.996   1.696
 4275SOL     OW13723   0.917   2.642   3.631
 4275SOL    HW113724   0.841   2.577   3.643
 4275SOL    HW213725   0.896   2.727   3.680
 4276SOL     OW13726   2.847   6.214   4.068
 4276SOL    HW113727   2.752   6.201   4.039
 4276SOL    HW213728   2.894   6.275   4.004
 4277SOL     OW13729   6.406   5.646   4.245
 4277SOL    HW113730   6.389   5.697   4.161
 4277SOL    HW213731   6.412   5.548   4.225
 4278SOL     OW13732   0.835   6.988   1.973
 4278SOL    HW113733   0.907   7.023   2.033
 4278SOL    HW213734   0.833   6.888   1.977
 4279SOL     OW13735   2.043   2.537   2.989
 4279SOL    HW113736   2.133   2.534   3.031
 4279SOL    HW213737   1.977   2.487   3.045
 4280SOL     OW13738   6.752   6.836   6.077
 4280SOL    HW113739   6.660   6.870   6.096
 4280SOL    HW213740   6.793   6.801   6.161
 4281SOL     OW13741   4.599   5.237   3.821
 4281SOL    HW113742   4.602   5.319   3.878
 4281SOL    HW213743   4.577   5.262   3.727
 4282SOL     OW13744   3.703   4.365   1.031
 4282SOL    HW113745   3.662   4.336   0.945
 4282SOL    HW213746   3.730   4.285   1.084
 4283SOL     OW13747   4.837   1.172   3.509
 4283SOL    HW113748   4.814   1.131   3.597
 4283SOL    HW213749   4.841   1.272   3.519
 4284SOL     OW13750   5.105   6.054   0.126
 4284SOL    HW113751   5.198   6.057   0.090
 4284SOL    HW213752   5.065   5.964   0.107
 4285SOL     OW13753   3.130   0.648   6.089
 4285SOL    HW113754   3.065   0.721   6.106
 4285SOL    HW213755   3.081   0.561   6.083
 4286SOL     OW13756   6.770   1.101   6.543
 4286SOL    HW113757   6.820   1.031   6.593
 4286SOL    HW213758   6.675   1.102   6.574
 4287SOL     OW13759   4.451   0.719   0.125
 4287SOL    HW113760   4.518   0.788   0.098
 4287SOL    HW213761   4.489   0.662   0.197
 4288SOL     OW13762   6.720   6.130   2.026
 4288SOL    HW113763   6.788   6.102   2.094
 4288SOL    HW213764   6.681   6.218   2.052
 4289SOL     OW13765   0.662   3.034   4.788
 4289SOL    HW113766   0.621   2.998   4.871
 4289SOL    HW213767   0.640   2.973   4.711
 4290SOL     OW13768   0.560   0.561   3.217
 4290SOL    HW113769   0.593   0.488   3.158
 4290SOL    HW213770   0.506   0.626   3.162
 4291SOL     OW13771   4.975   3.405   6.015
 4291SOL    HW113772   4.932   3.363   6.095
 4291SOL    HW213773   4.962   3.346   5.935
 4292SOL     OW13774   5.191   2.084   0.805
 4292SOL    HW113775   5.269   2.112   0.750
 4292SOL    HW213776   5.222   2.020   0.876
 4293SOL     OW13777   4.816   3.907   6.659
 4293SOL    HW113778   4.841   3.877   6.568
 4293SOL    HW213779   4.764   3.835   6.706
 4294SOL     OW13780   3.055   2.091   6.392
 4294SOL    HW113781   3.096   2.041   6.316
 4294SOL    HW213782   3.040   2.186   6.366
 4295SOL     OW13783   4.363   6.617   2.803
 4295SOL    HW113784   4.447   6.659   2.836
 4295SOL    HW213785   4.352   6.635   2.705
 4296SOL     OW13786   2.437   6.726   0.716
 4296SOL    HW113787   2.514   6.720   0.780
 4296SOL    HW213788   2.382   6.807   0.738
 4297SOL     OW13789   5.994   5.569   0.678
 4297SOL    HW113790   6.005   5.644   0.613
 4297SOL    HW213791   6.037   5.486   0.641
 4298SOL     OW13792   3.128   6.478   1.464
 4298SOL    HW113793   3.205   6.415   1.455
 4298SOL    HW213794   3.144   6.559   1.407
 4299SOL     OW13795   1.117   2.255   0.291
 4299SOL    HW113796   1.119   2.189   0.216
 4299SOL    HW213797   1.182   2.328   0.273
 4300SOL     OW13798   3.729   0.541   1.244
 4300SOL    HW113799   3.791   0.553   1.321
 4300SOL    HW213800   3.649   0.488   1.273
 4301SOL     OW13801   3.104   0.084   2.430
 4301SOL    HW113802   3.133   0.004   2.484
 4301SOL    HW213803   3.090   0.056   2.335
 4302SOL     OW13804   1.842   5.922   6.229
 4302SOL    HW113805   1.763   5.872   6.194
 4302SOL    HW213806   1.817   5.970   6.313
 4303SOL     OW13807   6.058   4.290   4.383
 4303SOL    HW113808   6.121   4.227   4.428
 4303SOL    HW213809   6.020   4.353   4.450
 4304SOL     OW13810   3.513   3.529   1.678
 4304SOL    HW113811   3.566   3.613   1.663
 4304SOL    HW213812   3.459   3.538   1.762
 4305SOL     OW13813   0.500   0.094   5.535
 4305SOL    HW113814   0.572   0.099   5.604
 4305SOL    HW213815   0.442   0.175   5.542
 4306SOL     OW13816   4.866   3.706   4.385
 4306SOL    HW113817   4.885   3.791   4.435
 4306SOL    HW213818   4.840   3.728   4.291
 4307SOL     OW13819   5.974   1.887   5.379
 4307SOL    HW113820   6.059   1.880   5.432
 4307SOL    HW213821   5.947   1.796   5.349
 4308SOL     OW13822   5.060   4.614   1.400
 4308SOL    HW113823   4.983   4.675   1.380
 4308SOL    HW213824   5.077   4.555   1.322
 4309SOL     OW13825   1.333   3.527   0.530
 4309SOL    HW113826   1.345   3.450   0.466
 4309SOL    HW213827   1.236   3.547   0.541
 4310SOL     OW13828   0.049   1.810   2.006
 4310SOL    HW113829   0.146   1.824   1.987
 4310SOL    HW213830   0.038   1.726   2.059
 4311SOL     OW13831   1.027   6.419   2.333
 4311SOL    HW113832   1.037   6.379   2.424
 4311SOL    HW213833   0.980   6.353   2.273
 4312SOL     OW13834   0.500   5.009   2.101
 4312SOL    HW113835   0.485   5.050   2.011
 4312SOL    HW213836   0.412   4.997   2.146
 4313SOL     OW13837   6.196   1.623   6.557
 4313SOL    HW113838   6.143   1.538   6.560
 4313SOL    HW213839   6.292   1.604   6.581
 4314SOL     OW13840   6.715   2.674   4.839
 4314SOL    HW113841   6.766   2.604   4.890
 4314SOL    HW213842   6.780   2.734   4.793
 4315SOL     OW13843   2.709   1.409   4.286
 4315SOL    HW113844   2.729   1.323   4.333
 4315SOL    HW213845   2.627   1.398   4.230
 4316SOL     OW13846   5.691   6.916   2.409
 4316SOL    HW113847   5.688   7.014   2.389
 4316SOL    HW213848   5.601   6.876   2.392
 4317SOL     OW13849   5.116   0.979   5.904
 4317SOL    HW113850   5.135   1.070   5.939
 4317SOL    HW213851   5.024   0.976   5.865
 4318SOL     OW13852   1.177   1.661   4.052
 4318SOL    HW113853   1.092   1.608   4.045
 4318SOL    HW213854   1.214   1.650   4.144
 4319SOL     OW13855   1.109   4.237   2.234
 4319SOL    HW113856   1.104   4.333   2.260
 4319SOL    HW213857   1.049   4.221   2.155
 4320SOL     OW13858   3.723   6.355   0.251
 4320SOL    HW113859   3.738   6.421   0.324
 4320SOL    HW213860   3.810   6.338   0.203
 4321SOL     OW13861   6.369   6.658   2.529
 4321SOL    HW113862   6.419   6.693   2.608
 4321SOL    HW213863   6.357   6.731   2.462
 4322SOL     OW13864   0.795   3.065   5.283
 4322SOL    HW113865   0.876   3.057   5.225
 4322SOL    HW213866   0.731   2.992   5.263
 4323SOL     OW13867   4.068   5.233   0.350
 4323SOL    HW113868   4.144   5.220   0.413
 4323SOL    HW213869   4.097   5.209   0.258
 4324SOL     OW13870   0.309   3.611   5.855
 4324SOL    HW113871   0.247   3.689   5.864
 4324SOL    HW213872   0.402   3.641   5.874
 4325SOL     OW13873   3.044   0.956   2.557
 4325SOL    HW113874   3.018   0.917   2.469
 4325SOL    HW213875   3.140   0.983   2.555
 4326SOL     OW13876   5.116   2.580   2.532
 4326SOL    HW113877   5.088   2.489   2.502
 4326SOL    HW213878   5.214   2.581   2.551
 4327SOL     OW13879   3.664   5.558   4.338
 4327SOL    HW113880   3.720   5.494   4.287
 4327SOL    HW213881   3.572   5.520   4.349
 4328SOL     OW13882   5.757   5.138   5.279
 4328SOL    HW113883   5.828   5.067   5.279
 4328SOL    HW213884   5.792   5.220   5.325
 4329SOL     OW13885   5.973   2.887   6.180
 4329SOL    HW113886   5.878   2.882   6.211
 4329SOL    HW213887   5.976   2.929   6.090
 4330SOL     OW13888   2.742   5.068   5.290
 4330SOL    HW113889   2.699   5.019   5.214
 4330SOL    HW213890   2.697   5.043   5.375
 4331SOL     OW13891   6.464   0.563   1.538
 4331SOL    HW113892   6.458   0.516   1.450
 4331SOL    HW213893   6.465   0.496   1.612
 4332SOL     OW13894   6.869   4.848   2.724
 4332SOL    HW113895   6.916   4.767   2.758
 4332SOL    HW213896   6.884   4.857   2.625
 4333SOL     OW13897   4.345   2.044   5.059
 4333SOL    HW113898   4.327   2.087   4.970
 4333SOL    HW213899   4.372   1.949   5.045
 4334SOL     OW13900   1.416   3.080   3.562
 4334SOL    HW113901   1.479   3.121   3.496
 4334SOL    HW213902   1.389   3.148   3.630
 4335SOL     OW13903   3.357   3.500   1.447
 4335SOL    HW113904   3.429   3.530   1.511
 4335SOL    HW213905   3.300   3.578   1.422
 4336SOL     OW13906   2.234   5.822   5.932
 4336SOL    HW113907   2.255   5.799   6.028
 4336SOL    HW213908   2.304   5.883   5.897
 4337SOL     OW13909   1.257   5.571   2.446
 4337SOL    HW113910   1.178   5.527   2.404
 4337SOL    HW213911   1.286   5.648   2.388
 4338SOL     OW13912   4.888   0.657   5.940
 4338SOL    HW113913   4.840   0.662   6.028
 4338SOL    HW213914   4.869   0.739   5.887
 4339SOL     OW13915   4.510   2.658   5.558
 4339SOL    HW113916   4.536   2.754   5.552
 4339SOL    HW213917   4.496   2.622   5.466
 4340SOL     OW13918   6.672   3.918   1.002
 4340SOL    HW113919   6.642   4.001   1.049
 4340SOL    HW213920   6.742   3.872   1.057
 4341SOL     OW13921   1.272   6.075   2.570
 4341SOL    HW113922   1.264   5.997   2.508
 4341SOL    HW213923   1.209   6.063   2.647
 4342SOL     OW13924   5.014   3.997   2.709
 4342SOL    HW113925   4.945   4.011   2.780
 4342SOL    HW213926   4.974   3.946   2.634
 4343SOL     OW13927   3.837   0.255   6.175
 4343SOL    HW113928   3.866   0.334   6.121
 4343SOL    HW213929   3.831   0.175   6.116
 4344SOL     OW13930   6.973   2.375   3.965
 4344SOL    HW113931   6.919   2.404   3.887
 4344SOL    HW213932   0.040   2.413   3.957
 4345SOL     OW13933   2.926   3.710   2.300
 4345SOL    HW113934   2.854   3.648   2.332
 4345SOL    HW213935   2.995   3.720   2.372
 4346SOL     OW13936   1.779   3.133   1.849
 4346SOL    HW113937   1.795   3.227   1.819
 4346SOL    HW213938   1.691   3.127   1.894
 4347SOL     OW13939   5.661   4.917   1.902
 4347SOL    HW113940   5.627   4.839   1.849
 4347SOL    HW213941   5.596   4.939   1.974
 4348SOL     OW13942   6.512   6.105   4.317
 4348SOL    HW113943   6.439   6.126   4.253
 4348SOL    HW213944   6.496   6.153   4.403
 4349SOL     OW13945   0.248   3.916   3.729
 4349SOL    HW113946   0.324   3.918   3.794
 4349SOL    HW213947   0.169   3.871   3.772
 4350SOL     OW13948   4.859   1.223   4.957
 4350SOL    HW113949   4.839   1.138   4.907
 4350SOL    HW213950   4.923   1.204   5.031
 4351SOL     OW13951   1.173   6.947   0.994
 4351SOL    HW113952   1.186   6.854   0.960
 4351SOL    HW213953   1.145   7.006   0.918
 4352SOL     OW13954   4.056   3.953   0.802
 4352SOL    HW113955   4.028   3.863   0.835
 4352SOL    HW213956   4.029   3.964   0.706
 4353SOL     OW13957   2.952   3.145   0.179
 4353SOL    HW113958   2.952   3.045   0.175
 4353SOL    HW213959   2.864   3.176   0.217
 4354SOL     OW13960   6.284   0.162   4.484
 4354SOL    HW113961   6.209   0.104   4.516
 4354SOL    HW213962   6.320   0.126   4.398
 4355SOL     OW13963   1.644   6.671   3.677
 4355SOL    HW113964   1.700   6.602   3.723
 4355SOL    HW213965   1.686   6.761   3.687
 4356SOL     OW13966   5.259   2.246   6.617
 4356SOL    HW113967   5.353   2.256   6.585
 4356SOL    HW213968   5.199   2.305   6.564
 4357SOL     OW13969   6.461   0.398   1.746
 4357SOL    HW113970   6.532   0.360   1.805
 4357SOL    HW213971   6.372   0.387   1.790
 4358SOL     OW13972   0.914   0.825   6.966
 4358SOL    HW113973   0.834   0.808   6.910
 4358SOL    HW213974   0.944   0.920   6.953
 4359SOL     OW13975   2.133   0.863   6.707
 4359SOL    HW113976   2.131   0.770   6.669
 4359SOL    HW213977   2.064   0.870   6.779
 4360SOL     OW13978   1.637   3.143   3.790
 4360SOL    HW113979   1.593   3.075   3.849
 4360SOL    HW213980   1.612   3.127   3.695
 4361SOL     OW13981   1.090   2.013   0.805
 4361SOL    HW113982   1.053   1.973   0.721
 4361SOL    HW213983   1.023   2.073   0.846
 4362SOL     OW13984   1.363   5.713   3.933
 4362SOL    HW113985   1.275   5.718   3.980
 4362SOL    HW213986   1.387   5.803   3.896
 4363SOL     OW13987   4.547   0.337   2.459
 4363SOL    HW113988   4.503   0.292   2.381
 4363SOL    HW213989   4.605   0.271   2.507
 4364SOL     OW13990   3.424   3.662   2.865
 4364SOL    HW113991   3.451   3.756   2.842
 4364SOL    HW213992   3.422   3.606   2.782
 4365SOL     OW13993   3.120   2.298   1.701
 4365SOL    HW113994   3.090   2.204   1.684
 4365SOL    HW213995   3.063   2.339   1.772
 4366SOL     OW13996   4.978   6.186   5.234
 4366SOL    HW113997   4.924   6.174   5.317
 4366SOL    HW213998   5.020   6.099   5.210
 4367SOL     OW13999   3.152   5.721   4.020
 4367SOL    HW114000   3.151   5.624   3.998
 4367SOL    HW214001   3.209   5.737   4.100
 4368SOL     OW14002   5.056   4.333   2.195
 4368SOL    HW114003   5.074   4.361   2.101
 4368SOL    HW214004   5.027   4.238   2.197
 4369SOL     OW14005   4.348   5.020   2.985
 4369SOL    HW114006   4.287   5.086   3.029
 4369SOL    HW214007   4.385   5.060   2.901
 4370SOL     OW14008   3.727   4.880   1.709
 4370SOL    HW114009   3.694   4.821   1.783
 4370SOL    HW214010   3.684   4.852   1.623
 4371SOL     OW14011   2.594   0.520   1.252
 4371SOL    HW114012   2.525   0.576   1.206
 4371SOL    HW214013   2.569   0.508   1.348
 4372SOL     OW14014   1.950   2.966   4.677
 4372SOL    HW114015   1.947   2.867   4.666
 4372SOL    HW214016   2.045   2.996   4.683
 4373SOL     OW14017   4.489   1.078   6.115
 4373SOL    HW114018   4.430   1.056   6.037
 4373SOL    HW214019   4.477   1.008   6.186
 4374SOL     OW14020   2.512   1.374   1.170
 4374SOL    HW114021   2.602   1.418   1.176
 4374SOL    HW214022   2.485   1.365   1.074
 4375SOL     OW14023   3.578   0.891   3.788
 4375SOL    HW114024   3.572   0.891   3.689
 4375SOL    HW214025   3.503   0.944   3.827
 4376SOL     OW14026   6.501   6.723   1.092
 4376SOL    HW114027   6.495   6.820   1.070
 4376SOL    HW214028   6.471   6.708   1.187
 4377SOL     OW14029   6.119   6.455   6.609
 4377SOL    HW114030   6.150   6.459   6.515
 4377SOL    HW214031   6.059   6.375   6.621
 4378SOL     OW14032   1.921   6.051   2.360
 4378SOL    HW114033   1.883   6.121   2.421
 4378SOL    HW214034   1.849   5.984   2.338
 4379SOL     OW14035   1.164   1.312   1.453
 4379SOL    HW114036   1.226   1.343   1.381
 4379SOL    HW214037   1.071   1.309   1.417
 4380SOL     OW14038   1.709   5.974   5.380
 4380SOL    HW114039   1.664   6.006   5.463
 4380SOL    HW214040   1.808   5.967   5.396
 4381SOL     OW14041   3.676   0.353   4.932
 4381SOL    HW114042   3.665   0.452   4.922
 4381SOL    HW214043   3.630   0.306   4.857
 4382SOL     OW14044   5.276   4.022   4.617
 4382SOL    HW114045   5.232   3.932   4.615
 4382SOL    HW214046   5.248   4.074   4.536
 4383SOL     OW14047   0.956   2.692   5.880
 4383SOL    HW114048   1.033   2.647   5.835
 4383SOL    HW214049   0.966   2.685   5.980
 4384SOL     OW14050   3.911   6.651   1.137
 4384SOL    HW114051   3.991   6.685   1.088
 4384SOL    HW214052   3.870   6.576   1.085
 4385SOL     OW14053   0.297   1.360   3.208
 4385SOL    HW114054   0.314   1.439   3.150
 4385SOL    HW214055   0.203   1.362   3.242
 4386SOL     OW14056   0.885   3.747   6.671
 4386SOL    HW114057   0.884   3.760   6.572
 4386SOL    HW214058   0.858   3.832   6.716
 4387SOL     OW14059   6.644   3.353   1.114
 4387SOL    HW114060   6.654   3.382   1.209
 4387SOL    HW214061   6.693   3.416   1.054
 4388SOL     OW14062   3.355   0.612   5.916
 4388SOL    HW114063   3.280   0.637   5.978
 4388SOL    HW214064   3.331   0.639   5.823
 4389SOL     OW14065   5.773   2.898   1.770
 4389SOL    HW114066   5.841   2.902   1.697
 4389SOL    HW214067   5.818   2.911   1.858
 4390SOL     OW14068   4.816   2.386   1.920
 4390SOL    HW114069   4.748   2.318   1.891
 4390SOL    HW214070   4.880   2.403   1.846
 4391SOL     OW14071   0.912   5.591   0.224
 4391SOL    HW114072   0.958   5.676   0.197
 4391SOL    HW214073   0.816   5.610   0.242
 4392SOL     OW14074   4.825   2.993   4.451
 4392SOL    HW114075   4.870   3.070   4.496
 4392SOL    HW214076   4.796   2.927   4.520
 4393SOL     OW14077   5.058   0.179   3.515
 4393SOL    HW114078   5.112   0.259   3.489
 4393SOL    HW214079   4.974   0.208   3.560
 4394SOL     OW14080   5.575   6.540   2.516
 4394SOL    HW114081   5.560   6.602   2.593
 4394SOL    HW214082   5.664   6.559   2.474
 4395SOL     OW14083   4.436   1.535   1.699
 4395SOL    HW114084   4.520   1.498   1.739
 4395SOL    HW214085   4.458   1.588   1.617
 4396SOL     OW14086   0.968   1.027   4.257
 4396SOL    HW114087   0.956   0.997   4.352
 4396SOL    HW214088   0.910   0.971   4.197
 4397SOL     OW14089   6.951   0.707   5.320
 4397SOL    HW114090   6.977   0.781   5.383
 4397SOL    HW214091   6.881   0.740   5.257
 4398SOL     OW14092   0.820   4.510   3.970
 4398SOL    HW114093   0.875   4.518   4.053
 4398SOL    HW214094   0.840   4.587   3.909
 4399SOL     OW14095   1.794   1.189   0.527
 4399SOL    HW114096   1.758   1.165   0.437
 4399SOL    HW214097   1.754   1.128   0.596
 4400SOL     OW14098   2.496   6.806   4.352
 4400SOL    HW114099   2.584   6.760   4.338
 4400SOL    HW214100   2.438   6.792   4.272
 4401SOL     OW14101   5.680   5.823   4.198
 4401SOL    HW114102   5.663   5.858   4.290
 4401SOL    HW214103   5.595   5.824   4.145
 4402SOL     OW14104   1.310   5.668   2.925
 4402SOL    HW114105   1.398   5.639   2.963
 4402SOL    HW214106   1.286   5.758   2.961
 4403SOL     OW14107   0.229   0.111   2.995
 4403SOL    HW114108   0.202   0.157   3.080
 4403SOL    HW214109   0.321   0.139   2.969
 4404SOL     OW14110   0.478   4.057   3.238
 4404SOL    HW114111   0.544   4.121   3.197
 4404SOL    HW214112   0.523   4.004   3.309
 4405SOL     OW14113   3.010   4.817   5.977
 4405SOL    HW114114   3.082   4.748   5.972
 4405SOL    HW214115   2.935   4.792   5.916
 4406SOL     OW14116   5.879   4.398   1.342
 4406SOL    HW114117   5.779   4.399   1.343
 4406SOL    HW214118   5.913   4.482   1.299
 4407SOL     OW14119   6.642   6.196   0.310
 4407SOL    HW114120   6.579   6.252   0.257
 4407SOL    HW214121   6.608   6.102   0.314
 4408SOL     OW14122   5.177   0.434   0.594
 4408SOL    HW114123   5.156   0.508   0.657
 4408SOL    HW214124   5.103   0.426   0.527
 4409SOL     OW14125   3.373   0.565   1.690
 4409SOL    HW114126   3.360   0.608   1.601
 4409SOL    HW214127   3.438   0.618   1.744
 4410SOL     OW14128   2.195   5.505   0.947
 4410SOL    HW114129   2.185   5.436   0.875
 4410SOL    HW214130   2.293   5.525   0.960
 4411SOL     OW14131   3.822   3.106   2.764
 4411SOL    HW114132   3.887   3.057   2.705
 4411SOL    HW214133   3.756   3.041   2.802
 4412SOL     OW14134   4.095   1.124   6.409
 4412SOL    HW114135   4.134   1.216   6.402
 4412SOL    HW214136   4.076   1.089   6.317
 4413SOL     OW14137   3.828   5.362   4.237
 4413SOL    HW114138   3.914   5.352   4.188
 4413SOL    HW214139   3.808   5.278   4.288
 4414SOL     OW14140   4.063   4.905   2.002
 4414SOL    HW114141   4.112   4.819   2.019
 4414SOL    HW214142   3.965   4.890   2.013
 4415SOL     OW14143   5.236   3.809   6.285
 4415SOL    HW114144   5.171   3.824   6.211
 4415SOL    HW214145   5.326   3.790   6.247
 4416SOL     OW14146   3.102   0.930   4.664
 4416SOL    HW114147   3.119   0.952   4.567
 4416SOL    HW214148   3.160   0.854   4.692
 4417SOL     OW14149   0.435   5.139   1.826
 4417SOL    HW114150   0.401   5.227   1.859
 4417SOL    HW214151   0.490   5.152   1.744
 4418SOL     OW14152   4.501   5.986   4.659
 4418SOL    HW114153   4.407   6.017   4.646
 4418SOL    HW214154   4.536   5.947   4.574
 4419SOL     OW14155   6.337   5.019   0.275
 4419SOL    HW114156   6.374   4.970   0.354
 4419SOL    HW214157   6.245   4.985   0.255
 4420SOL     OW14158   5.277   1.198   0.152
 4420SOL    HW114159   5.291   1.287   0.108
 4420SOL    HW214160   5.289   1.125   0.085
 4421SOL     OW14161   1.910   1.615   2.870
 4421SOL    HW114162   1.916   1.516   2.854
 4421SOL    HW214163   1.977   1.662   2.813
 4422SOL     OW14164   2.367   3.891   6.253
 4422SOL    HW114165   2.455   3.890   6.299
 4422SOL    HW214166   2.356   3.977   6.203
 4423SOL     OW14167   1.102   2.492   6.394
 4423SOL    HW114168   1.143   2.556   6.459
 4423SOL    HW214169   1.003   2.490   6.409
 4424SOL     OW14170   6.092   6.283   3.242
 4424SOL    HW114171   6.045   6.360   3.286
 4424SOL    HW214172   6.180   6.313   3.206
 4425SOL     OW14173   3.634   5.372   6.410
 4425SOL    HW114174   3.674   5.286   6.441
 4425SOL    HW214175   3.668   5.394   6.318
 4426SOL     OW14176   6.979   0.398   5.675
 4426SOL    HW114177   6.953   0.386   5.771
 4426SOL    HW214178   7.012   0.310   5.639
 4427SOL     OW14179   0.831   0.596   3.234
 4427SOL    HW114180   0.856   0.669   3.171
 4427SOL    HW214181   0.738   0.610   3.267
 4428SOL     OW14182   1.660   5.146   4.518
 4428SOL    HW114183   1.591   5.074   4.529
 4428SOL    HW214184   1.748   5.113   4.550
 4429SOL     OW14185   3.207   6.824   3.721
 4429SOL    HW114186   3.252   6.877   3.649
 4429SOL    HW214187   3.116   6.862   3.739
 4430SOL     OW14188   3.152   1.617   2.863
 4430SOL    HW114189   3.119   1.649   2.774
 4430SOL    HW214190   3.188   1.695   2.915
 4431SOL     OW14191   2.957   1.725   3.588
 4431SOL    HW114192   2.866   1.700   3.620
 4431SOL    HW214193   2.950   1.776   3.503
 4432SOL     OW14194   3.408   3.522   2.651
 4432SOL    HW114195   3.383   3.551   2.559
 4432SOL    HW214196   3.361   3.436   2.672
 4433SOL     OW14197   6.454   6.305   2.924
 4433SOL    HW114198   6.431   6.368   2.849
 4433SOL    HW214199   6.495   6.222   2.886
 4434SOL     OW14200   5.673   1.479   3.453
 4434SOL    HW114201   5.607   1.531   3.399
 4434SOL    HW214202   5.624   1.406   3.502
 4435SOL     OW14203   3.427   2.951   1.587
 4435SOL    HW114204   3.405   2.868   1.638
 4435SOL    HW214205   3.458   3.022   1.650
 4436SOL     OW14206   3.704   1.648   0.198
 4436SOL    HW114207   3.735   1.686   0.111
 4436SOL    HW214208   3.680   1.723   0.260
 4437SOL     OW14209   4.226   0.437   5.016
 4437SOL    HW114210   4.170   0.461   4.937
 4437SOL    HW214211   4.183   0.473   5.099
 4438SOL     OW14212   4.032   2.477   6.774
 4438SOL    HW114213   3.997   2.551   6.716
 4438SOL    HW214214   4.047   2.396   6.719
 4439SOL     OW14215   1.081   5.367   2.229
 4439SOL    HW114216   1.092   5.326   2.320
 4439SOL    HW214217   1.147   5.325   2.166
 4440SOL     OW14218   1.396   6.106   6.794
 4440SOL    HW114219   1.402   6.205   6.801
 4440SOL    HW214220   1.476   6.063   6.836
 4441SOL     OW14221   5.874   2.458   2.529
 4441SOL    HW114222   5.923   2.466   2.616
 4441SOL    HW214223   5.879   2.364   2.497
 4442SOL     OW14224   4.159   6.157   3.871
 4442SOL    HW114225   4.137   6.254   3.880
 4442SOL    HW214226   4.122   6.107   3.949
 4443SOL     OW14227   2.253   2.484   5.801
 4443SOL    HW114228   2.305   2.419   5.856
 4443SOL    HW214229   2.233   2.444   5.712
 4444SOL     OW14230   4.571   6.483   0.946
 4444SOL    HW114231   4.486   6.521   0.908
 4444SOL    HW214232   4.628   6.556   0.980
 4445SOL     OW14233   1.370   0.858   6.205
 4445SOL    HW114234   1.438   0.912   6.155
 4445SOL    HW214235   1.323   0.915   6.271
 4446SOL     OW14236   5.862   0.466   2.939
 4446SOL    HW114237   5.935   0.424   2.886
 4446SOL    HW214238   5.891   0.557   2.968
 4447SOL     OW14239   5.713   2.803   5.973
 4447SOL    HW114240   5.789   2.865   5.954
 4447SOL    HW214241   5.661   2.837   6.051
 4448SOL     OW14242   2.242   3.821   0.227
 4448SOL    HW114243   2.190   3.761   0.166
 4448SOL    HW214244   2.300   3.882   0.172
 4449SOL     OW14245   2.461   0.326   5.358
 4449SOL    HW114246   2.372   0.349   5.321
 4449SOL    HW214247   2.529   0.392   5.325
 4450SOL     OW14248   3.137   3.064   3.275
 4450SOL    HW114249   3.111   3.024   3.363
 4450SOL    HW214250   3.088   3.150   3.262
 4451SOL     OW14251   6.330   4.538   2.094
 4451SOL    HW114252   6.365   4.444   2.090
 4451SOL    HW214253   6.368   4.584   2.174
 4452SOL     OW14254   6.128   5.985   5.963
 4452SOL    HW114255   6.134   6.039   6.047
 4452SOL    HW214256   6.220   5.968   5.928
 4453SOL     OW14257   5.258   2.522   1.933
 4453SOL    HW114258   5.275   2.513   2.031
 4453SOL    HW214259   5.343   2.509   1.882
 4454SOL     OW14260   5.172   2.921   0.843
 4454SOL    HW114261   5.105   2.976   0.893
 4454SOL    HW214262   5.256   2.975   0.830
 4455SOL     OW14263   3.585   0.325   2.626
 4455SOL    HW114264   3.564   0.387   2.702
 4455SOL    HW214265   3.502   0.275   2.601
 4456SOL     OW14266   1.583   5.232   2.651
 4456SOL    HW114267   1.514   5.299   2.680
 4456SOL    HW214268   1.674   5.264   2.678
 4457SOL     OW14269   4.826   2.198   6.172
 4457SOL    HW114270   4.762   2.147   6.115
 4457SOL    HW214271   4.793   2.200   6.267
 4458SOL     OW14272   2.560   2.221   6.215
 4458SOL    HW114273   2.612   2.255   6.294
 4458SOL    HW214274   2.596   2.262   6.132
 4459SOL     OW14275   4.860   6.663   5.051
 4459SOL    HW114276   4.838   6.572   5.085
 4459SOL    HW214277   4.945   6.695   5.093
 4460SOL     OW14278   2.654   3.497   6.633
 4460SOL    HW114279   2.561   3.473   6.607
 4460SOL    HW214280   2.694   3.422   6.687
 4461SOL     OW14281   1.248   6.863   2.540
 4461SOL    HW114282   1.286   6.806   2.467
 4461SOL    HW214283   1.263   6.959   2.517
 4462SOL     OW14284   6.289   5.348   0.703
 4462SOL    HW114285   6.366   5.288   0.682
 4462SOL    HW214286   6.204   5.295   0.706
 4463SOL     OW14287   1.888   3.522   6.447
 4463SOL    HW114288   1.966   3.506   6.507
 4463SOL    HW214289   1.919   3.528   6.352
 4464SOL     OW14290   5.407   3.806   5.735
 4464SOL    HW114291   5.438   3.867   5.662
 4464SOL    HW214292   5.317   3.769   5.710
 4465SOL     OW14293   1.666   6.457   2.000
 4465SOL    HW114294   1.614   6.372   1.995
 4465SOL    HW214295   1.749   6.441   2.053
 4466SOL     OW14296   1.012   1.916   2.290
 4466SOL    HW114297   1.032   1.901   2.387
 4466SOL    HW214298   1.017   1.830   2.240
 4467SOL     OW14299   1.484   0.084   2.764
 4467SOL    HW114300   1.385   0.091   2.749
 4467SOL    HW214301   1.504   0.097   2.861
 4468SOL     OW14302   1.139   2.838   0.077
 4468SOL    HW114303   1.061   2.810   0.134
 4468SOL    HW214304   1.145   2.776   7.024
 4469SOL     OW14305   3.248   0.277   1.419
 4469SOL    HW114306   3.202   0.354   1.464
 4469SOL    HW214307   3.204   0.260   1.331
 4470SOL     OW14308   4.924   3.930   1.530
 4470SOL    HW114309   4.860   4.006   1.537
 4470SOL    HW214310   5.002   3.945   1.591
 4471SOL     OW14311   0.290   2.518   1.603
 4471SOL    HW114312   0.242   2.505   1.690
 4471SOL    HW214313   0.226   2.550   1.533
 4472SOL     OW14314   1.785   3.927   2.173
 4472SOL    HW114315   1.877   3.929   2.134
 4472SOL    HW214316   1.789   3.956   2.269
 4473SOL     OW14317   0.235   6.992   4.311
 4473SOL    HW114318   0.249   0.065   4.320
 4473SOL    HW214319   0.302   6.943   4.367
 4474SOL     OW14320   4.098   6.980   2.746
 4474SOL    HW114321   4.099   6.891   2.792
 4474SOL    HW214322   4.161   6.978   2.669
 4475SOL     OW14323   1.923   4.214   1.258
 4475SOL    HW114324   1.841   4.205   1.201
 4475SOL    HW214325   1.965   4.303   1.242
 4476SOL     OW14326   4.787   6.521   2.156
 4476SOL    HW114327   4.694   6.512   2.122
 4476SOL    HW214328   4.833   6.597   2.108
 4477SOL     OW14329   2.001   1.392   6.970
 4477SOL    HW114330   1.949   1.323   6.920
 4477SOL    HW214331   2.019   1.470   6.911
 4478SOL     OW14332   2.186   6.885   2.496
 4478SOL    HW114333   2.194   6.797   2.448
 4478SOL    HW214334   2.142   6.952   2.436
 4479SOL     OW14335   0.965   0.375   5.739
 4479SOL    HW114336   0.995   0.317   5.816
 4479SOL    HW214337   0.928   0.317   5.666
 4480SOL     OW14338   1.080   4.756   4.663
 4480SOL    HW114339   1.006   4.821   4.680
 4480SOL    HW214340   1.165   4.791   4.701
 4481SOL     OW14341   1.206   6.041   3.933
 4481SOL    HW114342   1.242   6.083   4.017
 4481SOL    HW214343   1.124   6.090   3.903
 4482SOL     OW14344   0.326   4.619   3.659
 4482SOL    HW114345   0.378   4.629   3.574
 4482SOL    HW214346   0.318   4.523   3.683
 4483SOL     OW14347   6.181   2.900   1.491
 4483SOL    HW114348   6.254   2.871   1.552
 4483SOL    HW214349   6.217   2.909   1.398
 4484SOL     OW14350   3.906   2.615   5.368
 4484SOL    HW114351   3.836   2.544   5.368
 4484SOL    HW214352   3.982   2.588   5.310
 4485SOL     OW14353   4.920   1.831   6.932
 4485SOL    HW114354   4.864   1.778   6.995
 4485SOL    HW214355   5.016   1.804   6.942
 4486SOL     OW14356   6.693   3.953   5.443
 4486SOL    HW114357   6.616   4.015   5.458
 4486SOL    HW214358   6.769   3.978   5.504
 4487SOL     OW14359   2.766   3.629   6.135
 4487SOL    HW114360   2.701   3.555   6.115
 4487SOL    HW214361   2.724   3.717   6.114
 4488SOL     OW14362   6.199   1.900   5.609
 4488SOL    HW114363   6.287   1.902   5.561
 4488SOL    HW214364   6.199   1.823   5.673
 4489SOL     OW14365   6.016   5.323   4.686
 4489SOL    HW114366   6.000   5.408   4.737
 4489SOL    HW214367   6.061   5.344   4.599
 4490SOL     OW14368   6.015   1.652   2.066
 4490SOL    HW114369   6.071   1.570   2.080
 4490SOL    HW214370   6.057   1.730   2.112
 4491SOL     OW14371   1.535   4.134   3.108
 4491SOL    HW114372   1.471   4.210   3.102
 4491SOL    HW214373   1.512   4.078   3.187
 4492SOL     OW14374   4.652   2.308   0.283
 4492SOL    HW114375   4.698   2.375   0.342
 4492SOL    HW214376   4.664   2.334   0.187
 4493SOL     OW14377   4.656   5.075   5.173
 4493SOL    HW114378   4.655   4.996   5.110
 4493SOL    HW214379   4.646   5.159   5.120
 4494SOL     OW14380   0.022   4.057   5.259
 4494SOL    HW114381   0.103   4.017   5.217
 4494SOL    HW214382   6.967   4.004   5.234
 4495SOL     OW14383   5.223   6.515   2.069
 4495SOL    HW114384   5.184   6.587   2.012
 4495SOL    HW214385   5.173   6.430   2.054
 4496SOL     OW14386   5.572   3.944   6.099
 4496SOL    HW114387   5.626   4.021   6.133
 4496SOL    HW214388   5.480   3.975   6.076
 4497SOL     OW14389   5.327   5.492   6.873
 4497SOL    HW114390   5.272   5.575   6.875
 4497SOL    HW214391   5.424   5.515   6.863
 4498SOL     OW14392   0.458   3.878   6.636
 4498SOL    HW114393   0.530   3.809   6.647
 4498SOL    HW214394   0.372   3.832   6.616
 4499SOL     OW14395   6.982   3.404   4.747
 4499SOL    HW114396   0.031   3.447   4.799
 4499SOL    HW214397   7.010   3.312   4.720
 4500SOL     OW14398   2.980   3.488   4.476
 4500SOL    HW114399   2.955   3.463   4.570
 4500SOL    HW214400   2.960   3.412   4.415
 4501SOL     OW14401   0.568   4.220   5.309
 4501SOL    HW114402   0.588   4.214   5.407
 4501SOL    HW214403   0.645   4.184   5.257
 4502SOL     OW14404   1.694   2.684   6.793
 4502SOL    HW114405   1.600   2.697   6.822
 4502SOL    HW214406   1.736   2.611   6.846
 4503SOL     OW14407   2.111   1.453   3.474
 4503SOL    HW114408   2.059   1.400   3.407
 4503SOL    HW214409   2.176   1.512   3.426
 4504SOL     OW14410   5.997   2.705   5.782
 4504SOL    HW114411   6.077   2.765   5.784
 4504SOL    HW214412   6.019   2.617   5.823
 4505SOL     OW14413   1.263   6.309   5.389
 4505SOL    HW114414   1.218   6.349   5.309
 4505SOL    HW214415   1.249   6.210   5.390
 4506SOL     OW14416   4.394   1.177   5.247
 4506SOL    HW114417   4.362   1.103   5.306
 4506SOL    HW214418   4.490   1.197   5.268
 4507SOL     OW14419   4.780   5.056   0.996
 4507SOL    HW114420   4.868   5.025   1.032
 4507SOL    HW214421   4.786   5.065   0.897
 4508SOL     OW14422   1.555   3.877   6.962
 4508SOL    HW114423   1.536   3.839   0.027
 4508SOL    HW214424   1.519   3.970   6.956
 4509SOL     OW14425   4.117   2.136   4.592
 4509SOL    HW114426   4.132   2.039   4.570
 4509SOL    HW214427   4.020   2.150   4.614
 4510SOL     OW14428   5.574   0.402   5.058
 4510SOL    HW114429   5.653   0.447   5.016
 4510SOL    HW214430   5.602   0.358   5.143
 4511SOL     OW14431   6.769   3.058   0.325
 4511SOL    HW114432   6.692   3.079   0.385
 4511SOL    HW214433   6.736   3.051   0.231
 4512SOL     OW14434   2.068   6.452   6.865
 4512SOL    HW114435   1.974   6.483   6.882
 4512SOL    HW214436   2.132   6.523   6.895
 4513SOL     OW14437   4.724   6.646   1.775
 4513SOL    HW114438   4.824   6.650   1.769
 4513SOL    HW214439   4.688   6.738   1.790
 4514SOL     OW14440   3.647   1.164   5.181
 4514SOL    HW114441   3.613   1.109   5.105
 4514SOL    HW214442   3.633   1.261   5.161
 4515SOL     OW14443   6.860   4.710   0.341
 4515SOL    HW114444   6.890   4.713   0.437
 4515SOL    HW214445   6.852   4.803   0.306
 4516SOL     OW14446   1.152   1.555   5.025
 4516SOL    HW114447   1.133   1.486   4.956
 4516SOL    HW214448   1.198   1.513   5.103
 4517SOL     OW14449   3.581   6.914   6.584
 4517SOL    HW114450   3.527   6.980   6.637
 4517SOL    HW214451   3.544   6.909   6.491
 4518SOL     OW14452   1.043   1.951   4.053
 4518SOL    HW114453   1.114   1.900   4.004
 4518SOL    HW214454   1.086   2.014   4.118
 4519SOL     OW14455   0.166   2.449   3.757
 4519SOL    HW114456   0.241   2.493   3.707
 4519SOL    HW214457   0.193   2.436   3.853
 4520SOL     OW14458   6.505   4.624   2.337
 4520SOL    HW114459   6.460   4.615   2.426
 4520SOL    HW214460   6.570   4.548   2.325
 4521SOL     OW14461   5.018   2.423   6.220
 4521SOL    HW114462   5.105   2.406   6.172
 4521SOL    HW214463   4.945   2.373   6.174
 4522SOL     OW14464   5.875   6.390   3.538
 4522SOL    HW114465   5.795   6.448   3.519
 4522SOL    HW214466   5.848   6.294   3.533
 4523SOL     OW14467   3.152   4.910   0.617
 4523SOL    HW114468   3.064   4.883   0.577
 4523SOL    HW214469   3.213   4.941   0.545
 4524SOL     OW14470   5.421   1.321   5.259
 4524SOL    HW114471   5.427   1.351   5.164
 4524SOL    HW214472   5.501   1.263   5.281
 4525SOL     OW14473   6.410   1.459   4.198
 4525SOL    HW114474   6.452   1.496   4.280
 4525SOL    HW214475   6.480   1.418   4.140
 4526SOL     OW14476   4.584   6.667   1.178
 4526SOL    HW114477   4.582   6.576   1.218
 4526SOL    HW214478   4.559   6.735   1.247
 4527SOL     OW14479   4.997   1.161   3.063
 4527SOL    HW114480   5.066   1.228   3.089
 4527SOL    HW214481   4.979   1.168   2.964
 4528SOL     OW14482   5.306   0.144   0.324
 4528SOL    HW114483   5.217   0.099   0.327
 4528SOL    HW214484   5.339   0.147   0.230
 4529SOL     OW14485   2.348   0.630   2.618
 4529SOL    HW114486   2.262   0.653   2.573
 4529SOL    HW214487   2.332   0.558   2.686
 4530SOL     OW14488   0.774   3.257   5.459
 4530SOL    HW114489   0.866   3.292   5.480
 4530SOL    HW214490   0.777   3.207   5.373
 4531SOL     OW14491   0.961   3.523   3.747
 4531SOL    HW114492   0.926   3.503   3.839
 4531SOL    HW214493   1.025   3.452   3.719
 4532SOL     OW14494   6.546   1.368   1.076
 4532SOL    HW114495   6.582   1.282   1.042
 4532SOL    HW214496   6.606   1.404   1.147
 4533SOL     OW14497   1.809   6.230   2.930
 4533SOL    HW114498   1.786   6.218   2.833
 4533SOL    HW214499   1.768   6.316   2.963
 4534SOL     OW14500   5.713   3.960   4.953
 4534SOL    HW114501   5.629   3.944   4.902
 4534SOL    HW214502   5.783   3.893   4.926
 4535SOL     OW14503   5.087   3.281   1.904
 4535SOL    HW114504   5.014   3.238   1.850
 4535SOL    HW214505   5.121   3.216   1.971
 4536SOL     OW14506   5.252   0.921   4.549
 4536SOL    HW114507   5.314   0.962   4.483
 4536SOL    HW214508   5.294   0.922   4.639
 4537SOL     OW14509   3.545   3.540   6.701
 4537SOL    HW114510   3.629   3.576   6.742
 4537SOL    HW214511   3.492   3.616   6.663
 4538SOL     OW14512   3.540   1.672   3.122
 4538SOL    HW114513   3.503   1.597   3.177
 4538SOL    HW214514   3.609   1.722   3.175
 4539SOL     OW14515   1.936   2.217   3.489
 4539SOL    HW114516   1.939   2.315   3.513
 4539SOL    HW214517   1.841   2.190   3.472
 4540SOL     OW14518   3.685   3.220   4.767
 4540SOL    HW114519   3.717   3.288   4.702
 4540SOL    HW214520   3.589   3.239   4.791
 4541SOL     OW14521   5.086   1.491   0.505
 4541SOL    HW114522   5.118   1.527   0.592
 4541SOL    HW214523   5.164   1.480   0.443
 4542SOL     OW14524   6.119   5.832   2.112
 4542SOL    HW114525   6.118   5.905   2.043
 4542SOL    HW214526   6.162   5.750   2.074
 4543SOL     OW14527   5.025   2.079   1.140
 4543SOL    HW114528   5.008   2.160   1.196
 4543SOL    HW214529   4.946   2.063   1.081
 4544SOL     OW14530   2.723   5.873   6.672
 4544SOL    HW114531   2.709   5.909   6.580
 4544SOL    HW214532   2.673   5.786   6.681
 4545SOL     OW14533   4.387   1.989   5.388
 4545SOL    HW114534   4.419   1.904   5.347
 4545SOL    HW214535   4.442   2.010   5.469
 4546SOL     OW14536   1.033   6.520   6.586
 4546SOL    HW114537   0.978   6.480   6.660
 4546SOL    HW214538   1.009   6.475   6.500
 4547SOL     OW14539   5.655   2.674   1.508
 4547SOL    HW114540   5.629   2.687   1.603
 4547SOL    HW214541   5.651   2.577   1.485
 4548SOL     OW14542   0.038   4.260   3.712
 4548SOL    HW114543   7.006   4.186   3.750
 4548SOL    HW214544   0.055   4.328   3.783
 4549SOL     OW14545   6.554   3.412   2.839
 4549SOL    HW114546   6.523   3.383   2.929
 4549SOL    HW214547   6.564   3.511   2.837
 4550SOL     OW14548   0.904   5.734   3.017
 4550SOL    HW114549   0.970   5.801   2.985
 4550SOL    HW214550   0.947   5.643   3.021
 4551SOL     OW14551   0.487   2.598   5.143
 4551SOL    HW114552   0.502   2.640   5.053
 4551SOL    HW214553   0.523   2.505   5.142
 4552SOL     OW14554   0.641   3.554   4.764
 4552SOL    HW114555   0.637   3.612   4.845
 4552SOL    HW214556   0.710   3.482   4.778
 4553SOL     OW14557   4.800   4.994   0.415
 4553SOL    HW114558   4.863   5.072   0.410
 4553SOL    HW214559   4.759   4.979   0.325
 4554SOL     OW14560   4.181   0.174   2.919
 4554SOL    HW114561   4.151   0.094   2.869
 4554SOL    HW214562   4.269   0.205   2.883
 4555SOL     OW14563   4.617   2.112   6.671
 4555SOL    HW114564   4.607   2.197   6.723
 4555SOL    HW214565   4.703   2.068   6.696
 4556SOL     OW14566   4.132   0.581   3.694
 4556SOL    HW114567   4.104   0.502   3.639
 4556SOL    HW214568   4.187   0.551   3.771
 4557SOL     OW14569   5.397   0.355   5.679
 4557SOL    HW114570   5.396   0.381   5.582
 4557SOL    HW214571   5.470   0.404   5.726
 4558SOL     OW14572   5.948   3.856   6.514
 4558SOL    HW114573   6.009   3.929   6.483
 4558SOL    HW214574   5.854   3.881   6.493
 4559SOL     OW14575   1.093   6.642   1.319
 4559SOL    HW114576   1.070   6.550   1.351
 4559SOL    HW214577   1.025   6.673   1.254
 4560SOL     OW14578   5.211   3.078   2.933
 4560SOL    HW114579   5.304   3.099   2.963
 4560SOL    HW214580   5.175   3.156   2.881
 4561SOL     OW14581   3.194   1.386   0.233
 4561SOL    HW114582   3.094   1.388   0.236
 4561SOL    HW214583   3.229   1.473   0.268
 4562SOL     OW14584   3.654   6.071   6.420
 4562SOL    HW114585   3.703   6.081   6.507
 4562SOL    HW214586   3.624   6.160   6.388
 4563SOL     OW14587   5.661   1.804   0.553
 4563SOL    HW114588   5.600   1.735   0.594
 4563SOL    HW214589   5.748   1.762   0.528
 4564SOL     OW14590   1.258   5.285   0.885
 4564SOL    HW114591   1.215   5.374   0.897
 4564SOL    HW214592   1.285   5.248   0.974
 4565SOL     OW14593   0.611   1.565   5.108
 4565SOL    HW114594   0.706   1.546   5.081
 4565SOL    HW214595   0.569   1.626   5.041
 4566SOL     OW14596   0.493   0.247   6.738
 4566SOL    HW114597   0.424   0.175   6.743
 4566SOL    HW214598   0.576   0.211   6.696
 4567SOL     OW14599   6.767   1.173   0.504
 4567SOL    HW114600   6.784   1.268   0.531
 4567SOL    HW214601   6.845   1.139   0.451
 4568SOL     OW14602   3.272   4.747   5.594
 4568SOL    HW114603   3.327   4.718   5.516
 4568SOL    HW214604   3.193   4.686   5.604
 4569SOL     OW14605   1.219   1.695   4.328
 4569SOL    HW114606   1.307   1.717   4.369
 4569SOL    HW214607   1.174   1.624   4.383
 4570SOL     OW14608   7.001   5.748   3.177
 4570SOL    HW114609   0.024   5.685   3.116
 4570SOL    HW214610   0.021   5.749   3.266
 4571SOL     OW14611   3.079   3.154   4.408
 4571SOL    HW114612   3.124   3.074   4.369
 4571SOL    HW214613   3.013   3.191   4.343
 4572SOL     OW14614   0.980   0.005   1.167
 4572SOL    HW114615   1.004   0.101   1.180
 4572SOL    HW214616   1.046   6.986   1.107
 4573SOL     OW14617   6.216   5.788   1.135
 4573SOL    HW114618   6.132   5.826   1.174
 4573SOL    HW214619   6.295   5.825   1.183
 4574SOL     OW14620   6.895   4.826   1.416
 4574SOL    HW114621   6.882   4.782   1.504
 4574SOL    HW214622   6.945   4.912   1.429
 4575SOL     OW14623   6.375   1.579   1.003
 4575SOL    HW114624   6.437   1.512   1.045
 4575SOL    HW214625   6.396   1.588   0.906
 4576SOL     OW14626   2.983   5.927   6.695
 4576SOL    HW114627   2.994   6.011   6.641
 4576SOL    HW214628   2.887   5.901   6.696
 4577SOL     OW14629   0.881   3.412   3.069
 4577SOL    HW114630   0.811   3.393   2.999
 4577SOL    HW214631   0.859   3.361   3.152
 4578SOL     OW14632   0.323   3.376   3.673
 4578SOL    HW114633   0.313   3.437   3.595
 4578SOL    HW214634   0.238   3.325   3.686
 4579SOL     OW14635   4.662   1.572   2.692
 4579SOL    HW114636   4.621   1.595   2.781
 4579SOL    HW214637   4.668   1.655   2.636
 4580SOL     OW14638   6.027   5.636   0.982
 4580SOL    HW114639   6.021   5.605   0.887
 4580SOL    HW214640   6.122   5.630   1.013
 4581SOL     OW14641   3.260   5.307   3.341
 4581SOL    HW114642   3.351   5.283   3.307
 4581SOL    HW214643   3.205   5.345   3.266
 4582SOL     OW14644   5.134   6.768   3.860
 4582SOL    HW114645   5.132   6.860   3.898
 4582SOL    HW214646   5.042   6.740   3.834
 4583SOL     OW14647   2.857   1.902   5.359
 4583SOL    HW114648   2.798   1.821   5.353
 4583SOL    HW214649   2.872   1.939   5.267
 4584SOL     OW14650   6.798   6.037   6.049
 4584SOL    HW114651   6.852   6.004   6.126
 4584SOL    HW214652   6.798   5.968   5.977
 4585SOL     OW14653   3.114   6.317   3.266
 4585SOL    HW114654   3.154   6.329   3.357
 4585SOL    HW214655   3.162   6.375   3.201
 4586SOL     OW14656   3.906   5.723   1.823
 4586SOL    HW114657   3.888   5.783   1.902
 4586SOL    HW214658   3.830   5.659   1.813
 4587SOL     OW14659   3.753   3.149   1.225
 4587SOL    HW114660   3.699   3.085   1.171
 4587SOL    HW214661   3.694   3.222   1.258
 4588SOL     OW14662   4.052   3.722   4.811
 4588SOL    HW114663   4.027   3.789   4.742
 4588SOL    HW214664   3.970   3.690   4.858
 4589SOL     OW14665   6.241   2.345   2.963
 4589SOL    HW114666   6.187   2.429   2.957
 4589SOL    HW214667   6.332   2.361   2.925
 4590SOL     OW14668   3.948   5.431   2.589
 4590SOL    HW114669   3.915   5.354   2.534
 4590SOL    HW214670   4.014   5.398   2.656
 4591SOL     OW14671   6.345   5.613   5.543
 4591SOL    HW114672   6.399   5.669   5.480
 4591SOL    HW214673   6.252   5.649   5.547
 4592SOL     OW14674   3.872   2.794   0.688
 4592SOL    HW114675   3.777   2.817   0.710
 4592SOL    HW214676   3.879   2.773   0.591
 4593SOL     OW14677   3.907   5.698   2.735
 4593SOL    HW114678   3.901   5.619   2.673
 4593SOL    HW214679   3.959   5.771   2.690
 4594SOL     OW14680   3.114   1.665   1.770
 4594SOL    HW114681   3.082   1.744   1.821
 4594SOL    HW214682   3.142   1.693   1.678
 4595SOL     OW14683   3.390   2.956   6.232
 4595SOL    HW114684   3.334   2.979   6.312
 4595SOL    HW214685   3.339   2.977   6.148
 4596SOL     OW14686   6.085   6.277   2.748
 4596SOL    HW114687   6.033   6.276   2.663
 4596SOL    HW214688   6.158   6.345   2.743
 4597SOL     OW14689   5.068   4.528   6.197
 4597SOL    HW114690   5.119   4.613   6.185
 4597SOL    HW214691   4.973   4.542   6.168
 4598SOL     OW14692   2.096   5.386   6.810
 4598SOL    HW114693   2.045   5.360   6.892
 4598SOL    HW214694   2.191   5.406   6.834
 4599SOL     OW14695   1.526   4.407   1.409
 4599SOL    HW114696   1.528   4.307   1.406
 4599SOL    HW214697   1.531   4.443   1.316
 4600SOL     OW14698   3.291   5.736   0.274
 4600SOL    HW114699   3.319   5.716   0.180
 4600SOL    HW214700   3.300   5.834   0.291
 4601SOL     OW14701   2.092   1.163   5.023
 4601SOL    HW114702   2.076   1.080   5.077
 4601SOL    HW214703   2.171   1.148   4.963
 4602SOL     OW14704   1.882   6.803   1.597
 4602SOL    HW114705   1.899   6.901   1.592
 4602SOL    HW214706   1.908   6.760   1.510
 4603SOL     OW14707   3.215   6.719   1.855
 4603SOL    HW114708   3.211   6.620   1.839
 4603SOL    HW214709   3.247   6.736   1.948
 4604SOL     OW14710   3.813   0.204   2.550
 4604SOL    HW114711   3.771   0.115   2.528
 4604SOL    HW214712   3.744   0.266   2.587
 4605SOL     OW14713   4.653   0.747   4.269
 4605SOL    HW114714   4.696   0.660   4.243
 4605SOL    HW214715   4.614   0.739   4.360
 4606SOL     OW14716   6.781   6.492   4.430
 4606SOL    HW114717   6.798   6.537   4.342
 4606SOL    HW214718   6.787   6.393   4.418
 4607SOL     OW14719   2.794   1.880   1.336
 4607SOL    HW114720   2.700   1.908   1.353
 4607SOL    HW214721   2.852   1.905   1.414
 4608SOL     OW14722   1.259   4.996   5.077
 4608SOL    HW114723   1.313   4.936   5.137
 4608SOL    HW214724   1.317   5.027   5.002
 4609SOL     OW14725   4.422   5.806   0.027
 4609SOL    HW114726   4.471   5.745   0.089
 4609SOL    HW214727   4.428   5.900   0.061
 4610SOL     OW14728   0.022   2.668   0.023
 4610SOL    HW114729   0.114   2.705   0.009
 4610SOL    HW214730   7.004   2.653   6.960
 4611SOL     OW14731   0.811   3.820   7.024
 4611SOL    HW114732   0.767   3.735   0.027
 4611SOL    HW214733   0.901   3.800   6.986
 4612SOL     OW14734   1.823   6.083   6.471
 4612SOL    HW114735   1.913   6.122   6.490
 4612SOL    HW214736   1.757   6.157   6.456
 4613SOL     OW14737   2.777   5.358   2.642
 4613SOL    HW114738   2.715   5.433   2.621
 4613SOL    HW214739   2.871   5.385   2.619
 4614SOL     OW14740   2.209   5.623   0.157
 4614SOL    HW114741   2.136   5.602   0.223
 4614SOL    HW214742   2.297   5.628   0.205
 4615SOL     OW14743   1.506   2.042   0.023
 4615SOL    HW114744   1.435   2.108   0.048
 4615SOL    HW214745   1.472   1.982   6.976
 4616SOL     OW14746   5.967   0.084   6.673
 4616SOL    HW114747   6.057   0.077   6.716
 4616SOL    HW214748   5.955   0.010   6.606
 4617SOL     OW14749   0.976   2.516   2.836
 4617SOL    HW114750   0.914   2.438   2.822
 4617SOL    HW214751   0.949   2.591   2.775
 4618SOL     OW14752   0.709   2.646   5.747
 4618SOL    HW114753   0.744   2.653   5.840
 4618SOL    HW214754   0.762   2.707   5.687
 4619SOL     OW14755   4.926   1.061   3.831
 4619SOL    HW114756   4.834   1.102   3.832
 4619SOL    HW214757   4.940   1.009   3.916
 4620SOL     OW14758   3.419   4.434   6.971
 4620SOL    HW114759   3.372   4.522   6.958
 4620SOL    HW214760   3.500   4.430   6.912
 4621SOL     OW14761   6.558   1.323   4.891
 4621SOL    HW114762   6.555   1.225   4.875
 4621SOL    HW214763   6.609   1.342   4.975
 4622SOL     OW14764   1.936   3.042   0.690
 4622SOL    HW114765   1.926   3.128   0.640
 4622SOL    HW214766   1.863   3.035   0.758
 4623SOL     OW14767   7.025   4.898   0.795
 4623SOL    HW114768   0.015   4.990   0.761
 4623SOL    HW214769   6.983   4.903   0.886
 4624SOL     OW14770   4.677   1.123   3.727
 4624SOL    HW114771   4.641   1.035   3.760
 4624SOL    HW214772   4.606   1.192   3.735
 4625SOL     OW14773   0.934   4.143   0.120
 4625SOL    HW114774   1.013   4.083   0.117
 4625SOL    HW214775   0.937   4.206   0.043
 4626SOL     OW14776   6.347   4.968   1.644
 4626SOL    HW114777   6.405   4.960   1.725
 4626SOL    HW214778   6.251   4.973   1.673
 4627SOL     OW14779   3.425   5.814   5.501
 4627SOL    HW114780   3.524   5.819   5.500
 4627SOL    HW214781   3.392   5.783   5.412
 4628SOL     OW14782   6.124   4.891   2.180
 4628SOL    HW114783   6.057   4.884   2.254
 4628SOL    HW214784   6.211   4.853   2.210
 4629SOL     OW14785   2.181   5.305   5.775
 4629SOL    HW114786   2.205   5.227   5.833
 4629SOL    HW214787   2.251   5.316   5.704
 4630SOL     OW14788   2.592   5.794   3.212
 4630SOL    HW114789   2.499   5.831   3.211
 4630SOL    HW214790   2.602   5.730   3.289
 4631SOL     OW14791   2.672   6.417   3.665
 4631SOL    HW114792   2.767   6.386   3.661
 4631SOL    HW214793   2.620   6.374   3.592
 4632SOL     OW14794   4.728   5.174   4.286
 4632SOL    HW114795   4.696   5.089   4.329
 4632SOL    HW214796   4.744   5.243   4.357
 4633SOL     OW14797   6.300   1.732   5.298
 4633SOL    HW114798   6.244   1.684   5.366
 4633SOL    HW214799   6.272   1.705   5.206
 4634SOL     OW14800   2.913   4.811   0.475
 4634SOL    HW114801   2.873   4.795   0.384
 4634SOL    HW214802   2.849   4.781   0.545
 4635SOL     OW14803   5.536   3.325   2.287
 4635SOL    HW114804   5.462   3.282   2.236
 4635SOL    HW214805   5.611   3.346   2.225
 4636SOL     OW14806   3.077   5.297   0.500
 4636SOL    HW114807   3.029   5.262   0.580
 4636SOL    HW214808   3.176   5.293   0.516
 4637SOL     OW14809   1.117   0.222   5.933
 4637SOL    HW114810   1.070   0.296   5.981
 4637SOL    HW214811   1.068   0.136   5.949
 4638SOL     OW14812   3.937   3.329   6.311
 4638SOL    HW114813   3.942   3.232   6.337
 4638SOL    HW214814   3.932   3.385   6.393
 4639SOL     OW14815   0.621   4.216   5.561
 4639SOL    HW114816   0.695   4.177   5.616
 4639SOL    HW214817   0.545   4.241   5.620
 4640SOL     OW14818   5.203   4.577   3.999
 4640SOL    HW114819   5.126   4.607   3.943
 4640SOL    HW214820   5.191   4.608   4.093
 4641SOL     OW14821   2.606   5.005   4.480
 4641SOL    HW114822   2.618   4.914   4.521
 4641SOL    HW214823   2.584   4.996   4.383
 4642SOL     OW14824   6.187   5.394   4.481
 4642SOL    HW114825   6.128   5.460   4.435
 4642SOL    HW214826   6.198   5.313   4.424
 4643SOL     OW14827   4.266   2.303   1.355
 4643SOL    HW114828   4.358   2.332   1.381
 4643SOL    HW214829   4.201   2.376   1.375
 4644SOL     OW14830   1.639   6.054   4.743
 4644SOL    HW114831   1.593   6.092   4.663
 4644SOL    HW214832   1.570   6.020   4.808
 4645SOL     OW14833   2.143   6.613   4.321
 4645SOL    HW114834   2.212   6.652   4.259
 4645SOL    HW214835   2.184   6.598   4.411
 4646SOL     OW14836   2.802   0.140   2.357
 4646SOL    HW114837   2.900   0.160   2.353
 4646SOL    HW214838   2.753   0.199   2.293
 4647SOL     OW14839   0.851   0.156   3.504
 4647SOL    HW114840   0.755   0.127   3.507
 4647SOL    HW214841   0.868   0.221   3.578
 4648SOL     OW14842   3.090   6.680   3.091
 4648SOL    HW114843   3.100   6.729   3.177
 4648SOL    HW214844   3.007   6.710   3.044
 4649SOL     OW14845   5.323   0.633   5.557
 4649SOL    HW114846   5.294   0.588   5.642
 4649SOL    HW214847   5.332   0.731   5.574
 4650SOL     OW14848   4.688   6.425   3.350
 4650SOL    HW114849   4.761   6.476   3.304
 4650SOL    HW214850   4.647   6.481   3.421
 4651SOL     OW14851   6.933   2.185   1.896
 4651SOL    HW114852   0.006   2.171   1.903
 4651SOL    HW214853   6.897   2.133   1.819
 4652SOL     OW14854   0.192   0.294   3.985
 4652SOL    HW114855   0.153   0.202   3.978
 4652SOL    HW214856   0.122   0.361   3.961
 4653SOL     OW14857   6.866   6.360   0.256
 4653SOL    HW114858   6.842   6.413   0.174
 4653SOL    HW214859   6.791   6.298   0.278
 4654SOL     OW14860   0.662   6.990   0.528
 4654SOL    HW114861   0.715   6.994   0.613
 4654SOL    HW214862   0.713   6.937   0.461
 4655SOL     OW14863   0.358   4.360   2.851
 4655SOL    HW114864   0.409   4.376   2.766
 4655SOL    HW214865   0.272   4.314   2.829
 4656SOL     OW14866   1.071   0.729   2.852
 4656SOL    HW114867   1.065   0.630   2.842
 4656SOL    HW214868   1.111   0.769   2.769
 4657SOL     OW14869   4.962   6.594   1.578
 4657SOL    HW114870   4.922   6.535   1.507
 4657SOL    HW214871   5.052   6.625   1.548
 4658SOL     OW14872   4.386   0.124   3.444
 4658SOL    HW114873   4.323   0.129   3.366
 4658SOL    HW214874   4.402   0.215   3.481
 4659SOL     OW14875   1.712   2.803   5.135
 4659SOL    HW114876   1.675   2.869   5.069
 4659SOL    HW214877   1.653   2.721   5.136
 4660SOL     OW14878   0.186   1.503   5.285
 4660SOL    HW114879   0.284   1.502   5.306
 4660SOL    HW214880   0.146   1.414   5.305
 4661SOL     OW14881   3.377   4.153   4.579
 4661SOL    HW114882   3.447   4.162   4.649
 4661SOL    HW214883   3.292   4.119   4.620
 4662SOL     OW14884   5.089   0.351   5.427
 4662SOL    HW114885   5.014   0.417   5.424
 4662SOL    HW214886   5.156   0.373   5.355
 4663SOL     OW14887   6.930   1.993   2.145
 4663SOL    HW114888   6.969   1.930   2.078
 4663SOL    HW214889   7.003   2.033   2.200
 4664SOL     OW14890   2.254   2.740   6.188
 4664SOL    HW114891   2.249   2.837   6.211
 4664SOL    HW214892   2.329   2.725   6.123
 4665SOL     OW14893   5.020   0.055   6.241
 4665SOL    HW114894   4.981   6.989   6.228
 4665SOL    HW214895   5.088   0.073   6.170
 4666SOL     OW14896   2.250   2.195   6.713
 4666SOL    HW114897   2.166   2.154   6.749
 4666SOL    HW214898   2.285   2.262   6.780
 4667SOL     OW14899   6.767   4.827   6.684
 4667SOL    HW114900   6.784   4.899   6.750
 4667SOL    HW214901   6.699   4.763   6.720
 4668SOL     OW14902   6.528   1.574   4.401
 4668SOL    HW114903   6.495   1.530   4.484
 4668SOL    HW214904   6.521   1.674   4.411
 4669SOL     OW14905   1.882   6.197   0.354
 4669SOL    HW114906   1.788   6.181   0.385
 4669SOL    HW214907   1.918   6.114   0.312
 4670SOL     OW14908   2.730   1.526   5.057
 4670SOL    HW114909   2.820   1.482   5.062
 4670SOL    HW214910   2.732   1.599   4.990
 4671SOL     OW14911   6.104   3.159   1.607
 4671SOL    HW114912   6.013   3.173   1.647
 4671SOL    HW214913   6.102   3.078   1.549
 4672SOL     OW14914   1.818   4.486   6.336
 4672SOL    HW114915   1.847   4.401   6.292
 4672SOL    HW214916   1.801   4.556   6.266
 4673SOL     OW14917   3.592   0.408   2.019
 4673SOL    HW114918   3.503   0.374   2.050
 4673SOL    HW214919   3.601   0.394   1.921
 4674SOL     OW14920   4.975   5.554   5.539
 4674SOL    HW114921   4.920   5.473   5.518
 4674SOL    HW214922   4.915   5.635   5.542
 4675SOL     OW14923   1.413   4.127   1.002
 4675SOL    HW114924   1.449   4.085   0.919
 4675SOL    HW214925   1.488   4.156   1.061
 4676SOL     OW14926   1.762   5.981   3.441
 4676SOL    HW114927   1.685   6.037   3.471
 4676SOL    HW214928   1.822   6.035   3.383
 4677SOL     OW14929   1.697   2.103   0.590
 4677SOL    HW114930   1.725   2.021   0.641
 4677SOL    HW214931   1.628   2.153   0.642
 4678SOL     OW14932   1.805   4.441   2.886
 4678SOL    HW114933   1.787   4.483   2.975
 4678SOL    HW214934   1.783   4.344   2.890
 4679SOL     OW14935   5.475   5.983   1.747
 4679SOL    HW114936   5.547   6.051   1.734
 4679SOL    HW214937   5.393   6.011   1.696
 4680SOL     OW14938   2.763   1.503   1.511
 4680SOL    HW114939   2.776   1.409   1.543
 4680SOL    HW214940   2.733   1.561   1.586
 4681SOL     OW14941   5.080   4.301   0.520
 4681SOL    HW114942   4.982   4.323   0.522
 4681SOL    HW214943   5.127   4.349   0.593
 4682SOL     OW14944   4.710   3.391   6.518
 4682SOL    HW114945   4.735   3.295   6.503
 4682SOL    HW214946   4.794   3.445   6.530
 4683SOL     OW14947   5.904   4.270   3.571
 4683SOL    HW114948   5.905   4.322   3.656
 4683SOL    HW214949   5.843   4.191   3.581
 4684SOL     OW14950   4.226   6.435   0.401
 4684SOL    HW114951   4.136   6.395   0.380
 4684SOL    HW214952   4.232   6.454   0.499
 4685SOL     OW14953   2.517   3.519   6.026
 4685SOL    HW114954   2.528   3.484   5.934
 4685SOL    HW214955   2.441   3.583   6.029
 4686SOL     OW14956   3.142   6.454   0.984
 4686SOL    HW114957   3.065   6.391   0.978
 4686SOL    HW214958   3.221   6.417   0.935
 4687SOL     OW14959   3.136   1.753   3.170
 4687SOL    HW114960   3.170   1.696   3.245
 4687SOL    HW214961   3.212   1.777   3.109
 4688SOL     OW14962   5.435   2.624   6.076
 4688SOL    HW114963   5.442   2.638   6.175
 4688SOL    HW214964   5.436   2.712   6.029
 4689SOL     OW14965   5.471   0.824   0.546
 4689SOL    HW114966   5.495   0.841   0.451
 4689SOL    HW214967   5.485   0.727   0.567
 4690SOL     OW14968   2.439   1.838   0.667
 4690SOL    HW114969   2.404   1.748   0.643
 4690SOL    HW214970   2.538   1.835   0.677
 4691SOL     OW14971   5.151   4.528   6.817
 4691SOL    HW114972   5.172   4.434   6.845
 4691SOL    HW214973   5.077   4.564   6.874
 4692SOL     OW14974   6.588   4.330   2.553
 4692SOL    HW114975   6.563   4.393   2.626
 4692SOL    HW214976   6.644   4.256   2.589
 4693SOL     OW14977   1.670   1.011   3.813
 4693SOL    HW114978   1.637   0.968   3.729
 4693SOL    HW214979   1.725   0.945   3.864
 4694SOL     OW14980   2.453   1.303   0.889
 4694SOL    HW114981   2.422   1.312   0.794
 4694SOL    HW214982   2.485   1.210   0.906
 4695SOL     OW14983   1.134   5.494   0.987
 4695SOL    HW114984   1.164   5.586   1.011
 4695SOL    HW214985   1.040   5.481   1.020
 4696SOL     OW14986   1.109   5.361   6.276
 4696SOL    HW114987   1.025   5.309   6.288
 4696SOL    HW214988   1.088   5.458   6.268
 4697SOL     OW14989   2.066   3.980   1.269
 4697SOL    HW114990   2.084   3.947   1.362
 4697SOL    HW214991   2.058   4.080   1.271
 4698SOL     OW14992   4.704   0.308   3.258
 4698SOL    HW114993   4.758   0.381   3.300
 4698SOL    HW214994   4.707   0.226   3.315
 4699SOL     OW14995   0.492   0.795   2.110
 4699SOL    HW114996   0.564   0.792   2.040
 4699SOL    HW214997   0.403   0.807   2.066
 4700SOL     OW14998   6.524   2.043   2.501
 4700SOL    HW114999   6.591   1.972   2.520
 4700SOL    HW215000   6.570   2.130   2.486
 4701SOL     OW15001   3.285   2.080   2.017
 4701SOL    HW115002   3.339   2.097   1.935
 4701SOL    HW215003   3.188   2.098   1.998
 4702SOL     OW15004   4.809   5.009   6.936
 4702SOL    HW115005   4.769   5.011   6.845
 4702SOL    HW215006   4.908   5.008   6.929
 4703SOL     OW15007   1.095   4.754   2.612
 4703SOL    HW115008   1.014   4.804   2.583
 4703SOL    HW215009   1.174   4.786   2.561
 4704SOL     OW15010   0.108   5.955   5.842
 4704SOL    HW115011   0.053   5.908   5.912
 4704SOL    HW215012   0.076   5.926   5.752
 4705SOL     OW15013   3.009   2.498   0.907
 4705SOL    HW115014   2.972   2.582   0.946
 4705SOL    HW215015   2.959   2.419   0.944
 4706SOL     OW15016   1.344   0.300   0.969
 4706SOL    HW115017   1.360   0.320   0.872
 4706SOL    HW215018   1.420   0.247   1.005
 4707SOL     OW15019   1.772   6.445   0.956
 4707SOL    HW115020   1.764   6.472   1.052
 4707SOL    HW215021   1.842   6.375   0.946
 4708SOL     OW15022   1.242   2.112   4.777
 4708SOL    HW115023   1.336   2.138   4.802
 4708SOL    HW215024   1.241   2.078   4.683
 4709SOL     OW15025   5.140   4.956   4.849
 4709SOL    HW115026   5.098   5.014   4.779
 4709SOL    HW215027   5.070   4.898   4.892
 4710SOL     OW15028   5.205   6.922   4.446
 4710SOL    HW115029   5.275   6.889   4.510
 4710SOL    HW215030   5.248   6.943   4.358
 4711SOL     OW15031   6.303   2.895   3.614
 4711SOL    HW115032   6.257   2.807   3.598
 4711SOL    HW215033   6.334   2.899   3.709
 4712SOL     OW15034   4.366   4.535   5.633
 4712SOL    HW115035   4.418   4.492   5.707
 4712SOL    HW215036   4.301   4.600   5.671
 4713SOL     OW15037   5.557   4.374   1.189
 4713SOL    HW115038   5.502   4.359   1.107
 4713SOL    HW215039   5.506   4.432   1.253
 4714SOL     OW15040   6.588   1.776   6.419
 4714SOL    HW115041   6.504   1.793   6.368
 4714SOL    HW215042   6.592   1.680   6.446
 4715SOL     OW15043   6.177   1.681   1.747
 4715SOL    HW115044   6.181   1.629   1.832
 4715SOL    HW215045   6.254   1.744   1.741
 4716SOL     OW15046   3.984   5.582   5.471
 4716SOL    HW115047   3.928   5.571   5.553
 4716SOL    HW215048   3.934   5.637   5.404
 4717SOL     OW15049   2.671   5.330   5.541
 4717SOL    HW115050   2.759   5.373   5.563
 4717SOL    HW215051   2.686   5.233   5.521
 4718SOL     OW15052   5.431   3.006   0.928
 4718SOL    HW115053   5.463   3.013   1.022
 4718SOL    HW215054   5.508   3.021   0.865
 4719SOL     OW15055   5.967   3.101   3.271
 4719SOL    HW115056   6.061   3.067   3.277
 4719SOL    HW215057   5.917   3.078   3.354
 4720SOL     OW15058   3.456   5.041   0.550
 4720SOL    HW115059   3.384   5.110   0.542
 4720SOL    HW215060   3.525   5.072   0.616
 4721SOL     OW15061   6.265   3.643   1.979
 4721SOL    HW115062   6.239   3.617   2.072
 4721SOL    HW215063   6.208   3.719   1.948
 4722SOL     OW15064   0.953   4.826   6.754
 4722SOL    HW115065   0.994   4.808   6.843
 4722SOL    HW215066   0.966   4.748   6.694
 4723SOL     OW15067   3.755   4.703   5.736
 4723SOL    HW115068   3.663   4.704   5.775
 4723SOL    HW215069   3.788   4.797   5.726
 4724SOL     OW15070   0.253   6.618   4.005
 4724SOL    HW115071   0.218   6.525   4.011
 4724SOL    HW215072   0.339   6.617   3.953
 4725SOL     OW15073   5.494   5.213   0.901
 4725SOL    HW115074   5.483   5.126   0.852
 4725SOL    HW215075   5.408   5.235   0.948
 4726SOL     OW15076   1.665   2.834   5.834
 4726SOL    HW115077   1.612   2.838   5.919
 4726SOL    HW215078   1.675   2.927   5.796
 4727SOL     OW15079   0.522   5.465   0.466
 4727SOL    HW115080   0.573   5.504   0.389
 4727SOL    HW215081   0.586   5.426   0.532
 4728SOL     OW15082   6.345   1.048   2.925
 4728SOL    HW115083   6.390   1.087   2.845
 4728SOL    HW215084   6.247   1.070   2.922
 4729SOL     OW15085   5.370   0.677   0.038
 4729SOL    HW115086   5.337   0.629   0.119
 4729SOL    HW215087   5.377   0.612   6.987
 4730SOL     OW15088   3.811   6.951   4.615
 4730SOL    HW115089   3.791   6.866   4.566
 4730SOL    HW215090   3.897   6.989   4.583
 4731SOL     OW15091   2.933   0.436   0.519
 4731SOL    HW115092   2.878   0.411   0.599
 4731SOL    HW215093   2.930   0.535   0.506
 4732SOL     OW15094   0.601   3.750   4.992
 4732SOL    HW115095   0.613   3.700   5.078
 4732SOL    HW215096   0.670   3.822   4.985
 4733SOL     OW15097   2.223   4.052   3.235
 4733SOL    HW115098   2.207   3.995   3.155
 4733SOL    HW215099   2.239   4.147   3.206
 4734SOL     OW15100   5.033   3.320   5.706
 4734SOL    HW115101   4.935   3.299   5.698
 4734SOL    HW215102   5.060   3.380   5.631
 4735SOL     OW15103   0.406   6.480   4.473
 4735SOL    HW115104   0.363   6.390   4.484
 4735SOL    HW215105   0.360   6.546   4.532
 4736SOL     OW15106   6.803   2.026   3.771
 4736SOL    HW115107   6.747   1.954   3.813
 4736SOL    HW215108   6.758   2.058   3.688
 4737SOL     OW15109   2.013   5.110   1.136
 4737SOL    HW115110   2.070   5.089   1.215
 4737SOL    HW215111   2.011   5.209   1.121
 4738SOL     OW15112   2.739   0.472   4.311
 4738SOL    HW115113   2.733   0.480   4.410
 4738SOL    HW215114   2.765   0.379   4.286
 4739SOL     OW15115   6.010   3.021   4.838
 4739SOL    HW115116   5.952   2.947   4.869
 4739SOL    HW215117   6.081   3.040   4.907
 4740SOL     OW15118   0.634   1.169   1.479
 4740SOL    HW115119   0.632   1.172   1.579
 4740SOL    HW215120   0.652   1.260   1.443
 4741SOL     OW15121   4.299   4.642   0.902
 4741SOL    HW115122   4.247   4.576   0.956
 4741SOL    HW215123   4.259   4.649   0.811
 4742SOL     OW15124   2.517   5.739   1.608
 4742SOL    HW115125   2.578   5.665   1.638
 4742SOL    HW215126   2.571   5.822   1.594
 4743SOL     OW15127   2.527   1.405   5.937
 4743SOL    HW115128   2.547   1.354   5.854
 4743SOL    HW215129   2.596   1.386   6.007
 4744SOL     OW15130   1.830   3.543   5.678
 4744SOL    HW115131   1.832   3.456   5.727
 4744SOL    HW215132   1.902   3.543   5.609
 4745SOL     OW15133   2.981   5.358   5.594
 4745SOL    HW115134   2.992   5.304   5.511
 4745SOL    HW215135   2.962   5.297   5.671
 4746SOL     OW15136   6.265   5.628   0.029
 4746SOL    HW115137   6.251   5.727   0.019
 4746SOL    HW215138   6.230   5.598   0.118
 4747SOL     OW15139   0.020   2.743   0.306
 4747SOL    HW115140   0.026   2.700   0.216
 4747SOL    HW215141   0.017   2.842   0.295
 4748SOL     OW15142   1.160   0.768   1.449
 4748SOL    HW115143   1.221   0.810   1.382
 4748SOL    HW215144   1.202   0.684   1.484
 4749SOL     OW15145   1.924   6.369   0.142
 4749SOL    HW115146   2.015   6.371   0.102
 4749SOL    HW215147   1.922   6.305   0.218
 4750SOL     OW15148   0.306   1.356   4.044
 4750SOL    HW115149   0.357   1.433   4.004
 4750SOL    HW215150   0.276   1.381   4.136
 4751SOL     OW15151   1.311   4.470   6.850
 4751SOL    HW115152   1.296   4.527   6.930
 4751SOL    HW215153   1.406   4.440   6.846
 4752SOL     OW15154   2.232   6.208   0.906
 4752SOL    HW115155   2.207   6.303   0.926
 4752SOL    HW215156   2.181   6.146   0.966
 4753SOL     OW15157   5.644   0.120   5.209
 4753SOL    HW115158   5.733   0.149   5.172
 4753SOL    HW215159   5.581   0.103   5.133
 4754SOL     OW15160   6.559   0.163   6.411
 4754SOL    HW115161   6.562   0.141   6.314
 4754SOL    HW215162   6.464   0.167   6.442
 4755SOL     OW15163   2.369   1.055   6.361
 4755SOL    HW115164   2.398   1.151   6.366
 4755SOL    HW215165   2.375   1.014   6.452
 4756SOL     OW15166   5.042   2.452   1.757
 4756SOL    HW115167   5.116   2.466   1.824
 4756SOL    HW215168   5.015   2.539   1.718
 4757SOL     OW15169   2.179   2.621   2.002
 4757SOL    HW115170   2.211   2.527   2.014
 4757SOL    HW215171   2.129   2.649   2.084
 4758SOL     OW15172   4.263   5.263   5.597
 4758SOL    HW115173   4.317   5.184   5.567
 4758SOL    HW215174   4.170   5.254   5.563
 4759SOL     OW15175   5.532   5.924   4.901
 4759SOL    HW115176   5.571   6.007   4.942
 4759SOL    HW215177   5.561   5.918   4.805
 4760SOL     OW15178   1.551   1.362   1.387
 4760SOL    HW115179   1.578   1.450   1.424
 4760SOL    HW215180   1.560   1.291   1.457
 4761SOL     OW15181   6.762   0.185   6.842
 4761SOL    HW115182   6.762   0.223   6.750
 4761SOL    HW215183   6.676   0.137   6.858
 4762SOL     OW15184   2.405   4.763   2.081
 4762SOL    HW115185   2.457   4.681   2.106
 4762SOL    HW215186   2.436   4.840   2.136
 4763SOL     OW15187   6.515   5.837   2.777
 4763SOL    HW115188   6.465   5.804   2.858
 4763SOL    HW215189   6.604   5.791   2.773
 4764SOL     OW15190   4.612   3.808   5.368
 4764SOL    HW115191   4.601   3.735   5.300
 4764SOL    HW215192   4.637   3.893   5.322
 4765SOL     OW15193   4.626   6.062   5.353
 4765SOL    HW115194   4.712   6.076   5.403
 4765SOL    HW215195   4.616   6.134   5.284
 4766SOL     OW15196   2.924   1.046   3.533
 4766SOL    HW115197   2.949   1.119   3.596
 4766SOL    HW215198   2.841   1.073   3.483
 4767SOL     OW15199   3.594   0.197   1.107
 4767SOL    HW115200   3.539   0.243   1.176
 4767SOL    HW215201   3.538   0.127   1.061
 4768SOL     OW15202   4.883   1.472   4.669
 4768SOL    HW115203   4.796   1.427   4.655
 4768SOL    HW215204   4.934   1.475   4.583
 4769SOL     OW15205   3.962   5.633   1.449
 4769SOL    HW115206   4.051   5.626   1.403
 4769SOL    HW215207   3.924   5.541   1.460
 4770SOL     OW15208   2.205   0.418   3.037
 4770SOL    HW115209   2.289   0.462   3.068
 4770SOL    HW215210   2.139   0.488   3.010
 4771SOL     OW15211   3.577   5.077   6.412
 4771SOL    HW115212   3.582   4.978   6.429
 4771SOL    HW215213   3.546   5.093   6.318
 4772SOL     OW15214   2.648   0.003   1.199
 4772SOL    HW115215   2.743   7.002   1.215
 4772SOL    HW215216   2.604   6.961   1.138
 4773SOL     OW15217   0.316   5.640   3.982
 4773SOL    HW115218   0.289   5.573   4.052
 4773SOL    HW215219   0.237   5.697   3.958
 4774SOL     OW15220   0.635   2.891   2.448
 4774SOL    HW115221   0.549   2.923   2.408
 4774SOL    HW215222   0.630   2.792   2.462
 4775SOL     OW15223   4.774   0.216   2.596
 4775SOL    HW115224   4.843   0.211   2.524
 4775SOL    HW215225   4.806   0.277   2.669
 4776SOL     OW15226   2.341   6.055   2.549
 4776SOL    HW115227   2.393   6.086   2.469
 4776SOL    HW215228   2.352   6.122   2.623
 4777SOL     OW15229   2.784   4.511   0.937
 4777SOL    HW115230   2.753   4.442   1.003
 4777SOL    HW215231   2.708   4.572   0.916
 4778SOL     OW15232   5.142   3.580   1.918
 4778SOL    HW115233   5.202   3.599   1.840
 4778SOL    HW215234   5.098   3.491   1.905
 4779SOL     OW15235   6.645   0.203   2.884
 4779SOL    HW115236   6.701   0.229   2.805
 4779SOL    HW215237   6.571   0.143   2.854
 4780SOL     OW15238   0.828   0.634   6.114
 4780SOL    HW115239   0.799   0.647   6.019
 4780SOL    HW215240   0.924   0.662   6.123
 4781SOL     OW15241   1.999   5.868   1.228
 4781SOL    HW115242   1.923   5.804   1.237
 4781SOL    HW215243   2.063   5.856   1.304
 4782SOL     OW15244   5.558   0.323   0.050
 4782SOL    HW115245   5.630   0.377   0.093
 4782SOL    HW215246   5.529   0.368   6.991
 4783SOL     OW15247   4.610   4.594   0.652
 4783SOL    HW115248   4.584   4.562   0.743
 4783SOL    HW215249   4.694   4.649   0.659
 4784SOL     OW15250   6.339   4.759   5.598
 4784SOL    HW115251   6.335   4.679   5.539
 4784SOL    HW215252   6.434   4.778   5.623
 4785SOL     OW15253   6.767   6.677   1.012
 4785SOL    HW115254   6.668   6.676   1.030
 4785SOL    HW215255   6.782   6.686   0.913
 4786SOL     OW15256   1.992   2.779   2.153
 4786SOL    HW115257   2.036   2.823   2.074
 4786SOL    HW215258   1.897   2.760   2.131
 4787SOL     OW15259   2.955   2.245   3.443
 4787SOL    HW115260   2.930   2.150   3.461
 4787SOL    HW215261   3.034   2.249   3.383
 4788SOL     OW15262   1.231   5.586   5.820
 4788SOL    HW115263   1.271   5.496   5.841
 4788SOL    HW215264   1.260   5.615   5.729
 4789SOL     OW15265   5.204   0.419   0.105
 4789SOL    HW115266   5.185   0.340   0.163
 4789SOL    HW215267   5.242   0.388   0.018
 4790SOL     OW15268   5.432   2.588   6.596
 4790SOL    HW115269   5.440   2.594   6.497
 4790SOL    HW215270   5.434   2.492   6.624
 4791SOL     OW15271   5.845   0.253   2.236
 4791SOL    HW115272   5.901   0.238   2.318
 4791SOL    HW215273   5.762   0.197   2.241
 4792SOL     OW15274   2.122   3.332   2.618
 4792SOL    HW115275   2.214   3.311   2.650
 4792SOL    HW215276   2.112   3.307   2.522
 4793SOL     OW15277   1.341   0.263   5.781
 4793SOL    HW115278   1.338   0.362   5.797
 4793SOL    HW215279   1.281   0.218   5.847
 4794SOL     OW15280   3.746   6.918   2.531
 4794SOL    HW115281   3.660   6.901   2.482
 4794SOL    HW215282   3.736   6.890   2.627
 4795SOL     OW15283   6.516   2.918   4.825
 4795SOL    HW115284   6.576   2.847   4.862
 4795SOL    HW215285   6.453   2.950   4.896
 4796SOL     OW15286   4.852   2.724   0.251
 4796SOL    HW115287   4.859   2.794   0.322
 4796SOL    HW215288   4.839   2.768   0.163
 4797SOL     OW15289   1.212   5.195   6.049
 4797SOL    HW115290   1.169   5.110   6.021
 4797SOL    HW215291   1.165   5.232   6.129
 4798SOL     OW15292   0.038   4.634   5.024
 4798SOL    HW115293   0.063   4.730   5.033
 4798SOL    HW215294   0.120   4.578   5.016
 4799SOL     OW15295   5.407   1.474   4.964
 4799SOL    HW115296   5.327   1.487   4.905
 4799SOL    HW215297   5.490   1.483   4.910
 4800SOL     OW15298   3.018   2.905   6.211
 4800SOL    HW115299   2.943   2.878   6.150
 4800SOL    HW215300   3.007   2.860   6.300
 4801SOL     OW15301   1.947   1.917   0.184
 4801SOL    HW115302   1.925   1.965   0.269
 4801SOL    HW215303   1.878   1.938   0.115
 4802SOL     OW15304   1.967   6.427   2.072
 4802SOL    HW115305   1.904   6.357   2.107
 4802SOL    HW215306   2.038   6.445   2.139
 4803SOL     OW15307   0.721   6.933   1.009
 4803SOL    HW115308   0.762   6.902   1.095
 4803SOL    HW215309   0.693   0.003   1.019
 4804SOL     OW15310   4.350   5.555   6.903
 4804SOL    HW115311   4.378   5.628   6.966
 4804SOL    HW215312   4.274   5.504   6.943
 4805SOL     OW15313   6.897   0.478   0.579
 4805SOL    HW115314   6.912   0.391   0.627
 4805SOL    HW215315   6.977   0.500   0.523
 4806SOL     OW15316   6.935   3.953   3.016
 4806SOL    HW115317   6.977   3.873   3.060
 4806SOL    HW215318   6.900   4.015   3.086
 4807SOL     OW15319   0.836   5.832   1.721
 4807SOL    HW115320   0.902   5.758   1.707
 4807SOL    HW215321   0.745   5.800   1.693
 4808SOL     OW15322   5.397   3.379   0.667
 4808SOL    HW115323   5.334   3.454   0.689
 4808SOL    HW215324   5.348   3.292   0.670
 4809SOL     OW15325   3.313   4.682   6.975
 4809SOL    HW115326   3.340   4.744   6.901
 4809SOL    HW215327   3.246   4.728   0.009
 4810SOL     OW15328   0.810   5.259   1.377
 4810SOL    HW115329   0.838   5.274   1.283
 4810SOL    HW215330   0.815   5.345   1.428
 4811SOL     OW15331   3.041   5.047   2.029
 4811SOL    HW115332   3.126   5.083   2.067
 4811SOL    HW215333   3.031   4.951   2.054
 4812SOL     OW15334   6.974   5.143   4.200
 4812SOL    HW115335   0.019   5.099   4.256
 4812SOL    HW215336   6.929   5.215   4.253
 4813SOL     OW15337   5.042   1.465   2.508
 4813SOL    HW115338   5.007   1.542   2.562
 4813SOL    HW215339   5.140   1.454   2.525
 4814SOL     OW15340   6.424   4.404   0.760
 4814SOL    HW115341   6.378   4.372   0.677
 4814SOL    HW215342   6.369   4.475   0.803
 4815SOL     OW15343   5.132   5.233   2.477
 4815SOL    HW115344   5.172   5.214   2.387
 4815SOL    HW215345   5.179   5.312   2.517
 4816SOL     OW15346   5.292   5.195   2.925
 4816SOL    HW115347   5.305   5.203   2.826
 4816SOL    HW215348   5.352   5.123   2.961
 4817SOL     OW15349   0.819   1.957   5.472
 4817SOL    HW115350   0.864   2.045   5.486
 4817SOL    HW215351   0.769   1.931   5.554
 4818SOL     OW15352   0.331   6.853   3.648
 4818SOL    HW115353   0.354   6.784   3.717
 4818SOL    HW215354   0.395   6.846   3.572
 4819SOL     OW15355   1.433   3.380   0.305
 4819SOL    HW115356   1.425   3.455   0.239
 4819SOL    HW215357   1.428   3.292   0.257
 4820SOL     OW15358   6.926   3.109   1.725
 4820SOL    HW115359   7.015   3.110   1.679
 4820SOL    HW215360   6.889   3.202   1.727
 4821SOL     OW15361   0.380   6.170   1.883
 4821SOL    HW115362   0.287   6.140   1.907
 4821SOL    HW215363   0.440   6.090   1.877
 4822SOL     OW15364   1.016   4.117   4.561
 4822SOL    HW115365   0.955   4.197   4.559
 4822SOL    HW215366   1.089   4.130   4.493
 4823SOL     OW15367   1.082   2.654   2.393
 4823SOL    HW115368   1.085   2.690   2.487
 4823SOL    HW215369   1.160   2.691   2.341
 4824SOL     OW15370   5.121   0.895   5.230
 4824SOL    HW115371   5.139   0.797   5.223
 4824SOL    HW215372   5.023   0.912   5.222
 4825SOL     OW15373   1.299   0.598   4.366
 4825SOL    HW115374   1.266   0.579   4.459
 4825SOL    HW215375   1.393   0.630   4.370
 4826SOL     OW15376   4.678   0.148   1.639
 4826SOL    HW115377   4.671   0.151   1.739
 4826SOL    HW215378   4.708   0.236   1.604
 4827SOL     OW15379   6.719   1.768   0.138
 4827SOL    HW115380   6.728   1.796   0.233
 4827SOL    HW215381   6.666   1.837   0.088
 4828SOL     OW15382   4.671   6.985   2.627
 4828SOL    HW115383   4.669   6.987   2.727
 4828SOL    HW215384   4.740   0.024   2.594
 4829SOL     OW15385   4.336   6.866   5.882
 4829SOL    HW115386   4.254   6.834   5.930
 4829SOL    HW215387   4.314   6.946   5.827
 4830SOL     OW15388   3.994   5.824   3.788
 4830SOL    HW115389   4.007   5.725   3.788
 4830SOL    HW215390   4.066   5.867   3.734
 4831SOL     OW15391   3.527   5.511   5.844
 4831SOL    HW115392   3.460   5.549   5.780
 4831SOL    HW215393   3.483   5.440   5.900
 4832SOL     OW15394   2.912   3.403   4.727
 4832SOL    HW115395   2.892   3.310   4.758
 4832SOL    HW215396   2.872   3.469   4.790
 4833SOL     OW15397   5.858   2.565   4.456
 4833SOL    HW115398   5.797   2.507   4.508
 4833SOL    HW215399   5.841   2.553   4.358
 4834SOL     OW15400   2.446   5.315   2.595
 4834SOL    HW115401   2.472   5.335   2.690
 4834SOL    HW215402   2.488   5.229   2.566
 4835SOL     OW15403   0.014   3.715   5.919
 4835SOL    HW115404   0.027   3.788   5.986
 4835SOL    HW215405   7.011   3.632   5.967
 4836SOL     OW15406   4.936   0.603   5.481
 4836SOL    HW115407   4.868   0.644   5.420
 4836SOL    HW215408   5.024   0.650   5.470
 4837SOL     OW15409   6.862   2.958   3.834
 4837SOL    HW115410   6.765   2.956   3.860
 4837SOL    HW215411   6.877   3.028   3.765
 4838SOL     OW15412   1.297   4.351   6.430
 4838SOL    HW115413   1.380   4.320   6.476
 4838SOL    HW215414   1.253   4.421   6.485
 4839SOL     OW15415   2.086   2.329   0.271
 4839SOL    HW115416   2.060   2.381   0.352
 4839SOL    HW215417   2.138   2.248   0.298
 4840SOL     OW15418   5.052   3.899   5.162
 4840SOL    HW115419   4.992   3.912   5.240
 4840SOL    HW215420   5.141   3.865   5.193
 4841SOL     OW15421   2.939   5.199   3.658
 4841SOL    HW115422   2.859   5.245   3.619
 4841SOL    HW215423   2.935   5.205   3.758
 4842SOL     OW15424   2.427   5.136   2.980
 4842SOL    HW115425   2.470   5.215   2.935
 4842SOL    HW215426   2.497   5.067   2.999
 4843SOL     OW15427   0.307   2.943   2.081
 4843SOL    HW115428   0.250   3.002   2.138
 4843SOL    HW215429   0.294   2.968   1.985
 4844SOL     OW15430   1.245   5.164   5.308
 4844SOL    HW115431   1.248   5.110   5.224
 4844SOL    HW215432   1.327   5.222   5.314
 4845SOL     OW15433   4.495   4.301   5.271
 4845SOL    HW115434   4.419   4.352   5.229
 4845SOL    HW215435   4.581   4.348   5.252
 4846SOL     OW15436   0.458   2.673   4.366
 4846SOL    HW115437   0.369   2.679   4.411
 4846SOL    HW215438   0.463   2.589   4.312
 4847SOL     OW15439   2.696   6.545   5.750
 4847SOL    HW115440   2.696   6.611   5.675
 4847SOL    HW215441   2.654   6.587   5.831
 4848SOL     OW15442   2.479   1.376   3.846
 4848SOL    HW115443   2.577   1.355   3.851
 4848SOL    HW215444   2.432   1.330   3.922
 4849SOL     OW15445   2.169   0.668   0.269
 4849SOL    HW115446   2.230   0.593   0.295
 4849SOL    HW215447   2.149   0.725   0.349
 4850SOL     OW15448   4.809   0.917   1.135
 4850SOL    HW115449   4.756   0.834   1.151
 4850SOL    HW215450   4.878   0.900   1.065
 4851SOL     OW15451   3.256   6.588   0.026
 4851SOL    HW115452   3.208   6.523   6.992
 4851SOL    HW215453   3.339   6.546   0.062
 4852SOL     OW15454   3.976   5.575   4.989
 4852SOL    HW115455   3.985   5.672   5.015
 4852SOL    HW215456   4.017   5.518   5.060
 4853SOL     OW15457   3.586   0.521   3.385
 4853SOL    HW115458   3.660   0.569   3.432
 4853SOL    HW215459   3.510   0.583   3.370
 4854SOL     OW15460   6.007   5.828   1.631
 4854SOL    HW115461   6.071   5.757   1.661
 4854SOL    HW215462   5.938   5.787   1.570
 4855SOL     OW15463   6.353   4.808   5.116
 4855SOL    HW115464   6.312   4.839   5.030
 4855SOL    HW215465   6.316   4.718   5.140
 4856SOL     OW15466   0.551   3.989   2.515
 4856SOL    HW115467   0.604   4.074   2.518
 4856SOL    HW215468   0.585   3.933   2.440
 4857SOL     OW15469   2.923   2.127   4.228
 4857SOL    HW115470   2.986   2.177   4.286
 4857SOL    HW215471   2.830   2.162   4.241
 4858SOL     OW15472   0.634   0.025   4.799
 4858SOL    HW115473   0.598   0.061   4.885
 4858SOL    HW215474   0.724   0.065   4.782
 4859SOL     OW15475   0.748   5.863   2.024
 4859SOL    HW115476   0.789   5.847   2.115
 4859SOL    HW215477   0.819   5.854   1.954
 4860SOL     OW15478   4.970   5.416   0.566
 4860SOL    HW115479   4.986   5.343   0.500
 4860SOL    HW215480   5.051   5.475   0.571
 4861SOL     OW15481   6.676   4.834   5.983
 4861SOL    HW115482   6.599   4.898   5.986
 4861SOL    HW215483   6.762   4.885   5.982
 4862SOL     OW15484   2.627   4.947   4.979
 4862SOL    HW115485   2.639   4.885   4.902
 4862SOL    HW215486   2.658   4.903   5.063
 4863SOL     OW15487   4.667   2.651   2.821
 4863SOL    HW115488   4.600   2.665   2.749
 4863SOL    HW215489   4.759   2.647   2.781
 4864SOL     OW15490   3.298   1.035   1.823
 4864SOL    HW115491   3.206   1.011   1.793
 4864SOL    HW215492   3.315   1.132   1.805
 4865SOL     OW15493   3.967   5.215   5.603
 4865SOL    HW115494   3.902   5.240   5.532
 4865SOL    HW215495   3.930   5.241   5.692
 4866SOL     OW15496   5.897   4.651   1.866
 4866SOL    HW115497   5.877   4.612   1.776
 4866SOL    HW215498   5.988   4.692   1.864
 4867SOL     OW15499   4.877   5.362   2.577
 4867SOL    HW115500   4.924   5.414   2.649
 4867SOL    HW215501   4.943   5.304   2.530
 4868SOL     OW15502   0.105   5.797   1.180
 4868SOL    HW115503   0.203   5.781   1.174
 4868SOL    HW215504   0.060   5.763   1.097
 4869SOL     OW15505   7.015   1.645   6.979
 4869SOL    HW115506   0.085   1.626   6.998
 4869SOL    HW215507   6.961   1.631   0.037
 4870SOL     OW15508   4.598   6.445   1.639
 4870SOL    HW115509   4.655   6.518   1.676
 4870SOL    HW215510   4.554   6.396   1.713
 4871SOL     OW15511   1.139   2.171   3.680
 4871SOL    HW115512   1.182   2.255   3.646
 4871SOL    HW215513   1.139   2.102   3.608
 4872SOL     OW15514   1.205   0.096   2.733
 4872SOL    HW115515   1.140   0.084   2.657
 4872SOL    HW215516   1.176   0.039   2.810
 4873SOL     OW15517   0.184   5.820   4.609
 4873SOL    HW115518   0.170   5.874   4.526
 4873SOL    HW215519   0.279   5.789   4.613
 4874SOL     OW15520   5.470   3.587   3.207
 4874SOL    HW115521   5.424   3.523   3.146
 4874SOL    HW215522   5.489   3.672   3.159
 4875SOL     OW15523   5.383   1.430   1.062
 4875SOL    HW115524   5.310   1.493   1.086
 4875SOL    HW215525   5.453   1.477   1.008
 4876SOL     OW15526   6.522   1.076   6.641
 4876SOL    HW115527   6.471   1.018   6.705
 4876SOL    HW215528   6.482   1.168   6.642
 4877SOL     OW15529   6.279   1.277   1.155
 4877SOL    HW115530   6.292   1.197   1.213
 4877SOL    HW215531   6.367   1.307   1.120
 4878SOL     OW15532   0.098   1.575   1.402
 4878SOL    HW115533   0.007   1.585   1.443
 4878SOL    HW215534   0.137   1.665   1.385
 4879SOL     OW15535   3.941   4.832   3.589
 4879SOL    HW115536   3.845   4.860   3.586
 4879SOL    HW215537   3.999   4.912   3.604
 4880SOL     OW15538   5.913   1.357   0.166
 4880SOL    HW115539   5.992   1.324   0.217
 4880SOL    HW215540   5.865   1.426   0.220
 4881SOL     OW15541   3.412   6.649   6.103
 4881SOL    HW115542   3.381   6.554   6.098
 4881SOL    HW215543   3.429   6.683   6.010
 4882SOL     OW15544   5.930   1.119   5.279
 4882SOL    HW115545   5.945   1.196   5.341
 4882SOL    HW215546   5.940   1.151   5.184
 4883SOL     OW15547   6.398   4.709   1.897
 4883SOL    HW115548   6.490   4.747   1.909
 4883SOL    HW215549   6.383   4.636   1.964
 4884SOL     OW15550   3.587   6.306   1.850
 4884SOL    HW115551   3.524   6.378   1.822
 4884SOL    HW215552   3.625   6.261   1.769
 4885SOL     OW15553   1.918   6.992   1.266
 4885SOL    HW115554   1.851   0.002   1.332
 4885SOL    HW215555   1.996   0.028   1.261
 4886SOL     OW15556   6.020   0.450   0.370
 4886SOL    HW115557   5.987   0.410   0.456
 4886SOL    HW215558   6.009   0.384   0.296
 4887SOL     OW15559   0.006   2.106   3.955
 4887SOL    HW115560   0.001   2.203   3.935
 4887SOL    HW215561   6.957   2.058   3.909
 4888SOL     OW15562   1.711   6.200   2.693
 4888SOL    HW115563   1.613   6.216   2.705
 4888SOL    HW215564   1.740   6.235   2.604
 4889SOL     OW15565   1.163   1.856   6.848
 4889SOL    HW115566   1.141   1.891   6.939
 4889SOL    HW215567   1.262   1.846   6.839
 4890SOL     OW15568   0.799   0.588   4.373
 4890SOL    HW115569   0.873   0.575   4.308
 4890SOL    HW215570   0.836   0.631   4.456
 4891SOL     OW15571   0.878   5.007   0.834
 4891SOL    HW115572   0.818   5.080   0.866
 4891SOL    HW215573   0.851   4.980   0.741
 4892SOL     OW15574   1.152   5.561   1.507
 4892SOL    HW115575   1.088   5.593   1.438
 4892SOL    HW215576   1.237   5.532   1.463
 4893SOL     OW15577   0.344   4.137   6.459
 4893SOL    HW115578   0.379   4.229   6.438
 4893SOL    HW215579   0.365   4.115   6.554
 4894SOL     OW15580   1.893   0.671   3.143
 4894SOL    HW115581   1.845   0.759   3.133
 4894SOL    HW215582   1.905   0.629   3.053
 4895SOL     OW15583   0.786   2.945   0.265
 4895SOL    HW115584   0.728   2.963   0.186
 4895SOL    HW215585   0.875   2.990   0.252
 4896SOL     OW15586   3.598   5.054   4.883
 4896SOL    HW115587   3.661   5.058   4.806
 4896SOL    HW215588   3.510   5.093   4.857
 4897SOL     OW15589   3.286   5.568   0.511
 4897SOL    HW115590   3.299   5.596   0.416
 4897SOL    HW215591   3.301   5.647   0.571
 4898SOL     OW15592   5.498   1.380   5.559
 4898SOL    HW115593   5.447   1.354   5.477
 4898SOL    HW215594   5.438   1.371   5.639
 4899SOL     OW15595   6.334   4.455   3.480
 4899SOL    HW115596   6.430   4.454   3.509
 4899SOL    HW215597   6.279   4.503   3.548
 4900SOL     OW15598   0.402   6.377   6.102
 4900SOL    HW115599   0.482   6.428   6.133
 4900SOL    HW215600   0.342   6.437   6.050
 4901SOL     OW15601   0.996   6.185   3.840
 4901SOL    HW115602   0.966   6.127   3.764
 4901SOL    HW215603   0.925   6.186   3.910
 4902SOL     OW15604   2.800   5.014   1.544
 4902SOL    HW115605   2.708   5.040   1.515
 4902SOL    HW215606   2.799   4.989   1.641
 4903SOL     OW15607   4.776   7.002   6.792
 4903SOL    HW115608   4.812   0.015   6.707
 4903SOL    HW215609   4.694   0.028   6.820
 4904SOL     OW15610   2.020   6.226   4.405
 4904SOL    HW115611   2.070   6.295   4.459
 4904SOL    HW215612   2.051   6.135   4.431
 4905SOL     OW15613   4.864   3.117   1.762
 4905SOL    HW115614   4.834   3.044   1.823
 4905SOL    HW215615   4.785   3.151   1.710
 4906SOL     OW15616   4.820   0.109   0.677
 4906SOL    HW115617   4.852   0.194   0.718
 4906SOL    HW215618   4.862   0.097   0.587
 4907SOL     OW15619   3.848   0.308   3.524
 4907SOL    HW115620   3.791   0.236   3.483
 4907SOL    HW215621   3.833   0.310   3.623
 4908SOL     OW15622   3.393   6.542   6.563
 4908SOL    HW115623   3.471   6.564   6.503
 4908SOL    HW215624   3.324   6.614   6.554
 4909SOL     OW15625   6.469   6.006   5.188
 4909SOL    HW115626   6.438   6.102   5.195
 4909SOL    HW215627   6.493   5.973   5.279
 4910SOL     OW15628   4.980   0.480   5.148
 4910SOL    HW115629   4.938   0.401   5.194
 4910SOL    HW215630   5.049   0.521   5.207
 4911SOL     OW15631   0.221   2.564   5.673
 4911SOL    HW115632   0.316   2.535   5.685
 4911SOL    HW215633   0.218   2.649   5.620
 4912SOL     OW15634   3.700   1.865   2.347
 4912SOL    HW115635   3.620   1.887   2.291
 4912SOL    HW215636   3.775   1.835   2.288
 4913SOL     OW15637   3.510   3.796   3.255
 4913SOL    HW115638   3.453   3.729   3.208
 4913SOL    HW215639   3.600   3.756   3.274
 4914SOL     OW15640   2.060   6.977   3.502
 4914SOL    HW115641   2.041   6.977   3.404
 4914SOL    HW215642   2.032   0.038   3.542
 4915SOL     OW15643   4.075   6.442   3.930
 4915SOL    HW115644   4.013   6.443   4.009
 4915SOL    HW215645   4.049   6.514   3.866
 4916SOL     OW15646   2.696   1.990   3.038
 4916SOL    HW115647   2.776   2.047   3.056
 4916SOL    HW215648   2.618   2.048   3.015
 4917SOL     OW15649   1.934   4.508   0.985
 4917SOL    HW115650   2.016   4.486   1.037
 4917SOL    HW215651   1.866   4.550   1.045
 4918SOL     OW15652   2.417   0.380   2.042
 4918SOL    HW115653   2.474   0.334   2.110
 4918SOL    HW215654   2.384   0.467   2.079
 4919SOL     OW15655   1.869   2.796   2.471
 4919SOL    HW115656   1.887   2.879   2.418
 4919SOL    HW215657   1.776   2.799   2.508
 4920SOL     OW15658   4.059   0.906   0.899
 4920SOL    HW115659   3.986   0.960   0.942
 4920SOL    HW215660   4.147   0.946   0.921
 4921SOL     OW15661   2.097   4.002   1.605
 4921SOL    HW115662   2.194   4.025   1.597
 4921SOL    HW215663   2.070   4.003   1.701
 4922SOL     OW15664   1.456   3.276   5.369
 4922SOL    HW115665   1.505   3.191   5.388
 4922SOL    HW215666   1.358   3.257   5.362
 4923SOL     OW15667   4.975   0.659   1.622
 4923SOL    HW115668   4.943   0.753   1.611
 4923SOL    HW215669   4.970   0.633   1.719
 4924SOL     OW15670   0.867   3.916   4.388
 4924SOL    HW115671   0.920   3.952   4.465
 4924SOL    HW215672   0.885   3.818   4.379
 4925SOL     OW15673   5.158   6.309   0.681
 4925SOL    HW115674   5.089   6.239   0.696
 4925SOL    HW215675   5.148   6.381   0.750
 4926SOL     OW15676   4.661   2.594   2.221
 4926SOL    HW115677   4.598   2.531   2.174
 4926SOL    HW215678   4.752   2.553   2.224
 4927SOL     OW15679   3.211   2.995   3.026
 4927SOL    HW115680   3.152   3.062   2.980
 4927SOL    HW215681   3.202   3.006   3.125
 4928SOL     OW15682   0.482   6.582   0.197
 4928SOL    HW115683   0.385   6.602   0.183
 4928SOL    HW215684   0.499   6.486   0.176
 4929SOL     OW15685   0.959   5.073   4.420
 4929SOL    HW115686   0.894   5.058   4.495
 4929SOL    HW215687   1.006   4.988   4.398
 4930SOL     OW15688   0.212   2.336   0.338
 4930SOL    HW115689   0.182   2.324   0.244
 4930SOL    HW215690   0.166   2.268   0.396
 4931SOL     OW15691   0.471   0.284   0.576
 4931SOL    HW115692   0.557   0.270   0.625
 4931SOL    HW215693   0.469   0.377   0.539
 4932SOL     OW15694   2.541   1.968   1.371
 4932SOL    HW115695   2.497   1.968   1.461
 4932SOL    HW215696   2.479   2.007   1.303
 4933SOL     OW15697   2.616   1.013   3.920
 4933SOL    HW115698   2.666   0.936   3.960
 4933SOL    HW215699   2.678   1.090   3.909
 4934SOL     OW15700   0.626   5.926   4.200
 4934SOL    HW115701   0.688   5.859   4.158
 4934SOL    HW215702   0.602   5.996   4.132
 4935SOL     OW15703   2.083   1.627   6.745
 4935SOL    HW115704   2.158   1.664   6.800
 4935SOL    HW215705   2.032   1.701   6.702
 4936SOL     OW15706   3.726   6.018   1.434
 4936SOL    HW115707   3.630   6.018   1.407
 4936SOL    HW215708   3.737   5.968   1.520
 4937SOL     OW15709   0.765   2.929   5.935
 4937SOL    HW115710   0.681   2.926   5.881
 4937SOL    HW215711   0.819   2.847   5.916
 4938SOL     OW15712   3.463   4.568   1.395
 4938SOL    HW115713   3.459   4.644   1.459
 4938SOL    HW215714   3.451   4.481   1.444
 4939SOL     OW15715   1.200   1.939   1.558
 4939SOL    HW115716   1.123   1.994   1.593
 4939SOL    HW215717   1.244   1.892   1.634
 4940SOL     OW15718   6.983   2.741   3.862
 4940SOL    HW115719   6.936   2.829   3.853
 4940SOL    HW215720   0.048   2.756   3.902
 4941SOL     OW15721   4.223   2.323   5.450
 4941SOL    HW115722   4.269   2.335   5.538
 4941SOL    HW215723   4.208   2.412   5.407
 4942SOL     OW15724   5.384   2.791   3.514
 4942SOL    HW115725   5.440   2.748   3.585
 4942SOL    HW215726   5.352   2.721   3.451
 4943SOL     OW15727   5.180   2.954   6.527
 4943SOL    HW115728   5.212   2.931   6.619
 4943SOL    HW215729   5.089   2.914   6.512
 4944SOL     OW15730   1.502   5.064   1.495
 4944SOL    HW115731   1.477   4.970   1.519
 4944SOL    HW215732   1.573   5.062   1.425
 4945SOL     OW15733   1.977   0.454   5.203
 4945SOL    HW115734   1.949   0.359   5.190
 4945SOL    HW215735   1.919   0.498   5.271
 4946SOL     OW15736   1.476   4.880   0.479
 4946SOL    HW115737   1.483   4.826   0.563
 4946SOL    HW215738   1.524   4.967   0.490
 4947SOL     OW15739   2.081   0.915   1.592
 4947SOL    HW115740   2.169   0.929   1.545
 4947SOL    HW215741   2.096   0.858   1.673
 4948SOL     OW15742   1.489   2.305   1.215
 4948SOL    HW115743   1.402   2.266   1.244
 4948SOL    HW215744   1.479   2.342   1.123
 4949SOL     OW15745   6.420   2.986   5.897
 4949SOL    HW115746   6.445   3.081   5.914
 4949SOL    HW215747   6.503   2.931   5.887
 4950SOL     OW15748   2.602   4.628   5.431
 4950SOL    HW115749   2.542   4.557   5.392
 4950SOL    HW215750   2.697   4.600   5.422
 4951SOL     OW15751   5.280   5.755   3.703
 4951SOL    HW115752   5.345   5.831   3.696
 4951SOL    HW215753   5.324   5.671   3.670
 4952SOL     OW15754   0.412   0.431   5.955
 4952SOL    HW115755   0.348   0.357   5.935
 4952SOL    HW215756   0.479   0.399   6.023
 4953SOL     OW15757   1.433   1.920   5.026
 4953SOL    HW115758   1.507   1.869   5.071
 4953SOL    HW215759   1.356   1.930   5.090
 4954SOL     OW15760   3.087   4.077   5.119
 4954SOL    HW115761   3.056   4.152   5.178
 4954SOL    HW215762   3.125   4.115   5.035
 4955SOL     OW15763   3.053   5.848   0.168
 4955SOL    HW115764   3.071   5.756   0.201
 4955SOL    HW215765   3.012   5.844   0.077
 4956SOL     OW15766   2.236   0.099   5.139
 4956SOL    HW115767   2.240   0.091   5.039
 4956SOL    HW215768   2.225   0.196   5.164
 4957SOL     OW15769   6.480   4.130   6.759
 4957SOL    HW115770   6.562   4.151   6.705
 4957SOL    HW215771   6.507   4.088   6.845
 4958SOL     OW15772   2.365   0.327   6.394
 4958SOL    HW115773   2.398   0.350   6.302
 4958SOL    HW215774   2.396   0.397   6.459
 4959SOL     OW15775   6.907   2.838   1.845
 4959SOL    HW115776   6.887   2.841   1.942
 4959SOL    HW215777   6.896   2.929   1.806
 4960SOL     OW15778   4.081   4.867   3.887
 4960SOL    HW115779   4.128   4.797   3.941
 4960SOL    HW215780   4.082   4.840   3.790
 4961SOL     OW15781   3.268   0.706   6.847
 4961SOL    HW115782   3.189   0.744   6.894
 4961SOL    HW215783   3.237   0.645   6.774
 4962SOL     OW15784   6.934   3.874   1.080
 4962SOL    HW115785   7.015   3.921   1.043
 4962SOL    HW215786   6.887   3.934   1.145
 4963SOL     OW15787   0.407   4.128   0.157
 4963SOL    HW115788   0.411   4.217   0.110
 4963SOL    HW215789   0.498   4.087   0.158
 4964SOL     OW15790   2.660   6.735   4.797
 4964SOL    HW115791   2.729   6.754   4.727
 4964SOL    HW215792   2.615   6.649   4.776
 4965SOL     OW15793   1.219   6.492   2.729
 4965SOL    HW115794   1.198   6.448   2.816
 4965SOL    HW215795   1.184   6.586   2.730
 4966SOL     OW15796   3.323   6.420   4.329
 4966SOL    HW115797   3.377   6.366   4.393
 4966SOL    HW215798   3.232   6.381   4.321
 4967SOL     OW15799   3.830   4.684   5.455
 4967SOL    HW115800   3.844   4.618   5.381
 4967SOL    HW215801   3.798   4.636   5.537
 4968SOL     OW15802   0.498   1.501   3.878
 4968SOL    HW115803   0.589   1.531   3.849
 4968SOL    HW215804   0.448   1.466   3.799
 4969SOL     OW15805   0.567   6.392   2.331
 4969SOL    HW115806   0.519   6.313   2.369
 4969SOL    HW215807   0.635   6.424   2.397
 4970SOL     OW15808   1.573   1.124   1.567
 4970SOL    HW115809   1.483   1.079   1.574
 4970SOL    HW215810   1.581   1.192   1.639
 4971SOL     OW15811   6.815   6.039   2.894
 4971SOL    HW115812   6.762   6.027   2.978
 4971SOL    HW215813   6.910   6.059   2.918
 4972SOL     OW15814   1.593   4.140   1.381
 4972SOL    HW115815   1.621   4.147   1.285
 4972SOL    HW215816   1.667   4.097   1.434
 4973SOL     OW15817   0.526   0.970   0.816
 4973SOL    HW115818   0.483   0.994   0.903
 4973SOL    HW215819   0.471   0.900   0.770
 4974SOL     OW15820   3.797   4.396   6.209
 4974SOL    HW115821   3.743   4.430   6.132
 4974SOL    HW215822   3.754   4.314   6.246
 4975SOL     OW15823   5.840   3.533   0.153
 4975SOL    HW115824   5.903   3.495   0.220
 4975SOL    HW215825   5.783   3.459   0.116
 4976SOL     OW15826   1.038   6.906   4.323
 4976SOL    HW115827   0.967   6.972   4.298
 4976SOL    HW215828   0.998   6.832   4.376
 4977SOL     OW15829   2.935   5.488   6.242
 4977SOL    HW115830   2.836   5.500   6.252
 4977SOL    HW215831   2.964   5.527   6.154
 4978SOL     OW15832   5.152   4.511   5.214
 4978SOL    HW115833   5.120   4.421   5.243
 4978SOL    HW215834   5.086   4.552   5.151
 4979SOL     OW15835   1.623   0.053   6.749
 4979SOL    HW115836   1.654   0.004   6.668
 4979SOL    HW215837   1.569   7.017   6.807
 4980SOL     OW15838   6.126   3.810   3.081
 4980SOL    HW115839   6.223   3.825   3.067
 4980SOL    HW215840   6.088   3.757   3.005
 4981SOL     OW15841   3.460   4.958   1.888
 4981SOL    HW115842   3.367   4.921   1.880
 4981SOL    HW215843   3.524   4.882   1.901
 4982SOL     OW15844   4.899   1.382   6.805
 4982SOL    HW115845   4.945   1.396   6.717
 4982SOL    HW215846   4.804   1.355   6.789
 4983SOL     OW15847   6.573   4.943   3.939
 4983SOL    HW115848   6.643   4.997   3.893
 4983SOL    HW215849   6.564   4.974   4.034
 4984SOL     OW15850   5.134   4.603   2.774
 4984SOL    HW115851   5.108   4.570   2.684
 4984SOL    HW215852   5.097   4.541   2.844
 4985SOL     OW15853   5.883   5.995   2.776
 4985SOL    HW115854   5.852   5.998   2.681
 4985SOL    HW215855   5.982   6.008   2.780
 4986SOL     OW15856   0.701   4.651   1.808
 4986SOL    HW115857   0.709   4.661   1.907
 4986SOL    HW215858   0.748   4.727   1.763
 4987SOL     OW15859   0.842   0.232   2.391
 4987SOL    HW115860   0.875   0.324   2.367
 4987SOL    HW215861   0.789   0.237   2.476
 4988SOL     OW15862   5.878   0.247   3.466
 4988SOL    HW115863   5.969   0.244   3.509
 4988SOL    HW215864   5.888   0.279   3.372
 4989SOL     OW15865   5.335   0.636   2.288
 4989SOL    HW115866   5.274   0.710   2.259
 4989SOL    HW215867   5.399   0.616   2.214
 4990SOL     OW15868   4.514   1.562   6.519
 4990SOL    HW115869   4.520   1.607   6.608
 4990SOL    HW215870   4.460   1.618   6.456
 4991SOL     OW15871   1.060   5.969   5.028
 4991SOL    HW115872   0.992   6.037   5.002
 4991SOL    HW215873   1.068   5.900   4.955
 4992SOL     OW15874   0.097   0.560   3.406
 4992SOL    HW115875   0.041   0.619   3.348
 4992SOL    HW215876   0.062   0.562   3.500
 4993SOL     OW15877   4.600   6.046   5.617
 4993SOL    HW115878   4.593   6.053   5.518
 4993SOL    HW215879   4.581   6.136   5.658
 4994SOL     OW15880   2.897   5.132   5.794
 4994SOL    HW115881   2.862   5.094   5.709
 4994SOL    HW215882   2.847   5.094   5.871
 4995SOL     OW15883   0.376   0.838   4.386
 4995SOL    HW115884   0.322   0.853   4.469
 4995SOL    HW215885   0.419   0.748   4.389
 4996SOL     OW15886   0.283   1.636   4.276
 4996SOL    HW115887   0.256   1.714   4.331
 4996SOL    HW215888   0.317   1.667   4.187
 4997SOL     OW15889   3.482   2.207   1.415
 4997SOL    HW115890   3.549   2.165   1.476
 4997SOL    HW215891   3.405   2.145   1.400
 4998SOL     OW15892   1.087   3.168   3.420
 4998SOL    HW115893   1.171   3.207   3.382
 4998SOL    HW215894   1.040   3.237   3.474
 4999SOL     OW15895   1.286   3.631   4.662
 4999SOL    HW115896   1.256   3.587   4.747
 4999SOL    HW215897   1.233   3.715   4.648
 5000SOL     OW15898   3.065   5.884   3.162
 5000SOL    HW115899   3.065   5.796   3.209
 5000SOL    HW215900   2.997   5.944   3.204
 5001SOL     OW15901   0.895   5.111   2.846
 5001SOL    HW115902   0.970   5.177   2.848
 5001SOL    HW215903   0.845   5.114   2.933
 5002SOL     OW15904   0.482   4.494   2.586
 5002SOL    HW115905   0.467   4.458   2.494
 5002SOL    HW215906   0.419   4.569   2.603
 5003SOL     OW15907   4.251   6.178   3.187
 5003SOL    HW115908   4.163   6.219   3.161
 5003SOL    HW215909   4.314   6.249   3.217
 5004SOL     OW15910   3.495   6.308   6.304
 5004SOL    HW115911   3.412   6.253   6.300
 5004SOL    HW215912   3.491   6.380   6.234
 5005SOL     OW15913   2.945   3.235   6.475
 5005SOL    HW115914   2.882   3.213   6.400
 5005SOL    HW215915   2.999   3.315   6.451
 5006SOL     OW15916   5.474   1.405   1.906
 5006SOL    HW115917   5.434   1.394   1.997
 5006SOL    HW215918   5.490   1.503   1.889
 5007SOL     OW15919   6.369   0.669   0.999
 5007SOL    HW115920   6.390   0.745   0.938
 5007SOL    HW215921   6.273   0.675   1.028
 5008SOL     OW15922   6.439   6.620   1.650
 5008SOL    HW115923   6.501   6.688   1.690
 5008SOL    HW215924   6.464   6.529   1.684
 5009SOL     OW15925   0.896   2.721   0.637
 5009SOL    HW115926   0.832   2.754   0.569
 5009SOL    HW215927   0.984   2.767   0.625
 5010SOL     OW15928   3.555   2.575   0.091
 5010SOL    HW115929   3.512   2.560   0.001
 5010SOL    HW215930   3.497   2.535   0.162
 5011SOL     OW15931   1.753   3.679   7.004
 5011SOL    HW115932   1.782   3.735   0.057
 5011SOL    HW215933   1.674   3.721   6.960
 5012SOL     OW15934   5.507   2.351   5.929
 5012SOL    HW115935   5.588   2.399   5.963
 5012SOL    HW215936   5.532   2.257   5.905
 5013SOL     OW15937   6.283   0.582   5.464
 5013SOL    HW115938   6.276   0.483   5.475
 5013SOL    HW215939   6.372   0.605   5.426
 5014SOL     OW15940   6.754   4.276   0.606
 5014SOL    HW115941   6.757   4.366   0.650
 5014SOL    HW215942   6.793   4.207   0.667
 5015SOL     OW15943   5.688   0.603   4.639
 5015SOL    HW115944   5.591   0.610   4.661
 5015SOL    HW215945   5.719   0.687   4.595
 5016SOL     OW15946   1.420   3.344   5.011
 5016SOL    HW115947   1.486   3.326   4.938
 5016SOL    HW215948   1.467   3.346   5.099
 5017SOL     OW15949   0.804   2.860   0.868
 5017SOL    HW115950   0.809   2.817   0.778
 5017SOL    HW215951   0.884   2.918   0.881
 5018SOL     OW15952   0.637   5.559   2.264
 5018SOL    HW115953   0.724   5.541   2.218
 5018SOL    HW215954   0.564   5.561   2.196
 5019SOL     OW15955   1.790   5.474   5.658
 5019SOL    HW115956   1.832   5.401   5.604
 5019SOL    HW215957   1.788   5.448   5.754
 5020SOL     OW15958   0.567   6.795   4.903
 5020SOL    HW115959   0.469   6.816   4.900
 5020SOL    HW215960   0.619   6.872   4.868
 5021SOL     OW15961   1.722   0.516   1.078
 5021SOL    HW115962   1.688   0.456   1.005
 5021SOL    HW215963   1.776   0.462   1.143
 5022SOL     OW15964   0.114   2.692   1.442
 5022SOL    HW115965   0.103   2.743   1.528
 5022SOL    HW215966   0.066   2.740   1.368
 5023SOL     OW15967   6.972   3.442   1.335
 5023SOL    HW115968   6.969   3.490   1.247
 5023SOL    HW215969   6.906   3.483   1.398
 5024SOL     OW15970   5.235   3.916   0.558
 5024SOL    HW115971   5.157   3.978   0.566
 5024SOL    HW215972   5.299   3.932   0.633
 5025SOL     OW15973   4.222   1.714   4.403
 5025SOL    HW115974   4.243   1.616   4.414
 5025SOL    HW215975   4.173   1.747   4.483
 5026SOL     OW15976   6.512   5.463   4.518
 5026SOL    HW115977   6.417   5.433   4.518
 5026SOL    HW215978   6.544   5.472   4.423
 5027SOL     OW15979   5.217   0.791   1.138
 5027SOL    HW115980   5.281   0.716   1.155
 5027SOL    HW215981   5.262   0.861   1.084
 5028SOL     OW15982   0.185   1.910   3.004
 5028SOL    HW115983   0.159   1.814   3.010
 5028SOL    HW215984   0.179   1.952   3.095
 5029SOL     OW15985   6.411   2.735   2.387
 5029SOL    HW115986   6.346   2.701   2.455
 5029SOL    HW215987   6.493   2.769   2.434
 5030SOL     OW15988   6.894   5.980   6.309
 5030SOL    HW115989   6.824   5.978   6.380
 5030SOL    HW215990   6.984   5.990   6.351
 5031SOL     OW15991   6.990   1.143   5.255
 5031SOL    HW115992   6.940   1.218   5.213
 5031SOL    HW215993   0.018   1.177   5.332
 5032SOL     OW15994   3.382   2.338   6.345
 5032SOL    HW115995   3.441   2.418   6.345
 5032SOL    HW215996   3.438   2.256   6.330
 5033SOL     OW15997   2.392   1.543   0.251
 5033SOL    HW115998   2.310   1.597   0.273
 5033SOL    HW215999   2.447   1.531   0.333
 5034SOL     OW16000   4.249   6.500   4.349
 5034SOL    HW116001   4.331   6.546   4.385
 5034SOL    HW216002   4.191   6.566   4.302
 5035SOL     OW16003   6.826   4.259   5.168
 5035SOL    HW116004   6.836   4.342   5.223
 5035SOL    HW216005   6.915   4.235   5.128
 5036SOL     OW16006   6.920   4.526   5.544
 5036SOL    HW116007   6.900   4.616   5.583
 5036SOL    HW216008   6.865   4.457   5.591
 5037SOL     OW16009   4.299   4.192   1.373
 5037SOL    HW116010   4.359   4.266   1.405
 5037SOL    HW216011   4.229   4.173   1.443
 5038SOL     OW16012   3.817   3.429   4.115
 5038SOL    HW116013   3.882   3.355   4.098
 5038SOL    HW216014   3.815   3.490   4.035
 5039SOL     OW16015   1.854   3.330   6.110
 5039SOL    HW116016   1.814   3.307   6.021
 5039SOL    HW216017   1.924   3.400   6.098
 5040SOL     OW16018   1.384   5.216   5.614
 5040SOL    HW116019   1.356   5.134   5.663
 5040SOL    HW216020   1.391   5.195   5.516
 5041SOL     OW16021   1.022   3.007   2.023
 5041SOL    HW116022   0.942   2.990   2.081
 5041SOL    HW216023   1.101   2.959   2.060
 5042SOL     OW16024   0.071   3.932   6.477
 5042SOL    HW116025   0.140   3.956   6.409
 5042SOL    HW216026   0.085   3.837   6.507
 5043SOL     OW16027   4.275   0.873   0.266
 5043SOL    HW116028   4.186   0.833   0.290
 5043SOL    HW216029   4.317   0.819   0.193
 5044SOL     OW16030   0.061   6.343   1.588
 5044SOL    HW116031   7.015   6.403   1.553
 5044SOL    HW216032   0.020   6.265   1.635
 5045SOL     OW16033   6.269   4.721   6.023
 5045SOL    HW116034   6.287   4.818   6.038
 5045SOL    HW216035   6.350   4.678   5.985
 5046SOL     OW16036   3.709   3.826   4.341
 5046SOL    HW116037   3.638   3.871   4.287
 5046SOL    HW216038   3.728   3.879   4.423
 5047SOL     OW16039   2.061   3.578   2.732
 5047SOL    HW116040   1.971   3.577   2.776
 5047SOL    HW216041   2.094   3.484   2.721
 5048SOL     OW16042   1.727   0.761   4.884
 5048SOL    HW116043   1.680   0.678   4.854
 5048SOL    HW216044   1.783   0.741   4.964
 5049SOL     OW16045   6.075   1.231   6.337
 5049SOL    HW116046   6.058   1.224   6.436
 5049SOL    HW216047   6.125   1.151   6.306
 5050SOL     OW16048   1.659   1.639   6.777
 5050SOL    HW116049   1.637   1.566   6.711
 5050SOL    HW216050   1.705   1.599   6.856
 5051SOL     OW16051   4.143   4.510   1.088
 5051SOL    HW116052   4.153   4.580   1.158
 5051SOL    HW216053   4.059   4.525   1.036
 5052SOL     OW16054   3.810   1.892   6.310
 5052SOL    HW116055   3.818   1.868   6.407
 5052SOL    HW216056   3.857   1.979   6.292
 5053SOL     OW16057   0.674   5.006   3.351
 5053SOL    HW116058   0.717   5.022   3.261
 5053SOL    HW216059   0.688   5.087   3.408
 5054SOL     OW16060   3.701   4.952   5.417
 5054SOL    HW116061   3.788   4.909   5.439
 5054SOL    HW216062   3.629   4.882   5.413
 5055SOL     OW16063   0.621   2.984   6.166
 5055SOL    HW116064   0.523   2.976   6.148
 5055SOL    HW216065   0.672   2.944   6.091
 5056SOL     OW16066   4.752   4.128   5.013
 5056SOL    HW116067   4.848   4.137   5.041
 5056SOL    HW216068   4.741   4.043   4.961
 5057SOL     OW16069   1.066   0.062   2.518
 5057SOL    HW116070   1.037   6.993   2.530
 5057SOL    HW216071   0.994   0.114   2.472
 5058SOL     OW16072   3.651   4.666   6.797
 5058SOL    HW116073   3.620   4.761   6.792
 5058SOL    HW216074   3.705   4.653   6.880
 5059SOL     OW16075   0.025   6.909   3.373
 5059SOL    HW116076   0.089   6.958   3.432
 5059SOL    HW216077   7.012   6.972   3.305
 5060SOL     OW16078   6.822   2.266   5.993
 5060SOL    HW116079   6.755   2.196   6.018
 5060SOL    HW216080   6.775   2.347   5.960
 5061SOL     OW16081   4.837   2.327   6.871
 5061SOL    HW116082   4.852   2.266   6.948
 5061SOL    HW216083   4.739   2.338   6.856
 5062SOL     OW16084   0.378   0.047   2.103
 5062SOL    HW116085   0.473   0.072   2.123
 5062SOL    HW216086   0.377   7.004   2.029
 5063SOL     OW16087   0.438   6.815   1.569
 5063SOL    HW116088   0.436   6.743   1.639
 5063SOL    HW216089   0.479   6.897   1.608
 5064SOL     OW16090   4.797   3.324   0.193
 5064SOL    HW116091   4.785   3.300   0.289
 5064SOL    HW216092   4.739   3.264   0.136
 5065SOL     OW16093   3.359   7.009   5.225
 5065SOL    HW116094   3.448   0.025   5.247
 5065SOL    HW216095   3.294   0.056   5.203
 5066SOL     OW16096   5.407   4.281   1.689
 5066SOL    HW116097   5.494   4.292   1.642
 5066SOL    HW216098   5.333   4.277   1.623
 5067SOL     OW16099   5.372   1.450   0.055
 5067SOL    HW116100   5.394   1.516   0.126
 5067SOL    HW216101   5.334   1.497   7.001
 5068SOL     OW16102   3.267   4.377   0.840
 5068SOL    HW116103   3.243   4.460   0.790
 5068SOL    HW216104   3.251   4.298   0.781
 5069SOL     OW16105   1.395   4.350   3.017
 5069SOL    HW116106   1.457   4.407   3.071
 5069SOL    HW216107   1.352   4.405   2.946
 5070SOL     OW16108   4.910   3.490   4.153
 5070SOL    HW116109   4.983   3.535   4.204
 5070SOL    HW216110   4.888   3.402   4.196
 5071SOL     OW16111   4.173   2.191   4.882
 5071SOL    HW116112   4.138   2.177   4.789
 5071SOL    HW216113   4.119   2.261   4.928
 5072SOL     OW16114   0.310   5.554   0.629
 5072SOL    HW116115   0.350   5.626   0.686
 5072SOL    HW216116   0.378   5.525   0.561
 5073SOL     OW16117   6.734   6.634   2.290
 5073SOL    HW116118   6.645   6.603   2.256
 5073SOL    HW216119   6.760   6.580   2.369
 5074SOL     OW16120   2.815   3.953   6.969
 5074SOL    HW116121   2.776   4.011   0.015
 5074SOL    HW216122   2.914   3.965   6.966
 5075SOL     OW16123   6.965   0.718   5.762
 5075SOL    HW116124   6.868   0.702   5.742
 5075SOL    HW216125   6.981   0.706   5.860
 5076SOL     OW16126   3.559   0.392   0.484
 5076SOL    HW116127   3.462   0.371   0.496
 5076SOL    HW216128   3.602   0.403   0.573
 5077SOL     OW16129   1.349   2.426   3.723
 5077SOL    HW116130   1.316   2.468   3.638
 5077SOL    HW216131   1.427   2.367   3.702
 5078SOL     OW16132   1.202   2.095   3.263
 5078SOL    HW116133   1.287   2.142   3.288
 5078SOL    HW216134   1.168   2.132   3.177
 5079SOL     OW16135   2.952   5.865   6.092
 5079SOL    HW116136   2.986   5.780   6.053
 5079SOL    HW216137   2.998   5.881   6.180
 5080SOL     OW16138   5.833   6.486   5.041
 5080SOL    HW116139   5.878   6.540   5.112
 5080SOL    HW216140   5.776   6.546   4.984
 5081SOL     OW16141   3.140   3.972   3.093
 5081SOL    HW116142   3.230   3.999   3.127
 5081SOL    HW216143   3.083   3.943   3.170
 5082SOL     OW16144   6.345   6.726   5.713
 5082SOL    HW116145   6.257   6.766   5.688
 5082SOL    HW216146   6.381   6.772   5.795
 5083SOL     OW16147   1.560   6.812   2.196
 5083SOL    HW116148   1.648   6.785   2.156
 5083SOL    HW216149   1.517   6.882   2.139
 5084SOL     OW16150   1.520   4.674   4.307
 5084SOL    HW116151   1.521   4.674   4.207
 5084SOL    HW216152   1.437   4.629   4.340
 5085SOL     OW16153   5.558   1.152   6.652
 5085SOL    HW116154   5.615   1.230   6.679
 5085SOL    HW216155   5.496   1.179   6.578
 5086SOL     OW16156   6.307   4.677   3.886
 5086SOL    HW116157   6.300   4.776   3.891
 5086SOL    HW216158   6.395   4.647   3.922
 5087SOL     OW16159   6.493   6.486   4.275
 5087SOL    HW116160   6.515   6.479   4.373
 5087SOL    HW216161   6.576   6.505   4.223
 5088SOL     OW16162   6.444   0.985   6.377
 5088SOL    HW116163   6.467   0.987   6.475
 5088SOL    HW216164   6.528   0.986   6.323
 5089SOL     OW16165   6.402   3.358   3.061
 5089SOL    HW116166   6.307   3.356   3.029
 5089SOL    HW216167   6.411   3.304   3.144
 5090SOL     OW16168   2.264   4.769   1.271
 5090SOL    HW116169   2.251   4.704   1.346
 5090SOL    HW216170   2.243   4.724   1.184
 5091SOL     OW16171   1.157   6.149   2.896
 5091SOL    HW116172   1.109   6.115   2.815
 5091SOL    HW216173   1.161   6.249   2.893
 5092SOL     OW16174   3.624   2.516   1.655
 5092SOL    HW116175   3.526   2.531   1.667
 5092SOL    HW216176   3.657   2.452   1.724
 5093SOL     OW16177   1.344   2.570   1.913
 5093SOL    HW116178   1.294   2.650   1.880
 5093SOL    HW216179   1.404   2.597   1.988
 5094SOL     OW16180   0.929   6.987   5.624
 5094SOL    HW116181   0.960   6.893   5.640
 5094SOL    HW216182   0.996   0.010   5.568
 5095SOL     OW16183   1.482   0.679   4.685
 5095SOL    HW116184   1.556   0.722   4.632
 5095SOL    HW216185   1.481   0.581   4.666
 5096SOL     OW16186   4.984   3.830   0.745
 5096SOL    HW116187   5.049   3.843   0.819
 5096SOL    HW216188   4.990   3.907   0.681
 5097SOL     OW16189   1.555   0.811   5.618
 5097SOL    HW116190   1.542   0.808   5.717
 5097SOL    HW216191   1.622   0.741   5.591
 5098SOL     OW16192   0.638   1.261   1.742
 5098SOL    HW116193   0.690   1.347   1.744
 5098SOL    HW216194   0.561   1.267   1.806
 5099SOL     OW16195   1.061   0.616   5.540
 5099SOL    HW116196   1.155   0.651   5.541
 5099SOL    HW216197   1.053   0.539   5.603
 5100SOL     OW16198   5.273   6.770   6.463
 5100SOL    HW116199   5.357   6.803   6.507
 5100SOL    HW216200   5.196   6.828   6.490
 5101SOL     OW16201   4.658   6.377   0.163
 5101SOL    HW116202   4.605   6.296   0.138
 5101SOL    HW216203   4.713   6.358   0.245
 5102SOL     OW16204   5.505   0.917   5.422
 5102SOL    HW116205   5.417   0.954   5.453
 5102SOL    HW216206   5.559   0.889   5.501
 5103SOL     OW16207   0.220   0.480   4.274
 5103SOL    HW116208   0.140   0.504   4.328
 5103SOL    HW216209   0.222   0.535   4.191
 5104SOL     OW16210   2.269   1.039   1.822
 5104SOL    HW116211   2.348   1.079   1.868
 5104SOL    HW216212   2.240   1.098   1.747
 5105SOL     OW16213   4.049   4.214   6.227
 5105SOL    HW116214   4.114   4.138   6.230
 5105SOL    HW216215   3.980   4.196   6.157
 5106SOL     OW16216   3.269   0.250   2.689
 5106SOL    HW116217   3.227   0.340   2.675
 5106SOL    HW216218   3.268   0.228   2.787
 5107SOL     OW16219   3.008   0.393   6.839
 5107SOL    HW116220   3.105   0.373   6.825
 5107SOL    HW216221   2.954   0.335   6.778
 5108SOL     OW16222   2.958   3.783   4.021
 5108SOL    HW116223   2.966   3.743   4.113
 5108SOL    HW216224   2.931   3.879   4.030
 5109SOL     OW16225   0.423   1.336   0.763
 5109SOL    HW116226   0.407   1.435   0.755
 5109SOL    HW216227   0.441   1.298   0.672
 5110SOL     OW16228   2.021   6.584   6.145
 5110SOL    HW116229   2.085   6.512   6.171
 5110SOL    HW216230   1.955   6.548   6.079
 5111SOL     OW16231   1.162   1.719   6.437
 5111SOL    HW116232   1.096   1.754   6.503
 5111SOL    HW216233   1.131   1.738   6.344
 5112SOL     OW16234   0.383   6.473   3.608
 5112SOL    HW116235   0.426   6.384   3.589
 5112SOL    HW216236   0.340   6.508   3.525
 5113SOL     OW16237   1.204   0.742   0.335
 5113SOL    HW116238   1.276   0.799   0.296
 5113SOL    HW216239   1.145   0.708   0.261
 5114SOL     OW16240   3.469   4.652   0.471
 5114SOL    HW116241   3.494   4.700   0.386
 5114SOL    HW216242   3.377   4.615   0.462
 5115SOL     OW16243   1.201   4.152   6.685
 5115SOL    HW116244   1.252   4.110   6.610
 5115SOL    HW216245   1.193   4.251   6.670
 5116SOL     OW16246   5.078   4.739   6.423
 5116SOL    HW116247   5.121   4.724   6.335
 5116SOL    HW216248   4.989   4.693   6.426
 5117SOL     OW16249   2.660   4.647   4.135
 5117SOL    HW116250   2.629   4.553   4.123
 5117SOL    HW216251   2.600   4.709   4.085
 5118SOL     OW16252   4.688   5.797   0.285
 5118SOL    HW116253   4.659   5.836   0.373
 5118SOL    HW216254   4.620   5.731   0.254
 5119SOL     OW16255   5.402   0.791   1.867
 5119SOL    HW116256   5.469   0.859   1.896
 5119SOL    HW216257   5.350   0.826   1.790
 5120SOL     OW16258   5.853   0.931   2.981
 5120SOL    HW116259   5.786   0.928   2.906
 5120SOL    HW216260   5.808   0.906   3.067
 5121SOL     OW16261   0.060   3.342   5.515
 5121SOL    HW116262   0.159   3.331   5.513
 5121SOL    HW216263   0.024   3.340   5.421
 5122SOL     OW16264   2.367   0.540   3.264
 5122SOL    HW116265   2.451   0.593   3.268
 5122SOL    HW216266   2.288   0.602   3.270
 5123SOL     OW16267   5.263   3.891   3.247
 5123SOL    HW116268   5.230   3.797   3.241
 5123SOL    HW216269   5.348   3.900   3.194
 5124SOL     OW16270   2.573   6.441   7.002
 5124SOL    HW116271   2.669   6.433   6.974
 5124SOL    HW216272   2.546   6.358   0.026
 5125SOL     OW16273   0.192   3.563   4.015
 5125SOL    HW116274   0.132   3.516   3.950
 5125SOL    HW216275   0.287   3.539   3.995
 5126SOL     OW16276   6.179   4.841   6.560
 5126SOL    HW116277   6.241   4.864   6.635
 5126SOL    HW216278   6.133   4.924   6.528
 5127SOL     OW16279   5.700   3.730   6.670
 5127SOL    HW116280   5.700   3.828   6.692
 5127SOL    HW216281   5.634   3.683   6.728
 5128SOL     OW16282   1.310   0.894   6.560
 5128SOL    HW116283   1.409   0.905   6.572
 5128SOL    HW216284   1.278   0.955   6.488
 5129SOL     OW16285   5.400   0.274   2.364
 5129SOL    HW116286   5.381   0.305   2.458
 5129SOL    HW216287   5.422   0.353   2.307
 5130SOL     OW16288   1.032   5.138   4.860
 5130SOL    HW116289   1.056   5.073   4.931
 5130SOL    HW216290   1.097   5.132   4.785
 5131SOL     OW16291   3.235   4.940   3.433
 5131SOL    HW116292   3.167   4.916   3.503
 5131SOL    HW216293   3.190   4.989   3.358
 5132SOL     OW16294   3.571   1.356   6.673
 5132SOL    HW116295   3.501   1.287   6.654
 5132SOL    HW216296   3.638   1.319   6.737
 5133SOL     OW16297   4.021   5.806   6.782
 5133SOL    HW116298   4.117   5.834   6.784
 5133SOL    HW216299   4.013   5.716   6.741
 5134SOL     OW16300   6.425   6.755   1.382
 5134SOL    HW116301   6.336   6.785   1.346
 5134SOL    HW216302   6.413   6.671   1.435
 5135SOL     OW16303   6.535   3.051   2.105
 5135SOL    HW116304   6.469   3.056   2.180
 5135SOL    HW216305   6.503   2.985   2.037
 5136SOL     OW16306   0.990   0.970   6.401
 5136SOL    HW116307   0.923   0.963   6.327
 5136SOL    HW216308   1.003   0.880   6.442
 5137SOL     OW16309   5.138   2.481   5.171
 5137SOL    HW116310   5.115   2.385   5.154
 5137SOL    HW216311   5.120   2.503   5.267
 5138SOL     OW16312   3.781   3.557   4.361
 5138SOL    HW116313   3.805   3.528   4.268
 5138SOL    HW216314   3.744   3.650   4.358
 5139SOL     OW16315   1.895   0.189   5.163
 5139SOL    HW116316   1.918   0.148   5.075
 5139SOL    HW216317   1.905   0.121   5.236
 5140SOL     OW16318   4.056   1.942   6.130
 5140SOL    HW116319   3.984   2.008   6.110
 5140SOL    HW216320   4.074   1.886   6.049
 5141SOL     OW16321   6.780   2.789   2.110
 5141SOL    HW116322   6.767   2.886   2.132
 5141SOL    HW216323   6.693   2.741   2.122
 5142SOL     OW16324   0.033   6.663   3.523
 5142SOL    HW116325   0.021   6.683   3.621
 5142SOL    HW216326   0.030   6.748   3.471
 5143SOL     OW16327   0.535   4.872   4.357
 5143SOL    HW116328   0.520   4.889   4.455
 5143SOL    HW216329   0.626   4.904   4.331
 5144SOL     OW16330   1.626   3.674   6.511
 5144SOL    HW116331   1.700   3.607   6.500
 5144SOL    HW216332   1.650   3.736   6.586
 5145SOL     OW16333   2.665   6.761   6.691
 5145SOL    HW116334   2.712   6.726   6.610
 5145SOL    HW216335   2.579   6.804   6.664
 5146SOL     OW16336   4.517   4.784   6.138
 5146SOL    HW116337   4.438   4.738   6.180
 5146SOL    HW216338   4.576   4.716   6.095
 5147SOL     OW16339   4.827   2.975   3.474
 5147SOL    HW116340   4.788   2.887   3.444
 5147SOL    HW216341   4.841   2.973   3.573
 5148SOL     OW16342   0.688   0.807   1.723
 5148SOL    HW116343   0.714   0.875   1.791
 5148SOL    HW216344   0.668   0.720   1.768
 5149SOL     OW16345   5.603   4.602   3.358
 5149SOL    HW116346   5.561   4.680   3.311
 5149SOL    HW216347   5.564   4.594   3.450
 5150SOL     OW16348   1.354   5.032   4.009
 5150SOL    HW116349   1.386   5.042   4.103
 5150SOL    HW216350   1.425   5.065   3.946
 5151SOL     OW16351   5.884   4.566   2.120
 5151SOL    HW116352   5.877   4.641   2.055
 5151SOL    HW216353   5.943   4.495   2.083
 5152SOL     OW16354   1.557   0.283   6.314
 5152SOL    HW116355   1.478   0.290   6.253
 5152SOL    HW216356   1.605   0.197   6.297
 5153SOL     OW16357   1.350   2.066   0.451
 5153SOL    HW116358   1.294   2.138   0.491
 5153SOL    HW216359   1.377   2.001   0.523
 5154SOL     OW16360   0.626   2.923   6.635
 5154SOL    HW116361   0.671   3.000   6.590
 5154SOL    HW216362   0.534   2.911   6.598
 5155SOL     OW16363   2.264   1.618   0.621
 5155SOL    HW116364   2.252   1.540   0.559
 5155SOL    HW216365   2.182   1.675   0.618
 5156SOL     OW16366   5.546   5.054   5.777
 5156SOL    HW116367   5.635   5.010   5.783
 5156SOL    HW216368   5.548   5.126   5.708
 5157SOL     OW16369   3.815   0.691   2.486
 5157SOL    HW116370   3.818   0.789   2.466
 5157SOL    HW216371   3.907   0.659   2.511
 5158SOL     OW16372   4.267   1.157   2.876
 5158SOL    HW116373   4.193   1.091   2.884
 5158SOL    HW216374   4.230   1.243   2.841
 5159SOL     OW16375   5.579   3.586   5.822
 5159SOL    HW116376   5.523   3.667   5.805
 5159SOL    HW216377   5.539   3.533   5.896
 5160SOL     OW16378   0.165   6.364   3.155
 5160SOL    HW116379   0.070   6.340   3.174
 5160SOL    HW216380   0.174   6.463   3.147
 5161SOL     OW16381   0.837   3.276   0.290
 5161SOL    HW116382   0.887   3.193   0.312
 5161SOL    HW216383   0.823   3.330   0.373
 5162SOL     OW16384   0.121   6.600   2.691
 5162SOL    HW116385   0.071   6.630   2.772
 5162SOL    HW216386   0.107   6.666   2.617
 5163SOL     OW16387   3.140   6.432   1.737
 5163SOL    HW116388   3.104   6.341   1.757
 5163SOL    HW216389   3.123   6.453   1.640
 5164SOL     OW16390   2.995   3.745   1.159
 5164SOL    HW116391   3.026   3.711   1.248
 5164SOL    HW216392   2.953   3.835   1.171
 5165SOL     OW16393   1.542   4.759   0.088
 5165SOL    HW116394   1.448   4.753   0.054
 5165SOL    HW216395   1.605   4.747   0.012
 5166SOL     OW16396   1.956   5.505   1.700
 5166SOL    HW116397   1.894   5.435   1.736
 5166SOL    HW216398   2.048   5.490   1.737
 5167SOL     OW16399   5.143   3.141   5.384
 5167SOL    HW116400   5.221   3.197   5.415
 5167SOL    HW216401   5.060   3.197   5.386
 5168SOL     OW16402   4.119   2.186   2.102
 5168SOL    HW116403   4.097   2.136   2.018
 5168SOL    HW216404   4.041   2.182   2.164
 5169SOL     OW16405   4.233   0.347   4.262
 5169SOL    HW116406   4.222   0.445   4.281
 5169SOL    HW216407   4.148   0.299   4.283
 5170SOL     OW16408   1.375   3.617   6.441
 5170SOL    HW116409   1.465   3.634   6.480
 5170SOL    HW216410   1.337   3.532   6.479
 5171SOL     OW16411   2.029   5.915   5.541
 5171SOL    HW116412   1.970   5.864   5.604
 5171SOL    HW216413   2.019   6.013   5.557
 5172SOL     OW16414   0.305   5.432   3.756
 5172SOL    HW116415   0.330   5.367   3.829
 5172SOL    HW216416   0.322   5.525   3.788
 5173SOL     OW16417   4.305   3.810   5.712
 5173SOL    HW116418   4.385   3.852   5.670
 5173SOL    HW216419   4.222   3.841   5.665
 5174SOL     OW16420   2.573   6.669   3.601
 5174SOL    HW116421   2.630   6.587   3.605
 5174SOL    HW216422   2.523   6.671   3.514
 5175SOL     OW16423   2.750   4.360   0.048
 5175SOL    HW116424   2.673   4.323   7.021
 5175SOL    HW216425   2.827   4.376   7.012
 5176SOL     OW16426   5.393   5.609   0.368
 5176SOL    HW116427   5.452   5.536   0.332
 5176SOL    HW216428   5.403   5.690   0.311
 5177SOL     OW16429   4.846   0.796   0.709
 5177SOL    HW116430   4.831   0.880   0.762
 5177SOL    HW216431   4.832   0.815   0.612
 5178SOL     OW16432   0.722   3.540   1.547
 5178SOL    HW116433   0.729   3.450   1.505
 5178SOL    HW216434   0.800   3.596   1.520
 5179SOL     OW16435   6.069   4.490   3.225
 5179SOL    HW116436   6.139   4.419   3.238
 5179SOL    HW216437   6.082   4.533   3.136
 5180SOL     OW16438   2.388   0.037   1.309
 5180SOL    HW116439   2.333   0.010   1.230
 5180SOL    HW216440   2.485   0.042   1.282
 5181SOL     OW16441   0.563   0.735   6.593
 5181SOL    HW116442   0.486   0.712   6.652
 5181SOL    HW216443   0.596   0.651   6.548
 5182SOL     OW16444   4.133   5.226   3.019
 5182SOL    HW116445   4.035   5.209   3.010
 5182SOL    HW216446   4.162   5.289   2.947
 5183SOL     OW16447   4.374   1.552   3.615
 5183SOL    HW116448   4.415   1.635   3.577
 5183SOL    HW216449   4.338   1.496   3.541
 5184SOL     OW16450   2.071   1.711   4.015
 5184SOL    HW116451   2.007   1.653   3.964
 5184SOL    HW216452   2.159   1.713   3.968
 5185SOL     OW16453   5.431   0.492   1.802
 5185SOL    HW116454   5.415   0.586   1.774
 5185SOL    HW216455   5.442   0.434   1.721
 5186SOL     OW16456   6.790   3.131   5.887
 5186SOL    HW116457   6.858   3.164   5.952
 5186SOL    HW216458   6.823   3.147   5.793
 5187SOL     OW16459   2.160   4.514   5.446
 5187SOL    HW116460   2.227   4.440   5.442
 5187SOL    HW216461   2.071   4.479   5.416
 5188SOL     OW16462   6.618   6.839   1.766
 5188SOL    HW116463   6.595   6.889   1.850
 5188SOL    HW216464   6.683   6.892   1.712
 5189SOL     OW16465   5.727   0.366   5.890
 5189SOL    HW116466   5.820   0.378   5.926
 5189SOL    HW216467   5.676   0.304   5.951
 5190SOL     OW16468   1.586   3.059   1.629
 5190SOL    HW116469   1.574   3.150   1.668
 5190SOL    HW216470   1.651   3.063   1.554
 5191SOL     OW16471   2.827   5.769   2.280
 5191SOL    HW116472   2.861   5.714   2.356
 5191SOL    HW216473   2.854   5.864   2.293
 5192SOL     OW16474   2.266   5.473   1.830
 5192SOL    HW116475   2.268   5.374   1.845
 5192SOL    HW216476   2.302   5.519   1.912
 5193SOL     OW16477   5.721   0.506   0.143
 5193SOL    HW116478   5.819   0.499   0.125
 5193SOL    HW216479   5.689   0.596   0.116
 5194SOL     OW16480   4.332   2.054   6.980
 5194SOL    HW116481   4.265   2.104   0.011
 5194SOL    HW216482   4.289   2.025   6.895
 5195SOL     OW16483   0.103   0.880   4.099
 5195SOL    HW116484   0.087   0.976   4.124
 5195SOL    HW216485   0.062   0.821   4.168
 5196SOL     OW16486   4.644   6.619   3.524
 5196SOL    HW116487   4.599   6.698   3.482
 5196SOL    HW216488   4.743   6.635   3.528
 5197SOL     OW16489   1.276   4.471   5.750
 5197SOL    HW116490   1.245   4.385   5.791
 5197SOL    HW216491   1.345   4.513   5.810
 5198SOL     OW16492   5.246   5.373   3.117
 5198SOL    HW116493   5.277   5.467   3.101
 5198SOL    HW216494   5.271   5.316   3.039
 5199SOL     OW16495   6.837   5.375   1.125
 5199SOL    HW116496   6.739   5.385   1.109
 5199SOL    HW216497   6.853   5.324   1.209
 5200SOL     OW16498   0.380   3.926   5.666
 5200SOL    HW116499   0.296   3.915   5.613
 5200SOL    HW216500   0.362   3.905   5.762
 5201SOL     OW16501   1.912   5.564   3.973
 5201SOL    HW116502   1.821   5.565   3.932
 5201SOL    HW216503   1.940   5.658   3.994
 5202SOL     OW16504   6.697   3.586   6.730
 5202SOL    HW116505   6.637   3.613   6.654
 5202SOL    HW216506   6.642   3.543   6.802
 5203SOL     OW16507   0.195   2.639   6.822
 5203SOL    HW116508   0.232   2.693   6.746
 5203SOL    HW216509   0.248   2.658   6.905
 5204SOL     OW16510   4.527   5.064   0.406
 5204SOL    HW116511   4.626   5.072   0.406
 5204SOL    HW216512   4.502   4.968   0.395
 5205SOL     OW16513   1.865   1.157   1.522
 5205SOL    HW116514   1.770   1.166   1.492
 5205SOL    HW216515   1.871   1.088   1.594
 5206SOL     OW16516   0.399   4.352   7.010
 5206SOL    HW116517   0.341   4.429   0.015
 5206SOL    HW216518   0.395   4.345   6.911
 5207SOL     OW16519   1.506   5.486   4.325
 5207SOL    HW116520   1.587   5.432   4.301
 5207SOL    HW216521   1.532   5.582   4.335
 5208SOL     OW16522   4.051   0.747   0.343
 5208SOL    HW116523   3.961   0.772   0.309
 5208SOL    HW216524   4.056   0.761   0.442
 5209SOL     OW16525   6.325   5.791   3.265
 5209SOL    HW116526   6.233   5.827   3.246
 5209SOL    HW216527   6.356   5.824   3.354
 5210SOL     OW16528   4.907   3.736   4.047
 5210SOL    HW116529   4.863   3.728   3.957
 5210SOL    HW216530   4.908   3.647   4.092
 5211SOL     OW16531   3.193   3.424   3.324
 5211SOL    HW116532   3.136   3.501   3.297
 5211SOL    HW216533   3.218   3.371   3.243
 5212SOL     OW16534   0.651   2.125   0.475
 5212SOL    HW116535   0.575   2.186   0.455
 5212SOL    HW216536   0.737   2.173   0.459
 5213SOL     OW16537   4.995   2.560   5.621
 5213SOL    HW116538   4.987   2.573   5.719
 5213SOL    HW216539   5.092   2.565   5.594
 5214SOL     OW16540   5.529   1.749   5.216
 5214SOL    HW116541   5.537   1.831   5.272
 5214SOL    HW216542   5.468   1.684   5.262
 5215SOL     OW16543   5.113   4.415   3.589
 5215SOL    HW116544   5.033   4.385   3.641
 5215SOL    HW216545   5.195   4.404   3.645
 5216SOL     OW16546   4.967   4.480   1.623
 5216SOL    HW116547   4.882   4.530   1.637
 5216SOL    HW216548   5.020   4.522   1.549
 5217SOL     OW16549   3.445   5.356   3.977
 5217SOL    HW116550   3.468   5.265   4.012
 5217SOL    HW216551   3.503   5.424   4.022
 5218SOL     OW16552   1.740   6.656   3.990
 5218SOL    HW116553   1.685   6.594   4.045
 5218SOL    HW216554   1.835   6.651   4.019
 5219SOL     OW16555   3.079   6.952   6.432
 5219SOL    HW116556   3.160   6.894   6.432
 5219SOL    HW216557   3.058   6.980   6.526
 5220SOL     OW16558   1.093   5.923   2.071
 5220SOL    HW116559   1.065   5.830   2.046
 5220SOL    HW216560   1.126   5.923   2.166
 5221SOL     OW16561   5.260   1.205   4.287
 5221SOL    HW116562   5.276   1.303   4.293
 5221SOL    HW216563   5.347   1.156   4.292
 5222SOL     OW16564   2.290   0.466   4.149
 5222SOL    HW116565   2.279   0.557   4.188
 5222SOL    HW216566   2.386   0.449   4.128
 5223SOL     OW16567   4.875   0.232   1.385
 5223SOL    HW116568   4.961   0.186   1.406
 5223SOL    HW216569   4.875   0.262   1.289
 5224SOL     OW16570   6.605   2.246   2.336
 5224SOL    HW116571   6.552   2.197   2.266
 5224SOL    HW216572   6.694   2.271   2.298
 5225SOL     OW16573   6.794   0.174   3.867
 5225SOL    HW116574   6.823   0.189   3.961
 5225SOL    HW216575   6.796   0.076   3.846
 5226SOL     OW16576   0.901   6.312   4.539
 5226SOL    HW116577   0.915   6.344   4.633
 5226SOL    HW216578   0.856   6.383   4.486
 5227SOL     OW16579   6.817   5.468   3.629
 5227SOL    HW116580   6.916   5.457   3.625
 5227SOL    HW216581   6.794   5.566   3.636
 5228SOL     OW16582   5.452   1.628   0.686
 5228SOL    HW116583   5.369   1.572   0.689
 5228SOL    HW216584   5.497   1.624   0.775
 5229SOL     OW16585   0.943   4.086   6.499
 5229SOL    HW116586   0.988   4.083   6.588
 5229SOL    HW216587   0.850   4.050   6.507
 5230SOL     OW16588   0.256   0.818   1.013
 5230SOL    HW116589   0.327   0.878   1.048
 5230SOL    HW216590   0.167   0.858   1.029
 5231SOL     OW16591   3.821   2.951   4.433
 5231SOL    HW116592   3.876   3.032   4.455
 5231SOL    HW216593   3.792   2.906   4.517
 5232SOL     OW16594   4.657   2.159   6.389
 5232SOL    HW116595   4.665   2.128   6.484
 5232SOL    HW216596   4.629   2.255   6.388
 5233SOL     OW16597   6.285   6.319   1.912
 5233SOL    HW116598   6.327   6.237   1.873
 5233SOL    HW216599   6.254   6.379   1.837
 5234SOL     OW16600   3.261   0.362   0.424
 5234SOL    HW116601   3.206   0.341   0.343
 5234SOL    HW216602   3.252   0.459   0.446
 5235SOL     OW16603   1.557   3.310   0.957
 5235SOL    HW116604   1.640   3.279   1.003
 5235SOL    HW216605   1.507   3.231   0.922
 5236SOL     OW16606   5.627   3.184   1.340
 5236SOL    HW116607   5.570   3.140   1.410
 5236SOL    HW216608   5.625   3.283   1.351
 5237SOL     OW16609   2.533   2.151   5.199
 5237SOL    HW116610   2.481   2.206   5.265
 5237SOL    HW216611   2.529   2.196   5.109
 5238SOL     OW16612   1.345   5.292   0.428
 5238SOL    HW116613   1.291   5.342   0.359
 5238SOL    HW216614   1.283   5.238   0.486
 5239SOL     OW16615   3.184   3.156   3.973
 5239SOL    HW116616   3.240   3.178   3.893
 5239SOL    HW216617   3.092   3.191   3.959
 5240SOL     OW16618   3.024   2.534   5.326
 5240SOL    HW116619   2.930   2.502   5.324
 5240SOL    HW216620   3.081   2.475   5.268
 5241SOL     OW16621   0.879   6.180   6.704
 5241SOL    HW116622   0.845   6.210   6.614
 5241SOL    HW216623   0.816   6.113   6.743
 5242SOL     OW16624   6.023   1.357   5.547
 5242SOL    HW116625   6.005   1.264   5.581
 5242SOL    HW216626   5.960   1.377   5.472
 5243SOL     OW16627   0.856   6.045   1.017
 5243SOL    HW116628   0.954   6.037   1.002
 5243SOL    HW216629   0.819   5.958   1.050
 5244SOL     OW16630   3.830   3.855   5.678
 5244SOL    HW116631   3.792   3.827   5.766
 5244SOL    HW216632   3.880   3.779   5.637
 5245SOL     OW16633   4.071   4.199   5.723
 5245SOL    HW116634   4.139   4.247   5.667
 5245SOL    HW216635   4.118   4.129   5.778
 5246SOL     OW16636   0.248   3.854   2.993
 5246SOL    HW116637   0.170   3.792   3.001
 5246SOL    HW216638   0.324   3.821   3.049
 5247SOL     OW16639   0.026   5.418   0.535
 5247SOL    HW116640   0.101   5.482   0.519
 5247SOL    HW216641   6.981   5.462   0.590
 5248SOL     OW16642   5.156   0.711   5.966
 5248SOL    HW116643   5.070   0.673   5.932
 5248SOL    HW216644   5.158   0.809   5.947
 5249SOL     OW16645   0.664   5.450   4.140
 5249SOL    HW116646   0.726   5.373   4.152
 5249SOL    HW216647   0.629   5.450   4.046
 5250SOL     OW16648   0.562   1.680   6.050
 5250SOL    HW116649   0.639   1.688   5.986
 5250SOL    HW216650   0.508   1.764   6.047
 5251SOL     OW16651   6.711   3.707   0.845
 5251SOL    HW116652   6.795   3.711   0.791
 5251SOL    HW216653   6.711   3.781   0.911
 5252SOL     OW16654   2.779   6.143   0.864
 5252SOL    HW116655   2.786   6.161   0.962
 5252SOL    HW216656   2.822   6.217   0.813
 5253SOL     OW16657   5.714   3.477   4.405
 5253SOL    HW116658   5.672   3.412   4.342
 5253SOL    HW216659   5.813   3.476   4.392
 5254SOL     OW16660   4.642   1.251   4.074
 5254SOL    HW116661   4.733   1.239   4.115
 5254SOL    HW216662   4.591   1.166   4.081
 5255SOL     OW16663   3.601   0.638   4.921
 5255SOL    HW116664   3.665   0.676   4.854
 5255SOL    HW216665   3.625   0.671   5.012
 5256SOL     OW16666   5.099   1.779   3.489
 5256SOL    HW116667   5.171   1.790   3.420
 5256SOL    HW216668   5.109   1.849   3.560
 5257SOL     OW16669   3.846   6.989   1.142
 5257SOL    HW116670   3.788   6.909   1.157
 5257SOL    HW216671   3.791   0.046   1.152
 5258SOL     OW16672   5.169   4.090   2.459
 5258SOL    HW116673   5.165   4.025   2.536
 5258SOL    HW216674   5.174   4.183   2.495
 5259SOL     OW16675   4.726   6.209   2.446
 5259SOL    HW116676   4.822   6.189   2.424
 5259SOL    HW216677   4.700   6.296   2.405
 5260SOL     OW16678   5.127   3.444   0.520
 5260SOL    HW116679   5.103   3.399   0.434
 5260SOL    HW216680   5.148   3.374   0.589
 5261SOL     OW16681   6.864   2.107   5.155
 5261SOL    HW116682   6.841   2.072   5.064
 5261SOL    HW216683   6.947   2.162   5.149
 5262SOL     OW16684   2.696   0.191   2.851
 5262SOL    HW116685   2.702   0.150   2.760
 5262SOL    HW216686   2.603   0.181   2.886
 5263SOL     OW16687   1.699   0.131   5.983
 5263SOL    HW116688   1.642   0.109   6.063
 5263SOL    HW216689   1.734   0.047   5.943
 5264SOL     OW16690   6.459   1.360   1.697
 5264SOL    HW116691   6.516   1.358   1.615
 5264SOL    HW216692   6.363   1.367   1.671
 5265SOL     OW16693   5.545   4.067   2.337
 5265SOL    HW116694   5.612   4.013   2.286
 5265SOL    HW216695   5.479   4.107   2.273
 5266SOL     OW16696   2.121   6.389   1.605
 5266SOL    HW116697   2.133   6.473   1.552
 5266SOL    HW216698   2.169   6.397   1.692
 5267SOL     OW16699   4.593   4.753   5.688
 5267SOL    HW116700   4.584   4.852   5.696
 5267SOL    HW216701   4.505   4.710   5.707
 5268SOL     OW16702   6.763   5.382   5.272
 5268SOL    HW116703   6.792   5.354   5.363
 5268SOL    HW216704   6.841   5.419   5.221
 5269SOL     OW16705   1.851   5.559   3.515
 5269SOL    HW116706   1.833   5.604   3.602
 5269SOL    HW216707   1.887   5.467   3.532
 5270SOL     OW16708   5.511   2.468   1.279
 5270SOL    HW116709   5.421   2.425   1.278
 5270SOL    HW216710   5.501   2.567   1.285
 5271SOL     OW16711   4.588   4.829   5.394
 5271SOL    HW116712   4.523   4.754   5.403
 5271SOL    HW216713   4.679   4.792   5.374
 5272SOL     OW16714   0.663   5.959   4.970
 5272SOL    HW116715   0.654   5.897   4.892
 5272SOL    HW216716   0.706   5.910   5.046
 5273SOL     OW16717   0.623   2.402   3.759
 5273SOL    HW116718   0.604   2.389   3.856
 5273SOL    HW216719   0.589   2.323   3.708
 5274SOL     OW16720   6.760   5.040   3.728
 5274SOL    HW116721   6.765   5.136   3.756
 5274SOL    HW216722   6.853   5.007   3.710
 5275SOL     OW16723   2.884   6.964   6.198
 5275SOL    HW116724   2.914   6.982   6.292
 5275SOL    HW216725   2.785   6.945   6.198
 5276SOL     OW16726   6.984   6.805   1.060
 5276SOL    HW116727   6.900   6.760   1.029
 5276SOL    HW216728   6.970   6.847   1.149
 5277SOL     OW16729   1.459   2.173   3.635
 5277SOL    HW116730   1.383   2.109   3.646
 5277SOL    HW216731   1.481   2.181   3.537
 5278SOL     OW16732   6.240   6.787   6.270
 5278SOL    HW116733   6.322   6.789   6.327
 5278SOL    HW216734   6.196   6.698   6.276
 5279SOL     OW16735   1.497   5.975   6.257
 5279SOL    HW116736   1.401   5.979   6.229
 5279SOL    HW216737   1.505   6.005   6.352
 5280SOL     OW16738   3.832   6.120   5.139
 5280SOL    HW116739   3.733   6.119   5.131
 5280SOL    HW216740   3.870   6.037   5.098
 5281SOL     OW16741   1.262   0.362   4.871
 5281SOL    HW116742   1.199   0.392   4.942
 5281SOL    HW216743   1.273   0.262   4.877
 5282SOL     OW16744   2.225   0.398   2.732
 5282SOL    HW116745   2.250   0.380   2.827
 5282SOL    HW216746   2.133   0.437   2.728
 5283SOL     OW16747   0.919   0.360   3.747
 5283SOL    HW116748   0.907   0.435   3.812
 5283SOL    HW216749   0.905   0.395   3.654
 5284SOL     OW16750   5.094   2.318   2.435
 5284SOL    HW116751   5.018   2.281   2.488
 5284SOL    HW216752   5.133   2.245   2.378
 5285SOL     OW16753   0.907   2.805   3.197
 5285SOL    HW116754   0.818   2.850   3.196
 5285SOL    HW216755   0.896   2.708   3.176
 5286SOL     OW16756   6.694   3.688   0.357
 5286SOL    HW116757   6.745   3.774   0.351
 5286SOL    HW216758   6.598   3.707   0.380
 5287SOL     OW16759   3.464   5.509   1.773
 5287SOL    HW116760   3.437   5.563   1.853
 5287SOL    HW216761   3.550   5.461   1.793
 5288SOL     OW16762   5.136   0.291   2.028
 5288SOL    HW116763   5.044   0.298   1.989
 5288SOL    HW216764   5.131   0.249   2.119
 5289SOL     OW16765   2.305   4.867   6.544
 5289SOL    HW116766   2.231   4.898   6.604
 5289SOL    HW216767   2.350   4.947   6.503
 5290SOL     OW16768   1.751   4.397   5.693
 5290SOL    HW116769   1.660   4.364   5.668
 5290SOL    HW216770   1.761   4.492   5.667
 5291SOL     OW16771   2.405   4.452   5.776
 5291SOL    HW116772   2.454   4.376   5.732
 5291SOL    HW216773   2.306   4.434   5.772
 5292SOL     OW16774   6.599   3.900   6.453
 5292SOL    HW116775   6.569   3.959   6.378
 5292SOL    HW216776   6.519   3.867   6.503
 5293SOL     OW16777   2.087   5.224   4.558
 5293SOL    HW116778   2.133   5.284   4.493
 5293SOL    HW216779   2.063   5.138   4.513
 5294SOL     OW16780   4.603   0.898   5.518
 5294SOL    HW116781   4.597   0.896   5.418
 5294SOL    HW216782   4.629   0.807   5.552
 5295SOL     OW16783   3.993   1.072   3.270
 5295SOL    HW116784   3.957   0.979   3.281
 5295SOL    HW216785   4.059   1.091   3.342
 5296SOL     OW16786   3.706   3.597   0.468
 5296SOL    HW116787   3.802   3.609   0.492
 5296SOL    HW216788   3.684   3.654   0.389
 5297SOL     OW16789   2.299   3.359   0.573
 5297SOL    HW116790   2.351   3.397   0.650
 5297SOL    HW216791   2.216   3.413   0.559
 5298SOL     OW16792   2.418   6.142   6.864
 5298SOL    HW116793   2.331   6.191   6.857
 5298SOL    HW216794   2.458   6.158   6.955
 5299SOL     OW16795   3.206   2.297   0.860
 5299SOL    HW116796   3.159   2.385   0.873
 5299SOL    HW216797   3.139   2.226   0.838
 5300SOL     OW16798   0.612   5.226   0.627
 5300SOL    HW116799   0.669   5.200   0.549
 5300SOL    HW216800   0.552   5.150   0.652
 5301SOL     OW16801   4.402   0.333   6.611
 5301SOL    HW116802   4.398   0.331   6.711
 5301SOL    HW216803   4.369   0.246   6.574
 5302SOL     OW16804   5.536   6.225   3.970
 5302SOL    HW116805   5.523   6.305   3.911
 5302SOL    HW216806   5.455   6.167   3.965
 5303SOL     OW16807   0.240   5.228   5.851
 5303SOL    HW116808   0.208   5.311   5.896
 5303SOL    HW216809   0.243   5.153   5.917
 5304SOL     OW16810   6.247   0.932   0.948
 5304SOL    HW116811   6.215   0.853   0.896
 5304SOL    HW216812   6.214   1.016   0.905
 5305SOL     OW16813   1.658   5.347   2.377
 5305SOL    HW116814   1.566   5.310   2.393
 5305SOL    HW216815   1.708   5.348   2.464
 5306SOL     OW16816   0.186   4.322   5.840
 5306SOL    HW116817   0.273   4.292   5.801
 5306SOL    HW216818   0.193   4.418   5.868
 5307SOL     OW16819   4.356   2.019   0.420
 5307SOL    HW116820   4.348   2.107   0.373
 5307SOL    HW216821   4.432   2.023   0.485
 5308SOL     OW16822   1.268   4.469   2.793
 5308SOL    HW116823   1.325   4.470   2.711
 5308SOL    HW216824   1.271   4.559   2.837
 5309SOL     OW16825   3.513   5.971   2.021
 5309SOL    HW116826   3.578   6.008   2.088
 5309SOL    HW216827   3.528   6.014   1.932
 5310SOL     OW16828   6.268   3.187   2.564
 5310SOL    HW116829   6.174   3.206   2.593
 5310SOL    HW216830   6.312   3.272   2.534
 5311SOL     OW16831   5.756   0.129   6.845
 5311SOL    HW116832   5.825   0.127   6.773
 5311SOL    HW216833   5.757   0.219   6.889
 5312SOL     OW16834   0.542   5.941   1.872
 5312SOL    HW116835   0.628   5.924   1.921
 5312SOL    HW216836   0.543   5.892   1.785
 5313SOL     OW16837   0.823   4.425   5.491
 5313SOL    HW116838   0.754   4.353   5.497
 5313SOL    HW216839   0.780   4.513   5.510
 5314SOL     OW16840   4.688   0.033   1.135
 5314SOL    HW116841   4.711   0.129   1.119
 5314SOL    HW216842   4.687   7.009   1.048
 5315SOL     OW16843   4.788   2.794   3.122
 5315SOL    HW116844   4.751   2.705   3.096
 5315SOL    HW216845   4.823   2.840   3.041
 5316SOL     OW16846   0.996   3.764   5.324
 5316SOL    HW116847   0.970   3.714   5.407
 5316SOL    HW216848   1.026   3.856   5.349
 5317SOL     OW16849   6.298   0.969   5.675
 5317SOL    HW116850   6.199   0.961   5.678
 5317SOL    HW216851   6.324   1.065   5.675
 5318SOL     OW16852   0.517   2.873   0.635
 5318SOL    HW116853   0.446   2.803   0.634
 5318SOL    HW216854   0.535   2.902   0.729
 5319SOL     OW16855   4.896   6.185   1.128
 5319SOL    HW116856   4.813   6.157   1.176
 5319SOL    HW216857   4.957   6.106   1.118
 5320SOL     OW16858   4.258   5.568   1.234
 5320SOL    HW116859   4.344   5.617   1.252
 5320SOL    HW216860   4.251   5.489   1.296
 5321SOL     OW16861   2.354   4.499   4.815
 5321SOL    HW116862   2.382   4.460   4.727
 5321SOL    HW216863   2.315   4.426   4.872
 5322SOL     OW16864   5.797   0.071   0.202
 5322SOL    HW116865   5.719   0.044   0.258
 5322SOL    HW216866   5.790   0.028   0.112
 5323SOL     OW16867   4.313   1.331   5.690
 5323SOL    HW116868   4.348   1.238   5.682
 5323SOL    HW216869   4.270   1.359   5.604
 5324SOL     OW16870   2.949   2.372   0.310
 5324SOL    HW116871   3.010   2.361   0.231
 5324SOL    HW216872   2.958   2.464   0.346
 5325SOL     OW16873   2.992   1.404   5.063
 5325SOL    HW116874   3.043   1.480   5.104
 5325SOL    HW216875   3.032   1.381   4.975
 5326SOL     OW16876   6.565   5.610   3.571
 5326SOL    HW116877   6.633   5.683   3.574
 5326SOL    HW216878   6.602   5.532   3.519
 5327SOL     OW16879   5.924   2.453   4.979
 5327SOL    HW116880   5.828   2.477   4.966
 5327SOL    HW216881   5.976   2.536   5.001
 5328SOL     OW16882   3.323   3.671   6.013
 5328SOL    HW116883   3.405   3.666   5.955
 5328SOL    HW216884   3.318   3.590   6.071
 5329SOL     OW16885   0.730   5.189   6.449
 5329SOL    HW116886   0.654   5.225   6.397
 5329SOL    HW216887   0.730   5.089   6.445
 5330SOL     OW16888   3.796   4.639   7.009
 5330SOL    HW116889   3.793   4.694   0.067
 5330SOL    HW216890   3.876   4.580   7.011
 5331SOL     OW16891   5.940   2.288   6.593
 5331SOL    HW116892   5.978   2.273   6.502
 5331SOL    HW216893   6.009   2.331   6.651
 5332SOL     OW16894   1.224   3.706   1.595
 5332SOL    HW116895   1.269   3.618   1.612
 5332SOL    HW216896   1.272   3.754   1.522
 5333SOL     OW16897   1.258   1.344   3.135
 5333SOL    HW116898   1.210   1.259   3.156
 5333SOL    HW216899   1.347   1.324   3.096
 5334SOL     OW16900   3.014   0.648   5.009
 5334SOL    HW116901   3.060   0.577   5.062
 5334SOL    HW216902   3.013   0.621   4.913
 5335SOL     OW16903   6.659   6.100   1.136
 5335SOL    HW116904   6.649   6.198   1.116
 5335SOL    HW216905   6.756   6.077   1.137
 5336SOL     OW16906   1.909   3.416   2.262
 5336SOL    HW116907   1.958   3.385   2.180
 5336SOL    HW216908   1.944   3.368   2.342
 5337SOL     OW16909   5.166   3.789   1.249
 5337SOL    HW116910   5.166   3.858   1.177
 5337SOL    HW216911   5.178   3.832   1.338
 5338SOL     OW16912   5.991   1.473   6.928
 5338SOL    HW116913   6.070   1.534   6.919
 5338SOL    HW216914   5.978   1.450   7.025
 5339SOL     OW16915   6.962   1.255   3.690
 5339SOL    HW116916   6.983   1.342   3.733
 5339SOL    HW216917   6.871   1.260   3.648
 5340SOL     OW16918   5.845   3.599   0.560
 5340SOL    HW116919   5.926   3.545   0.586
 5340SOL    HW216920   5.767   3.538   0.549
 5341SOL     OW16921   3.822   2.187   6.398
 5341SOL    HW116922   3.902   2.141   6.435
 5341SOL    HW216923   3.833   2.286   6.409
 5342SOL     OW16924   3.806   0.693   5.208
 5342SOL    HW116925   3.789   0.791   5.198
 5342SOL    HW216926   3.720   0.643   5.198
 5343SOL     OW16927   3.252   3.715   3.980
 5343SOL    HW116928   3.171   3.719   4.038
 5343SOL    HW216929   3.242   3.642   3.912
 5344SOL     OW16930   1.840   2.406   2.526
 5344SOL    HW116931   1.875   2.313   2.527
 5344SOL    HW216932   1.915   2.470   2.507
 5345SOL     OW16933   4.099   5.911   1.357
 5345SOL    HW116934   4.193   5.878   1.359
 5345SOL    HW216935   4.067   5.927   1.450
 5346SOL     OW16936   3.155   6.300   3.853
 5346SOL    HW116937   3.231   6.363   3.836
 5346SOL    HW216938   3.177   6.210   3.815
 5347SOL     OW16939   0.147   2.526   2.163
 5347SOL    HW116940   0.158   2.451   2.228
 5347SOL    HW216941   0.057   2.567   2.174
 5348SOL     OW16942   0.943   1.582   0.612
 5348SOL    HW116943   1.005   1.611   0.540
 5348SOL    HW216944   0.897   1.497   0.585
 5349SOL     OW16945   1.368   2.419   0.590
 5349SOL    HW116946   1.281   2.373   0.572
 5349SOL    HW216947   1.443   2.356   0.571
 5350SOL     OW16948   2.350   0.766   6.159
 5350SOL    HW116949   2.397   0.760   6.247
 5350SOL    HW216950   2.253   0.745   6.171
 5351SOL     OW16951   5.135   5.484   1.998
 5351SOL    HW116952   5.145   5.385   1.999
 5351SOL    HW216953   5.225   5.526   1.982
 5352SOL     OW16954   2.225   5.954   4.030
 5352SOL    HW116955   2.216   6.032   4.093
 5352SOL    HW216956   2.137   5.936   3.987
 5353SOL     OW16957   3.459   5.957   4.542
 5353SOL    HW116958   3.436   5.866   4.507
 5353SOL    HW216959   3.482   5.950   4.639
 5354SOL     OW16960   1.744   4.920   2.228
 5354SOL    HW116961   1.834   4.943   2.265
 5354SOL    HW216962   1.753   4.841   2.167
 5355SOL     OW16963   5.225   2.603   4.013
 5355SOL    HW116964   5.278   2.667   3.959
 5355SOL    HW216965   5.211   2.519   3.961
 5356SOL     OW16966   5.896   4.298   1.796
 5356SOL    HW116967   5.941   4.317   1.883
 5356SOL    HW216968   5.930   4.211   1.759
 5357SOL     OW16969   3.390   0.294   0.767
 5357SOL    HW116970   3.323   0.346   0.713
 5357SOL    HW216971   3.365   0.197   0.768
 5358SOL     OW16972   4.021   2.101   0.681
 5358SOL    HW116973   3.983   2.126   0.592
 5358SOL    HW216974   3.973   2.152   0.753
 5359SOL     OW16975   2.019   2.065   6.777
 5359SOL    HW116976   2.035   2.019   6.864
 5359SOL    HW216977   1.960   2.144   6.791
 5360SOL     OW16978   3.955   6.570   4.601
 5360SOL    HW116979   3.908   6.482   4.608
 5360SOL    HW216980   4.054   6.555   4.602
 5361SOL     OW16981   2.188   6.801   4.719
 5361SOL    HW116982   2.275   6.844   4.744
 5361SOL    HW216983   2.155   6.839   4.633
 5362SOL     OW16984   5.099   4.063   3.561
 5362SOL    HW116985   5.056   4.145   3.600
 5362SOL    HW216986   5.119   3.998   3.634
 5363SOL     OW16987   0.722   6.160   6.467
 5363SOL    HW116988   0.691   6.065   6.465
 5363SOL    HW216989   0.785   6.176   6.390
 5364SOL     OW16990   6.749   5.762   1.367
 5364SOL    HW116991   6.750   5.774   1.267
 5364SOL    HW216992   6.684   5.690   1.391
 5365SOL     OW16993   4.057   3.126   6.700
 5365SOL    HW116994   4.051   3.069   6.782
 5365SOL    HW216995   4.134   3.189   6.709
 5366SOL     OW16996   5.268   4.872   1.402
 5366SOL    HW116997   5.308   4.794   1.451
 5366SOL    HW216998   5.169   4.873   1.419
 5367SOL     OW16999   0.410   5.211   0.387
 5367SOL    HW117000   0.454   5.283   0.441
 5367SOL    HW217001   0.363   5.253   0.309
 5368SOL     OW17002   5.181   1.344   3.098
 5368SOL    HW117003   5.221   1.301   3.179
 5368SOL    HW217004   5.230   1.429   3.077
 5369SOL     OW17005   2.948   6.353   3.632
 5369SOL    HW117006   2.972   6.446   3.606
 5369SOL    HW217007   3.015   6.318   3.697
 5370SOL     OW17008   3.910   3.218   1.621
 5370SOL    HW117009   3.821   3.230   1.577
 5370SOL    HW217010   3.912   3.269   1.707
 5371SOL     OW17011   1.792   3.663   4.319
 5371SOL    HW117012   1.781   3.601   4.242
 5371SOL    HW217013   1.759   3.619   4.403
 5372SOL     OW17014   2.210   5.873   2.797
 5372SOL    HW117015   2.130   5.852   2.742
 5372SOL    HW217016   2.213   5.813   2.877
 5373SOL     OW17017   2.889   4.781   4.168
 5373SOL    HW117018   2.803   4.732   4.174
 5373SOL    HW217019   2.917   4.810   4.259
 5374SOL     OW17020   1.083   3.779   6.965
 5374SOL    HW117021   1.139   3.822   6.894
 5374SOL    HW217022   1.096   3.828   0.026
 5375SOL     OW17023   1.329   4.589   5.065
 5375SOL    HW117024   1.266   4.666   5.078
 5375SOL    HW217025   1.308   4.517   5.131
 5376SOL     OW17026   1.478   2.921   1.172
 5376SOL    HW117027   1.446   2.948   1.082
 5376SOL    HW217028   1.494   3.003   1.228
 5377SOL     OW17029   6.782   6.971   1.613
 5377SOL    HW117030   6.860   6.910   1.609
 5377SOL    HW217031   6.742   6.981   1.522
 5378SOL     OW17032   6.853   0.263   1.431
 5378SOL    HW117033   6.753   0.258   1.430
 5378SOL    HW217034   6.885   0.324   1.359
 5379SOL     OW17035   0.254   5.115   4.909
 5379SOL    HW117036   0.352   5.122   4.929
 5379SOL    HW217037   0.239   5.127   4.811
 5380SOL     OW17038   1.694   1.086   3.309
 5380SOL    HW117039   1.648   1.003   3.339
 5380SOL    HW217040   1.742   1.128   3.386
 5381SOL     OW17041   6.407   3.756   0.408
 5381SOL    HW117042   6.379   3.678   0.464
 5381SOL    HW217043   6.338   3.828   0.415
 5382SOL     OW17044   3.032   0.138   2.135
 5382SOL    HW117045   2.981   0.224   2.129
 5382SOL    HW217046   3.094   0.130   2.057
 5383SOL     OW17047   2.866   2.282   4.966
 5383SOL    HW117048   2.823   2.305   5.053
 5383SOL    HW217049   2.964   2.269   4.978
 5384SOL     OW17050   6.549   0.867   3.914
 5384SOL    HW117051   6.641   0.903   3.931
 5384SOL    HW217052   6.495   0.877   3.997
 5385SOL     OW17053   2.957   3.811   2.797
 5385SOL    HW117054   2.937   3.796   2.894
 5385SOL    HW217055   2.943   3.726   2.747
 5386SOL     OW17056   4.515   6.578   4.356
 5386SOL    HW117057   4.576   6.657   4.359
 5386SOL    HW217058   4.540   6.513   4.428
 5387SOL     OW17059   1.896   5.762   3.328
 5387SOL    HW117060   1.867   5.677   3.372
 5387SOL    HW217061   1.873   5.839   3.387
 5388SOL     OW17062   5.171   6.539   3.461
 5388SOL    HW117063   5.080   6.511   3.490
 5388SOL    HW217064   5.223   6.573   3.539
 5389SOL     OW17065   5.019   1.009   1.851
 5389SOL    HW117066   5.061   0.929   1.809
 5389SOL    HW217067   5.000   0.990   1.947
 5390SOL     OW17068   4.488   5.148   4.134
 5390SOL    HW117069   4.551   5.143   4.211
 5390SOL    HW217070   4.402   5.189   4.165
 5391SOL     OW17071   2.237   2.119   0.416
 5391SOL    HW117072   2.206   2.047   0.479
 5391SOL    HW217073   2.330   2.098   0.386
 5392SOL     OW17074   6.130   3.565   0.924
 5392SOL    HW117075   6.061   3.505   0.965
 5392SOL    HW217076   6.203   3.583   0.990
 5393SOL     OW17077   6.122   6.517   0.008
 5393SOL    HW117078   6.082   6.505   6.942
 5393SOL    HW217079   6.049   6.513   0.076
 5394SOL     OW17080   6.834   4.068   6.461
 5394SOL    HW117081   6.910   4.005   6.471
 5394SOL    HW217082   6.748   4.017   6.464
 5395SOL     OW17083   4.756   0.825   1.943
 5395SOL    HW117084   4.727   0.865   1.856
 5395SOL    HW217085   4.811   0.891   1.993
 5396SOL     OW17086   5.128   3.655   3.235
 5396SOL    HW117087   5.044   3.659   3.181
 5396SOL    HW217088   5.119   3.587   3.307
 5397SOL     OW17089   6.569   2.950   1.719
 5397SOL    HW117090   6.660   2.922   1.687
 5397SOL    HW217091   6.557   3.048   1.703
 5398SOL     OW17092   3.520   1.673   1.799
 5398SOL    HW117093   3.509   1.727   1.882
 5398SOL    HW217094   3.593   1.713   1.743
 5399SOL     OW17095   2.375   6.134   0.700
 5399SOL    HW117096   2.441   6.208   0.710
 5399SOL    HW217097   2.304   6.144   0.770
 5400SOL     OW17098   2.925   4.100   0.525
 5400SOL    HW117099   2.932   4.169   0.598
 5400SOL    HW217100   2.928   4.146   0.436
 5401SOL     OW17101   5.746   3.524   1.418
 5401SOL    HW117102   5.739   3.624   1.412
 5401SOL    HW217103   5.656   3.485   1.432
 5402SOL     OW17104   2.539   5.971   1.957
 5402SOL    HW117105   2.533   5.975   2.057
 5402SOL    HW217106   2.507   5.882   1.925
 5403SOL     OW17107   6.302   3.374   6.327
 5403SOL    HW117108   6.254   3.409   6.247
 5403SOL    HW217109   6.290   3.275   6.333
 5404SOL     OW17110   0.807   1.763   3.549
 5404SOL    HW117111   0.856   1.844   3.517
 5404SOL    HW217112   0.872   1.687   3.557
 5405SOL     OW17113   6.240   5.488   0.265
 5405SOL    HW117114   6.228   5.399   0.222
 5405SOL    HW217115   6.271   5.475   0.360
 5406SOL     OW17116   2.369   1.369   6.375
 5406SOL    HW117117   2.329   1.396   6.287
 5406SOL    HW217118   2.347   1.438   6.444
 5407SOL     OW17119   4.744   3.510   0.424
 5407SOL    HW117120   4.739   3.575   0.500
 5407SOL    HW217121   4.801   3.432   0.450
 5408SOL     OW17122   2.837   1.274   6.224
 5408SOL    HW117123   2.740   1.299   6.219
 5408SOL    HW217124   2.891   1.353   6.252
 5409SOL     OW17125   5.368   0.211   3.571
 5409SOL    HW117126   5.324   0.143   3.630
 5409SOL    HW217127   5.463   0.185   3.557
 5410SOL     OW17128   2.798   2.429   1.698
 5410SOL    HW117129   2.731   2.378   1.753
 5410SOL    HW217130   2.887   2.428   1.744
 5411SOL     OW17131   6.583   5.017   5.727
 5411SOL    HW117132   6.669   5.065   5.748
 5411SOL    HW217133   6.602   4.919   5.715
 5412SOL     OW17134   4.966   1.939   0.706
 5412SOL    HW117135   5.028   1.998   0.758
 5412SOL    HW217136   5.014   1.905   0.625
 5413SOL     OW17137   3.007   1.485   1.383
 5413SOL    HW117138   2.913   1.501   1.415
 5413SOL    HW217139   3.004   1.453   1.289
 5414SOL     OW17140   5.517   2.274   4.893
 5414SOL    HW117141   5.486   2.265   4.988
 5414SOL    HW217142   5.487   2.194   4.841
 5415SOL     OW17143   0.712   5.848   1.168
 5415SOL    HW117144   0.648   5.913   1.209
 5415SOL    HW217145   0.683   5.755   1.189
 5416SOL     OW17146   5.023   5.266   6.046
 5416SOL    HW117147   4.945   5.303   5.997
 5416SOL    HW217148   5.015   5.289   6.143
 5417SOL     OW17149   3.636   6.937   5.314
 5417SOL    HW117150   3.721   6.989   5.311
 5417SOL    HW217151   3.656   6.840   5.298
 5418SOL     OW17152   3.572   0.087   3.629
 5418SOL    HW117153   3.548   0.179   3.598
 5418SOL    HW217154   3.489   0.034   3.644
 5419SOL     OW17155   3.675   5.692   0.299
 5419SOL    HW117156   3.606   5.621   0.310
 5419SOL    HW217157   3.640   5.762   0.236
 5420SOL     OW17158   1.646   3.208   2.475
 5420SOL    HW117159   1.739   3.179   2.453
 5420SOL    HW217160   1.624   3.180   2.569
 5421SOL     OW17161   1.551   3.500   1.846
 5421SOL    HW117162   1.541   3.577   1.783
 5421SOL    HW217163   1.517   3.526   1.936
 5422SOL     OW17164   0.218   5.043   0.513
 5422SOL    HW117165   0.150   5.080   0.577
 5422SOL    HW217166   0.285   5.114   0.492
 5423SOL     OW17167   6.739   3.276   6.383
 5423SOL    HW117168   6.653   3.320   6.357
 5423SOL    HW217169   6.794   3.259   6.301
 5424SOL     OW17170   5.722   3.055   3.452
 5424SOL    HW117171   5.747   2.961   3.476
 5424SOL    HW217172   5.751   3.117   3.525
 5425SOL     OW17173   4.266   1.084   4.671
 5425SOL    HW117174   4.355   1.123   4.650
 5425SOL    HW217175   4.231   1.124   4.756
 5426SOL     OW17176   6.604   5.434   4.245
 5426SOL    HW117177   6.577   5.473   4.157
 5426SOL    HW217178   6.687   5.379   4.233
 5427SOL     OW17179   5.047   5.410   6.305
 5427SOL    HW117180   5.078   5.498   6.341
 5427SOL    HW217181   4.947   5.407   6.307
 5428SOL     OW17182   6.943   6.883   1.326
 5428SOL    HW117183   6.971   6.978   1.344
 5428SOL    HW217184   6.993   6.821   1.386
 5429SOL     OW17185   2.102   1.959   6.116
 5429SOL    HW117186   2.163   1.879   6.119
 5429SOL    HW217187   2.152   2.040   6.146
 5430SOL     OW17188   0.285   3.097   5.915
 5430SOL    HW117189   0.282   3.176   5.854
 5430SOL    HW217190   0.202   3.043   5.902
 5431SOL     OW17191   2.882   6.088   0.496
 5431SOL    HW117192   2.882   6.186   0.475
 5431SOL    HW217193   2.805   6.067   0.556
 5432SOL     OW17194   5.411   0.481   6.874
 5432SOL    HW117195   5.317   0.449   6.862
 5432SOL    HW217196   5.457   0.481   6.785
 5433SOL     OW17197   0.263   1.796   5.091
 5433SOL    HW117198   0.312   1.738   5.156
 5433SOL    HW217199   0.186   1.840   5.136
 5434SOL     OW17200   3.298   0.674   5.644
 5434SOL    HW117201   3.221   0.610   5.649
 5434SOL    HW217202   3.373   0.632   5.594
 5435SOL     OW17203   5.701   6.867   2.004
 5435SOL    HW117204   5.627   6.927   2.034
 5435SOL    HW217205   5.789   6.905   2.034
 5436SOL     OW17206   5.144   3.540   4.320
 5436SOL    HW117207   5.081   3.575   4.389
 5436SOL    HW217208   5.218   3.606   4.306
 5437SOL     OW17209   2.667   3.988   0.613
 5437SOL    HW117210   2.764   4.010   0.606
 5437SOL    HW217211   2.645   3.965   0.708
 5438SOL     OW17212   6.614   2.850   2.655
 5438SOL    HW117213   6.702   2.804   2.661
 5438SOL    HW217214   6.541   2.787   2.682
 5439SOL     OW17215   0.709   2.458   0.819
 5439SOL    HW117216   0.777   2.458   0.746
 5439SOL    HW217217   0.756   2.457   0.907
 5440SOL     OW17218   1.141   1.295   0.788
 5440SOL    HW117219   1.139   1.296   0.888
 5440SOL    HW217220   1.185   1.379   0.755
 5441SOL     OW17221   4.505   2.457   2.956
 5441SOL    HW117222   4.566   2.519   2.907
 5441SOL    HW217223   4.467   2.503   3.036
 5442SOL     OW17224   3.533   6.117   3.400
 5442SOL    HW117225   3.539   6.212   3.429
 5442SOL    HW217226   3.497   6.061   3.474
 5443SOL     OW17227   3.536   0.370   4.226
 5443SOL    HW117228   3.470   0.419   4.169
 5443SOL    HW217229   3.526   0.399   4.321
 5444SOL     OW17230   0.960   0.493   4.139
 5444SOL    HW117231   0.952   0.555   4.061
 5444SOL    HW217232   1.055   0.463   4.147
 5445SOL     OW17233   6.441   3.854   3.420
 5445SOL    HW117234   6.409   3.799   3.343
 5445SOL    HW217235   6.458   3.795   3.499
 5446SOL     OW17236   6.390   4.993   4.630
 5446SOL    HW117237   6.490   4.987   4.620
 5446SOL    HW217238   6.346   4.941   4.557
 5447SOL     OW17239   3.085   2.330   6.727
 5447SOL    HW117240   3.004   2.322   6.669
 5447SOL    HW217241   3.086   2.255   6.794
 5448SOL     OW17242   4.257   3.061   5.389
 5448SOL    HW117243   4.235   3.112   5.472
 5448SOL    HW217244   4.212   2.971   5.392
 5449SOL     OW17245   1.806   3.126   6.544
 5449SOL    HW117246   1.861   3.055   6.500
 5449SOL    HW217247   1.751   3.173   6.476
 5450SOL     OW17248   2.077   0.492   1.312
 5450SOL    HW117249   2.038   0.570   1.262
 5450SOL    HW217250   2.141   0.526   1.381
 5451SOL     OW17251   1.966   6.138   3.334
 5451SOL    HW117252   1.988   6.132   3.236
 5451SOL    HW217253   1.935   6.231   3.355
 5452SOL     OW17254   2.345   4.734   0.122
 5452SOL    HW117255   2.397   4.772   0.046
 5452SOL    HW217256   2.260   4.785   0.134
 5453SOL     OW17257   6.109   3.763   0.716
 5453SOL    HW117258   6.124   3.668   0.686
 5453SOL    HW217259   6.101   3.765   0.816
 5454SOL     OW17260   0.409   4.306   6.746
 5454SOL    HW117261   0.481   4.315   6.678
 5454SOL    HW217262   0.388   4.209   6.760
 5455SOL     OW17263   6.361   3.508   0.094
 5455SOL    HW117264   6.456   3.505   0.124
 5455SOL    HW217265   6.309   3.434   0.137
 5456SOL     OW17266   3.481   6.446   0.155
 5456SOL    HW117267   3.574   6.480   0.167
 5456SOL    HW217268   3.480   6.373   0.087
 5457SOL     OW17269   5.600   2.378   0.580
 5457SOL    HW117270   5.503   2.385   0.560
 5457SOL    HW217271   5.614   2.325   0.664
 5458SOL     OW17272   0.224   4.514   0.104
 5458SOL    HW117273   0.263   4.578   0.170
 5458SOL    HW217274   0.124   4.521   0.106
 5459SOL     OW17275   2.051   4.625   6.943
 5459SOL    HW117276   2.042   4.664   0.009
 5459SOL    HW217277   2.083   4.531   6.950
 5460SOL     OW17278   2.832   6.934   2.677
 5460SOL    HW117279   2.755   6.976   2.628
 5460SOL    HW217280   2.886   7.006   2.721
 5461SOL     OW17281   6.197   6.379   5.245
 5461SOL    HW117282   6.290   6.353   5.221
 5461SOL    HW217283   6.168   6.457   5.191
 5462SOL     OW17284   1.253   0.386   0.256
 5462SOL    HW117285   1.329   0.435   0.299
 5462SOL    HW217286   1.209   0.328   0.324
 5463SOL     OW17287   6.164   2.269   0.031
 5463SOL    HW117288   6.100   2.212   7.005
 5463SOL    HW217289   6.117   2.352   0.063
 5464SOL     OW17290   1.528   0.746   4.259
 5464SOL    HW117291   1.479   0.787   4.182
 5464SOL    HW217292   1.616   0.792   4.271
 5465SOL     OW17293   3.804   6.902   3.187
 5465SOL    HW117294   3.786   6.827   3.124
 5465SOL    HW217295   3.730   6.968   3.184
 5466SOL     OW17296   5.583   4.641   5.197
 5466SOL    HW117297   5.524   4.611   5.272
 5466SOL    HW217298   5.528   4.661   5.116
 5467SOL     OW17299   5.328   2.278   3.178
 5467SOL    HW117300   5.307   2.373   3.157
 5467SOL    HW217301   5.415   2.253   3.135
 5468SOL     OW17302   5.212   1.898   4.394
 5468SOL    HW117303   5.212   1.807   4.437
 5468SOL    HW217304   5.302   1.940   4.403
 5469SOL     OW17305   3.841   5.323   0.084
 5469SOL    HW117306   3.873   5.418   0.076
 5469SOL    HW217307   3.743   5.320   0.064
 5470SOL     OW17308   2.457   5.523   3.339
 5470SOL    HW117309   2.446   5.449   3.273
 5470SOL    HW217310   2.368   5.563   3.360
 5471SOL     OW17311   5.626   6.810   1.509
 5471SOL    HW117312   5.635   6.790   1.607
 5471SOL    HW217313   5.614   6.725   1.459
 5472SOL     OW17314   3.835   4.077   6.067
 5472SOL    HW117315   3.861   4.165   6.028
 5472SOL    HW217316   3.882   4.004   6.017
 5473SOL     OW17317   0.890   3.706   3.260
 5473SOL    HW117318   0.981   3.691   3.221
 5473SOL    HW217319   0.821   3.691   3.189
 5474SOL     OW17320   1.337   4.360   4.023
 5474SOL    HW117321   1.245   4.321   4.032
 5474SOL    HW217322   1.376   4.334   3.934
 5475SOL     OW17323   3.070   2.660   0.147
 5475SOL    HW117324   3.168   2.682   0.152
 5475SOL    HW217325   3.052   2.607   0.065
 5476SOL     OW17326   2.273   3.702   6.064
 5476SOL    HW117327   2.222   3.759   6.000
 5476SOL    HW217328   2.315   3.759   6.135
 5477SOL     OW17329   1.886   3.469   3.502
 5477SOL    HW117330   1.900   3.405   3.577
 5477SOL    HW217331   1.859   3.558   3.539
 5478SOL     OW17332   4.940   5.052   5.147
 5478SOL    HW117333   4.844   5.054   5.173
 5478SOL    HW217334   4.985   5.136   5.179
 5479SOL     OW17335   4.861   0.890   5.776
 5479SOL    HW117336   4.814   0.952   5.838
 5479SOL    HW217337   4.800   0.869   5.699
 5480SOL     OW17338   7.002   3.466   3.852
 5480SOL    HW117339   7.018   3.513   3.765
 5480SOL    HW217340   6.927   3.400   3.841
 5481SOL     OW17341   3.668   0.892   4.476
 5481SOL    HW117342   3.686   0.887   4.377
 5481SOL    HW217343   3.750   0.864   4.526
 5482SOL     OW17344   3.971   4.395   1.590
 5482SOL    HW117345   3.968   4.296   1.582
 5482SOL    HW217346   3.892   4.427   1.642
 5483SOL     OW17347   0.699   3.027   5.600
 5483SOL    HW117348   0.614   2.997   5.557
 5483SOL    HW217349   0.706   3.127   5.596
 5484SOL     OW17350   4.831   0.275   5.243
 5484SOL    HW117351   4.776   0.266   5.326
 5484SOL    HW217352   4.774   0.256   5.163
 5485SOL     OW17353   3.663   6.621   5.273
 5485SOL    HW117354   3.740   6.598   5.213
 5485SOL    HW217355   3.603   6.541   5.281
 5486SOL     OW17356   2.608   5.854   4.997
 5486SOL    HW117357   2.521   5.900   5.013
 5486SOL    HW217358   2.592   5.765   4.955
 5487SOL     OW17359   3.039   4.750   6.256
 5487SOL    HW117360   3.099   4.829   6.256
 5487SOL    HW217361   3.017   4.725   6.162
 5488SOL     OW17362   6.986   1.261   0.274
 5488SOL    HW117363   6.896   1.253   0.232
 5488SOL    HW217364   0.030   1.229   0.209
 5489SOL     OW17365   6.609   3.585   2.343
 5489SOL    HW117366   6.688   3.533   2.376
 5489SOL    HW217367   6.607   3.582   2.243
 5490SOL     OW17368   1.599   6.861   2.687
 5490SOL    HW117369   1.559   6.947   2.718
 5490SOL    HW217370   1.697   6.860   2.707
 5491SOL     OW17371   6.889   2.953   1.046
 5491SOL    HW117372   6.817   3.022   1.040
 5491SOL    HW217373   6.868   2.878   0.983
 5492SOL     OW17374   1.360   3.685   5.757
 5492SOL    HW117375   1.435   3.704   5.694
 5492SOL    HW217376   1.273   3.706   5.713
 5493SOL     OW17377   4.134   3.719   2.157
 5493SOL    HW117378   4.110   3.664   2.236
 5493SOL    HW217379   4.229   3.749   2.164
 5494SOL     OW17380   6.057   4.369   5.313
 5494SOL    HW117381   6.024   4.451   5.266
 5494SOL    HW217382   5.980   4.307   5.329
 5495SOL     OW17383   6.038   0.816   0.556
 5495SOL    HW117384   5.997   0.903   0.530
 5495SOL    HW217385   5.996   0.742   0.505
 5496SOL     OW17386   4.119   0.813   4.049
 5496SOL    HW117387   4.164   0.756   4.118
 5496SOL    HW217388   4.050   0.870   4.094
 5497SOL     OW17389   0.374   0.985   5.716
 5497SOL    HW117390   0.425   0.908   5.753
 5497SOL    HW217391   0.324   0.956   5.635
 5498SOL     OW17392   0.439   5.362   1.437
 5498SOL    HW117393   0.343   5.366   1.468
 5498SOL    HW217394   0.488   5.293   1.490
 5499SOL     OW17395   0.555   0.506   3.544
 5499SOL    HW117396   0.509   0.451   3.613
 5499SOL    HW217397   0.487   0.552   3.487
 5500SOL     OW17398   1.794   1.325   6.808
 5500SOL    HW117399   1.742   1.380   6.743
 5500SOL    HW217400   1.748   1.324   6.896
 5501SOL     OW17401   3.920   2.162   0.219
 5501SOL    HW117402   3.885   2.100   0.149
 5501SOL    HW217403   4.019   2.156   0.222
 5502SOL     OW17404   4.976   3.834   6.418
 5502SOL    HW117405   5.061   3.801   6.378
 5502SOL    HW217406   4.942   3.912   6.365
 5503SOL     OW17407   0.554   3.918   0.476
 5503SOL    HW117408   0.577   3.882   0.566
 5503SOL    HW217409   0.484   3.989   0.486
 5504SOL     OW17410   4.423   0.766   6.328
 5504SOL    HW117411   4.402   0.858   6.362
 5504SOL    HW217412   4.479   0.717   6.395
 5505SOL     OW17413   2.225   4.235   3.903
 5505SOL    HW117414   2.224   4.136   3.893
 5505SOL    HW217415   2.230   4.278   3.813
 5506SOL     OW17416   7.006   3.664   6.273
 5506SOL    HW117417   6.918   3.672   6.319
 5506SOL    HW217418   0.013   3.755   6.247
 5507SOL     OW17419   3.625   0.458   5.832
 5507SOL    HW117420   3.575   0.389   5.885
 5507SOL    HW217421   3.716   0.471   5.871
 5508SOL     OW17422   1.264   0.908   6.951
 5508SOL    HW117423   1.185   0.964   6.977
 5508SOL    HW217424   1.240   0.811   6.960
 5509SOL     OW17425   0.453   5.471   1.094
 5509SOL    HW117426   0.452   5.428   1.003
 5509SOL    HW217427   0.398   5.416   1.157
 5510SOL     OW17428   5.134   5.696   0.404
 5510SOL    HW117429   5.232   5.673   0.402
 5510SOL    HW217430   5.093   5.674   0.316
 5511SOL     OW17431   0.575   1.393   5.532
 5511SOL    HW117432   0.654   1.453   5.528
 5511SOL    HW217433   0.527   1.406   5.619
 5512SOL     OW17434   3.177   0.819   1.486
 5512SOL    HW117435   3.170   0.836   1.584
 5512SOL    HW217436   3.208   0.902   1.440
 5513SOL     OW17437   4.051   5.065   6.208
 5513SOL    HW117438   4.070   5.140   6.145
 5513SOL    HW217439   3.984   5.095   6.275
 5514SOL     OW17440   3.453   6.462   5.153
 5514SOL    HW117441   3.424   6.425   5.065
 5514SOL    HW217442   3.430   6.560   5.156
 5515SOL     OW17443   2.354   5.637   2.017
 5515SOL    HW117444   2.372   5.653   2.114
 5515SOL    HW217445   2.318   5.721   1.976
 5516SOL     OW17446   2.376   2.708   4.931
 5516SOL    HW117447   2.281   2.710   4.902
 5516SOL    HW217448   2.402   2.798   4.966
 5517SOL     OW17449   1.750   3.995   2.444
 5517SOL    HW117450   1.774   3.957   2.533
 5517SOL    HW217451   1.688   4.072   2.456
 5518SOL     OW17452   5.249   4.117   5.720
 5518SOL    HW117453   5.178   4.177   5.757
 5518SOL    HW217454   5.211   4.064   5.644
 5519SOL     OW17455   5.190   2.949   3.895
 5519SOL    HW117456   5.169   2.975   3.990
 5519SOL    HW217457   5.270   2.889   3.893
 5520SOL     OW17458   5.712   6.190   2.215
 5520SOL    HW117459   5.774   6.112   2.225
 5520SOL    HW217460   5.764   6.275   2.215
 5521SOL     OW17461   5.818   5.134   2.320
 5521SOL    HW117462   5.833   5.231   2.305
 5521SOL    HW217463   5.822   5.085   2.233
 5522SOL     OW17464   5.859   5.345   1.508
 5522SOL    HW117465   5.768   5.308   1.531
 5522SOL    HW217466   5.883   5.417   1.574
 5523SOL     OW17467   5.762   0.816   3.233
 5523SOL    HW117468   5.707   0.752   3.287
 5523SOL    HW217469   5.857   0.783   3.229
 5524SOL     OW17470   3.750   0.966   5.345
 5524SOL    HW117471   3.736   1.043   5.283
 5524SOL    HW217472   3.665   0.949   5.396
 5525SOL     OW17473   6.548   2.958   0.880
 5525SOL    HW117474   6.621   2.962   0.812
 5525SOL    HW217475   6.568   3.023   0.953
 5526SOL     OW17476   4.803   4.056   3.159
 5526SOL    HW117477   4.813   4.065   3.258
 5526SOL    HW217478   4.891   4.034   3.118
 5527SOL     OW17479   4.967   2.763   4.082
 5527SOL    HW117480   5.004   2.850   4.117
 5527SOL    HW217481   5.037   2.716   4.029
 5528SOL     OW17482   1.074   2.250   1.429
 5528SOL    HW117483   1.052   2.197   1.347
 5528SOL    HW217484   1.006   2.323   1.441
 5529SOL     OW17485   2.514   0.982   2.940
 5529SOL    HW117486   2.430   1.024   2.975
 5529SOL    HW217487   2.559   1.044   2.876
 5530SOL     OW17488   6.360   2.490   1.422
 5530SOL    HW117489   6.341   2.439   1.338
 5530SOL    HW217490   6.284   2.551   1.442
 5531SOL     OW17491   3.791   3.956   1.331
 5531SOL    HW117492   3.693   3.958   1.348
 5531SOL    HW217493   3.833   3.881   1.382
 5532SOL     OW17494   2.053   2.489   0.532
 5532SOL    HW117495   2.060   2.588   0.533
 5532SOL    HW217496   2.130   2.449   0.583
 5533SOL     OW17497   4.411   1.351   4.203
 5533SOL    HW117498   4.497   1.329   4.157
 5533SOL    HW217499   4.423   1.346   4.302
 5534SOL     OW17500   1.050   1.148   5.578
 5534SOL    HW117501   1.072   1.142   5.675
 5534SOL    HW217502   0.951   1.134   5.565
 5535SOL     OW17503   0.892   1.684   2.608
 5535SOL    HW117504   0.924   1.620   2.538
 5535SOL    HW217505   0.905   1.644   2.698
 5536SOL     OW17506   2.936   1.221   5.258
 5536SOL    HW117507   2.978   1.302   5.216
 5536SOL    HW217508   3.007   1.157   5.286
 5537SOL     OW17509   3.864   1.173   3.061
 5537SOL    HW117510   3.923   1.120   3.123
 5537SOL    HW217511   3.841   1.260   3.104
 5538SOL     OW17512   4.636   5.245   4.922
 5538SOL    HW117513   4.728   5.284   4.922
 5538SOL    HW217514   4.614   5.213   4.830
 5539SOL     OW17515   2.302   2.608   0.735
 5539SOL    HW117516   2.231   2.661   0.782
 5539SOL    HW217517   2.287   2.611   0.637
 5540SOL     OW17518   4.933   4.636   3.282
 5540SOL    HW117519   4.911   4.647   3.185
 5540SOL    HW217520   4.902   4.546   3.313
 5541SOL     OW17521   4.915   1.549   6.181
 5541SOL    HW117522   4.875   1.483   6.244
 5541SOL    HW217523   5.014   1.549   6.190
 5542SOL     OW17524   3.598   4.860   6.023
 5542SOL    HW117525   3.535   4.810   5.963
 5542SOL    HW217526   3.684   4.810   6.030
 5543SOL     OW17527   6.411   3.662   6.657
 5543SOL    HW117528   6.313   3.667   6.676
 5543SOL    HW217529   6.453   3.592   6.716
 5544SOL     OW17530   5.873   0.876   5.395
 5544SOL    HW117531   5.859   0.966   5.355
 5544SOL    HW217532   5.963   0.841   5.369
 5545SOL     OW17533   4.406   1.861   2.631
 5545SOL    HW117534   4.348   1.838   2.553
 5545SOL    HW217535   4.376   1.948   2.671
 5546SOL     OW17536   1.662   5.469   6.083
 5546SOL    HW117537   1.735   5.404   6.104
 5546SOL    HW217538   1.599   5.475   6.161
 5547SOL     OW17539   3.124   5.005   5.593
 5547SOL    HW117540   3.156   5.078   5.652
 5547SOL    HW217541   3.184   4.926   5.602
 5548SOL     OW17542   6.411   3.819   5.489
 5548SOL    HW117543   6.364   3.760   5.555
 5548SOL    HW217544   6.400   3.781   5.397
 5549SOL     OW17545   2.892   4.719   7.023
 5549SOL    HW117546   2.870   4.644   6.961
 5549SOL    HW217547   2.927   4.797   6.970
 5550SOL     OW17548   2.791   5.865   1.434
 5550SOL    HW117549   2.859   5.931   1.402
 5550SOL    HW217550   2.731   5.908   1.501
 5551SOL     OW17551   1.566   1.916   3.324
 5551SOL    HW117552   1.585   2.004   3.281
 5551SOL    HW217553   1.636   1.896   3.392
 5552SOL     OW17554   0.026   2.202   1.444
 5552SOL    HW117555   7.017   2.205   1.350
 5552SOL    HW217556   0.041   2.296   1.476
 5553SOL     OW17557   4.616   5.928   0.502
 5553SOL    HW117558   4.598   5.860   0.574
 5553SOL    HW217559   4.564   6.011   0.521
 5554SOL     OW17560   2.912   1.968   5.086
 5554SOL    HW117561   2.902   2.058   5.045
 5554SOL    HW217562   2.854   1.902   5.038
 5555SOL     OW17563   0.052   4.976   3.577
 5555SOL    HW117564   0.040   4.925   3.663
 5555SOL    HW217565   0.043   4.913   3.500
 5556SOL     OW17566   0.537   2.160   5.550
 5556SOL    HW117567   0.593   2.082   5.576
 5556SOL    HW217568   0.464   2.131   5.489
 5557SOL     OW17569   2.034   6.605   4.024
 5557SOL    HW117570   2.047   6.606   4.123
 5557SOL    HW217571   2.115   6.566   3.980
 5558SOL     OW17572   5.168   2.948   5.188
 5558SOL    HW117573   5.219   2.989   5.113
 5558SOL    HW217574   5.154   3.016   5.260
 5559SOL     OW17575   1.985   0.621   0.756
 5559SOL    HW117576   2.042   0.703   0.750
 5559SOL    HW217577   1.912   0.636   0.822
 5560SOL     OW17578   0.311   0.885   3.631
 5560SOL    HW117579   0.391   0.935   3.597
 5560SOL    HW217580   0.237   0.949   3.650
 5561SOL     OW17581   1.554   3.210   3.375
 5561SOL    HW117582   1.583   3.278   3.442
 5561SOL    HW217583   1.617   3.210   3.297
 5562SOL     OW17584   2.527   3.258   6.114
 5562SOL    HW117585   2.513   3.357   6.107
 5562SOL    HW217586   2.515   3.217   6.024
 5563SOL     OW17587   4.785   5.836   2.603
 5563SOL    HW117588   4.736   5.924   2.609
 5563SOL    HW217589   4.793   5.797   2.695
 5564SOL     OW17590   5.301   3.580   1.694
 5564SOL    HW117591   5.341   3.668   1.668
 5564SOL    HW217592   5.251   3.542   1.616
 5565SOL     OW17593   3.401   2.368   5.613
 5565SOL    HW117594   3.479   2.307   5.599
 5565SOL    HW217595   3.375   2.408   5.526
 5566SOL     OW17596   1.900   5.017   1.441
 5566SOL    HW117597   2.000   5.019   1.434
 5566SOL    HW217598   1.872   4.928   1.478
 5567SOL     OW17599   1.649   5.603   1.912
 5567SOL    HW117600   1.556   5.606   1.873
 5567SOL    HW217601   1.715   5.623   1.840
 5568SOL     OW17602   3.886   1.215   1.555
 5568SOL    HW117603   3.940   1.163   1.489
 5568SOL    HW217604   3.790   1.189   1.546
 5569SOL     OW17605   4.523   1.895   0.023
 5569SOL    HW117606   4.545   1.856   6.959
 5569SOL    HW217607   4.459   1.971   0.011
 5570SOL     OW17608   6.614   4.157   5.768
 5570SOL    HW117609   6.560   4.151   5.684
 5570SOL    HW217610   6.598   4.075   5.824
 5571SOL     OW17611   6.913   5.768   6.825
 5571SOL    HW117612   6.829   5.749   6.876
 5571SOL    HW217613   6.905   5.730   6.733
 5572SOL     OW17614   4.820   2.589   6.316
 5572SOL    HW117615   4.901   2.538   6.288
 5572SOL    HW217616   4.741   2.529   6.315
 5573SOL     OW17617   1.558   3.842   0.841
 5573SOL    HW117618   1.538   3.755   0.887
 5573SOL    HW217619   1.518   3.841   0.750
 5574SOL     OW17620   1.005   5.872   5.399
 5574SOL    HW117621   1.067   5.818   5.341
 5574SOL    HW217622   1.028   5.857   5.495
 5575SOL     OW17623   1.268   1.484   0.633
 5575SOL    HW117624   1.283   1.556   0.702
 5575SOL    HW217625   1.349   1.477   0.575
 5576SOL     OW17626   6.077   6.403   0.533
 5576SOL    HW117627   6.107   6.482   0.479
 5576SOL    HW217628   6.157   6.361   0.577
 5577SOL     OW17629   1.906   3.816   5.501
 5577SOL    HW117630   1.883   3.783   5.410
 5577SOL    HW217631   1.832   3.792   5.564
 5578SOL     OW17632   4.260   2.653   0.086
 5578SOL    HW117633   4.296   2.660   0.179
 5578SOL    HW217634   4.175   2.600   0.086
 5579SOL     OW17635   5.041   3.990   6.789
 5579SOL    HW117636   4.965   3.943   6.744
 5579SOL    HW217637   5.122   3.931   6.789
 5580SOL     OW17638   5.939   1.717   0.482
 5580SOL    HW117639   5.993   1.703   0.399
 5580SOL    HW217640   5.992   1.769   0.548
 5581SOL     OW17641   2.339   1.593   6.518
 5581SOL    HW117642   2.252   1.631   6.486
 5581SOL    HW217643   2.359   1.627   6.610
 5582SOL     OW17644   3.848   3.170   3.797
 5582SOL    HW117645   3.756   3.193   3.826
 5582SOL    HW217646   3.844   3.111   3.716
 5583SOL     OW17647   3.733   0.169   1.410
 5583SOL    HW117648   3.730   0.185   1.509
 5583SOL    HW217649   3.822   0.198   1.374
 5584SOL     OW17650   6.588   3.000   3.490
 5584SOL    HW117651   6.500   3.007   3.538
 5584SOL    HW217652   6.573   2.958   3.400
 5585SOL     OW17653   5.816   0.417   4.470
 5585SOL    HW117654   5.758   0.337   4.453
 5585SOL    HW217655   5.770   0.478   4.533
 5586SOL     OW17656   1.867   1.061   5.966
 5586SOL    HW117657   1.885   1.155   5.994
 5586SOL    HW217658   1.826   1.011   6.043
 5587SOL     OW17659   3.556   0.449   4.482
 5587SOL    HW117660   3.531   0.379   4.549
 5587SOL    HW217661   3.539   0.540   4.521
 5588SOL     OW17662   2.943   0.225   5.774
 5588SOL    HW117663   2.868   0.207   5.711
 5588SOL    HW217664   3.009   0.150   5.771
 5589SOL     OW17665   4.432   2.803   6.242
 5589SOL    HW117666   4.499   2.755   6.185
 5589SOL    HW217667   4.466   2.810   6.336
 5590SOL     OW17668   6.873   6.074   3.673
 5590SOL    HW117669   6.939   6.133   3.628
 5590SOL    HW217670   6.921   5.999   3.719
 5591SOL     OW17671   5.163   0.875   0.563
 5591SOL    HW117672   5.254   0.899   0.529
 5591SOL    HW217673   5.123   0.954   0.609
 5592SOL     OW17674   1.817   3.426   2.603
 5592SOL    HW117675   1.896   3.375   2.567
 5592SOL    HW217676   1.746   3.362   2.632
 5593SOL     OW17677   1.524   3.079   5.779
 5593SOL    HW117678   1.436   3.081   5.825
 5593SOL    HW217679   1.511   3.065   5.681
 5594SOL     OW17680   1.927   0.621   0.072
 5594SOL    HW117681   1.852   0.592   0.131
 5594SOL    HW217682   2.014   0.589   0.110
 5595SOL     OW17683   0.027   2.449   5.921
 5595SOL    HW117684   0.009   2.537   5.966
 5595SOL    HW217685   6.984   2.382   5.949
 5596SOL     OW17686   5.013   0.817   3.108
 5596SOL    HW117687   4.993   0.896   3.166
 5596SOL    HW217688   4.937   0.752   3.112
 5597SOL     OW17689   0.248   0.415   6.333
 5597SOL    HW117690   0.217   0.447   6.244
 5597SOL    HW217691   0.176   0.359   6.376
 5598SOL     OW17692   6.696   1.428   3.830
 5598SOL    HW117693   6.785   1.472   3.846
 5598SOL    HW217694   6.709   1.345   3.777
 5599SOL     OW17695   4.877   3.345   3.262
 5599SOL    HW117696   4.970   3.309   3.253
 5599SOL    HW217697   4.847   3.334   3.357
 5600SOL     OW17698   2.119   1.719   2.379
 5600SOL    HW117699   2.062   1.645   2.415
 5600SOL    HW217700   2.199   1.679   2.332
 5601SOL     OW17701   5.814   2.812   5.621
 5601SOL    HW117702   5.861   2.751   5.685
 5601SOL    HW217703   5.716   2.812   5.640
 5602SOL     OW17704   0.527   1.935   2.540
 5602SOL    HW117705   0.435   1.949   2.502
 5602SOL    HW217706   0.526   1.956   2.638
 5603SOL     OW17707   3.851   2.175   4.612
 5603SOL    HW117708   3.840   2.199   4.516
 5603SOL    HW217709   3.774   2.118   4.642
 5604SOL     OW17710   0.663   0.140   4.326
 5604SOL    HW117711   0.607   0.069   4.282
 5604SOL    HW217712   0.655   0.133   4.425
 5605SOL     OW17713   2.874   6.097   4.291
 5605SOL    HW117714   2.864   6.150   4.207
 5605SOL    HW217715   2.913   6.008   4.270
 5606SOL     OW17716   4.586   2.232   1.044
 5606SOL    HW117717   4.494   2.236   1.004
 5606SOL    HW217718   4.640   2.309   1.011
 5607SOL     OW17719   6.046   2.548   2.326
 5607SOL    HW117720   6.130   2.495   2.333
 5607SOL    HW217721   5.973   2.502   2.378
 5608SOL     OW17722   4.656   1.029   3.369
 5608SOL    HW117723   4.715   1.099   3.408
 5608SOL    HW217724   4.564   1.039   3.406
 5609SOL     OW17725   6.677   7.014   0.876
 5609SOL    HW117726   6.654   6.987   0.782
 5609SOL    HW217727   6.593   7.025   0.929
 5610SOL     OW17728   4.980   4.627   0.190
 5610SOL    HW117729   5.020   4.536   0.205
 5610SOL    HW217730   4.883   4.625   0.215
 5611SOL     OW17731   0.133   4.621   1.398
 5611SOL    HW117732   0.220   4.572   1.390
 5611SOL    HW217733   0.109   4.662   1.310
 5612SOL     OW17734   2.836   1.445   0.782
 5612SOL    HW117735   2.847   1.358   0.830
 5612SOL    HW217736   2.827   1.428   0.684
 5613SOL     OW17737   6.765   5.340   5.557
 5613SOL    HW117738   6.784   5.438   5.568
 5613SOL    HW217739   6.667   5.327   5.541
 5614SOL     OW17740   5.331   2.168   4.134
 5614SOL    HW117741   5.344   2.267   4.136
 5614SOL    HW217742   5.234   2.148   4.117
 5615SOL     OW17743   0.498   3.102   3.359
 5615SOL    HW117744   0.533   3.034   3.424
 5615SOL    HW217745   0.404   3.127   3.384
 5616SOL     OW17746   1.521   3.581   2.514
 5616SOL    HW117747   1.544   3.490   2.550
 5616SOL    HW217748   1.577   3.601   2.434
 5617SOL     OW17749   1.676   5.509   6.467
 5617SOL    HW117750   1.582   5.494   6.434
 5617SOL    HW217751   1.692   5.607   6.478
 5618SOL     OW17752   6.774   6.112   3.206
 5618SOL    HW117753   6.825   6.196   3.186
 5618SOL    HW217754   6.823   6.058   3.275
 5619SOL     OW17755   3.680   2.957   4.192
 5619SOL    HW117756   3.758   2.918   4.240
 5619SOL    HW217757   3.631   3.020   4.252
 5620SOL     OW17758   4.819   4.725   5.339
 5620SOL    HW117759   4.782   4.642   5.299
 5620SOL    HW217760   4.909   4.706   5.379
 5621SOL     OW17761   1.299   2.235   5.646
 5621SOL    HW117762   1.212   2.210   5.604
 5621SOL    HW217763   1.328   2.164   5.710
 5622SOL     OW17764   4.800   5.940   4.689
 5622SOL    HW117765   4.734   6.013   4.674
 5622SOL    HW217766   4.799   5.878   4.610
 5623SOL     OW17767   5.006   5.768   3.639
 5623SOL    HW117768   4.987   5.676   3.673
 5623SOL    HW217769   5.090   5.803   3.680
 5624SOL     OW17770   6.659   4.644   4.308
 5624SOL    HW117771   6.561   4.635   4.321
 5624SOL    HW217772   6.705   4.562   4.343
 5625SOL     OW17773   1.049   5.844   5.659
 5625SOL    HW117774   1.137   5.797   5.652
 5625SOL    HW217775   1.057   5.920   5.723
 5626SOL     OW17776   1.313   4.269   5.099
 5626SOL    HW117777   1.232   4.234   5.051
 5626SOL    HW217778   1.395   4.251   5.044
 5627SOL     OW17779   1.156   5.772   6.609
 5627SOL    HW117780   1.235   5.712   6.595
 5627SOL    HW217781   1.179   5.840   6.679
 5628SOL     OW17782   2.421   2.307   1.422
 5628SOL    HW117783   2.459   2.299   1.514
 5628SOL    HW217784   2.325   2.335   1.428
 5629SOL     OW17785   5.409   3.771   1.467
 5629SOL    HW117786   5.409   3.711   1.387
 5629SOL    HW217787   5.498   3.767   1.512
 5630SOL     OW17788   2.109   4.350   6.955
 5630SOL    HW117789   2.024   4.298   6.944
 5630SOL    HW217790   2.130   4.360   0.027
 5631SOL     OW17791   4.206   0.993   1.648
 5631SOL    HW117792   4.265   1.024   1.574
 5631SOL    HW217793   4.258   0.993   1.734
 5632SOL     OW17794   5.819   6.812   5.566
 5632SOL    HW117795   5.794   6.877   5.494
 5632SOL    HW217796   5.769   6.727   5.552
 5633SOL     OW17797   0.844   5.418   5.816
 5633SOL    HW117798   0.921   5.390   5.759
 5633SOL    HW217799   0.758   5.389   5.773
 5634SOL     OW17800   2.486   0.049   0.308
 5634SOL    HW117801   2.571   7.021   0.300
 5634SOL    HW217802   2.411   7.023   0.268
 5635SOL     OW17803   1.964   0.890   6.344
 5635SOL    HW117804   2.060   0.917   6.351
 5635SOL    HW217805   1.913   0.956   6.289
 5636SOL     OW17806   6.311   1.711   5.831
 5636SOL    HW117807   6.239   1.648   5.800
 5636SOL    HW217808   6.350   1.676   5.916
 5637SOL     OW17809   4.863   6.459   4.818
 5637SOL    HW117810   4.782   6.501   4.859
 5637SOL    HW217811   4.879   6.370   4.859
 5638SOL     OW17812   5.870   5.395   1.028
 5638SOL    HW117813   5.940   5.326   1.045
 5638SOL    HW217814   5.913   5.486   1.030
 5639SOL     OW17815   1.271   0.523   1.115
 5639SOL    HW117816   1.193   0.549   1.057
 5639SOL    HW217817   1.312   0.439   1.079
 5640SOL     OW17818   2.453   5.978   3.022
 5640SOL    HW117819   2.429   5.910   2.953
 5640SOL    HW217820   2.535   6.028   2.993
 5641SOL     OW17821   0.916   4.277   3.659
 5641SOL    HW117822   0.937   4.226   3.576
 5641SOL    HW217823   0.887   4.370   3.635
 5642SOL     OW17824   1.599   5.135   0.523
 5642SOL    HW117825   1.596   5.179   0.613
 5642SOL    HW217826   1.555   5.193   0.455
 5643SOL     OW17827   4.773   1.817   4.698
 5643SOL    HW117828   4.708   1.745   4.724
 5643SOL    HW217829   4.779   1.822   4.599
 5644SOL     OW17830   4.028   0.532   5.273
 5644SOL    HW117831   4.018   0.461   5.342
 5644SOL    HW217832   3.940   0.577   5.258
 5645SOL     OW17833   5.692   5.600   3.500
 5645SOL    HW117834   5.743   5.612   3.584
 5645SOL    HW217835   5.626   5.675   3.490
 5646SOL     OW17836   0.443   6.529   4.211
 5646SOL    HW117837   0.437   6.543   4.310
 5646SOL    HW217838   0.359   6.564   4.168
 5647SOL     OW17839   5.836   5.546   5.801
 5647SOL    HW117840   5.789   5.471   5.849
 5647SOL    HW217841   5.802   5.634   5.834
 5648SOL     OW17842   1.636   1.787   3.950
 5648SOL    HW117843   1.692   1.826   3.876
 5648SOL    HW217844   1.619   1.691   3.932
 5649SOL     OW17845   0.776   1.090   5.146
 5649SOL    HW117846   0.855   1.055   5.097
 5649SOL    HW217847   0.693   1.078   5.091
 5650SOL     OW17848   6.785   4.948   6.925
 5650SOL    HW117849   6.716   4.888   6.965
 5650SOL    HW217850   6.778   5.039   6.966
 5651SOL     OW17851   6.990   0.767   2.413
 5651SOL    HW117852   6.944   0.854   2.395
 5651SOL    HW217853   6.982   0.708   2.333
 5652SOL     OW17854   5.016   5.233   0.798
 5652SOL    HW117855   4.956   5.158   0.769
 5652SOL    HW217856   4.999   5.313   0.741
 5653SOL     OW17857   0.247   5.697   6.375
 5653SOL    HW117858   0.241   5.744   6.287
 5653SOL    HW217859   0.281   5.761   6.444
 5654SOL     OW17860   6.851   0.050   5.188
 5654SOL    HW117861   6.780   0.052   5.258
 5654SOL    HW217862   6.899   6.988   5.192
 5655SOL     OW17863   6.699   3.348   4.393
 5655SOL    HW117864   6.671   3.255   4.416
 5655SOL    HW217865   6.691   3.362   4.294
 5656SOL     OW17866   3.387   4.369   0.234
 5656SOL    HW117867   3.422   4.459   0.260
 5656SOL    HW217868   3.363   4.369   0.137
 5657SOL     OW17869   3.618   0.371   1.755
 5657SOL    HW117870   3.703   0.356   1.705
 5657SOL    HW217871   3.543   0.321   1.709
 5658SOL     OW17872   3.522   0.015   5.822
 5658SOL    HW117873   3.603   7.020   5.766
 5658SOL    HW217874   3.447   0.043   5.762
 5659SOL     OW17875   3.095   3.962   2.615
 5659SOL    HW117876   3.027   3.920   2.675
 5659SOL    HW217877   3.163   4.011   2.670
 5660SOL     OW17878   5.018   6.498   6.933
 5660SOL    HW117879   4.986   6.410   6.968
 5660SOL    HW217880   4.945   6.566   6.942
 5661SOL     OW17881   6.277   5.372   4.062
 5661SOL    HW117882   6.223   5.452   4.032
 5661SOL    HW217883   6.336   5.342   3.987
 5662SOL     OW17884   2.057   4.659   4.197
 5662SOL    HW117885   2.145   4.690   4.233
 5662SOL    HW217886   2.067   4.639   4.099
 5663SOL     OW17887   1.553   4.205   0.756
 5663SOL    HW117888   1.494   4.264   0.702
 5663SOL    HW217889   1.603   4.260   0.823
 5664SOL     OW17890   6.941   4.717   2.142
 5664SOL    HW117891   6.997   4.760   2.071
 5664SOL    HW217892   6.847   4.708   2.110
 5665SOL     OW17893   2.625   3.467   5.752
 5665SOL    HW117894   2.618   3.399   5.679
 5665SOL    HW217895   2.598   3.556   5.717
 5666SOL     OW17896   5.573   4.325   0.901
 5666SOL    HW117897   5.516   4.298   0.824
 5666SOL    HW217898   5.658   4.272   0.899
 5667SOL     OW17899   6.744   5.067   3.072
 5667SOL    HW117900   6.709   5.034   2.985
 5667SOL    HW217901   6.670   5.069   3.139
 5668SOL     OW17902   5.594   1.976   6.630
 5668SOL    HW117903   5.566   1.884   6.602
 5668SOL    HW217904   5.678   2.002   6.582
 5669SOL     OW17905   0.828   4.946   6.534
 5669SOL    HW117906   0.809   4.864   6.479
 5669SOL    HW217907   0.902   4.927   6.598
 5670SOL     OW17908   0.314   3.486   4.253
 5670SOL    HW117909   0.399   3.533   4.229
 5670SOL    HW217910   0.255   3.482   4.173
 5671SOL     OW17911   1.343   0.513   5.898
 5671SOL    HW117912   1.266   0.577   5.892
 5671SOL    HW217913   1.428   0.564   5.909
 5672SOL     OW17914   5.059   4.451   5.705
 5672SOL    HW117915   5.027   4.483   5.615
 5672SOL    HW217916   5.122   4.518   5.744
 5673SOL     OW17917   0.569   0.622   1.862
 5673SOL    HW117918   0.631   0.588   1.932
 5673SOL    HW217919   0.495   0.555   1.848
 5674SOL     OW17920   6.671   3.289   1.397
 5674SOL    HW117921   6.755   3.236   1.388
 5674SOL    HW217922   6.689   3.371   1.451
 5675SOL     OW17923   4.479   2.339   5.190
 5675SOL    HW117924   4.480   2.413   5.257
 5675SOL    HW217925   4.445   2.374   5.102
 5676SOL     OW17926   2.119   0.449   1.949
 5676SOL    HW117927   2.079   0.445   2.040
 5676SOL    HW217928   2.152   0.358   1.923
 5677SOL     OW17929   6.481   0.876   3.457
 5677SOL    HW117930   6.468   0.795   3.514
 5677SOL    HW217931   6.397   0.894   3.404
 5678SOL     OW17932   3.098   6.962   3.242
 5678SOL    HW117933   3.163   6.949   3.166
 5678SOL    HW217934   3.107   0.030   3.277
 5679SOL     OW17935   1.760   6.780   4.814
 5679SOL    HW117936   1.686   6.766   4.749
 5679SOL    HW217937   1.733   6.742   4.903
 5680SOL     OW17938   2.363   5.332   6.546
 5680SOL    HW117939   2.306   5.408   6.514
 5680SOL    HW217940   2.311   5.247   6.540
 5681SOL     OW17941   1.304   3.117   6.672
 5681SOL    HW117942   1.321   3.125   6.770
 5681SOL    HW217943   1.383   3.154   6.622
 5682SOL     OW17944   1.010   2.976   5.559
 5682SOL    HW117945   0.917   2.941   5.551
 5682SOL    HW217946   1.064   2.915   5.618
 5683SOL     OW17947   3.543   2.545   6.300
 5683SOL    HW117948   3.463   2.602   6.282
 5683SOL    HW217949   3.617   2.571   6.238
 5684SOL     OW17950   3.404   4.156   4.093
 5684SOL    HW117951   3.411   4.070   4.143
 5684SOL    HW217952   3.432   4.141   3.998
 5685SOL     OW17953   0.016   4.977   1.926
 5685SOL    HW117954   6.967   5.003   1.865
 5685SOL    HW217955   0.101   4.970   1.874
 5686SOL     OW17956   3.702   0.156   0.681
 5686SOL    HW117957   3.742   0.070   0.710
 5686SOL    HW217958   3.617   0.138   0.631
 5687SOL     OW17959   5.318   5.337   5.306
 5687SOL    HW117960   5.287   5.285   5.385
 5687SOL    HW217961   5.398   5.292   5.266
 5688SOL     OW17962   5.726   2.411   1.553
 5688SOL    HW117963   5.721   2.322   1.597
 5688SOL    HW217964   5.703   2.402   1.456
 5689SOL     OW17965   4.401   1.881   0.871
 5689SOL    HW117966   4.375   1.857   0.965
 5689SOL    HW217967   4.320   1.879   0.813
 5690SOL     OW17968   4.194   5.701   1.024
 5690SOL    HW117969   4.227   5.647   1.101
 5690SOL    HW217970   4.166   5.792   1.056
 5691SOL     OW17971   2.049   7.023   1.858
 5691SOL    HW117972   2.004   0.017   1.771
 5691SOL    HW217973   2.095   0.080   1.891
 5692SOL     OW17974   6.471   3.250   5.956
 5692SOL    HW117975   6.439   3.233   6.049
 5692SOL    HW217976   6.548   3.314   5.958
 5693SOL     OW17977   4.485   2.381   2.643
 5693SOL    HW117978   4.556   2.337   2.698
 5693SOL    HW217979   4.398   2.377   2.693
 5694SOL     OW17980   0.500   1.036   3.511
 5694SOL    HW117981   0.504   1.116   3.452
 5694SOL    HW217982   0.569   0.970   3.481
 5695SOL     OW17983   1.597   3.393   3.566
 5695SOL    HW117984   1.695   3.408   3.580
 5695SOL    HW217985   1.552   3.481   3.548
 5696SOL     OW17986   2.685   0.978   5.301
 5696SOL    HW117987   2.742   0.914   5.249
 5696SOL    HW217988   2.741   1.053   5.335
 5697SOL     OW17989   6.773   2.733   0.352
 5697SOL    HW117990   6.760   2.810   0.414
 5697SOL    HW217991   6.871   2.719   0.336
 5698SOL     OW17992   0.720   3.165   1.639
 5698SOL    HW117993   0.706   3.225   1.560
 5698SOL    HW217994   0.636   3.113   1.657
 5699SOL     OW17995   5.699   1.166   4.993
 5699SOL    HW117996   5.714   1.206   5.083
 5699SOL    HW217997   5.601   1.166   4.973
 5700SOL     OW17998   1.685   5.724   5.241
 5700SOL    HW117999   1.695   5.813   5.286
 5700SOL    HW218000   1.627   5.734   5.160
 5701SOL     OW18001   6.764   5.595   2.262
 5701SOL    HW118002   6.806   5.685   2.255
 5701SOL    HW218003   6.720   5.586   2.351
 5702SOL     OW18004   2.370   6.443   6.675
 5702SOL    HW118005   2.366   6.500   6.757
 5702SOL    HW218006   2.278   6.426   6.641
 5703SOL     OW18007   4.423   4.829   0.274
 5703SOL    HW118008   4.397   4.764   0.346
 5703SOL    HW218009   4.343   4.883   0.248
 5704SOL     OW18010   4.519   5.312   3.584
 5704SOL    HW118011   4.566   5.371   3.518
 5704SOL    HW218012   4.424   5.299   3.555
 5705SOL     OW18013   6.028   0.207   1.231
 5705SOL    HW118014   5.974   0.291   1.240
 5705SOL    HW218015   5.982   0.145   1.167
 5706SOL     OW18016   1.385   1.588   7.001
 5706SOL    HW118017   1.334   1.581   6.915
 5706SOL    HW218018   1.327   1.558   0.051
 5707SOL     OW18019   2.026   1.295   6.271
 5707SOL    HW118020   2.054   1.388   6.295
 5707SOL    HW218021   2.097   1.231   6.299
 5708SOL     OW18022   5.027   0.001   2.687
 5708SOL    HW118023   5.012   6.998   2.592
 5708SOL    HW218024   5.076   0.087   2.689
 5709SOL     OW18025   0.595   6.369   2.645
 5709SOL    HW118026   0.525   6.397   2.711
 5709SOL    HW218027   0.579   6.274   2.617
 5710SOL     OW18028   3.085   3.355   5.897
 5710SOL    HW118029   3.033   3.440   5.890
 5710SOL    HW218030   3.170   3.372   5.947
 5711SOL     OW18031   5.010   1.317   3.832
 5711SOL    HW118032   4.921   1.358   3.854
 5711SOL    HW218033   4.998   1.219   3.818
 5712SOL     OW18034   0.088   6.205   5.964
 5712SOL    HW118035   0.102   6.142   5.888
 5712SOL    HW218036   0.042   6.287   5.930
 5713SOL     OW18037   0.005   3.058   2.641
 5713SOL    HW118038   0.076   3.129   2.647
 5713SOL    HW218039   0.036   2.976   2.690
 5714SOL     OW18040   1.122   0.758   5.807
 5714SOL    HW118041   1.030   0.719   5.803
 5714SOL    HW218042   1.131   0.831   5.740
 5715SOL     OW18043   1.416   6.570   2.037
 5715SOL    HW118044   1.510   6.548   2.010
 5715SOL    HW218045   1.365   6.601   1.957
 5716SOL     OW18046   1.327   4.083   6.435
 5716SOL    HW118047   1.285   4.173   6.422
 5716SOL    HW218048   1.393   4.066   6.362
 5717SOL     OW18049   1.136   4.212   0.951
 5717SOL    HW118050   1.235   4.201   0.957
 5717SOL    HW218051   1.112   4.249   0.861
 5718SOL     OW18052   2.758   4.751   6.488
 5718SOL    HW118053   2.854   4.769   6.510
 5718SOL    HW218054   2.736   4.791   6.399
 5719SOL     OW18055   3.483   0.507   6.714
 5719SOL    HW118056   3.511   0.594   6.672
 5719SOL    HW218057   3.554   0.438   6.700
 5720SOL     OW18058   1.388   5.487   5.590
 5720SOL    HW118059   1.382   5.388   5.593
 5720SOL    HW218060   1.473   5.515   5.546
 5721SOL     OW18061   0.329   3.078   0.895
 5721SOL    HW118062   0.262   3.077   0.969
 5721SOL    HW218063   0.397   3.007   0.912
 5722SOL     OW18064   5.808   0.158   4.690
 5722SOL    HW118065   5.773   0.087   4.751
 5722SOL    HW218066   5.876   0.212   4.738
 5723SOL     OW18067   3.957   5.837   0.541
 5723SOL    HW118068   3.969   5.772   0.467
 5723SOL    HW218069   3.890   5.906   0.515
 5724SOL     OW18070   5.523   1.921   6.263
 5724SOL    HW118071   5.546   2.018   6.271
 5724SOL    HW218072   5.600   1.866   6.297
 5725SOL     OW18073   5.477   5.142   4.548
 5725SOL    HW118074   5.424   5.063   4.577
 5725SOL    HW218075   5.429   5.191   4.475
 5726SOL     OW18076   5.807   3.712   5.777
 5726SOL    HW118077   5.815   3.784   5.845
 5726SOL    HW218078   5.724   3.658   5.795
 5727SOL     OW18079   5.700   1.858   3.217
 5727SOL    HW118080   5.642   1.843   3.297
 5727SOL    HW218081   5.789   1.894   3.247
 5728SOL     OW18082   6.097   0.751   5.293
 5728SOL    HW118083   6.137   0.790   5.210
 5728SOL    HW218084   6.163   0.688   5.335
 5729SOL     OW18085   0.139   1.156   6.118
 5729SOL    HW118086   0.098   1.123   6.203
 5729SOL    HW218087   0.239   1.148   6.124
 5730SOL     OW18088   4.016   5.594   5.781
 5730SOL    HW118089   4.111   5.567   5.766
 5730SOL    HW218090   4.013   5.670   5.845
 5731SOL     OW18091   2.766   0.833   4.103
 5731SOL    HW118092   2.694   0.764   4.106
 5731SOL    HW218093   2.820   0.829   4.187
 5732SOL     OW18094   6.069   5.373   5.066
 5732SOL    HW118095   6.125   5.293   5.042
 5732SOL    HW218096   6.096   5.407   5.156
 5733SOL     OW18097   3.501   0.636   7.007
 5733SOL    HW118098   3.488   0.692   0.064
 5733SOL    HW218099   3.421   0.642   6.948
 5734SOL     OW18100   1.589   6.857   5.632
 5734SOL    HW118101   1.505   6.878   5.682
 5734SOL    HW218102   1.631   6.942   5.601
 5735SOL     OW18103   4.018   0.785   2.182
 5735SOL    HW118104   4.041   0.689   2.197
 5735SOL    HW218105   4.019   0.804   2.084
 5736SOL     OW18106   4.454   4.182   6.892
 5736SOL    HW118107   4.413   4.090   6.889
 5736SOL    HW218108   4.499   4.195   6.980
 5737SOL     OW18109   4.918   5.150   1.563
 5737SOL    HW118110   4.963   5.194   1.640
 5737SOL    HW218111   4.827   5.191   1.550
 5738SOL     OW18112   3.874   1.229   6.537
 5738SOL    HW118113   3.947   1.190   6.481
 5738SOL    HW218114   3.786   1.213   6.493
 5739SOL     OW18115   2.859   0.735   6.121
 5739SOL    HW118116   2.829   0.708   6.213
 5739SOL    HW218117   2.780   0.736   6.060
 5740SOL     OW18118   5.578   3.621   1.016
 5740SOL    HW118119   5.512   3.610   1.090
 5740SOL    HW218120   5.671   3.610   1.051
 5741SOL     OW18121   0.749   3.443   4.231
 5741SOL    HW118122   0.666   3.499   4.218
 5741SOL    HW218123   0.752   3.411   4.326
 5742SOL     OW18124   4.283   6.955   3.630
 5742SOL    HW118125   4.347   6.882   3.651
 5742SOL    HW218126   4.312   7.002   3.546
 5743SOL     OW18127   3.556   4.023   5.542
 5743SOL    HW118128   3.504   3.957   5.596
 5743SOL    HW218129   3.612   4.080   5.603
 5744SOL     OW18130   5.679   6.788   3.065
 5744SOL    HW118131   5.589   6.757   3.096
 5744SOL    HW218132   5.713   6.859   3.127
 5745SOL     OW18133   2.298   2.419   3.522
 5745SOL    HW118134   2.217   2.476   3.507
 5745SOL    HW218135   2.323   2.423   3.619
 5746SOL     OW18136   4.105   0.400   3.502
 5746SOL    HW118137   4.135   0.367   3.412
 5746SOL    HW218138   4.006   0.389   3.510
 5747SOL     OW18139   1.010   6.055   1.847
 5747SOL    HW118140   0.945   5.999   1.795
 5747SOL    HW218141   1.026   6.012   1.936
 5748SOL     OW18142   0.178   6.024   0.635
 5748SOL    HW118143   0.254   6.088   0.642
 5748SOL    HW218144   0.202   5.938   0.681
 5749SOL     OW18145   1.505   6.356   5.263
 5749SOL    HW118146   1.432   6.354   5.331
 5749SOL    HW218147   1.574   6.287   5.286
 5750SOL     OW18148   6.945   3.943   4.058
 5750SOL    HW118149   6.857   3.900   4.078
 5750SOL    HW218150   7.016   3.903   4.116
 5751SOL     OW18151   2.137   3.662   4.290
 5751SOL    HW118152   2.155   3.580   4.345
 5751SOL    HW218153   2.125   3.740   4.350
 5752SOL     OW18154   5.500   0.102   0.697
 5752SOL    HW118155   5.436   0.169   0.659
 5752SOL    HW218156   5.547   0.141   0.776
 5753SOL     OW18157   2.954   3.941   4.876
 5753SOL    HW118158   3.053   3.932   4.890
 5753SOL    HW218159   2.907   3.934   4.964
 5754SOL     OW18160   1.113   5.929   1.510
 5754SOL    HW118161   1.027   5.966   1.474
 5754SOL    HW218162   1.171   5.901   1.433
 5755SOL     OW18163   2.503   2.574   6.710
 5755SOL    HW118164   2.586   2.581   6.655
 5755SOL    HW218165   2.505   2.491   6.764
 5756SOL     OW18166   6.056   6.250   2.051
 5756SOL    HW118167   6.132   6.298   2.007
 5756SOL    HW218168   6.085   6.217   2.141
 5757SOL     OW18169   6.905   6.421   3.438
 5757SOL    HW118170   6.891   6.433   3.340
 5757SOL    HW218171   6.972   6.488   3.470
 5758SOL     OW18172   1.466   6.472   3.420
 5758SOL    HW118173   1.530   6.429   3.357
 5758SOL    HW218174   1.505   6.559   3.453
 5759SOL     OW18175   4.307   6.943   1.813
 5759SOL    HW118176   4.349   6.985   1.894
 5759SOL    HW218177   4.372   6.881   1.770
 5760SOL     OW18178   6.607   3.308   2.149
 5760SOL    HW118179   6.618   3.302   2.248
 5760SOL    HW218180   6.577   3.219   2.113
 5761SOL     OW18181   5.637   5.876   4.454
 5761SOL    HW118182   5.550   5.845   4.491
 5761SOL    HW218183   5.695   5.912   4.527
 5762SOL     OW18184   5.558   4.275   6.793
 5762SOL    HW118185   5.568   4.278   6.892
 5762SOL    HW218186   5.496   4.201   6.767
 5763SOL     OW18187   5.494   0.578   0.614
 5763SOL    HW118188   5.414   0.573   0.674
 5763SOL    HW218189   5.497   0.498   0.555
 5764SOL     OW18190   4.280   5.265   3.490
 5764SOL    HW118191   4.254   5.361   3.506
 5764SOL    HW218192   4.203   5.206   3.512
 5765SOL     OW18193   6.429   5.013   0.905
 5765SOL    HW118194   6.358   5.001   0.974
 5765SOL    HW218195   6.464   4.923   0.878
 5766SOL     OW18196   1.431   1.618   4.488
 5766SOL    HW118197   1.397   1.579   4.574
 5766SOL    HW218198   1.456   1.545   4.425
 5767SOL     OW18199   2.076   0.812   0.474
 5767SOL    HW118200   2.099   0.801   0.570
 5767SOL    HW218201   1.979   0.836   0.465
 5768SOL     OW18202   6.602   6.891   4.044
 5768SOL    HW118203   6.611   6.807   3.990
 5768SOL    HW218204   6.553   6.871   4.129
 5769SOL     OW18205   1.846   5.377   6.663
 5769SOL    HW118206   1.813   5.452   6.606
 5769SOL    HW218207   1.934   5.402   6.703
 5770SOL     OW18208   0.554   5.974   0.691
 5770SOL    HW118209   0.641   6.000   0.650
 5770SOL    HW218210   0.499   6.056   0.706
 5771SOL     OW18211   2.131   5.404   3.941
 5771SOL    HW118212   2.061   5.474   3.957
 5771SOL    HW218213   2.221   5.443   3.959
 5772SOL     OW18214   4.445   0.561   1.967
 5772SOL    HW118215   4.539   0.584   1.994
 5772SOL    HW218216   4.390   0.645   1.962
 5773SOL     OW18217   4.172   1.791   2.128
 5773SOL    HW118218   4.247   1.770   2.191
 5773SOL    HW218219   4.207   1.843   2.050
 5774SOL     OW18220   1.245   6.366   3.937
 5774SOL    HW118221   1.321   6.303   3.954
 5774SOL    HW218222   1.262   6.417   3.852
 5775SOL     OW18223   0.674   5.392   3.053
 5775SOL    HW118224   0.719   5.460   3.111
 5775SOL    HW218225   0.612   5.438   2.989
 5776SOL     OW18226   1.759   0.470   3.282
 5776SOL    HW118227   1.817   0.390   3.262
 5776SOL    HW218228   1.797   0.550   3.235
 5777SOL     OW18229   1.508   0.376   3.084
 5777SOL    HW118230   1.458   0.426   3.013
 5777SOL    HW218231   1.507   0.429   3.168
 5778SOL     OW18232   1.256   1.515   6.714
 5778SOL    HW118233   1.172   1.563   6.689
 5778SOL    HW218234   1.246   1.417   6.695
 5779SOL     OW18235   4.826   2.411   6.590
 5779SOL    HW118236   4.834   2.369   6.681
 5779SOL    HW218237   4.918   2.426   6.553
 5780SOL     OW18238   5.682   5.463   4.025
 5780SOL    HW118239   5.655   5.369   4.047
 5780SOL    HW218240   5.772   5.482   4.064
 5781SOL     OW18241   6.726   4.768   4.983
 5781SOL    HW118242   6.683   4.692   4.934
 5781SOL    HW218243   6.760   4.735   5.071
 5782SOL     OW18244   0.912   1.518   0.170
 5782SOL    HW118245   0.884   1.422   0.176
 5782SOL    HW218246   0.995   1.531   0.224
 5783SOL     OW18247   1.246   1.559   1.941
 5783SOL    HW118248   1.214   1.630   1.879
 5783SOL    HW218249   1.346   1.559   1.945
 5784SOL     OW18250   0.464   6.149   6.694
 5784SOL    HW118251   0.438   6.194   6.779
 5784SOL    HW218252   0.541   6.197   6.653
 5785SOL     OW18253   2.845   1.768   0.615
 5785SOL    HW118254   2.919   1.703   0.632
 5785SOL    HW218255   2.874   1.834   0.545
 5786SOL     OW18256   0.135   4.427   6.734
 5786SOL    HW118257   0.093   4.478   6.809
 5786SOL    HW218258   0.231   4.409   6.756
 5787SOL     OW18259   1.965   2.149   5.789
 5787SOL    HW118260   2.026   2.203   5.847
 5787SOL    HW218261   1.943   2.201   5.707
 5788SOL     OW18262   2.270   1.302   2.693
 5788SOL    HW118263   2.279   1.375   2.625
 5788SOL    HW218264   2.201   1.237   2.663
 5789SOL     OW18265   3.343   5.492   6.799
 5789SOL    HW118266   3.361   5.400   6.832
 5789SOL    HW218267   3.273   5.489   6.727
 5790SOL     OW18268   0.093   3.169   4.639
 5790SOL    HW118269   0.162   3.150   4.709
 5790SOL    HW218270   0.126   3.242   4.579
 5791SOL     OW18271   3.005   0.306   2.557
 5791SOL    HW118272   3.063   0.386   2.540
 5791SOL    HW218273   3.048   0.226   2.515
 5792SOL     OW18274   0.139   2.054   3.262
 5792SOL    HW118275   0.158   2.017   3.353
 5792SOL    HW218276   0.177   2.146   3.255
 5793SOL     OW18277   6.976   0.826   3.575
 5793SOL    HW118278   0.011   0.842   3.654
 5793SOL    HW218279   6.982   0.904   3.512
 5794SOL     OW18280   3.823   2.645   0.123
 5794SOL    HW118281   3.845   2.666   0.219
 5794SOL    HW218282   3.726   2.623   0.116
 5795SOL     OW18283   5.782   5.264   5.669
 5795SOL    HW118284   5.684   5.267   5.649
 5795SOL    HW218285   5.817   5.358   5.676
 5796SOL     OW18286   3.461   0.761   0.253
 5796SOL    HW118287   3.490   0.746   0.347
 5796SOL    HW218288   3.476   0.857   0.229
 5797SOL     OW18289   3.832   1.917   5.286
 5797SOL    HW118290   3.899   1.850   5.254
 5797SOL    HW218291   3.864   1.957   5.372
 5798SOL     OW18292   0.673   3.829   5.363
 5798SOL    HW118293   0.650   3.735   5.338
 5798SOL    HW218294   0.719   3.874   5.286
 5799SOL     OW18295   5.780   0.345   3.832
 5799SOL    HW118296   5.738   0.342   3.923
 5799SOL    HW218297   5.736   0.278   3.773
 5800SOL     OW18298   5.673   6.002   1.451
 5800SOL    HW118299   5.672   6.072   1.523
 5800SOL    HW218300   5.666   6.046   1.362
 5801SOL     OW18301   0.590   1.877   4.017
 5801SOL    HW118302   0.669   1.874   3.955
 5801SOL    HW218303   0.617   1.842   4.106
 5802SOL     OW18304   0.839   4.287   6.772
 5802SOL    HW118305   0.793   4.362   6.819
 5802SOL    HW218306   0.819   4.292   6.674
 5803SOL     OW18307   1.602   5.141   1.760
 5803SOL    HW118308   1.655   5.063   1.791
 5803SOL    HW218309   1.561   5.121   1.671
 5804SOL     OW18310   6.177   4.176   3.905
 5804SOL    HW118311   6.191   4.184   3.807
 5804SOL    HW218312   6.195   4.264   3.949
 5805SOL     OW18313   3.850   4.043   6.682
 5805SOL    HW118314   3.918   4.029   6.610
 5805SOL    HW218315   3.758   4.031   6.643
 5806SOL     OW18316   0.399   6.791   6.826
 5806SOL    HW118317   0.448   6.704   6.815
 5806SOL    HW218318   0.394   6.838   6.738
 5807SOL     OW18319   1.139   3.918   1.779
 5807SOL    HW118320   1.136   3.924   1.879
 5807SOL    HW218321   1.192   3.838   1.752
 5808SOL     OW18322   5.549   3.623   2.601
 5808SOL    HW118323   5.461   3.620   2.649
 5808SOL    HW218324   5.600   3.539   2.619
 5809SOL     OW18325   6.446   2.624   4.282
 5809SOL    HW118326   6.493   2.558   4.224
 5809SOL    HW218327   6.430   2.584   4.373
 5810SOL     OW18328   3.404   1.218   4.465
 5810SOL    HW118329   3.401   1.121   4.442
 5810SOL    HW218330   3.378   1.272   4.385
 5811SOL     OW18331   3.363   0.242   4.975
 5811SOL    HW118332   3.284   0.184   4.956
 5811SOL    HW218333   3.397   0.223   5.068
 5812SOL     OW18334   4.930   0.235   4.412
 5812SOL    HW118335   4.898   0.253   4.505
 5812SOL    HW218336   4.871   0.282   4.347
 5813SOL     OW18337   1.240   1.064   6.330
 5813SOL    HW118338   1.247   1.164   6.322
 5813SOL    HW218339   1.144   1.038   6.337
 5814SOL     OW18340   6.558   3.926   0.567
 5814SOL    HW118341   6.641   3.930   0.511
 5814SOL    HW218342   6.481   3.894   0.511
 5815SOL     OW18343   4.505   2.550   3.338
 5815SOL    HW118344   4.461   2.536   3.427
 5815SOL    HW218345   4.595   2.591   3.352
 5816SOL     OW18346   5.841   6.808   0.413
 5816SOL    HW118347   5.838   6.729   0.474
 5816SOL    HW218348   5.935   6.838   0.401
 5817SOL     OW18349   5.722   3.075   5.284
 5817SOL    HW118350   5.810   3.046   5.320
 5817SOL    HW218351   5.669   3.119   5.357
 5818SOL     OW18352   6.811   6.029   4.693
 5818SOL    HW118353   6.748   5.965   4.650
 5818SOL    HW218354   6.895   5.982   4.718
 5819SOL     OW18355   4.072   0.228   0.947
 5819SOL    HW118356   4.082   0.235   0.848
 5819SOL    HW218357   3.979   0.199   0.970
 5820SOL     OW18358   4.844   0.251   3.649
 5820SOL    HW118359   4.841   0.351   3.659
 5820SOL    HW218360   4.836   0.208   3.739
 5821SOL     OW18361   2.066   0.716   1.809
 5821SOL    HW118362   2.097   0.646   1.873
 5821SOL    HW218363   1.970   0.738   1.826
 5822SOL     OW18364   0.614   2.211   1.497
 5822SOL    HW118365   0.689   2.244   1.555
 5822SOL    HW218366   0.529   2.209   1.550
 5823SOL     OW18367   0.998   0.943   5.370
 5823SOL    HW118368   0.955   1.026   5.405
 5823SOL    HW218369   1.002   0.946   5.270
 5824SOL     OW18370   6.968   6.686   2.898
 5824SOL    HW118371   6.941   6.772   2.856
 5824SOL    HW218372   6.893   6.620   2.892
 5825SOL     OW18373   2.182   1.956   5.753
 5825SOL    HW118374   2.247   1.996   5.688
 5825SOL    HW218375   2.098   2.011   5.754
 5826SOL     OW18376   6.985   6.023   5.548
 5826SOL    HW118377   6.890   6.004   5.524
 5826SOL    HW218378   0.017   6.015   5.466
 5827SOL     OW18379   1.314   5.544   4.818
 5827SOL    HW118380   1.399   5.540   4.871
 5827SOL    HW218381   1.292   5.453   4.784
 5828SOL     OW18382   0.227   3.369   1.846
 5828SOL    HW118383   0.219   3.368   1.746
 5828SOL    HW218384   0.272   3.453   1.875
 5829SOL     OW18385   2.780   1.269   2.541
 5829SOL    HW118386   2.852   1.319   2.493
 5829SOL    HW218387   2.695   1.322   2.537
 5830SOL     OW18388   3.893   0.830   5.718
 5830SOL    HW118389   3.828   0.778   5.774
 5830SOL    HW218390   3.987   0.806   5.746
 5831SOL     OW18391   6.183   6.765   3.925
 5831SOL    HW118392   6.206   6.850   3.972
 5831SOL    HW218393   6.084   6.751   3.929
 5832SOL     OW18394   4.325   3.629   5.268
 5832SOL    HW118395   4.372   3.716   5.285
 5832SOL    HW218396   4.278   3.634   5.180
 5833SOL     OW18397   3.185   3.403   4.148
 5833SOL    HW118398   3.226   3.317   4.118
 5833SOL    HW218399   3.126   3.439   4.075
 5834SOL     OW18400   6.022   1.909   0.663
 5834SOL    HW118401   6.058   1.969   0.735
 5834SOL    HW218402   5.947   1.956   0.616
 5835SOL     OW18403   5.230   2.863   3.095
 5835SOL    HW118404   5.178   2.883   3.178
 5835SOL    HW218405   5.226   2.942   3.033
 5836SOL     OW18406   2.796   6.009   3.262
 5836SOL    HW118407   2.729   5.941   3.236
 5836SOL    HW218408   2.802   6.015   3.362
 5837SOL     OW18409   4.128   4.547   6.371
 5837SOL    HW118410   4.214   4.521   6.415
 5837SOL    HW218411   4.058   4.479   6.391
 5838SOL     OW18412   1.831   1.842   6.045
 5838SOL    HW118413   1.774   1.897   5.984
 5838SOL    HW218414   1.910   1.896   6.075
 5839SOL     OW18415   0.291   2.668   2.458
 5839SOL    HW118416   0.323   2.689   2.365
 5839SOL    HW218417   0.370   2.653   2.517
 5840SOL     OW18418   1.286   5.576   6.948
 5840SOL    HW118419   1.360   5.630   6.908
 5840SOL    HW218420   1.211   5.637   6.975
 5841SOL     OW18421   5.757   2.982   2.277
 5841SOL    HW118422   5.662   2.954   2.275
 5841SOL    HW218423   5.790   2.985   2.371
 5842SOL     OW18424   3.479   3.185   0.724
 5842SOL    HW118425   3.491   3.157   0.629
 5842SOL    HW218426   3.452   3.282   0.727
 5843SOL     OW18427   2.086   3.757   2.531
 5843SOL    HW118428   2.073   3.700   2.612
 5843SOL    HW218429   2.076   3.702   2.448
 5844SOL     OW18430   0.390   6.810   6.027
 5844SOL    HW118431   0.346   6.724   6.000
 5844SOL    HW218432   0.413   6.863   5.946
 5845SOL     OW18433   0.951   1.300   3.067
 5845SOL    HW118434   1.013   1.340   3.135
 5845SOL    HW218435   0.862   1.284   3.109
 5846SOL     OW18436   6.740   3.076   4.987
 5846SOL    HW118437   6.821   3.058   4.932
 5846SOL    HW218438   6.668   3.115   4.929
 5847SOL     OW18439   1.859   1.793   2.305
 5847SOL    HW118440   1.955   1.789   2.335
 5847SOL    HW218441   1.810   1.862   2.358
 5848SOL     OW18442   2.714   4.950   3.805
 5848SOL    HW118443   2.723   4.918   3.711
 5848SOL    HW218444   2.627   4.997   3.817
 5849SOL     OW18445   0.580   0.885   5.924
 5849SOL    HW118446   0.576   0.980   5.954
 5849SOL    HW218447   0.598   0.826   6.003
 5850SOL     OW18448   0.793   3.313   1.984
 5850SOL    HW118449   0.863   3.261   1.934
 5850SOL    HW218450   0.717   3.253   2.008
 5851SOL     OW18451   5.471   3.134   2.677
 5851SOL    HW118452   5.450   3.189   2.595
 5851SOL    HW218453   5.416   3.050   2.675
 5852SOL     OW18454   4.462   6.381   3.190
 5852SOL    HW118455   4.526   6.408   3.262
 5852SOL    HW218456   4.513   6.337   3.115
 5853SOL     OW18457   3.153   5.841   5.784
 5853SOL    HW118458   3.096   5.924   5.789
 5853SOL    HW218459   3.117   5.781   5.713
 5854SOL     OW18460   6.879   3.499   6.062
 5854SOL    HW118461   6.875   3.563   6.139
 5854SOL    HW218462   6.923   3.414   6.092
 5855SOL     OW18463   0.914   0.948   4.799
 5855SOL    HW118464   0.888   0.852   4.805
 5855SOL    HW218465   0.995   0.964   4.856
 5856SOL     OW18466   1.853   5.433   3.246
 5856SOL    HW118467   1.823   5.472   3.333
 5856SOL    HW218468   1.786   5.365   3.216
 5857SOL     OW18469   5.888   2.808   4.898
 5857SOL    HW118470   5.851   2.766   4.814
 5857SOL    HW218471   5.813   2.824   4.962
 5858SOL     OW18472   2.503   2.296   1.679
 5858SOL    HW118473   2.488   2.395   1.684
 5858SOL    HW218474   2.553   2.265   1.760
 5859SOL     OW18475   5.735   6.275   0.986
 5859SOL    HW118476   5.740   6.255   1.084
 5859SOL    HW218477   5.747   6.190   0.935
 5860SOL     OW18478   2.385   4.200   1.946
 5860SOL    HW118479   2.476   4.159   1.944
 5860SOL    HW218480   2.388   4.290   1.903
 5861SOL     OW18481   5.249   1.711   3.741
 5861SOL    HW118482   5.236   1.706   3.840
 5861SOL    HW218483   5.221   1.624   3.700
 5862SOL     OW18484   4.025   5.580   2.960
 5862SOL    HW118485   4.010   5.582   2.861
 5862SOL    HW218486   3.955   5.524   3.004
 5863SOL     OW18487   2.735   0.780   5.633
 5863SOL    HW118488   2.827   0.819   5.635
 5863SOL    HW218489   2.741   0.681   5.616
 5864SOL     OW18490   4.278   3.882   1.645
 5864SOL    HW118491   4.242   3.790   1.659
 5864SOL    HW218492   4.376   3.882   1.666
 5865SOL     OW18493   5.532   0.609   3.955
 5865SOL    HW118494   5.536   0.583   3.859
 5865SOL    HW218495   5.595   0.551   4.008
 5866SOL     OW18496   4.056   6.200   6.796
 5866SOL    HW118497   4.070   6.157   6.706
 5866SOL    HW218498   3.959   6.200   6.818
 5867SOL     OW18499   0.251   3.081   0.579
 5867SOL    HW118500   0.245   2.986   0.548
 5867SOL    HW218501   0.328   3.091   0.643
 5868SOL     OW18502   0.220   0.294   5.253
 5868SOL    HW118503   0.120   0.306   5.250
 5868SOL    HW218504   0.241   0.208   5.300
 5869SOL     OW18505   2.233   5.023   3.723
 5869SOL    HW118506   2.206   5.119   3.714
 5869SOL    HW218507   2.292   4.998   3.646
 5870SOL     OW18508   4.910   5.306   4.960
 5870SOL    HW118509   4.922   5.213   4.925
 5870SOL    HW218510   4.954   5.314   5.049
 5871SOL     OW18511   3.870   4.000   7.017
 5871SOL    HW118512   3.849   4.017   6.921
 5871SOL    HW218513   3.784   3.988   0.042
 5872SOL     OW18514   4.133   5.843   0.041
 5872SOL    HW118515   4.230   5.843   0.016
 5872SOL    HW218516   4.077   5.823   6.986
 5873SOL     OW18517   2.208   2.622   0.163
 5873SOL    HW118518   2.139   2.570   0.213
 5873SOL    HW218519   2.165   2.702   0.121
 5874SOL     OW18520   2.868   3.238   1.313
 5874SOL    HW118521   2.883   3.255   1.410
 5874SOL    HW218522   2.801   3.304   1.278
 5875SOL     OW18523   3.876   1.397   0.420
 5875SOL    HW118524   3.796   1.434   0.466
 5875SOL    HW218525   3.950   1.464   0.423
 5876SOL     OW18526   3.358   3.074   6.863
 5876SOL    HW118527   3.348   2.981   6.829
 5876SOL    HW218528   3.292   3.090   6.936
 5877SOL     OW18529   6.115   6.361   1.675
 5877SOL    HW118530   6.125   6.264   1.652
 5877SOL    HW218531   6.180   6.415   1.622
 5878SOL     OW18532   5.541   5.666   2.935
 5878SOL    HW118533   5.573   5.761   2.936
 5878SOL    HW218534   5.497   5.644   3.022
 5879SOL     OW18535   3.647   3.052   6.089
 5879SOL    HW118536   3.565   3.024   6.139
 5879SOL    HW218537   3.625   3.062   5.992
 5880SOL     OW18538   4.602   3.594   5.595
 5880SOL    HW118539   4.508   3.585   5.629
 5880SOL    HW218540   4.603   3.655   5.516
 5881SOL     OW18541   1.386   6.694   2.380
 5881SOL    HW118542   1.405   6.606   2.338
 5881SOL    HW218543   1.440   6.765   2.335
 5882SOL     OW18544   1.384   6.598   5.793
 5882SOL    HW118545   1.375   6.520   5.854
 5882SOL    HW218546   1.327   6.584   5.711
 5883SOL     OW18547   6.961   2.871   0.574
 5883SOL    HW118548   7.005   2.935   0.511
 5883SOL    HW218549   7.019   2.859   0.655
 5884SOL     OW18550   6.522   1.056   3.664
 5884SOL    HW118551   6.522   0.983   3.732
 5884SOL    HW218552   6.508   1.018   3.573
 5885SOL     OW18553   0.524   5.743   0.897
 5885SOL    HW118554   0.551   5.682   0.822
 5885SOL    HW218555   0.548   5.837   0.873
 5886SOL     OW18556   1.403   3.173   2.987
 5886SOL    HW118557   1.452   3.259   3.002
 5886SOL    HW218558   1.391   3.126   3.075
 5887SOL     OW18559   2.208   2.003   1.652
 5887SOL    HW118560   2.198   2.097   1.684
 5887SOL    HW218561   2.117   1.962   1.641
 5888SOL     OW18562   2.860   0.155   0.795
 5888SOL    HW118563   2.914   0.144   0.711
 5888SOL    HW218564   2.899   0.228   0.851
 5889SOL     OW18565   6.912   1.637   1.167
 5889SOL    HW118566   6.943   1.670   1.078
 5889SOL    HW218567   6.991   1.625   1.227
 5890SOL     OW18568   2.041   6.314   2.669
 5890SOL    HW118569   1.973   6.387   2.676
 5890SOL    HW218570   2.054   6.271   2.758
 5891SOL     OW18571   2.867   3.479   0.422
 5891SOL    HW118572   2.788   3.419   0.431
 5891SOL    HW218573   2.883   3.526   0.510
 5892SOL     OW18574   0.201   3.874   0.637
 5892SOL    HW118575   0.191   3.800   0.570
 5892SOL    HW218576   0.227   3.835   0.725
 5893SOL     OW18577   1.060   5.263   1.684
 5893SOL    HW118578   1.155   5.265   1.653
 5893SOL    HW218579   1.024   5.357   1.686
 5894SOL     OW18580   0.915   5.898   5.960
 5894SOL    HW118581   0.862   5.909   5.876
 5894SOL    HW218582   0.947   5.803   5.966
 5895SOL     OW18583   6.256   3.261   5.009
 5895SOL    HW118584   6.221   3.326   4.941
 5895SOL    HW218585   6.252   3.303   5.100
 5896SOL     OW18586   5.372   1.642   1.708
 5896SOL    HW118587   5.294   1.581   1.693
 5896SOL    HW218588   5.342   1.725   1.754
 5897SOL     OW18589   3.815   1.457   1.641
 5897SOL    HW118590   3.731   1.442   1.692
 5897SOL    HW218591   3.848   1.370   1.604
 5898SOL     OW18592   1.713   1.461   5.595
 5898SOL    HW118593   1.681   1.406   5.518
 5898SOL    HW218594   1.787   1.412   5.643
 5899SOL     OW18595   6.202   5.512   6.372
 5899SOL    HW118596   6.292   5.515   6.329
 5899SOL    HW218597   6.186   5.421   6.410
 5900SOL     OW18598   0.342   5.362   3.104
 5900SOL    HW118599   0.384   5.350   3.194
 5900SOL    HW218600   0.383   5.296   3.040
 5901SOL     OW18601   1.329   0.346   6.800
 5901SOL    HW118602   1.396   0.351   6.725
 5901SOL    HW218603   1.362   0.399   6.878
 5902SOL     OW18604   5.659   3.591   4.650
 5902SOL    HW118605   5.668   3.572   4.552
 5902SOL    HW218606   5.563   3.603   4.673
 5903SOL     OW18607   5.462   2.866   6.760
 5903SOL    HW118608   5.551   2.908   6.777
 5903SOL    HW218609   5.475   2.768   6.741
 5904SOL     OW18610   1.372   4.993   2.041
 5904SOL    HW118611   1.432   5.011   1.962
 5904SOL    HW218612   1.318   4.910   2.023
 5905SOL     OW18613   5.458   0.957   3.599
 5905SOL    HW118614   5.521   1.035   3.592
 5905SOL    HW218615   5.400   0.969   3.680
 5906SOL     OW18616   5.632   1.172   5.349
 5906SOL    HW118617   5.731   1.169   5.364
 5906SOL    HW218618   5.586   1.128   5.427
 5907SOL     OW18619   1.698   1.060   0.315
 5907SOL    HW118620   1.695   0.961   0.297
 5907SOL    HW218621   1.772   1.101   0.263
 5908SOL     OW18622   4.176   3.201   6.990
 5908SOL    HW118623   4.124   3.265   0.021
 5908SOL    HW218624   4.206   3.247   6.906
 5909SOL     OW18625   0.494   4.619   5.416
 5909SOL    HW118626   0.544   4.676   5.351
 5909SOL    HW218627   0.456   4.540   5.368
 5910SOL     OW18628   1.708   3.918   1.616
 5910SOL    HW118629   1.739   3.995   1.671
 5910SOL    HW218630   1.787   3.877   1.569
 5911SOL     OW18631   6.793   5.255   6.343
 5911SOL    HW118632   6.720   5.238   6.277
 5911SOL    HW218633   6.763   5.326   6.408
 5912SOL     OW18634   6.103   3.202   6.904
 5912SOL    HW118635   6.022   3.260   6.916
 5912SOL    HW218636   6.092   3.118   6.958
 5913SOL     OW18637   2.339   2.630   5.435
 5913SOL    HW118638   2.311   2.657   5.527
 5913SOL    HW218639   2.391   2.545   5.439
 5914SOL     OW18640   2.482   5.741   0.403
 5914SOL    HW118641   2.419   5.813   0.431
 5914SOL    HW218642   2.576   5.774   0.412
 5915SOL     OW18643   5.655   2.857   2.831
 5915SOL    HW118644   5.661   2.773   2.778
 5915SOL    HW218645   5.596   2.842   2.911
 5916SOL     OW18646   4.278   0.087   5.739
 5916SOL    HW118647   4.291   0.154   5.666
 5916SOL    HW218648   4.180   0.079   5.761
 5917SOL     OW18649   3.419   3.039   3.287
 5917SOL    HW118650   3.412   2.978   3.367
 5917SOL    HW218651   3.327   3.057   3.251
 5918SOL     OW18652   1.486   3.622   4.222
 5918SOL    HW118653   1.473   3.718   4.245
 5918SOL    HW218654   1.580   3.607   4.191
 5919SOL     OW18655   2.830   2.602   0.623
 5919SOL    HW118656   2.892   2.608   0.545
 5919SOL    HW218657   2.857   2.667   0.693
 5920SOL     OW18658   3.074   6.774   6.923
 5920SOL    HW118659   3.135   6.737   6.994
 5920SOL    HW218660   3.076   6.874   6.927
 5921SOL     OW18661   3.999   5.309   6.046
 5921SOL    HW118662   4.083   5.356   6.017
 5921SOL    HW218663   3.941   5.292   5.967
 5922SOL     OW18664   6.650   4.642   3.147
 5922SOL    HW118665   6.723   4.581   3.176
 5922SOL    HW218666   6.656   4.729   3.197
 5923SOL     OW18667   6.227   0.230   3.792
 5923SOL    HW118668   6.326   0.225   3.810
 5923SOL    HW218669   6.182   0.278   3.868
 5924SOL     OW18670   5.199   2.502   4.748
 5924SOL    HW118671   5.156   2.422   4.789
 5924SOL    HW218672   5.138   2.541   4.679
 5925SOL     OW18673   5.224   5.738   2.393
 5925SOL    HW118674   5.288   5.662   2.384
 5925SOL    HW218675   5.135   5.704   2.424
 5926SOL     OW18676   3.813   5.459   1.619
 5926SOL    HW118677   3.732   5.465   1.560
 5926SOL    HW218678   3.783   5.444   1.714
 5927SOL     OW18679   2.605   6.003   1.576
 5927SOL    HW118680   2.520   6.022   1.624
 5927SOL    HW218681   2.662   6.085   1.573
 5928SOL     OW18682   1.889   0.795   2.071
 5928SOL    HW118683   1.828   0.745   2.133
 5928SOL    HW218684   1.984   0.776   2.094
 5929SOL     OW18685   0.991   6.740   5.665
 5929SOL    HW118686   1.006   6.763   5.569
 5929SOL    HW218687   0.962   6.645   5.672
 5930SOL     OW18688   6.160   1.376   4.155
 5930SOL    HW118689   6.145   1.411   4.063
 5930SOL    HW218690   6.247   1.411   4.190
 5931SOL     OW18691   6.042   5.198   1.863
 5931SOL    HW118692   5.949   5.232   1.882
 5931SOL    HW218693   6.097   5.204   1.946
 5932SOL     OW18694   2.472   6.390   0.795
 5932SOL    HW118695   2.385   6.435   0.812
 5932SOL    HW218696   2.539   6.419   0.864
 5933SOL     OW18697   0.497   3.793   2.252
 5933SOL    HW118698   0.445   3.800   2.166
 5933SOL    HW218699   0.434   3.774   2.327
 5934SOL     OW18700   3.635   3.300   3.115
 5934SOL    HW118701   3.555   3.361   3.114
 5934SOL    HW218702   3.696   3.327   3.189
 5935SOL     OW18703   3.573   4.147   4.749
 5935SOL    HW118704   3.604   4.079   4.815
 5935SOL    HW218705   3.559   4.234   4.795
 5936SOL     OW18706   4.864   4.395   6.654
 5936SOL    HW118707   4.797   4.334   6.611
 5936SOL    HW218708   4.872   4.479   6.601
 5937SOL     OW18709   0.661   3.779   1.410
 5937SOL    HW118710   0.674   3.848   1.482
 5937SOL    HW218711   0.736   3.784   1.345
 5938SOL     OW18712   1.863   4.717   3.406
 5938SOL    HW118713   1.906   4.694   3.493
 5938SOL    HW218714   1.768   4.745   3.423
 5939SOL     OW18715   3.393   0.713   3.275
 5939SOL    HW118716   3.310   0.736   3.224
 5939SOL    HW218717   3.430   0.797   3.316
 5940SOL     OW18718   3.754   6.444   2.227
 5940SOL    HW118719   3.656   6.438   2.242
 5940SOL    HW218720   3.772   6.494   2.142
 5941SOL     OW18721   6.131   4.811   1.916
 5941SOL    HW118722   6.131   4.849   2.009
 5941SOL    HW218723   6.224   4.782   1.893
 5942SOL     OW18724   3.930   3.051   6.310
 5942SOL    HW118725   3.969   2.994   6.382
 5942SOL    HW218726   3.964   3.020   6.221
 5943SOL     OW18727   2.073   5.768   0.707
 5943SOL    HW118728   2.058   5.763   0.805
 5943SOL    HW218729   2.043   5.682   0.665
 5944SOL     OW18730   4.854   1.205   2.261
 5944SOL    HW118731   4.791   1.221   2.185
 5944SOL    HW218732   4.812   1.235   2.347
 5945SOL     OW18733   6.686   5.029   4.991
 5945SOL    HW118734   6.680   4.930   4.998
 5945SOL    HW218735   6.764   5.061   5.046
 5946SOL     OW18736   3.293   4.209   5.692
 5946SOL    HW118737   3.389   4.197   5.717
 5946SOL    HW218738   3.236   4.147   5.747
 5947SOL     OW18739   4.255   3.353   1.854
 5947SOL    HW118740   4.306   3.295   1.790
 5947SOL    HW218741   4.167   3.311   1.873
 5948SOL     OW18742   3.702   4.859   2.907
 5948SOL    HW118743   3.791   4.812   2.906
 5948SOL    HW218744   3.682   4.893   2.999
 5949SOL     OW18745   3.919   4.796   1.214
 5949SOL    HW118746   3.885   4.734   1.144
 5949SOL    HW218747   3.883   4.888   1.198
 5950SOL     OW18748   6.197   2.193   4.420
 5950SOL    HW118749   6.181   2.274   4.476
 5950SOL    HW218750   6.111   2.164   4.378
 5951SOL     OW18751   1.260   6.491   4.245
 5951SOL    HW118752   1.208   6.539   4.315
 5951SOL    HW218753   1.203   6.419   4.205
 5952SOL     OW18754   6.587   5.604   4.016
 5952SOL    HW118755   6.578   5.535   3.945
 5952SOL    HW218756   6.678   5.645   4.012
 5953SOL     OW18757   6.832   3.352   5.022
 5953SOL    HW118758   6.886   3.369   4.940
 5953SOL    HW218759   6.796   3.259   5.020
 5954SOL     OW18760   6.924   4.406   5.966
 5954SOL    HW118761   6.891   4.473   6.032
 5954SOL    HW218762   7.016   4.432   5.936
 5955SOL     OW18763   5.615   5.435   2.135
 5955SOL    HW118764   5.644   5.516   2.084
 5955SOL    HW218765   5.515   5.439   2.148
 5956SOL     OW18766   3.812   1.965   0.055
 5956SOL    HW118767   3.832   2.001   6.989
 5956SOL    HW218768   3.883   1.901   0.082
 5957SOL     OW18769   5.317   6.344   6.448
 5957SOL    HW118770   5.360   6.268   6.400
 5957SOL    HW218771   5.329   6.428   6.396
 5958SOL     OW18772   6.645   6.325   2.181
 5958SOL    HW118773   6.697   6.262   2.239
 5958SOL    HW218774   6.584   6.380   2.237
 5959SOL     OW18775   3.109   2.174   5.796
 5959SOL    HW118776   3.027   2.183   5.854
 5959SOL    HW218777   3.081   2.146   5.704
 5960SOL     OW18778   2.763   0.193   3.995
 5960SOL    HW118779   2.807   0.194   3.905
 5960SOL    HW218780   2.831   0.212   4.065
 5961SOL     OW18781   3.574   1.127   4.890
 5961SOL    HW118782   3.561   1.055   4.822
 5961SOL    HW218783   3.498   1.193   4.883
 5962SOL     OW18784   5.028   5.505   2.760
 5962SOL    HW118785   5.008   5.471   2.852
 5962SOL    HW218786   5.049   5.603   2.765
 5963SOL     OW18787   3.765   3.739   3.371
 5963SOL    HW118788   3.862   3.755   3.351
 5963SOL    HW218789   3.755   3.719   3.469
 5964SOL     OW18790   6.813   5.366   6.822
 5964SOL    HW118791   6.731   5.402   6.778
 5964SOL    HW218792   6.794   5.343   6.917
 5965SOL     OW18793   1.527   2.393   6.360
 5965SOL    HW118794   1.615   2.366   6.322
 5965SOL    HW218795   1.540   2.465   6.429
 5966SOL     OW18796   2.906   5.626   4.867
 5966SOL    HW118797   2.955   5.559   4.811
 5966SOL    HW218798   2.971   5.686   4.912
 5967SOL     OW18799   4.517   6.368   2.711
 5967SOL    HW118800   4.437   6.373   2.651
 5967SOL    HW218801   4.524   6.452   2.764
 5968SOL     OW18802   6.732   1.959   2.808
 5968SOL    HW118803   6.805   2.014   2.849
 5968SOL    HW218804   6.645   2.006   2.821
 5969SOL     OW18805   6.106   3.029   4.582
 5969SOL    HW118806   6.043   3.003   4.655
 5969SOL    HW218807   6.054   3.061   4.502
 5970SOL     OW18808   1.035   3.786   2.915
 5970SOL    HW118809   1.126   3.813   2.945
 5970SOL    HW218810   1.002   3.852   2.847
 5971SOL     OW18811   1.937   0.255   3.217
 5971SOL    HW118812   2.034   0.231   3.217
 5971SOL    HW218813   1.885   0.178   3.255
 5972SOL     OW18814   4.792   6.341   0.812
 5972SOL    HW118815   4.863   6.411   0.808
 5972SOL    HW218816   4.720   6.370   0.875
 5973SOL     OW18817   1.931   5.038   2.519
 5973SOL    HW118818   1.979   5.041   2.431
 5973SOL    HW218819   1.896   4.946   2.535
 5974SOL     OW18820   6.562   4.053   6.252
 5974SOL    HW118821   6.626   4.116   6.208
 5974SOL    HW218822   6.479   4.047   6.198
 5975SOL     OW18823   3.890   2.280   0.866
 5975SOL    HW118824   3.798   2.258   0.834
 5975SOL    HW218825   3.885   2.334   0.950
 5976SOL     OW18826   3.292   2.897   4.688
 5976SOL    HW118827   3.246   2.985   4.675
 5976SOL    HW218828   3.224   2.826   4.708
 5977SOL     OW18829   1.881   4.383   2.013
 5977SOL    HW118830   1.782   4.382   2.000
 5977SOL    HW218831   1.902   4.397   2.110
 5978SOL     OW18832   5.255   3.884   2.658
 5978SOL    HW118833   5.327   3.946   2.690
 5978SOL    HW218834   5.166   3.918   2.688
 5979SOL     OW18835   6.123   0.222   3.551
 5979SOL    HW118836   6.161   0.216   3.644
 5979SOL    HW218837   6.192   0.260   3.489
 5980SOL     OW18838   4.680   4.566   0.190
 5980SOL    HW118839   4.734   4.506   0.132
 5980SOL    HW218840   4.690   4.661   0.159
 5981SOL     OW18841   6.535   1.585   1.833
 5981SOL    HW118842   6.489   1.507   1.790
 5981SOL    HW218843   6.531   1.576   1.932
 5982SOL     OW18844   6.339   2.045   6.655
 5982SOL    HW118845   6.345   2.100   6.571
 5982SOL    HW218846   6.258   1.987   6.651
 5983SOL     OW18847   2.144   2.280   4.013
 5983SOL    HW118848   2.169   2.275   4.109
 5983SOL    HW218849   2.113   2.190   3.982
 5984SOL     OW18850   0.242   6.274   4.538
 5984SOL    HW118851   0.173   6.347   4.548
 5984SOL    HW218852   0.234   6.211   4.615
 5985SOL     OW18853   5.687   2.162   3.382
 5985SOL    HW118854   5.624   2.108   3.439
 5985SOL    HW218855   5.775   2.115   3.377
 5986SOL     OW18856   3.122   3.041   3.574
 5986SOL    HW118857   3.185   3.024   3.649
 5986SOL    HW218858   3.099   3.139   3.570
 5987SOL     OW18859   4.378   0.381   5.368
 5987SOL    HW118860   4.447   0.309   5.368
 5987SOL    HW218861   4.393   0.442   5.290
 5988SOL     OW18862   4.239   6.815   4.619
 5988SOL    HW118863   4.235   6.726   4.664
 5988SOL    HW218864   4.181   6.880   4.667
 5989SOL     OW18865   2.089   0.062   6.641
 5989SOL    HW118866   2.168   0.059   6.580
 5989SOL    HW218867   2.037   7.002   6.634
 5990SOL     OW18868   3.613   4.409   0.538
 5990SOL    HW118869   3.527   4.459   0.528
 5990SOL    HW218870   3.683   4.451   0.480
 5991SOL     OW18871   4.050   5.187   5.266
 5991SOL    HW118872   3.986   5.186   5.344
 5991SOL    HW218873   4.002   5.156   5.184
 5992SOL     OW18874   3.642   1.293   3.918
 5992SOL    HW118875   3.663   1.200   3.946
 5992SOL    HW218876   3.655   1.355   3.996
 5993SOL     OW18877   2.748   6.238   5.519
 5993SOL    HW118878   2.831   6.184   5.533
 5993SOL    HW218879   2.685   6.222   5.595
 5994SOL     OW18880   6.114   2.128   1.964
 5994SOL    HW118881   6.190   2.190   1.984
 5994SOL    HW218882   6.128   2.088   1.873
 5995SOL     OW18883   6.963   5.492   0.919
 5995SOL    HW118884   6.922   5.457   1.004
 5995SOL    HW218885   0.016   5.436   0.895
 5996SOL     OW18886   0.324   5.598   6.956
 5996SOL    HW118887   0.297   5.502   6.957
 5996SOL    HW218888   0.374   5.617   6.872
 5997SOL     OW18889   0.574   0.314   1.764
 5997SOL    HW118890   0.521   0.330   1.847
 5997SOL    HW218891   0.671   0.322   1.784
 5998SOL     OW18892   5.159   2.061   2.380
 5998SOL    HW118893   5.225   1.988   2.365
 5998SOL    HW218894   5.066   2.027   2.363
 5999SOL     OW18895   1.384   1.700   3.383
 5999SOL    HW118896   1.458   1.766   3.370
 5999SOL    HW218897   1.296   1.744   3.366
 6000SOL     OW18898   4.142   5.121   2.323
 6000SOL    HW118899   4.133   5.104   2.421
 6000SOL    HW218900   4.059   5.093   2.276
 6001SOL     OW18901   6.920   3.537   6.923
 6001SOL    HW118902   7.010   3.498   6.904
 6001SOL    HW218903   6.896   3.602   6.851
 6002SOL     OW18904   0.721   0.157   1.337
 6002SOL    HW118905   0.734   0.071   1.386
 6002SOL    HW218906   0.639   0.203   1.371
 6003SOL     OW18907   5.464   3.906   4.833
 6003SOL    HW118908   5.411   3.946   4.758
 6003SOL    HW218909   5.445   3.808   4.839
 6004SOL     OW18910   0.521   3.743   3.162
 6004SOL    HW118911   0.563   3.820   3.113
 6004SOL    HW218912   0.535   3.755   3.260
 6005SOL     OW18913   4.062   5.356   4.083
 6005SOL    HW118914   4.113   5.271   4.069
 6005SOL    HW218915   4.126   5.433   4.088
 6006SOL     OW18916   2.966   6.972   6.699
 6006SOL    HW118917   2.910   6.890   6.711
 6006SOL    HW218918   3.007   6.998   6.787
 6007SOL     OW18919   5.365   3.073   3.584
 6007SOL    HW118920   5.350   2.975   3.569
 6007SOL    HW218921   5.376   3.119   3.496
 6008SOL     OW18922   3.368   5.229   5.765
 6008SOL    HW118923   3.346   5.285   5.685
 6008SOL    HW218924   3.432   5.157   5.739
 6009SOL     OW18925   2.871   1.930   4.727
 6009SOL    HW118926   2.825   1.976   4.651
 6009SOL    HW218927   2.925   1.995   4.779
 6010SOL     OW18928   2.129   4.270   2.411
 6010SOL    HW118929   2.176   4.241   2.327
 6010SOL    HW218930   2.071   4.195   2.444
 6011SOL     OW18931   5.213   2.782   1.665
 6011SOL    HW118932   5.252   2.703   1.712
 6011SOL    HW218933   5.231   2.776   1.567
 6012SOL     OW18934   6.873   2.186   6.683
 6012SOL    HW118935   6.939   2.214   6.753
 6012SOL    HW218936   6.919   2.135   6.612
 6013SOL     OW18937   6.436   0.956   1.874
 6013SOL    HW118938   6.501   0.958   1.950
 6013SOL    HW218939   6.352   1.003   1.901
 6014SOL     OW18940   6.138   1.592   0.787
 6014SOL    HW118941   6.142   1.495   0.764
 6014SOL    HW218942   6.180   1.646   0.714
 6015SOL     OW18943   5.775   2.142   5.004
 6015SOL    HW118944   5.799   2.236   4.979
 6015SOL    HW218945   5.714   2.143   5.083
 6016SOL     OW18946   0.593   0.824   5.545
 6016SOL    HW118947   0.589   0.924   5.545
 6016SOL    HW218948   0.684   0.794   5.515
 6017SOL     OW18949   6.074   5.250   3.701
 6017SOL    HW118950   6.150   5.185   3.712
 6017SOL    HW218951   5.998   5.205   3.655
 6018SOL     OW18952   3.298   2.996   0.363
 6018SOL    HW118953   3.292   2.917   0.302
 6018SOL    HW218954   3.227   2.989   0.433
 6019SOL     OW18955   4.732   1.436   3.505
 6019SOL    HW118956   4.720   1.534   3.520
 6019SOL    HW218957   4.686   1.409   3.421
 6020SOL     OW18958   3.503   0.170   2.283
 6020SOL    HW118959   3.477   0.126   2.197
 6020SOL    HW218960   3.599   0.198   2.280
 6021SOL     OW18961   4.611   0.884   2.880
 6021SOL    HW118962   4.635   0.945   2.955
 6021SOL    HW218963   4.686   0.819   2.865
 6022SOL     OW18964   4.941   1.464   3.033
 6022SOL    HW118965   5.021   1.458   3.092
 6022SOL    HW218966   4.869   1.404   3.069
 6023SOL     OW18967   6.458   0.697   3.186
 6023SOL    HW118968   6.460   0.790   3.151
 6023SOL    HW218969   6.532   0.684   3.251
 6024SOL     OW18970   0.414   4.822   2.507
 6024SOL    HW118971   0.359   4.775   2.576
 6024SOL    HW218972   0.428   4.917   2.536
 6025SOL     OW18973   4.299   0.805   2.025
 6025SOL    HW118974   4.208   0.832   1.993
 6025SOL    HW218975   4.299   0.799   2.125
 6026SOL     OW18976   0.384   5.279   5.229
 6026SOL    HW118977   0.379   5.312   5.323
 6026SOL    HW218978   0.407   5.356   5.169
 6027SOL     OW18979   2.005   4.232   6.414
 6027SOL    HW118980   1.920   4.194   6.451
 6027SOL    HW218981   2.000   4.237   6.315
 6028SOL     OW18982   1.705   4.524   0.610
 6028SOL    HW118983   1.608   4.498   0.608
 6028SOL    HW218984   1.715   4.611   0.657
 6029SOL     OW18985   1.999   6.244   0.607
 6029SOL    HW118986   1.923   6.248   0.542
 6029SOL    HW218987   2.075   6.194   0.566
 6030SOL     OW18988   2.670   1.075   2.345
 6030SOL    HW118989   2.593   1.013   2.334
 6030SOL    HW218990   2.701   1.073   2.440
 6031SOL     OW18991   5.053   6.231   5.939
 6031SOL    HW118992   4.960   6.197   5.955
 6031SOL    HW218993   5.061   6.260   5.844
 6032SOL     OW18994   1.437   3.426   2.799
 6032SOL    HW118995   1.418   3.423   2.897
 6032SOL    HW218996   1.354   3.403   2.748
 6033SOL     OW18997   2.283   1.997   3.135
 6033SOL    HW118998   2.217   2.069   3.113
 6033SOL    HW218999   2.335   2.024   3.217
 6034SOL     OW19000   2.561   4.764   4.604
 6034SOL    HW119001   2.581   4.764   4.702
 6034SOL    HW219002   2.511   4.681   4.581
 6035SOL     OW19003   5.110   1.010   4.157
 6035SOL    HW119004   5.144   0.919   4.180
 6035SOL    HW219005   5.183   1.077   4.172
 6036SOL     OW19006   0.312   6.850   4.885
 6036SOL    HW119007   0.284   6.796   4.806
 6036SOL    HW219008   0.306   6.947   4.862
 6037SOL     OW19009   4.721   4.513   5.609
 6037SOL    HW119010   4.699   4.610   5.618
 6037SOL    HW219011   4.742   4.475   5.699
 6038SOL     OW19012   0.359   3.290   6.155
 6038SOL    HW119013   0.295   3.364   6.134
 6038SOL    HW219014   0.357   3.223   6.081
 6039SOL     OW19015   3.391   3.646   2.411
 6039SOL    HW119016   3.358   3.651   2.317
 6039SOL    HW219017   3.485   3.614   2.412
 6040SOL     OW19018   0.921   1.866   6.012
 6040SOL    HW119019   1.018   1.871   5.988
 6040SOL    HW219020   0.874   1.948   5.979
 6041SOL     OW19021   0.867   1.935   0.017
 6041SOL    HW119022   0.852   1.839   7.020
 6041SOL    HW219023   0.783   1.986   0.001
 6042SOL     OW19024   5.557   5.142   2.430
 6042SOL    HW119025   5.528   5.048   2.450
 6042SOL    HW219026   5.635   5.140   2.367
 6043SOL     OW19027   1.308   4.865   4.759
 6043SOL    HW119028   1.344   4.954   4.787
 6043SOL    HW219029   1.383   4.807   4.728
 6044SOL     OW19030   0.357   1.557   1.089
 6044SOL    HW119031   0.414   1.607   1.154
 6044SOL    HW219032   0.306   1.486   1.137
 6045SOL     OW19033   5.696   5.772   0.771
 6045SOL    HW119034   5.735   5.682   0.789
 6045SOL    HW219035   5.654   5.772   0.680
 6046SOL     OW19036   2.740   2.299   0.106
 6046SOL    HW119037   2.793   2.346   0.178
 6046SOL    HW219038   2.778   2.208   0.092
 6047SOL     OW19039   6.243   0.787   4.084
 6047SOL    HW119040   6.162   0.795   4.026
 6047SOL    HW219041   6.254   0.692   4.112
 6048SOL     OW19042   3.656   0.629   3.807
 6048SOL    HW119043   3.636   0.727   3.809
 6048SOL    HW219044   3.737   0.613   3.751
 6049SOL     OW19045   4.403   3.270   6.457
 6049SOL    HW119046   4.495   3.300   6.483
 6049SOL    HW219047   4.408   3.217   6.372
 6050SOL     OW19048   3.808   4.432   5.564
 6050SOL    HW119049   3.774   4.338   5.565
 6050SOL    HW219050   3.891   4.438   5.619
 6051SOL     OW19051   2.039   2.573   2.468
 6051SOL    HW119052   1.970   2.642   2.449
 6051SOL    HW219053   2.123   2.595   2.418
 6052SOL     OW19054   6.554   0.775   0.060
 6052SOL    HW119055   6.654   0.768   0.062
 6052SOL    HW219056   6.521   0.801   0.151
 6053SOL     OW19057   3.713   0.431   6.962
 6053SOL    HW119058   3.637   0.496   6.953
 6053SOL    HW219059   3.787   0.458   6.900
 6054SOL     OW19060   1.800   4.600   1.254
 6054SOL    HW119061   1.711   4.593   1.208
 6054SOL    HW219062   1.786   4.628   1.349
 6055SOL     OW19063   5.263   1.049   5.431
 6055SOL    HW119064   5.227   1.142   5.424
 6055SOL    HW219065   5.216   0.991   5.364
 6056SOL     OW19066   4.246   1.279   6.136
 6056SOL    HW119067   4.332   1.236   6.161
 6056SOL    HW219068   4.187   1.212   6.091
 6057SOL     OW19069   4.502   0.799   5.226
 6057SOL    HW119070   4.420   0.794   5.283
 6057SOL    HW219071   4.475   0.819   5.131
 6058SOL     OW19072   5.395   3.095   4.319
 6058SOL    HW119073   5.337   3.015   4.305
 6058SOL    HW219074   5.341   3.168   4.360
 6059SOL     OW19075   4.732   5.259   6.185
 6059SOL    HW119076   4.738   5.282   6.088
 6059SOL    HW219077   4.772   5.169   6.201
 6060SOL     OW19078   3.942   4.308   5.930
 6060SOL    HW119079   3.970   4.261   5.847
 6060SOL    HW219080   3.992   4.394   5.939
 6061SOL     OW19081   3.421   2.180   6.793
 6061SOL    HW119082   3.355   2.166   6.719
 6061SOL    HW219083   3.394   2.124   6.872
 6062SOL     OW19084   2.355   1.145   4.911
 6062SOL    HW119085   2.365   1.077   4.984
 6062SOL    HW219086   2.444   1.163   4.870
 6063SOL     OW19087   4.206   0.522   6.568
 6063SOL    HW119088   4.215   0.574   6.653
 6063SOL    HW219089   4.278   0.453   6.563
 6064SOL     OW19090   1.547   5.602   3.043
 6064SOL    HW119091   1.612   5.676   3.062
 6064SOL    HW219092   1.589   5.536   2.981
 6065SOL     OW19093   6.266   6.902   0.805
 6065SOL    HW119094   6.338   6.891   0.737
 6065SOL    HW219095   6.204   6.823   0.800
 6066SOL     OW19096   4.380   1.907   1.300
 6066SOL    HW119097   4.469   1.944   1.276
 6066SOL    HW219098   4.320   1.910   1.219
 6067SOL     OW19099   6.594   1.521   6.155
 6067SOL    HW119100   6.576   1.443   6.215
 6067SOL    HW219101   6.687   1.554   6.170
 6068SOL     OW19102   4.794   2.880   5.016
 6068SOL    HW119103   4.771   2.911   5.109
 6068SOL    HW219104   4.877   2.825   5.019
 6069SOL     OW19105   0.123   3.879   5.565
 6069SOL    HW119106   0.039   3.933   5.556
 6069SOL    HW219107   0.103   3.783   5.547
 6070SOL     OW19108   4.405   1.765   6.362
 6070SOL    HW119109   4.390   1.861   6.384
 6070SOL    HW219110   4.330   1.731   6.306
 6071SOL     OW19111   4.166   6.031   5.921
 6071SOL    HW119112   4.259   5.997   5.906
 6071SOL    HW219113   4.137   6.086   5.843
 6072SOL     OW19114   1.054   2.137   1.684
 6072SOL    HW119115   1.086   2.208   1.746
 6072SOL    HW219116   1.046   2.174   1.591
 6073SOL     OW19117   6.201   3.330   0.201
 6073SOL    HW119118   6.120   3.355   0.254
 6073SOL    HW219119   6.180   3.250   0.145
 6074SOL     OW19120   1.005   6.868   4.685
 6074SOL    HW119121   1.061   6.794   4.722
 6074SOL    HW219122   0.931   6.830   4.629
 6075SOL     OW19123   6.811   3.298   0.048
 6075SOL    HW119124   6.749   3.226   0.018
 6075SOL    HW219125   6.821   3.367   7.002
 6076SOL     OW19126   2.265   6.535   4.848
 6076SOL    HW119127   2.347   6.479   4.857
 6076SOL    HW219128   2.283   6.610   4.785
 6077SOL     OW19129   5.596   6.134   2.820
 6077SOL    HW119130   5.547   6.210   2.862
 6077SOL    HW219131   5.619   6.066   2.889
 6078SOL     OW19132   3.347   5.182   3.759
 6078SOL    HW119133   3.357   5.234   3.843
 6078SOL    HW219134   3.289   5.233   3.695
 6079SOL     OW19135   2.344   3.293   0.039
 6079SOL    HW119136   2.418   3.231   0.013
 6079SOL    HW219137   2.264   3.240   0.065
 6080SOL     OW19138   6.206   1.769   1.107
 6080SOL    HW119139   6.272   1.711   1.060
 6080SOL    HW219140   6.149   1.816   1.040
 6081SOL     OW19141   6.614   3.389   4.113
 6081SOL    HW119142   6.545   3.435   4.057
 6081SOL    HW219143   6.698   3.444   4.114
 6082SOL     OW19144   3.708   0.198   3.029
 6082SOL    HW119145   3.753   0.270   3.081
 6082SOL    HW219146   3.758   0.181   2.944
 6083SOL     OW19147   1.233   5.217   6.492
 6083SOL    HW119148   1.331   5.207   6.477
 6083SOL    HW219149   1.192   5.267   6.415
 6084SOL     OW19150   6.500   5.248   4.716
 6084SOL    HW119151   6.516   5.318   4.646
 6084SOL    HW219152   6.429   5.185   4.684
 6085SOL     OW19153   0.004   3.964   0.084
 6085SOL    HW119154   6.971   4.036   0.044
 6085SOL    HW219155   6.972   3.891   0.120
 6086SOL     OW19156   4.016   1.292   4.110
 6086SOL    HW119157   3.917   1.307   4.116
 6086SOL    HW219158   4.049   1.323   4.021
 6087SOL     OW19159   5.634   6.743   0.254
 6087SOL    HW119160   5.685   6.788   0.327
 6087SOL    HW219161   5.613   6.809   0.182
 6088SOL     OW19162   0.112   6.774   4.522
 6088SOL    HW119163   0.119   6.788   4.423
 6088SOL    HW219164   0.041   6.835   4.559
 6089SOL     OW19165   0.536   3.808   0.978
 6089SOL    HW119166   0.614   3.770   1.027
 6089SOL    HW219167   0.470   3.846   1.043
 6090SOL     OW19168   0.673   6.188   6.059
 6090SOL    HW119169   0.610   6.111   6.065
 6090SOL    HW219170   0.633   6.268   6.105
 6091SOL     OW19171   6.799   1.594   1.773
 6091SOL    HW119172   6.699   1.602   1.764
 6091SOL    HW219173   6.842   1.677   1.740
 6092SOL     OW19174   2.595   0.694   2.513
 6092SOL    HW119175   2.606   0.784   2.555
 6092SOL    HW219176   2.506   0.656   2.536
 6093SOL     OW19177   1.913   3.451   1.261
 6093SOL    HW119178   1.981   3.478   1.194
 6093SOL    HW219179   1.831   3.508   1.251
 6094SOL     OW19180   1.644   1.649   1.218
 6094SOL    HW119181   1.582   1.638   1.296
 6094SOL    HW219182   1.729   1.601   1.236
 6095SOL     OW19183   5.152   3.028   0.040
 6095SOL    HW119184   5.134   3.121   0.008
 6095SOL    HW219185   5.199   3.032   0.128
 6096SOL     OW19186   5.202   1.246   4.009
 6096SOL    HW119187   5.181   1.287   4.098
 6096SOL    HW219188   5.130   1.271   3.944
 6097SOL     OW19189   2.278   0.925   2.489
 6097SOL    HW119190   2.193   0.941   2.439
 6097SOL    HW219191   2.280   0.831   2.522
 6098SOL     OW19192   1.893   2.600   6.380
 6098SOL    HW119193   1.982   2.607   6.335
 6098SOL    HW219194   1.849   2.514   6.353
 6099SOL     OW19195   5.654   5.479   4.978
 6099SOL    HW119196   5.578   5.485   5.043
 6099SOL    HW219197   5.676   5.383   4.961
 6100SOL     OW19198   6.543   3.458   6.284
 6100SOL    HW119199   6.546   3.450   6.185
 6100SOL    HW219200   6.454   3.429   6.318
 6101SOL     OW19201   6.740   2.151   5.678
 6101SOL    HW119202   6.714   2.115   5.767
 6101SOL    HW219203   6.670   2.214   5.646
 6102SOL     OW19204   2.722   0.654   4.840
 6102SOL    HW119205   2.672   0.740   4.845
 6102SOL    HW219206   2.820   0.673   4.834
 6103SOL     OW19207   0.241   0.633   4.063
 6103SOL    HW119208   0.232   0.733   4.056
 6103SOL    HW219209   0.273   0.597   3.975
 6104SOL     OW19210   5.830   1.922   6.969
 6104SOL    HW119211   5.842   1.857   0.018
 6104SOL    HW219212   5.733   1.947   6.962
 6105SOL     OW19213   3.687   5.785   6.409
 6105SOL    HW119214   3.684   5.732   6.324
 6105SOL    HW219215   3.654   5.878   6.391
 6106SOL     OW19216   3.225   4.939   6.534
 6106SOL    HW119217   3.258   4.907   6.445
 6106SOL    HW219218   3.239   5.038   6.542
 6107SOL     OW19219   2.179   4.702   4.850
 6107SOL    HW119220   2.267   4.657   4.861
 6107SOL    HW219221   2.193   4.798   4.826
 6108SOL     OW19222   0.691   2.146   3.954
 6108SOL    HW119223   0.768   2.105   3.905
 6108SOL    HW219224   0.624   2.076   3.977
 6109SOL     OW19225   4.742   2.522   0.410
 6109SOL    HW119226   4.792   2.489   0.490
 6109SOL    HW219227   4.799   2.584   0.358
 6110SOL     OW19228   3.555   2.212   6.035
 6110SOL    HW119229   3.613   2.293   6.041
 6110SOL    HW219230   3.495   2.220   5.955
 6111SOL     OW19231   0.846   4.647   2.989
 6111SOL    HW119232   0.750   4.676   2.989
 6111SOL    HW219233   0.884   4.660   3.080
 6112SOL     OW19234   1.945   1.855   3.059
 6112SOL    HW119235   1.908   1.769   3.024
 6112SOL    HW219236   2.033   1.875   3.016
 6113SOL     OW19237   1.344   0.330   6.131
 6113SOL    HW119238   1.343   0.408   6.068
 6113SOL    HW219239   1.287   0.257   6.094
 6114SOL     OW19240   5.111   5.619   0.130
 6114SOL    HW119241   5.058   5.673   0.064
 6114SOL    HW219242   5.097   5.522   0.112
 6115SOL     OW19243   4.787   5.187   2.967
 6115SOL    HW119244   4.826   5.124   3.033
 6115SOL    HW219245   4.847   5.265   2.954
 6116SOL     OW19246   2.668   1.064   1.747
 6116SOL    HW119247   2.745   1.003   1.731
 6116SOL    HW219248   2.650   1.070   1.846
 6117SOL     OW19249   6.103   6.937   4.227
 6117SOL    HW119250   6.157   6.985   4.158
 6117SOL    HW219251   6.006   6.944   4.205
 6118SOL     OW19252   6.382   1.397   2.641
 6118SOL    HW119253   6.399   1.394   2.740
 6118SOL    HW219254   6.426   1.478   2.602
 6119SOL     OW19255   0.591   4.768   5.031
 6119SOL    HW119256   0.590   4.853   4.978
 6119SOL    HW219257   0.636   4.696   4.977
 6120SOL     OW19258   3.295   0.260   3.800
 6120SOL    HW119259   3.341   0.338   3.758
 6120SOL    HW219260   3.252   0.205   3.729
 6121SOL     OW19261   0.446   2.718   3.413
 6121SOL    HW119262   0.529   2.773   3.425
 6121SOL    HW219263   0.462   2.650   3.342
 6122SOL     OW19264   3.856   6.094   2.904
 6122SOL    HW119265   3.858   6.166   2.974
 6122SOL    HW219266   3.826   6.008   2.945
 6123SOL     OW19267   6.951   0.928   1.390
 6123SOL    HW119268   6.854   0.954   1.389
 6123SOL    HW219269   7.005   1.001   1.349
 6124SOL     OW19270   3.478   0.252   5.223
 6124SOL    HW119271   3.561   0.224   5.272
 6124SOL    HW219272   3.413   0.292   5.288
 6125SOL     OW19273   1.915   6.229   1.704
 6125SOL    HW119274   1.968   6.309   1.675
 6125SOL    HW219275   1.943   6.149   1.651
 6126SOL     OW19276   4.987   4.969   3.813
 6126SOL    HW119277   4.909   5.026   3.788
 6126SOL    HW219278   5.069   5.027   3.823
 6127SOL     OW19279   2.193   6.618   1.481
 6127SOL    HW119280   2.121   6.673   1.440
 6127SOL    HW219281   2.282   6.661   1.465
 6128SOL     OW19282   0.230   3.237   0.356
 6128SOL    HW119283   0.151   3.295   0.378
 6128SOL    HW219284   0.235   3.162   0.423
 6129SOL     OW19285   5.992   3.671   2.892
 6129SOL    HW119286   5.939   3.601   2.845
 6129SOL    HW219287   5.973   3.761   2.852
 6130SOL     OW19288   5.741   2.748   3.513
 6130SOL    HW119289   5.686   2.752   3.429
 6130SOL    HW219290   5.791   2.661   3.516
 6131SOL     OW19291   0.199   1.660   5.982
 6131SOL    HW119292   0.206   1.717   6.064
 6131SOL    HW219293   0.215   1.564   6.006
 6132SOL     OW19294   3.665   2.248   0.144
 6132SOL    HW119295   3.661   2.283   0.051
 6132SOL    HW219296   3.761   2.241   0.172
 6133SOL     OW19297   0.263   3.361   1.563
 6133SOL    HW119298   0.286   3.275   1.519
 6133SOL    HW219299   0.342   3.422   1.561
 6134SOL     OW19300   3.222   3.407   6.787
 6134SOL    HW119301   3.199   3.481   6.724
 6134SOL    HW219302   3.210   3.439   6.881
 6135SOL     OW19303   6.438   6.980   1.037
 6135SOL    HW119304   6.406   0.038   1.082
 6135SOL    HW219305   6.366   6.944   0.978
 6136SOL     OW19306   1.036   1.579   2.402
 6136SOL    HW119307   1.119   1.600   2.453
 6136SOL    HW219308   1.041   1.621   2.311
 6137SOL     OW19309   3.372   6.879   5.490
 6137SOL    HW119310   3.430   6.797   5.490
 6137SOL    HW219311   3.347   6.902   5.396
 6138SOL     OW19312   3.945   6.328   2.382
 6138SOL    HW119313   3.882   6.376   2.321
 6138SOL    HW219314   4.038   6.362   2.369
 6139SOL     OW19315   1.587   4.041   5.201
 6139SOL    HW119316   1.605   4.021   5.298
 6139SOL    HW219317   1.674   4.041   5.151
 6140SOL     OW19318   0.900   0.077   1.681
 6140SOL    HW119319   0.868   0.010   1.748
 6140SOL    HW219320   0.997   0.063   1.665
 6141SOL     OW19321   6.947   5.549   5.426
 6141SOL    HW119322   7.000   5.604   5.491
 6141SOL    HW219323   6.867   5.601   5.396
 6142SOL     OW19324   6.864   4.117   0.839
 6142SOL    HW119325   6.950   4.081   0.803
 6142SOL    HW219326   6.814   4.044   0.884
 6143SOL     OW19327   6.080   5.270   6.073
 6143SOL    HW119328   6.123   5.296   5.987
 6143SOL    HW219329   6.014   5.340   6.100
 6144SOL     OW19330   0.183   4.025   3.260
 6144SOL    HW119331   0.119   4.028   3.183
 6144SOL    HW219332   0.276   4.038   3.226
 6145SOL     OW19333   5.031   4.894   3.471
 6145SOL    HW119334   5.011   4.907   3.568
 6145SOL    HW219335   5.032   4.796   3.451
 6146SOL     OW19336   5.505   1.622   3.283
 6146SOL    HW119337   5.407   1.642   3.282
 6146SOL    HW219338   5.541   1.625   3.190
 6147SOL     OW19339   2.278   4.606   2.824
 6147SOL    HW119340   2.232   4.547   2.891
 6147SOL    HW219341   2.273   4.565   2.734
 6148SOL     OW19342   6.289   6.245   4.175
 6148SOL    HW119343   6.367   6.307   4.185
 6148SOL    HW219344   6.204   6.299   4.169
 6149SOL     OW19345   3.326   5.008   3.060
 6149SOL    HW119346   3.238   5.022   3.105
 6149SOL    HW219347   3.400   5.026   3.124
 6150SOL     OW19348   4.759   5.849   6.911
 6150SOL    HW119349   4.786   5.888   6.823
 6150SOL    HW219350   4.723   5.757   6.897
 6151SOL     OW19351   5.252   2.620   5.552
 6151SOL    HW119352   5.283   2.623   5.646
 6151SOL    HW219353   5.301   2.687   5.497
 6152SOL     OW19354   5.591   4.778   6.616
 6152SOL    HW119355   5.515   4.732   6.660
 6152SOL    HW219356   5.615   4.729   6.531
 6153SOL     OW19357   4.670   4.060   1.454
 6153SOL    HW119358   4.623   4.123   1.392
 6153SOL    HW219359   4.699   3.979   1.403
 6154SOL     OW19360   6.094   1.921   2.144
 6154SOL    HW119361   6.091   1.994   2.076
 6154SOL    HW219362   6.189   1.896   2.162
 6155SOL     OW19363   0.194   3.300   4.415
 6155SOL    HW119364   0.115   3.287   4.354
 6155SOL    HW219365   0.262   3.357   4.369
 6156SOL     OW19366   5.398   6.732   3.098
 6156SOL    HW119367   5.342   6.668   3.047
 6156SOL    HW219368   5.349   6.762   3.180
 6157SOL     OW19369   2.158   1.926   3.741
 6157SOL    HW119370   2.149   1.833   3.707
 6157SOL    HW219371   2.169   1.989   3.663
 6158SOL     OW19372   4.208   0.628   6.821
 6158SOL    HW119373   4.260   0.713   6.813
 6158SOL    HW219374   4.222   0.589   6.912
 6159SOL     OW19375   5.356   1.802   6.942
 6159SOL    HW119376   5.331   1.710   6.912
 6159SOL    HW219377   5.341   1.809   0.016
 6160SOL     OW19378   5.428   5.829   0.849
 6160SOL    HW119379   5.350   5.888   0.873
 6160SOL    HW219380   5.484   5.875   0.780
 6161SOL     OW19381   5.768   0.805   5.854
 6161SOL    HW119382   5.713   0.850   5.924
 6161SOL    HW219383   5.777   0.708   5.877
 6162SOL     OW19384   1.252   5.335   4.273
 6162SOL    HW119385   1.183   5.350   4.344
 6162SOL    HW219386   1.330   5.395   4.288
 6163SOL     OW19387   5.882   3.805   0.927
 6163SOL    HW119388   5.873   3.713   0.964
 6163SOL    HW219389   5.832   3.811   0.840
 6164SOL     OW19390   2.317   1.765   1.063
 6164SOL    HW119391   2.293   1.690   1.001
 6164SOL    HW219392   2.322   1.731   1.157
 6165SOL     OW19393   4.115   6.207   0.328
 6165SOL    HW119394   4.059   6.129   0.300
 6165SOL    HW219395   4.206   6.198   0.288
 6166SOL     OW19396   3.248   1.949   6.031
 6166SOL    HW119397   3.235   1.898   6.117
 6166SOL    HW219398   3.209   2.041   6.041
 6167SOL     OW19399   0.053   4.508   2.556
 6167SOL    HW119400   0.086   4.521   2.463
 6167SOL    HW219401   7.009   4.436   2.557
 6168SOL     OW19402   0.157   3.595   1.596
 6168SOL    HW119403   0.197   3.503   1.589
 6168SOL    HW219404   0.131   3.627   1.505
 6169SOL     OW19405   2.199   4.193   2.151
 6169SOL    HW119406   2.182   4.115   2.211
 6169SOL    HW219407   2.262   4.165   2.079
 6170SOL     OW19408   7.022   3.337   5.250
 6170SOL    HW119409   6.964   3.416   5.233
 6170SOL    HW219410   0.044   3.312   5.165
 6171SOL     OW19411   0.897   0.667   0.560
 6171SOL    HW119412   0.839   0.731   0.611
 6171SOL    HW219413   0.992   0.678   0.591
 6172SOL     OW19414   0.844   2.553   3.110
 6172SOL    HW119415   0.897   2.496   3.174
 6172SOL    HW219416   0.867   2.527   3.016
 6173SOL     OW19417   6.881   6.971   2.843
 6173SOL    HW119418   6.968   6.992   2.798
 6173SOL    HW219419   6.824   0.027   2.846
 6174SOL     OW19420   5.313   4.739   2.933
 6174SOL    HW119421   5.273   4.728   3.024
 6174SOL    HW219422   5.263   4.683   2.867
 6175SOL     OW19423   2.794   1.154   5.001
 6175SOL    HW119424   2.843   1.196   5.077
 6175SOL    HW219425   2.860   1.128   4.929
 6176SOL     OW19426   4.148   4.309   5.288
 6176SOL    HW119427   4.200   4.342   5.210
 6176SOL    HW219428   4.089   4.232   5.259
 6177SOL     OW19429   5.368   1.162   1.812
 6177SOL    HW119430   5.385   1.260   1.816
 6177SOL    HW219431   5.271   1.145   1.799
 6178SOL     OW19432   4.934   3.811   2.490
 6178SOL    HW119433   5.017   3.820   2.435
 6178SOL    HW219434   4.890   3.723   2.469
 6179SOL     OW19435   6.536   5.075   1.850
 6179SOL    HW119436   6.545   5.120   1.939
 6179SOL    HW219437   6.480   5.132   1.789
 6180SOL     OW19438   3.119   5.124   0.764
 6180SOL    HW119439   3.142   5.041   0.712
 6180SOL    HW219440   3.199   5.154   0.816
 6181SOL     OW19441   4.761   5.047   6.679
 6181SOL    HW119442   4.853   5.087   6.680
 6181SOL    HW219443   4.694   5.118   6.656
 6182SOL     OW19444   3.017   3.402   0.219
 6182SOL    HW119445   2.981   3.434   0.306
 6182SOL    HW219446   3.013   3.302   0.216
 6183SOL     OW19447   1.336   2.330   0.990
 6183SOL    HW119448   1.249   2.365   0.956
 6183SOL    HW219449   1.335   2.230   0.986
 6184SOL     OW19450   2.692   0.978   6.375
 6184SOL    HW119451   2.698   1.046   6.302
 6184SOL    HW219452   2.654   1.021   6.458
 6185SOL     OW19453   3.751   2.891   5.032
 6185SOL    HW119454   3.682   2.881   4.960
 6185SOL    HW219455   3.750   2.810   5.091
 6186SOL     OW19456   5.993   1.907   1.699
 6186SOL    HW119457   6.042   1.820   1.700
 6186SOL    HW219458   6.058   1.983   1.703
 6187SOL     OW19459   5.336   2.567   4.976
 6187SOL    HW119460   5.310   2.541   4.883
 6187SOL    HW219461   5.255   2.564   5.034
 6188SOL     OW19462   2.045   1.972   5.343
 6188SOL    HW119463   1.998   1.985   5.430
 6188SOL    HW219464   2.141   1.950   5.360
 6189SOL     OW19465   4.849   6.266   2.119
 6189SOL    HW119466   4.774   6.228   2.064
 6189SOL    HW219467   4.838   6.365   2.127
 6190SOL     OW19468   6.164   2.484   5.512
 6190SOL    HW119469   6.188   2.421   5.438
 6190SOL    HW219470   6.135   2.432   5.592
 6191SOL     OW19471   3.141   3.744   6.447
 6191SOL    HW119472   3.174   3.770   6.356
 6191SOL    HW219473   3.088   3.819   6.486
 6192SOL     OW19474   2.119   1.951   7.004
 6192SOL    HW119475   2.060   1.917   0.052
 6192SOL    HW219476   2.183   2.019   0.015
 6193SOL     OW19477   5.231   5.496   0.600
 6193SOL    HW119478   5.281   5.511   0.515
 6193SOL    HW219479   5.292   5.511   0.678
 6194SOL     OW19480   6.712   0.664   6.357
 6194SOL    HW119481   6.680   0.716   6.278
 6194SOL    HW219482   6.812   0.662   6.356
 6195SOL     OW19483   6.250   0.318   5.457
 6195SOL    HW119484   6.179   0.327   5.387
 6195SOL    HW219485   6.330   0.272   5.416
 6196SOL     OW19486   5.120   4.122   2.944
 6196SOL    HW119487   5.112   4.068   2.860
 6196SOL    HW219488   5.101   4.065   3.023
 6197SOL     OW19489   2.321   5.540   2.535
 6197SOL    HW119490   2.345   5.616   2.595
 6197SOL    HW219491   2.386   5.465   2.548
 6198SOL     OW19492   5.951   6.205   6.625
 6198SOL    HW119493   5.928   6.117   6.582
 6198SOL    HW219494   5.929   6.201   6.722
 6199SOL     OW19495   0.804   0.378   0.965
 6199SOL    HW119496   0.757   0.315   1.026
 6199SOL    HW219497   0.903   0.365   0.972
 6200SOL     OW19498   1.963   2.162   1.986
 6200SOL    HW119499   1.879   2.214   1.969
 6200SOL    HW219500   2.035   2.195   1.926
 6201SOL     OW19501   6.458   3.515   3.920
 6201SOL    HW119502   6.527   3.579   3.955
 6201SOL    HW219503   6.399   3.562   3.854
 6202SOL     OW19504   6.545   1.265   3.071
 6202SOL    HW119505   6.606   1.342   3.091
 6202SOL    HW219506   6.505   1.275   2.981
 6203SOL     OW19507   6.352   5.359   2.003
 6203SOL    HW119508   6.317   5.289   2.064
 6203SOL    HW219509   6.322   5.340   1.909
 6204SOL     OW19510   1.725   6.957   5.424
 6204SOL    HW119511   1.816   6.996   5.410
 6204SOL    HW219512   1.660   7.001   5.361
 6205SOL     OW19513   4.824   4.042   2.364
 6205SOL    HW119514   4.772   4.017   2.282
 6205SOL    HW219515   4.855   3.959   2.410
 6206SOL     OW19516   5.292   2.162   3.653
 6206SOL    HW119517   5.332   2.083   3.700
 6206SOL    HW219518   5.283   2.141   3.556
 6207SOL     OW19519   1.349   5.772   4.316
 6207SOL    HW119520   1.299   5.704   4.369
 6207SOL    HW219521   1.446   5.768   4.341
 6208SOL     OW19522   3.737   2.574   5.675
 6208SOL    HW119523   3.701   2.518   5.600
 6208SOL    HW219524   3.675   2.651   5.692
 6209SOL     OW19525   3.870   4.144   1.155
 6209SOL    HW119526   3.929   4.221   1.180
 6209SOL    HW219527   3.835   4.100   1.238
 6210SOL     OW19528   4.800   2.689   3.387
 6210SOL    HW119529   4.870   2.618   3.377
 6210SOL    HW219530   4.781   2.730   3.298
 6211SOL     OW19531   4.786   5.560   4.996
 6211SOL    HW119532   4.866   5.609   5.033
 6211SOL    HW219533   4.811   5.464   4.982
 6212SOL     OW19534   3.792   5.417   6.200
 6212SOL    HW119535   3.885   5.381   6.190
 6212SOL    HW219536   3.766   5.464   6.116
 6213SOL     OW19537   4.489   5.998   0.895
 6213SOL    HW119538   4.453   6.088   0.920
 6213SOL    HW219539   4.426   5.953   0.832
 6214SOL     OW19540   6.054   6.131   5.282
 6214SOL    HW119541   6.094   6.059   5.339
 6214SOL    HW219542   6.117   6.209   5.279
 6215SOL     OW19543   5.264   2.413   6.123
 6215SOL    HW119544   5.342   2.459   6.081
 6215SOL    HW219545   5.264   2.317   6.097
 6216SOL     OW19546   5.006   2.944   3.242
 6216SOL    HW119547   4.989   2.970   3.336
 6216SOL    HW219548   4.918   2.927   3.195
 6217SOL     OW19549   0.911   4.224   2.664
 6217SOL    HW119550   0.949   4.305   2.708
 6217SOL    HW219551   0.821   4.245   2.626
 6218SOL     OW19552   4.781   6.687   0.611
 6218SOL    HW119553   4.732   6.734   0.537
 6218SOL    HW219554   4.724   6.688   0.694
 6219SOL     OW19555   1.361   1.147   5.413
 6219SOL    HW119556   1.406   1.206   5.347
 6219SOL    HW219557   1.290   1.198   5.461
 6220SOL     OW19558   3.974   1.224   1.057
 6220SOL    HW119559   3.917   1.306   1.066
 6220SOL    HW219560   4.008   1.218   0.963
 6221SOL     OW19561   6.485   5.925   6.733
 6221SOL    HW119562   6.387   5.941   6.741
 6221SOL    HW219563   6.535   6.001   6.776
 6222SOL     OW19564   6.145   1.385   2.158
 6222SOL    HW119565   6.156   1.385   2.257
 6222SOL    HW219566   6.075   1.318   2.132
 6223SOL     OW19567   0.377   5.274   3.964
 6223SOL    HW119568   0.346   5.337   4.036
 6223SOL    HW219569   0.426   5.197   4.005
 6224SOL     OW19570   4.654   1.886   6.334
 6224SOL    HW119571   4.574   1.834   6.307
 6224SOL    HW219572   4.634   1.984   6.327
 6225SOL     OW19573   3.869   6.985   6.568
 6225SOL    HW119574   3.919   0.010   6.637
 6225SOL    HW219575   3.793   6.935   6.610
 6226SOL     OW19576   0.981   1.143   3.742
 6226SOL    HW119577   1.050   1.166   3.673
 6226SOL    HW219578   0.971   1.220   3.805
 6227SOL     OW19579   2.956   3.846   5.483
 6227SOL    HW119580   2.941   3.943   5.504
 6227SOL    HW219581   3.052   3.831   5.460
 6228SOL     OW19582   2.099   2.738   3.958
 6228SOL    HW119583   2.025   2.798   3.929
 6228SOL    HW219584   2.075   2.643   3.939
 6229SOL     OW19585   0.328   3.600   4.500
 6229SOL    HW119586   0.256   3.659   4.536
 6229SOL    HW219587   0.309   3.578   4.405
 6230SOL     OW19588   0.433   1.234   1.992
 6230SOL    HW119589   0.408   1.181   1.910
 6230SOL    HW219590   0.374   1.315   1.998
 6231SOL     OW19591   6.348   4.652   6.904
 6231SOL    HW119592   6.327   4.562   6.866
 6231SOL    HW219593   6.334   4.650   7.003
 6232SOL     OW19594   5.518   1.254   6.965
 6232SOL    HW119595   5.510   1.294   6.874
 6232SOL    HW219596   5.485   1.320   0.008
 6233SOL     OW19597   0.142   3.389   1.123
 6233SOL    HW119598   0.237   3.416   1.109
 6233SOL    HW219599   0.116   3.412   1.217
 6234SOL     OW19600   6.729   6.908   4.688
 6234SOL    HW119601   6.750   6.970   4.612
 6234SOL    HW219602   6.725   6.814   4.654
 6235SOL     OW19603   6.523   0.667   2.282
 6235SOL    HW119604   6.461   0.725   2.335
 6235SOL    HW219605   6.574   0.609   2.344
 6236SOL     OW19606   0.611   4.200   0.860
 6236SOL    HW119607   0.594   4.200   0.959
 6236SOL    HW219608   0.524   4.210   0.812
 6237SOL     OW19609   3.904   0.589   1.450
 6237SOL    HW119610   3.986   0.532   1.441
 6237SOL    HW219611   3.930   0.685   1.447
 6238SOL     OW19612   2.539   6.517   4.703
 6238SOL    HW119613   2.494   6.557   4.624
 6238SOL    HW219614   2.561   6.421   4.685
 6239SOL     OW19615   5.051   0.694   2.627
 6239SOL    HW119616   5.050   0.762   2.700
 6239SOL    HW219617   4.957   0.664   2.607
 6240SOL     OW19618   4.021   3.120   4.833
 6240SOL    HW119619   4.038   3.217   4.852
 6240SOL    HW219620   4.106   3.069   4.843
 6241SOL     OW19621   2.285   6.648   3.748
 6241SOL    HW119622   2.354   6.685   3.685
 6241SOL    HW219623   2.197   6.693   3.731
 6242SOL     OW19624   2.868   1.936   3.380
 6242SOL    HW119625   2.817   1.870   3.326
 6242SOL    HW219626   2.907   2.006   3.320
 6243SOL     OW19627   5.810   1.454   5.830
 6243SOL    HW119628   5.798   1.355   5.828
 6243SOL    HW219629   5.756   1.492   5.905
 6244SOL     OW19630   4.152   4.766   2.302
 6244SOL    HW119631   4.054   4.753   2.317
 6244SOL    HW219632   4.175   4.742   2.208
 6245SOL     OW19633   0.509   4.728   2.275
 6245SOL    HW119634   0.432   4.716   2.213
 6245SOL    HW219635   0.477   4.759   2.364
 6246SOL     OW19636   0.958   6.621   4.250
 6246SOL    HW119637   0.981   6.704   4.198
 6246SOL    HW219638   0.999   6.541   4.205
 6247SOL     OW19639   6.776   5.783   3.630
 6247SOL    HW119640   6.766   5.865   3.573
 6247SOL    HW219641   6.834   5.804   3.708
 6248SOL     OW19642   3.454   3.390   6.994
 6248SOL    HW119643   3.373   3.431   0.010
 6248SOL    HW219644   3.477   3.306   0.017
 6249SOL     OW19645   6.796   2.730   0.905
 6249SOL    HW119646   6.761   2.667   0.974
 6249SOL    HW219647   6.744   2.720   0.820
 6250SOL     OW19648   0.452   0.511   0.762
 6250SOL    HW119649   0.395   0.437   0.725
 6250SOL    HW219650   0.398   0.595   0.766
 6251SOL     OW19651   3.147   7.008   4.493
 6251SOL    HW119652   3.138   6.919   4.537
 6251SOL    HW219653   3.241   7.022   4.464
 6252SOL     OW19654   2.836   5.371   0.020
 6252SOL    HW119655   2.862   5.390   6.951
 6252SOL    HW219656   2.918   5.356   0.075
 6253SOL     OW19657   3.322   5.124   4.814
 6253SOL    HW119658   3.271   5.151   4.733
 6253SOL    HW219659   3.258   5.093   4.885
 6254SOL     OW19660   0.354   5.970   1.005
 6254SOL    HW119661   0.281   6.016   1.055
 6254SOL    HW219662   0.421   6.037   0.972
 6255SOL     OW19663   0.336   1.930   1.079
 6255SOL    HW119664   0.242   1.906   1.105
 6255SOL    HW219665   0.345   2.029   1.074
 6256SOL     OW19666   4.768   4.990   2.785
 6256SOL    HW119667   4.821   4.906   2.774
 6256SOL    HW219668   4.801   5.040   2.865
 6257SOL     OW19669   4.064   3.930   1.135
 6257SOL    HW119670   4.023   4.014   1.169
 6257SOL    HW219671   4.005   3.890   1.065
 6258SOL     OW19672   4.277   6.496   6.265
 6258SOL    HW119673   4.325   6.412   6.288
 6258SOL    HW219674   4.223   6.482   6.182
 6259SOL     OW19675   1.946   0.088   5.428
 6259SOL    HW119676   1.899   0.141   5.498
 6259SOL    HW219677   2.045   0.096   5.441
 6260SOL     OW19678   2.434   1.270   0.607
 6260SOL    HW119679   2.527   1.261   0.571
 6260SOL    HW219680   2.375   1.313   0.539
 6261SOL     OW19681   3.735   6.244   1.581
 6261SOL    HW119682   3.745   6.327   1.526
 6261SOL    HW219683   3.766   6.165   1.528
 6262SOL     OW19684   6.454   6.514   2.308
 6262SOL    HW119685   6.417   6.516   2.401
 6262SOL    HW219686   6.406   6.579   2.251
 6263SOL     OW19687   7.022   5.860   4.774
 6263SOL    HW119688   0.074   5.829   4.720
 6263SOL    HW219689   6.973   5.781   4.811
 6264SOL     OW19690   1.067   0.254   1.205
 6264SOL    HW119691   1.033   0.274   1.113
 6264SOL    HW219692   1.004   0.293   1.273
 6265SOL     OW19693   4.743   1.924   0.147
 6265SOL    HW119694   4.758   1.825   0.139
 6265SOL    HW219695   4.653   1.947   0.109
 6266SOL     OW19696   2.953   5.486   3.469
 6266SOL    HW119697   2.860   5.507   3.499
 6266SOL    HW219698   3.012   5.471   3.548
 6267SOL     OW19699   1.080   0.039   5.211
 6267SOL    HW119700   0.986   0.015   5.190
 6267SOL    HW219701   1.133   0.045   5.126
 6268SOL     OW19702   2.891   0.360   2.103
 6268SOL    HW119703   2.823   0.408   2.047
 6268SOL    HW219704   2.888   0.396   2.196
 6269SOL     OW19705   5.767   5.732   1.518
 6269SOL    HW119706   5.703   5.664   1.482
 6269SOL    HW219707   5.742   5.823   1.485
 6270SOL     OW19708   1.599   6.200   0.425
 6270SOL    HW119709   1.551   6.231   0.343
 6270SOL    HW219710   1.605   6.275   0.490
 6271SOL     OW19711   6.218   3.100   6.658
 6271SOL    HW119712   6.245   3.187   6.617
 6271SOL    HW219713   6.212   3.111   6.758
 6272SOL     OW19714   6.197   0.212   0.201
 6272SOL    HW119715   6.233   0.295   0.241
 6272SOL    HW219716   6.162   0.152   0.273
 6273SOL     OW19717   6.896   0.209   1.724
 6273SOL    HW119718   6.881   0.253   1.636
 6273SOL    HW219719   6.857   0.116   1.722
 6274SOL     OW19720   3.525   5.890   5.119
 6274SOL    HW119721   3.428   5.917   5.116
 6274SOL    HW219722   3.580   5.968   5.149
 6275SOL     OW19723   1.986   5.559   0.361
 6275SOL    HW119724   2.015   5.554   0.457
 6275SOL    HW219725   1.905   5.502   0.348
 6276SOL     OW19726   1.949   5.497   2.838
 6276SOL    HW119727   1.964   5.595   2.855
 6276SOL    HW219728   1.981   5.444   2.917
 6277SOL     OW19729   5.449   2.728   1.257
 6277SOL    HW119730   5.418   2.774   1.174
 6277SOL    HW219731   5.547   2.743   1.269
 6278SOL     OW19732   2.878   6.766   5.905
 6278SOL    HW119733   2.880   6.766   5.805
 6278SOL    HW219734   2.970   6.749   5.941
 6279SOL     OW19735   2.833   6.570   2.005
 6279SOL    HW119736   2.736   6.566   2.027
 6279SOL    HW219737   2.871   6.657   2.038
 6280SOL     OW19738   7.003   1.715   6.681
 6280SOL    HW119739   6.919   1.744   6.635
 6280SOL    HW219740   6.983   1.636   6.739
 6281SOL     OW19741   6.262   4.214   5.421
 6281SOL    HW119742   6.178   4.252   5.381
 6281SOL    HW219743   6.325   4.188   5.347
 6282SOL     OW19744   1.013   3.680   6.100
 6282SOL    HW119745   1.001   3.723   6.189
 6282SOL    HW219746   1.109   3.686   6.073
 6283SOL     OW19747   1.068   6.120   5.934
 6283SOL    HW119748   1.028   6.030   5.952
 6283SOL    HW219749   1.052   6.145   5.838
 6284SOL     OW19750   2.349   4.346   6.801
 6284SOL    HW119751   2.376   4.255   6.769
 6284SOL    HW219752   2.270   4.338   6.862
 6285SOL     OW19753   1.293   3.297   3.283
 6285SOL    HW119754   1.329   3.335   3.198
 6285SOL    HW219755   1.368   3.260   3.338
 6286SOL     OW19756   0.802   3.300   4.847
 6286SOL    HW119757   0.894   3.295   4.809
 6286SOL    HW219758   0.749   3.219   4.817
 6287SOL     OW19759   4.419   4.874   5.197
 6287SOL    HW119760   4.489   4.881   5.268
 6287SOL    HW219761   4.392   4.966   5.168
 6288SOL     OW19762   3.597   3.173   6.687
 6288SOL    HW119763   3.593   3.107   6.762
 6288SOL    HW219764   3.672   3.150   6.626
 6289SOL     OW19765   2.518   4.681   6.620
 6289SOL    HW119766   2.468   4.767   6.621
 6289SOL    HW219767   2.603   4.693   6.568
 6290SOL     OW19768   5.425   5.603   5.161
 6290SOL    HW119769   5.368   5.560   5.231
 6290SOL    HW219770   5.476   5.679   5.201
 6291SOL     OW19771   3.309   3.280   2.701
 6291SOL    HW119772   3.309   3.294   2.801
 6291SOL    HW219773   3.359   3.197   2.679
 6292SOL     OW19774   2.089   3.376   4.737
 6292SOL    HW119775   2.041   3.386   4.824
 6292SOL    HW219776   2.143   3.292   4.737
 6293SOL     OW19777   4.937   1.170   6.941
 6293SOL    HW119778   4.922   1.178   0.014
 6293SOL    HW219779   4.919   1.258   6.897
 6294SOL     OW19780   2.520   1.509   3.457
 6294SOL    HW119781   2.500   1.596   3.502
 6294SOL    HW219782   2.520   1.522   3.358
 6295SOL     OW19783   5.886   4.505   5.565
 6295SOL    HW119784   5.890   4.506   5.465
 6295SOL    HW219785   5.974   4.535   5.602
 6296SOL     OW19786   0.082   2.550   6.561
 6296SOL    HW119787   0.003   2.488   6.560
 6296SOL    HW219788   0.113   2.563   6.656
 6297SOL     OW19789   5.846   0.498   4.149
 6297SOL    HW119790   5.863   0.533   4.241
 6297SOL    HW219791   5.866   0.400   4.146
 6298SOL     OW19792   5.958   4.595   0.085
 6298SOL    HW119793   5.997   4.534   0.016
 6298SOL    HW219794   5.949   4.687   0.047
 6299SOL     OW19795   4.765   1.998   2.828
 6299SOL    HW119796   4.764   2.073   2.761
 6299SOL    HW219797   4.681   1.945   2.819
 6300SOL     OW19798   3.114   0.044   5.497
 6300SOL    HW119799   3.081   0.138   5.486
 6300SOL    HW219800   3.203   0.046   5.542
 6301SOL     OW19801   3.281   6.650   0.696
 6301SOL    HW119802   3.264   6.678   0.791
 6301SOL    HW219803   3.230   6.567   0.676
 6302SOL     OW19804   2.887   1.419   5.795
 6302SOL    HW119805   2.972   1.367   5.792
 6302SOL    HW219806   2.889   1.489   5.724
 6303SOL     OW19807   1.240   5.986   6.160
 6303SOL    HW119808   1.241   5.962   6.063
 6303SOL    HW219809   1.189   6.072   6.173
 6304SOL     OW19810   3.972   0.795   3.268
 6304SOL    HW119811   3.932   0.722   3.212
 6304SOL    HW219812   4.071   0.784   3.273
 6305SOL     OW19813   0.544   5.736   5.911
 6305SOL    HW119814   0.564   5.698   5.820
 6305SOL    HW219815   0.486   5.817   5.902
 6306SOL     OW19816   6.773   4.568   3.827
 6306SOL    HW119817   6.758   4.470   3.839
 6306SOL    HW219818   6.851   4.583   3.767
 6307SOL     OW19819   4.073   3.646   3.506
 6307SOL    HW119820   4.113   3.566   3.462
 6307SOL    HW219821   4.067   3.721   3.440
 6308SOL     OW19822   0.206   2.810   0.522
 6308SOL    HW119823   0.133   2.768   0.468
 6308SOL    HW219824   0.200   2.779   0.617
 6309SOL     OW19825   1.403   6.234   4.375
 6309SOL    HW119826   1.458   6.316   4.386
 6309SOL    HW219827   1.326   6.237   4.439
 6310SOL     OW19828   2.282   6.617   3.176
 6310SOL    HW119829   2.350   6.632   3.248
 6310SOL    HW219830   2.228   6.701   3.164
 6311SOL     OW19831   5.462   1.131   6.100
 6311SOL    HW119832   5.363   1.147   6.094
 6311SOL    HW219833   5.505   1.208   6.147
 6312SOL     OW19834   3.140   6.670   6.666
 6312SOL    HW119835   3.072   6.694   6.597
 6312SOL    HW219836   3.122   6.721   6.750
 6313SOL     OW19837   5.793   6.347   3.168
 6313SOL    HW119838   5.852   6.427   3.174
 6313SOL    HW219839   5.800   6.308   3.076
 6314SOL     OW19840   2.332   0.348   1.656
 6314SOL    HW119841   2.313   0.435   1.610
 6314SOL    HW219842   2.423   0.352   1.697
 6315SOL     OW19843   2.389   2.756   3.752
 6315SOL    HW119844   2.426   2.832   3.805
 6315SOL    HW219845   2.377   2.676   3.811
 6316SOL     OW19846   5.576   1.761   4.529
 6316SOL    HW119847   5.592   1.669   4.492
 6316SOL    HW219848   5.554   1.823   4.454
 6317SOL     OW19849   4.997   4.383   1.901
 6317SOL    HW119850   4.958   4.391   1.809
 6317SOL    HW219851   5.082   4.330   1.897
 6318SOL     OW19852   6.538   0.228   5.827
 6318SOL    HW119853   6.470   0.156   5.836
 6318SOL    HW219854   6.492   0.317   5.824
 6319SOL     OW19855   5.896   2.169   4.540
 6319SOL    HW119856   5.886   2.142   4.444
 6319SOL    HW219857   5.922   2.089   4.594
 6320SOL     OW19858   6.742   1.187   4.478
 6320SOL    HW119859   6.728   1.144   4.389
 6320SOL    HW219860   6.840   1.206   4.491
 6321SOL     OW19861   5.642   2.300   0.856
 6321SOL    HW119862   5.635   2.201   0.859
 6321SOL    HW219863   5.553   2.340   0.880
 6322SOL     OW19864   1.631   1.009   1.329
 6322SOL    HW119865   1.640   0.910   1.329
 6322SOL    HW219866   1.625   1.042   1.424
 6323SOL     OW19867   2.734   3.002   1.229
 6323SOL    HW119868   2.768   3.065   1.298
 6323SOL    HW219869   2.668   2.939   1.271
 6324SOL     OW19870   4.656   1.240   0.898
 6324SOL    HW119871   4.635   1.190   0.814
 6324SOL    HW219872   4.750   1.274   0.894
 6325SOL     OW19873   1.639   2.516   3.360
 6325SOL    HW119874   1.628   2.506   3.261
 6325SOL    HW219875   1.595   2.601   3.390
 6326SOL     OW19876   5.246   5.123   6.253
 6326SOL    HW119877   5.206   5.215   6.247
 6326SOL    HW219878   5.300   5.105   6.171
 6327SOL     OW19879   0.114   0.640   3.062
 6327SOL    HW119880   0.028   0.592   3.041
 6327SOL    HW219881   0.099   0.700   3.141
 6328SOL     OW19882   3.996   3.068   5.855
 6328SOL    HW119883   3.930   3.037   5.786
 6328SOL    HW219884   4.017   3.164   5.840
 6329SOL     OW19885   1.474   2.753   5.687
 6329SOL    HW119886   1.544   2.787   5.749
 6329SOL    HW219887   1.512   2.742   5.596
 6330SOL     OW19888   5.479   0.484   3.537
 6330SOL    HW119889   5.504   0.395   3.574
 6330SOL    HW219890   5.524   0.498   3.449
 6331SOL     OW19891   6.808   3.273   2.992
 6331SOL    HW119892   6.742   3.236   2.926
 6331SOL    HW219893   6.795   3.372   2.999
 6332SOL     OW19894   2.260   1.933   0.853
 6332SOL    HW119895   2.275   1.864   0.924
 6332SOL    HW219896   2.324   1.918   0.778
 6333SOL     OW19897   5.018   1.082   0.670
 6333SOL    HW119898   5.031   1.129   0.758
 6333SOL    HW219899   4.999   1.150   0.599
 6334SOL     OW19900   2.296   1.564   1.974
 6334SOL    HW119901   2.333   1.496   1.912
 6334SOL    HW219902   2.328   1.546   2.067
 6335SOL     OW19903   5.916   1.436   0.527
 6335SOL    HW119904   5.913   1.530   0.494
 6335SOL    HW219905   6.001   1.421   0.577
 6336SOL     OW19906   0.758   3.562   6.194
 6336SOL    HW119907   0.743   3.478   6.142
 6336SOL    HW219908   0.844   3.604   6.167
 6337SOL     OW19909   4.599   5.777   5.344
 6337SOL    HW119910   4.585   5.876   5.335
 6337SOL    HW219911   4.510   5.731   5.343
 6338SOL     OW19912   2.999   1.878   3.976
 6338SOL    HW119913   3.056   1.850   3.898
 6338SOL    HW219914   3.049   1.860   4.061
 6339SOL     OW19915   1.171   4.382   3.686
 6339SOL    HW119916   1.089   4.334   3.716
 6339SOL    HW219917   1.146   4.450   3.617
 6340SOL     OW19918   2.262   4.341   1.577
 6340SOL    HW119919   2.313   4.255   1.573
 6340SOL    HW219920   2.209   4.344   1.662
 6341SOL     OW19921   1.330   4.845   3.818
 6341SOL    HW119922   1.325   4.920   3.883
 6341SOL    HW219923   1.289   4.763   3.859
 6342SOL     OW19924   1.863   1.554   2.003
 6342SOL    HW119925   1.819   1.530   2.089
 6342SOL    HW219926   1.905   1.645   2.012
 6343SOL     OW19927   2.699   5.850   0.904
 6343SOL    HW119928   2.748   5.932   0.933
 6343SOL    HW219929   2.601   5.864   0.919
 6344SOL     OW19930   0.068   1.201   3.448
 6344SOL    HW119931   0.061   1.191   3.547
 6344SOL    HW219932   0.075   1.298   3.424
 6345SOL     OW19933   5.732   3.801   1.340
 6345SOL    HW119934   5.776   3.792   1.251
 6345SOL    HW219935   5.703   3.896   1.353
 6346SOL     OW19936   6.956   4.466   5.290
 6346SOL    HW119937   6.947   4.474   5.389
 6346SOL    HW219938   6.987   4.553   5.252
 6347SOL     OW19939   2.453   1.897   2.634
 6347SOL    HW119940   2.530   1.961   2.633
 6347SOL    HW219941   2.372   1.942   2.596
 6348SOL     OW19942   0.063   2.364   5.443
 6348SOL    HW119943   0.137   2.429   5.431
 6348SOL    HW219944   0.059   2.302   5.365
 6349SOL     OW19945   0.207   0.692   0.160
 6349SOL    HW119946   0.232   0.780   0.201
 6349SOL    HW219947   0.109   0.688   0.145
 6350SOL     OW19948   1.088   4.456   1.898
 6350SOL    HW119949   1.151   4.500   1.834
 6350SOL    HW219950   1.045   4.377   1.853
 6351SOL     OW19951   5.741   3.380   2.120
 6351SOL    HW119952   5.794   3.453   2.077
 6351SOL    HW219953   5.746   3.298   2.063
 6352SOL     OW19954   2.148   0.644   4.849
 6352SOL    HW119955   2.159   0.545   4.854
 6352SOL    HW219956   2.083   0.667   4.777
 6353SOL     OW19957   3.002   6.190   6.519
 6353SOL    HW119958   2.915   6.234   6.496
 6353SOL    HW219959   3.058   6.254   6.572
 6354SOL     OW19960   4.719   4.701   2.354
 6354SOL    HW119961   4.680   4.610   2.344
 6354SOL    HW219962   4.751   4.714   2.448
 6355SOL     OW19963   2.838   4.861   0.868
 6355SOL    HW119964   2.850   4.922   0.947
 6355SOL    HW219965   2.884   4.774   0.885
 6356SOL     OW19966   5.565   4.039   6.504
 6356SOL    HW119967   5.471   4.008   6.514
 6356SOL    HW219968   5.608   4.048   6.594
 6357SOL     OW19969   5.392   1.581   1.443
 6357SOL    HW119970   5.470   1.520   1.449
 6357SOL    HW219971   5.378   1.627   1.531
 6358SOL     OW19972   1.184   2.600   6.632
 6358SOL    HW119973   1.131   2.542   6.694
 6358SOL    HW219974   1.144   2.691   6.630
 6359SOL     OW19975   5.701   6.156   0.259
 6359SOL    HW119976   5.657   6.182   0.346
 6359SOL    HW219977   5.673   6.064   0.234
 6360SOL     OW19978   0.799   2.321   2.782
 6360SOL    HW119979   0.781   2.253   2.854
 6360SOL    HW219980   0.717   2.331   2.725
 6361SOL     OW19981   0.581   0.629   0.073
 6361SOL    HW119982   0.641   0.549   0.061
 6361SOL    HW219983   0.508   0.606   0.137
 6362SOL     OW19984   1.004   5.454   6.770
 6362SOL    HW119985   0.993   5.513   6.690
 6362SOL    HW219986   0.969   5.502   6.851
 6363SOL     OW19987   3.192   5.451   3.959
 6363SOL    HW119988   3.286   5.417   3.967
 6363SOL    HW219989   3.129   5.373   3.957
 6364SOL     OW19990   2.478   2.484   4.820
 6364SOL    HW119991   2.425   2.476   4.736
 6364SOL    HW219992   2.456   2.570   4.866
 6365SOL     OW19993   5.867   5.129   3.551
 6365SOL    HW119994   5.793   5.190   3.523
 6365SOL    HW219995   5.879   5.057   3.483
 6366SOL     OW19996   5.804   6.578   4.378
 6366SOL    HW119997   5.821   6.547   4.471
 6366SOL    HW219998   5.889   6.578   4.326
 6367SOL     OW19999   2.851   1.843   2.856
 6367SOL    HW120000   2.914   1.915   2.828
 6367SOL    HW220001   2.775   1.883   2.908
 6368SOL     OW20002   4.951   3.112   4.817
 6368SOL    HW120003   4.900   3.103   4.903
 6368SOL    HW220004   4.988   3.023   4.790
 6369SOL     OW20005   3.278   6.151   6.167
 6369SOL    HW120006   3.327   6.102   6.094
 6369SOL    HW220007   3.218   6.088   6.215
 6370SOL     OW20008   5.605   3.452   3.802
 6370SOL    HW120009   5.538   3.393   3.755
 6370SOL    HW220010   5.656   3.397   3.868
 6371SOL     OW20011   5.525   4.042   1.826
 6371SOL    HW120012   5.533   3.956   1.777
 6371SOL    HW220013   5.480   4.110   1.767
 6372SOL     OW20014   6.838   0.623   2.675
 6372SOL    HW120015   6.795   0.660   2.757
 6372SOL    HW220016   6.925   0.670   2.659
 6373SOL     OW20017   5.388   3.600   1.227
 6373SOL    HW120018   5.352   3.509   1.244
 6373SOL    HW220019   5.314   3.667   1.228
 6374SOL     OW20020   4.866   3.025   0.621
 6374SOL    HW120021   4.772   3.014   0.653
 6374SOL    HW220022   4.929   3.008   0.696
 6375SOL     OW20023   6.506   2.650   2.095
 6375SOL    HW120024   6.464   2.706   2.024
 6375SOL    HW220025   6.474   2.680   2.185
 6376SOL     OW20026   3.568   0.698   6.325
 6376SOL    HW120027   3.665   0.714   6.342
 6376SOL    HW220028   3.553   0.600   6.307
 6377SOL     OW20029   0.077   0.735   0.612
 6377SOL    HW120030   0.018   0.702   0.686
 6377SOL    HW220031   0.081   0.668   0.539
 6378SOL     OW20032   5.552   5.258   3.105
 6378SOL    HW120033   5.637   5.283   3.058
 6378SOL    HW220034   5.475   5.266   3.042
 6379SOL     OW20035   2.878   6.058   0.169
 6379SOL    HW120036   2.839   6.030   0.082
 6379SOL    HW220037   2.948   5.992   0.198
 6380SOL     OW20038   1.381   2.865   5.335
 6380SOL    HW120039   1.289   2.842   5.368
 6380SOL    HW220040   1.377   2.889   5.238
 6381SOL     OW20041   4.476   2.871   0.242
 6381SOL    HW120042   4.390   2.891   0.197
 6381SOL    HW220043   4.531   2.811   0.184
 6382SOL     OW20044   2.005   1.780   1.288
 6382SOL    HW120045   2.011   1.769   1.189
 6382SOL    HW220046   2.082   1.834   1.320
 6383SOL     OW20047   1.704   2.029   2.412
 6383SOL    HW120048   1.744   2.091   2.345
 6383SOL    HW220049   1.626   2.072   2.456
 6384SOL     OW20050   6.369   2.561   1.844
 6384SOL    HW120051   6.275   2.593   1.858
 6384SOL    HW220052   6.406   2.602   1.761
 6385SOL     OW20053   0.095   3.090   1.017
 6385SOL    HW120054   0.078   3.176   1.065
 6385SOL    HW220055   0.015   3.030   1.027
 6386SOL     OW20056   1.970   3.370   0.232
 6386SOL    HW120057   2.021   3.285   0.217
 6386SOL    HW220058   1.963   3.420   0.146
 6387SOL     OW20059   6.239   0.275   6.870
 6387SOL    HW120060   6.213   0.353   6.928
 6387SOL    HW220061   6.233   0.191   6.923
 6388SOL     OW20062   6.324   5.637   2.507
 6388SOL    HW120063   6.230   5.658   2.535
 6388SOL    HW220064   6.322   5.572   2.431
 6389SOL     OW20065   1.588   0.659   6.413
 6389SOL    HW120066   1.615   0.755   6.418
 6389SOL    HW220067   1.583   0.631   6.317
 6390SOL     OW20068   6.721   1.116   6.870
 6390SOL    HW120069   6.662   1.037   6.852
 6390SOL    HW220070   6.689   1.195   6.817
 6391SOL     OW20071   1.591   1.495   4.863
 6391SOL    HW120072   1.537   1.533   4.938
 6391SOL    HW220073   1.531   1.448   4.798
 6392SOL     OW20074   3.789   6.266   3.730
 6392SOL    HW120075   3.843   6.223   3.658
 6392SOL    HW220076   3.849   6.291   3.806
 6393SOL     OW20077   6.461   5.737   1.597
 6393SOL    HW120078   6.459   5.826   1.551
 6393SOL    HW220079   6.509   5.671   1.539
 6394SOL     OW20080   1.091   5.235   1.168
 6394SOL    HW120081   1.175   5.285   1.188
 6394SOL    HW220082   1.114   5.142   1.137
 6395SOL     OW20083   1.820   4.185   3.561
 6395SOL    HW120084   1.859   4.243   3.633
 6395SOL    HW220085   1.812   4.238   3.477
 6396SOL     OW20086   0.203   3.663   0.459
 6396SOL    HW120087   0.301   3.665   0.442
 6396SOL    HW220088   0.154   3.651   0.373
 6397SOL     OW20089   5.848   2.111   3.817
 6397SOL    HW120090   5.899   2.190   3.851
 6397SOL    HW220091   5.771   2.093   3.878
 6398SOL     OW20092   1.354   6.941   1.184
 6398SOL    HW120093   1.437   6.895   1.153
 6398SOL    HW220094   1.280   6.925   1.118
 6399SOL     OW20095   2.579   0.714   6.026
 6399SOL    HW120096   2.602   0.803   5.986
 6399SOL    HW220097   2.482   0.712   6.049
 6400SOL     OW20098   1.432   5.508   3.263
 6400SOL    HW120099   1.473   5.557   3.186
 6400SOL    HW220100   1.462   5.550   3.349
 6401SOL     OW20101   4.009   5.808   3.288
 6401SOL    HW120102   3.951   5.845   3.216
 6401SOL    HW220103   3.963   5.819   3.376
 6402SOL     OW20104   2.316   4.656   5.158
 6402SOL    HW120105   2.227   4.644   5.203
 6402SOL    HW220106   2.329   4.753   5.136
 6403SOL     OW20107   5.053   6.189   4.936
 6403SOL    HW120108   5.077   6.127   5.010
 6403SOL    HW220109   5.133   6.242   4.909
 6404SOL     OW20110   4.050   0.636   2.630
 6404SOL    HW120111   4.111   0.577   2.682
 6404SOL    HW220112   4.073   0.732   2.649
 6405SOL     OW20113   5.388   1.299   2.170
 6405SOL    HW120114   5.291   1.276   2.164
 6405SOL    HW220115   5.442   1.215   2.169
 6406SOL     OW20116   1.334   2.921   2.773
 6406SOL    HW120117   1.253   2.949   2.824
 6406SOL    HW220118   1.323   2.945   2.677
 6407SOL     OW20119   1.994   6.093   3.066
 6407SOL    HW120120   1.920   6.153   3.035
 6407SOL    HW220121   2.069   6.096   3.000
 6408SOL     OW20122   6.428   0.818   0.315
 6408SOL    HW120123   6.350   0.784   0.368
 6408SOL    HW220124   6.480   0.883   0.370
 6409SOL     OW20125   6.556   4.623   4.011
 6409SOL    HW120126   6.552   4.721   4.031
 6409SOL    HW220127   6.634   4.605   3.951
 6410SOL     OW20128   3.195   1.828   5.782
 6410SOL    HW120129   3.257   1.877   5.722
 6410SOL    HW220130   3.207   1.860   5.876
 6411SOL     OW20131   0.370   2.200   2.769
 6411SOL    HW120132   0.272   2.219   2.777
 6411SOL    HW220133   0.388   2.105   2.791
 6412SOL     OW20134   2.989   0.685   6.920
 6412SOL    HW120135   2.980   0.595   6.879
 6412SOL    HW220136   2.967   0.680   7.018
 6413SOL     OW20137   4.402   5.024   3.879
 6413SOL    HW120138   4.347   5.053   3.957
 6413SOL    HW220139   4.469   5.094   3.856
 6414SOL     OW20140   1.138   6.799   0.241
 6414SOL    HW120141   1.189   6.884   0.255
 6414SOL    HW220142   1.183   6.725   0.291
 6415SOL     OW20143   1.069   2.431   3.554
 6415SOL    HW120144   0.999   2.496   3.584
 6415SOL    HW220145   1.149   2.480   3.522
 6416SOL     OW20146   2.849   0.623   6.630
 6416SOL    HW120147   2.776   0.561   6.659
 6416SOL    HW220148   2.856   0.698   6.696
 6417SOL     OW20149   4.607   1.512   0.531
 6417SOL    HW120150   4.544   1.549   0.600
 6417SOL    HW220151   4.699   1.547   0.549
 6418SOL     OW20152   4.418   5.139   1.544
 6418SOL    HW120153   4.492   5.111   1.605
 6418SOL    HW220154   4.333   5.092   1.570
 6419SOL     OW20155   0.540   6.549   6.755
 6419SOL    HW120156   0.561   6.495   6.673
 6419SOL    HW220157   0.616   6.611   6.774
 6420SOL     OW20158   2.087   3.469   4.086
 6420SOL    HW120159   2.070   3.391   4.147
 6420SOL    HW220160   2.123   3.546   4.139
 6421SOL     OW20161   4.833   6.954   1.884
 6421SOL    HW120162   4.904   7.007   1.836
 6421SOL    HW220163   4.758   6.933   1.821
 6422SOL     OW20164   6.437   2.595   4.792
 6422SOL    HW120165   6.383   2.618   4.873
 6422SOL    HW220166   6.532   2.624   4.806
 6423SOL     OW20167   2.447   4.513   4.542
 6423SOL    HW120168   2.402   4.475   4.461
 6423SOL    HW220169   2.532   4.463   4.560
 6424SOL     OW20170   6.917   4.416   4.929
 6424SOL    HW120171   6.951   4.501   4.970
 6424SOL    HW220172   6.823   4.399   4.959
 6425SOL     OW20173   0.282   6.058   2.694
 6425SOL    HW120174   0.248   6.147   2.726
 6425SOL    HW220175   0.231   6.030   2.612
 6426SOL     OW20176   4.591   4.524   4.741
 6426SOL    HW120177   4.554   4.582   4.814
 6426SOL    HW220178   4.660   4.462   4.779
 6427SOL     OW20179   2.877   3.428   3.681
 6427SOL    HW120180   2.870   3.373   3.598
 6427SOL    HW220181   2.872   3.525   3.658
 6428SOL     OW20182   5.069   2.589   0.135
 6428SOL    HW120183   4.986   2.630   0.174
 6428SOL    HW220184   5.146   2.604   0.197
 6429SOL     OW20185   2.468   0.706   5.720
 6429SOL    HW120186   2.547   0.754   5.683
 6429SOL    HW220187   2.494   0.613   5.747
 6430SOL     OW20188   6.851   0.400   4.835
 6430SOL    HW120189   6.842   0.352   4.922
 6430SOL    HW220190   6.760   0.419   4.798
 6431SOL     OW20191   3.981   4.782   1.663
 6431SOL    HW120192   4.009   4.868   1.619
 6431SOL    HW220193   3.889   4.792   1.700
 6432SOL     OW20194   4.262   4.360   6.115
 6432SOL    HW120195   4.192   4.305   6.160
 6432SOL    HW220196   4.319   4.405   6.184
 6433SOL     OW20197   2.579   5.686   6.463
 6433SOL    HW120198   2.492   5.735   6.452
 6433SOL    HW220199   2.592   5.663   6.560
 6434SOL     OW20200   3.337   5.665   5.705
 6434SOL    HW120201   3.401   5.707   5.642
 6434SOL    HW220202   3.291   5.735   5.759
 6435SOL     OW20203   5.175   1.246   0.882
 6435SOL    HW120204   5.133   1.255   0.972
 6435SOL    HW220205   5.243   1.173   0.884
 6436SOL     OW20206   0.048   3.787   3.886
 6436SOL    HW120207   0.009   3.840   3.961
 6436SOL    HW220208   0.063   3.692   3.916
 6437SOL     OW20209   0.534   1.108   5.530
 6437SOL    HW120210   0.459   1.079   5.589
 6437SOL    HW220211   0.518   1.202   5.500
 6438SOL     OW20212   0.656   5.682   0.294
 6438SOL    HW120213   0.647   5.765   0.348
 6438SOL    HW220214   0.575   5.670   0.237
 6439SOL     OW20215   5.362   7.023   3.326
 6439SOL    HW120216   5.441   0.049   3.295
 6439SOL    HW220217   5.279   0.035   3.284
 6440SOL     OW20218   2.312   1.432   6.131
 6440SOL    HW120219   2.248   1.441   6.054
 6440SOL    HW220220   2.406   1.434   6.096
 6441SOL     OW20221   0.335   0.833   2.689
 6441SOL    HW120222   0.308   0.929   2.681
 6441SOL    HW220223   0.427   0.826   2.726
 6442SOL     OW20224   3.003   2.779   5.451
 6442SOL    HW120225   3.004   2.686   5.415
 6442SOL    HW220226   3.008   2.776   5.551
 6443SOL     OW20227   4.836   2.542   1.171
 6443SOL    HW120228   4.766   2.611   1.186
 6443SOL    HW220229   4.799   2.471   1.111
 6444SOL     OW20230   0.196   3.267   5.042
 6444SOL    HW120231   0.242   3.256   4.954
 6444SOL    HW220232   0.211   3.186   5.098
 6445SOL     OW20233   2.956   3.837   3.305
 6445SOL    HW120234   2.871   3.811   3.351
 6445SOL    HW220235   3.024   3.866   3.373
 6446SOL     OW20236   2.443   1.744   6.729
 6446SOL    HW120237   2.445   1.774   6.825
 6446SOL    HW220238   2.431   1.823   6.670
 6447SOL     OW20239   6.653   4.405   1.000
 6447SOL    HW120240   6.585   4.391   0.928
 6447SOL    HW220241   6.693   4.496   0.990
 6448SOL     OW20242   4.756   5.292   1.828
 6448SOL    HW120243   4.705   5.359   1.775
 6448SOL    HW220244   4.727   5.200   1.802
 6449SOL     OW20245   2.195   5.816   1.433
 6449SOL    HW120246   2.254   5.746   1.393
 6449SOL    HW220247   2.116   5.772   1.476
 6450SOL     OW20248   0.283   3.813   0.903
 6450SOL    HW120249   0.382   3.796   0.898
 6450SOL    HW220250   0.236   3.730   0.932
 6451SOL     OW20251   3.078   2.464   1.353
 6451SOL    HW120252   3.164   2.442   1.399
 6451SOL    HW220253   3.048   2.386   1.299
 6452SOL     OW20254   5.484   2.767   3.010
 6452SOL    HW120255   5.429   2.831   3.063
 6452SOL    HW220256   5.423   2.702   2.964
 6453SOL     OW20257   3.460   6.947   1.013
 6453SOL    HW120258   3.477   6.851   1.033
 6453SOL    HW220259   3.463   6.961   0.914
 6454SOL     OW20260   5.940   2.793   2.848
 6454SOL    HW120261   5.846   2.824   2.863
 6454SOL    HW220262   5.981   2.844   2.773
 6455SOL     OW20263   6.503   3.696   3.623
 6455SOL    HW120264   6.575   3.640   3.583
 6455SOL    HW220265   6.421   3.640   3.638
 6456SOL     OW20266   6.427   1.468   2.899
 6456SOL    HW120267   6.457   1.558   2.869
 6456SOL    HW220268   6.338   1.475   2.944
 6457SOL     OW20269   4.906   0.343   1.828
 6457SOL    HW120270   4.922   0.441   1.814
 6457SOL    HW220271   4.813   0.330   1.863
 6458SOL     OW20272   0.958   4.956   3.707
 6458SOL    HW120273   0.976   4.863   3.741
 6458SOL    HW220274   0.981   4.960   3.610
 6459SOL     OW20275   6.493   3.080   2.732
 6459SOL    HW120276   6.541   3.005   2.685
 6459SOL    HW220277   6.433   3.127   2.667
 6460SOL     OW20278   6.964   5.680   6.517
 6460SOL    HW120279   7.008   5.755   6.566
 6460SOL    HW220280   7.017   5.657   6.436
 6461SOL     OW20281   2.973   4.894   1.369
 6461SOL    HW120282   2.935   4.806   1.339
 6461SOL    HW220283   2.921   4.928   1.447
 6462SOL     OW20284   1.200   3.858   5.110
 6462SOL    HW120285   1.284   3.843   5.057
 6462SOL    HW220286   1.221   3.850   5.207
 6463SOL     OW20287   4.376   1.109   1.464
 6463SOL    HW120288   4.383   1.207   1.443
 6463SOL    HW220289   4.466   1.066   1.455
 6464SOL     OW20290   0.842   5.680   4.171
 6464SOL    HW120291   0.789   5.595   4.171
 6464SOL    HW220292   0.848   5.716   4.077
 6465SOL     OW20293   4.707   1.859   3.523
 6465SOL    HW120294   4.739   1.935   3.467
 6465SOL    HW220295   4.745   1.868   3.615
 6466SOL     OW20296   0.688   3.269   0.046
 6466SOL    HW120297   0.744   3.248   6.991
 6466SOL    HW220298   0.746   3.270   0.127
 6467SOL     OW20299   3.337   1.136   0.880
 6467SOL    HW120300   3.342   1.167   0.975
 6467SOL    HW220301   3.391   1.197   0.822
 6468SOL     OW20302   3.067   0.347   0.213
 6468SOL    HW120303   2.981   0.300   0.192
 6468SOL    HW220304   3.050   0.446   0.217
 6469SOL     OW20305   3.682   1.491   2.934
 6469SOL    HW120306   3.645   1.438   2.857
 6469SOL    HW220307   3.624   1.571   2.950
 6470SOL     OW20308   6.439   2.219   0.021
 6470SOL    HW120309   6.348   2.258   0.035
 6470SOL    HW220310   6.432   2.138   6.988
 6471SOL     OW20311   0.090   6.519   5.196
 6471SOL    HW120312   0.038   6.434   5.204
 6471SOL    HW220313   0.027   6.596   5.202
 6472SOL     OW20314   6.888   5.623   2.580
 6472SOL    HW120315   6.812   5.563   2.553
 6472SOL    HW220316   6.877   5.650   2.675
 6473SOL     OW20317   2.458   1.057   4.402
 6473SOL    HW120318   2.552   1.065   4.437
 6473SOL    HW220319   2.454   1.095   4.310
 6474SOL     OW20320   4.005   5.834   4.995
 6474SOL    HW120321   4.074   5.905   4.984
 6474SOL    HW220322   3.932   5.847   4.928
 6475SOL     OW20323   5.756   5.015   2.956
 6475SOL    HW120324   5.784   5.086   3.020
 6475SOL    HW220325   5.764   5.050   2.862
 6476SOL     OW20326   4.180   1.382   6.375
 6476SOL    HW120327   4.141   1.474   6.374
 6476SOL    HW220328   4.227   1.365   6.289
 6477SOL     OW20329   6.649   6.132   1.538
 6477SOL    HW120330   6.676   6.103   1.629
 6477SOL    HW220331   6.730   6.139   1.480
 6478SOL     OW20332   3.615   5.857   1.677
 6478SOL    HW120333   3.704   5.899   1.697
 6478SOL    HW220334   3.542   5.922   1.701
 6479SOL     OW20335   3.392   6.553   4.098
 6479SOL    HW120336   3.360   6.490   4.169
 6479SOL    HW220337   3.483   6.587   4.123
 6480SOL     OW20338   3.508   1.040   0.172
 6480SOL    HW120339   3.456   1.122   0.146
 6480SOL    HW220340   3.589   1.068   0.224
 6481SOL     OW20341   3.330   2.765   1.774
 6481SOL    HW120342   3.307   2.797   1.867
 6481SOL    HW220343   3.248   2.729   1.731
 6482SOL     OW20344   6.708   3.493   5.230
 6482SOL    HW120345   6.757   3.439   5.161
 6482SOL    HW220346   6.617   3.514   5.197
 6483SOL     OW20347   1.069   5.444   5.414
 6483SOL    HW120348   1.145   5.466   5.353
 6483SOL    HW220349   1.016   5.369   5.376
 6484SOL     OW20350   2.928   0.770   4.332
 6484SOL    HW120351   2.866   0.765   4.411
 6484SOL    HW220352   2.951   0.677   4.303
 6485SOL     OW20353   2.080   6.897   4.502
 6485SOL    HW120354   2.001   6.899   4.441
 6485SOL    HW220355   2.141   6.973   4.480
 6486SOL     OW20356   1.637   5.292   3.124
 6486SOL    HW120357   1.564   5.310   3.190
 6486SOL    HW220358   1.596   5.279   3.033
 6487SOL     OW20359   0.352   4.413   4.322
 6487SOL    HW120360   0.299   4.496   4.333
 6487SOL    HW220361   0.450   4.433   4.334
 6488SOL     OW20362   4.583   5.209   4.674
 6488SOL    HW120363   4.622   5.277   4.611
 6488SOL    HW220364   4.485   5.203   4.659
 6489SOL     OW20365   4.072   2.961   6.081
 6489SOL    HW120366   4.163   2.921   6.068
 6489SOL    HW220367   4.045   3.011   5.999
 6490SOL     OW20368   1.921   2.116   6.495
 6490SOL    HW120369   1.916   2.170   6.578
 6490SOL    HW220370   2.015   2.086   6.479
 6491SOL     OW20371   1.626   0.526   0.146
 6491SOL    HW120372   1.561   0.511   0.221
 6491SOL    HW220373   1.575   0.535   0.060
 6492SOL     OW20374   3.713   3.812   4.908
 6492SOL    HW120375   3.643   3.811   4.979
 6492SOL    HW220376   3.688   3.748   4.835
 6493SOL     OW20377   1.020   4.397   6.116
 6493SOL    HW120378   1.004   4.368   6.210
 6493SOL    HW220379   0.948   4.361   6.057
 6494SOL     OW20380   6.224   6.760   2.269
 6494SOL    HW120381   6.138   6.745   2.317
 6494SOL    HW220382   6.228   6.701   2.188
 6495SOL     OW20383   0.212   0.018   3.521
 6495SOL    HW120384   0.237   6.972   3.586
 6495SOL    HW220385   0.283   0.088   3.520
 6496SOL     OW20386   5.201   0.560   2.011
 6496SOL    HW120387   5.186   0.463   1.991
 6496SOL    HW220388   5.294   0.574   2.043
 6497SOL     OW20389   6.956   1.773   0.483
 6497SOL    HW120390   6.901   1.843   0.437
 6497SOL    HW220391   0.002   1.741   0.421
 6498SOL     OW20392   1.200   4.017   3.879
 6498SOL    HW120393   1.200   3.960   3.797
 6498SOL    HW220394   1.250   3.971   3.952
 6499SOL     OW20395   5.624   3.717   3.885
 6499SOL    HW120396   5.551   3.731   3.953
 6499SOL    HW220397   5.614   3.626   3.845
 6500SOL     OW20398   1.464   3.756   2.730
 6500SOL    HW120399   1.460   3.680   2.666
 6500SOL    HW220400   1.557   3.791   2.736
 6501SOL     OW20401   6.317   2.049   0.957
 6501SOL    HW120402   6.292   2.142   0.933
 6501SOL    HW220403   6.236   1.990   0.952
 6502SOL     OW20404   6.247   3.879   1.706
 6502SOL    HW120405   6.173   3.823   1.670
 6502SOL    HW220406   6.238   3.887   1.806
 6503SOL     OW20407   6.636   3.359   5.508
 6503SOL    HW120408   6.681   3.391   5.424
 6503SOL    HW220409   6.548   3.318   5.485
 6504SOL     OW20410   4.496   6.106   6.599
 6504SOL    HW120411   4.425   6.101   6.668
 6504SOL    HW220412   4.563   6.176   6.624
 6505SOL     OW20413   5.613   5.529   6.862
 6505SOL    HW120414   5.645   5.437   6.885
 6505SOL    HW220415   5.668   5.566   6.787
 6506SOL     OW20416   0.300   3.247   2.706
 6506SOL    HW120417   0.252   3.308   2.643
 6506SOL    HW220418   0.397   3.273   2.709
 6507SOL     OW20419   4.071   4.557   6.667
 6507SOL    HW120420   4.075   4.463   6.701
 6507SOL    HW220421   3.982   4.573   6.625
 6508SOL     OW20422   1.050   6.404   1.758
 6508SOL    HW120423   1.108   6.386   1.838
 6508SOL    HW220424   1.021   6.500   1.759
 6509SOL     OW20425   3.700   1.600   5.608
 6509SOL    HW120426   3.640   1.618   5.686
 6509SOL    HW220427   3.644   1.582   5.527
 6510SOL     OW20428   4.442   5.971   5.875
 6510SOL    HW120429   4.505   5.942   5.946
 6510SOL    HW220430   4.473   6.058   5.836
 6511SOL     OW20431   3.179   0.815   0.235
 6511SOL    HW120432   3.156   0.910   0.213
 6511SOL    HW220433   3.274   0.798   0.211
 6512SOL     OW20434   3.097   0.510   1.127
 6512SOL    HW120435   3.052   0.446   1.190
 6512SOL    HW220436   3.043   0.593   1.119
 6513SOL     OW20437   2.791   5.552   4.246
 6513SOL    HW120438   2.721   5.557   4.317
 6513SOL    HW220439   2.805   5.643   4.206
 6514SOL     OW20440   5.761   0.222   5.646
 6514SOL    HW120441   5.796   0.134   5.676
 6514SOL    HW220442   5.749   0.283   5.725
 6515SOL     OW20443   2.341   5.264   2.309
 6515SOL    HW120444   2.441   5.262   2.312
 6515SOL    HW220445   2.305   5.183   2.357
 6516SOL     OW20446   6.825   3.471   0.936
 6516SOL    HW120447   6.767   3.544   0.900
 6516SOL    HW220448   6.821   3.392   0.875
 6517SOL     OW20449   6.878   2.890   6.639
 6517SOL    HW120450   6.809   2.863   6.573
 6517SOL    HW220451   6.967   2.896   6.594
 6518SOL     OW20452   1.186   1.597   2.780
 6518SOL    HW120453   1.204   1.621   2.875
 6518SOL    HW220454   1.104   1.539   2.775
 6519SOL     OW20455   1.232   1.620   3.035
 6519SOL    HW120456   1.245   1.531   3.081
 6519SOL    HW220457   1.300   1.685   3.070
 6520SOL     OW20458   0.390   5.658   0.190
 6520SOL    HW120459   0.349   5.632   0.102
 6520SOL    HW220460   0.330   5.721   0.238
 6521SOL     OW20461   1.549   3.000   4.401
 6521SOL    HW120462   1.548   2.920   4.341
 6521SOL    HW220463   1.644   3.029   4.417
 6522SOL     OW20464   2.659   3.983   5.301
 6522SOL    HW120465   2.579   3.987   5.241
 6522SOL    HW220466   2.729   3.924   5.260
 6523SOL     OW20467   5.981   0.686   0.263
 6523SOL    HW120468   5.900   0.711   0.315
 6523SOL    HW220469   6.018   0.600   0.298
 6524SOL     OW20470   2.148   2.371   1.397
 6524SOL    HW120471   2.049   2.374   1.410
 6524SOL    HW220472   2.169   2.328   1.310
 6525SOL     OW20473   1.350   4.947   3.560
 6525SOL    HW120474   1.329   4.930   3.656
 6525SOL    HW220475   1.433   5.003   3.554
 6526SOL     OW20476   0.129   0.227   0.788
 6526SOL    HW120477   0.214   0.184   0.758
 6526SOL    HW220478   0.084   0.168   0.855
 6527SOL     OW20479   0.733   2.523   0.255
 6527SOL    HW120480   0.670   2.446   0.247
 6527SOL    HW220481   0.691   2.594   0.312
 6528SOL     OW20482   6.019   0.873   5.717
 6528SOL    HW120483   6.031   0.780   5.682
 6528SOL    HW220484   5.955   0.872   5.794
 6529SOL     OW20485   6.837   1.024   2.377
 6529SOL    HW120486   6.905   1.085   2.418
 6529SOL    HW220487   6.811   1.059   2.287
 6530SOL     OW20488   0.581   2.568   2.276
 6530SOL    HW120489   0.507   2.627   2.243
 6530SOL    HW220490   0.668   2.603   2.243
 6531SOL     OW20491   3.569   3.169   5.641
 6531SOL    HW120492   3.511   3.250   5.652
 6531SOL    HW220493   3.559   3.132   5.549
 6532SOL     OW20494   1.395   0.682   0.758
 6532SOL    HW120495   1.415   0.681   0.856
 6532SOL    HW220496   1.332   0.757   0.737
 6533SOL     OW20497   4.098   3.763   6.909
 6533SOL    HW120498   4.098   3.860   6.886
 6533SOL    HW220499   4.056   3.750   7.000
 6534SOL     OW20500   6.170   4.762   2.493
 6534SOL    HW120501   6.263   4.768   2.456
 6534SOL    HW220502   6.116   4.839   2.460
 6535SOL     OW20503   6.184   3.456   5.211
 6535SOL    HW120504   6.107   3.395   5.230
 6535SOL    HW220505   6.208   3.507   5.293
 6536SOL     OW20506   0.677   3.591   5.207
 6536SOL    HW120507   0.756   3.531   5.192
 6536SOL    HW220508   0.603   3.538   5.250
 6537SOL     OW20509   6.057   4.671   4.319
 6537SOL    HW120510   6.132   4.613   4.287
 6537SOL    HW220511   5.971   4.621   4.311
 6538SOL     OW20512   2.343   3.545   5.348
 6538SOL    HW120513   2.433   3.583   5.367
 6538SOL    HW220514   2.347   3.445   5.353
 6539SOL     OW20515   6.235   0.690   6.139
 6539SOL    HW120516   6.137   0.711   6.137
 6539SOL    HW220517   6.273   0.714   6.228
 6540SOL     OW20518   4.565   2.704   6.009
 6540SOL    HW120519   4.622   2.623   5.999
 6540SOL    HW220520   4.608   2.781   5.961
 6541SOL     OW20521   5.890   1.142   4.633
 6541SOL    HW120522   5.984   1.113   4.616
 6541SOL    HW220523   5.847   1.079   4.698
 6542SOL     OW20524   1.534   3.547   4.752
 6542SOL    HW120525   1.451   3.580   4.709
 6542SOL    HW220526   1.515   3.461   4.800
 6543SOL     OW20527   4.080   2.164   5.237
 6543SOL    HW120528   4.010   2.184   5.305
 6543SOL    HW220529   4.096   2.246   5.181
 6544SOL     OW20530   0.911   6.697   1.796
 6544SOL    HW120531   0.922   6.687   1.895
 6544SOL    HW220532   0.994   6.735   1.757
 6545SOL     OW20533   4.455   0.272   1.347
 6545SOL    HW120534   4.405   0.252   1.262
 6545SOL    HW220535   4.457   0.191   1.404
 6546SOL     OW20536   5.029   3.821   6.095
 6546SOL    HW120537   5.045   3.760   6.018
 6546SOL    HW220538   4.957   3.887   6.071
 6547SOL     OW20539   5.711   5.853   0.224
 6547SOL    HW120540   5.617   5.855   0.259
 6547SOL    HW220541   5.749   5.761   0.236
 6548SOL     OW20542   0.458   2.432   5.694
 6548SOL    HW120543   0.430   2.345   5.653
 6548SOL    HW220544   0.527   2.475   5.636
 6549SOL     OW20545   5.158   6.905   1.655
 6549SOL    HW120546   5.161   6.861   1.565
 6549SOL    HW220547   5.099   6.985   1.651
 6550SOL     OW20548   6.683   0.032   3.211
 6550SOL    HW120549   6.615   7.005   3.160
 6550SOL    HW220550   6.751   0.069   3.148
 6551SOL     OW20551   3.154   3.365   1.681
 6551SOL    HW120552   3.133   3.461   1.663
 6551SOL    HW220553   3.223   3.333   1.616
 6552SOL     OW20554   2.123   0.395   0.393
 6552SOL    HW120555   2.071   0.320   0.432
 6552SOL    HW220556   2.198   0.420   0.455
 6553SOL     OW20557   0.398   0.717   3.060
 6553SOL    HW120558   0.337   0.789   3.028
 6553SOL    HW220559   0.358   0.627   3.041
 6554SOL     OW20560   3.229   0.997   4.905
 6554SOL    HW120561   3.308   0.936   4.898
 6554SOL    HW220562   3.174   0.990   4.822
 6555SOL     OW20563   6.515   1.961   4.718
 6555SOL    HW120564   6.564   1.994   4.637
 6555SOL    HW220565   6.426   1.925   4.691
 6556SOL     OW20566   5.569   3.089   3.787
 6556SOL    HW120567   5.538   3.054   3.875
 6556SOL    HW220568   5.494   3.084   3.721
 6557SOL     OW20569   1.688   6.577   2.323
 6557SOL    HW120570   1.632   6.495   2.320
 6557SOL    HW220571   1.639   6.653   2.280
 6558SOL     OW20572   5.631   4.936   0.378
 6558SOL    HW120573   5.676   4.852   0.348
 6558SOL    HW220574   5.547   4.950   0.326
 6559SOL     OW20575   6.283   2.869   6.172
 6559SOL    HW120576   6.190   2.849   6.205
 6559SOL    HW220577   6.279   2.893   6.075
 6560SOL     OW20578   5.129   4.724   0.610
 6560SOL    HW120579   5.176   4.676   0.535
 6560SOL    HW220580   5.169   4.697   0.697
 6561SOL     OW20581   3.743   4.880   0.507
 6561SOL    HW120582   3.717   4.973   0.481
 6561SOL    HW220583   3.661   4.824   0.518
 6562SOL     OW20584   6.185   2.590   0.832
 6562SOL    HW120585   6.233   2.514   0.877
 6562SOL    HW220586   6.086   2.575   0.838
 6563SOL     OW20587   5.179   6.790   4.795
 6563SOL    HW120588   5.261   6.826   4.750
 6563SOL    HW220589   5.113   6.864   4.809
 6564SOL     OW20590   0.083   4.067   2.459
 6564SOL    HW120591   0.022   4.144   2.475
 6564SOL    HW220592   0.161   4.073   2.521
 6565SOL     OW20593   5.934   0.133   2.565
 6565SOL    HW120594   5.963   0.211   2.622
 6565SOL    HW220595   5.839   0.110   2.586
 6566SOL     OW20596   4.074   6.045   2.419
 6566SOL    HW120597   4.092   6.056   2.516
 6566SOL    HW220598   4.012   6.117   2.387
 6567SOL     OW20599   4.482   0.725   1.140
 6567SOL    HW120600   4.387   0.698   1.128
 6567SOL    HW220601   4.532   0.652   1.187
 6568SOL     OW20602   3.652   0.660   1.568
 6568SOL    HW120603   3.741   0.633   1.533
 6568SOL    HW220604   3.584   0.592   1.540
 6569SOL     OW20605   1.138   3.467   5.751
 6569SOL    HW120606   1.230   3.496   5.727
 6569SOL    HW220607   1.088   3.543   5.792
 6570SOL     OW20608   3.698   6.618   1.869
 6570SOL    HW120609   3.613   6.568   1.853
 6570SOL    HW220610   3.701   6.699   1.810
 6571SOL     OW20611   2.641   4.857   3.523
 6571SOL    HW120612   2.634   4.851   3.423
 6571SOL    HW220613   2.550   4.850   3.563
 6572SOL     OW20614   0.281   5.972   4.190
 6572SOL    HW120615   0.219   5.914   4.137
 6572SOL    HW220616   0.369   5.925   4.201
 6573SOL     OW20617   2.194   1.279   2.954
 6573SOL    HW120618   2.230   1.304   2.864
 6573SOL    HW220619   2.265   1.293   3.024
 6574SOL     OW20620   2.101   5.977   2.137
 6574SOL    HW120621   2.108   5.980   2.237
 6574SOL    HW220622   2.061   5.890   2.109
 6575SOL     OW20623   0.083   0.211   2.435
 6575SOL    HW120624   0.076   0.311   2.441
 6575SOL    HW220625   0.179   0.185   2.423
 6576SOL     OW20626   3.570   5.760   0.588
 6576SOL    HW120627   3.600   5.774   0.682
 6576SOL    HW220628   3.495   5.694   0.586
 6577SOL     OW20629   2.246   1.935   4.230
 6577SOL    HW120630   2.179   1.996   4.188
 6577SOL    HW220631   2.254   1.955   4.327
 6578SOL     OW20632   1.847   5.266   1.779
 6578SOL    HW120633   1.893   5.238   1.863
 6578SOL    HW220634   1.751   5.239   1.782
 6579SOL     OW20635   0.093   1.043   3.722
 6579SOL    HW120636   0.023   1.114   3.719
 6579SOL    HW220637   0.158   1.063   3.796
 6580SOL     OW20638   0.938   0.166   6.948
 6580SOL    HW120639   0.980   0.251   6.981
 6580SOL    HW220640   0.892   0.120   7.024
 6581SOL     OW20641   1.727   1.892   6.762
 6581SOL    HW120642   1.799   1.909   6.695
 6581SOL    HW220643   1.706   1.794   6.764
 6582SOL     OW20644   6.431   0.767   2.819
 6582SOL    HW120645   6.382   0.704   2.879
 6582SOL    HW220646   6.393   0.859   2.829
 6583SOL     OW20647   4.212   6.413   6.732
 6583SOL    HW120648   4.163   6.340   6.779
 6583SOL    HW220649   4.156   6.447   6.656
 6584SOL     OW20650   3.368   2.360   1.071
 6584SOL    HW120651   3.324   2.335   0.985
 6584SOL    HW220652   3.313   2.428   1.118
 6585SOL     OW20653   6.085   0.101   0.784
 6585SOL    HW120654   6.029   0.054   0.716
 6585SOL    HW220655   6.162   0.044   0.810
 6586SOL     OW20656   6.046   2.467   5.870
 6586SOL    HW120657   6.135   2.469   5.915
 6586SOL    HW220658   6.036   2.383   5.818
 6587SOL     OW20659   1.462   4.027   5.727
 6587SOL    HW120660   1.372   3.997   5.758
 6587SOL    HW220661   1.505   4.081   5.799
 6588SOL     OW20662   0.481   3.079   0.276
 6588SOL    HW120663   0.413   3.145   0.307
 6588SOL    HW220664   0.555   3.074   0.342
 6589SOL     OW20665   6.766   1.072   1.616
 6589SOL    HW120666   6.851   1.030   1.583
 6589SOL    HW220667   6.694   1.003   1.616
 6590SOL     OW20668   0.942   0.660   4.605
 6590SOL    HW120669   0.956   0.596   4.681
 6590SOL    HW220670   1.031   0.692   4.572
 6591SOL     OW20671   5.229   5.009   3.959
 6591SOL    HW120672   5.269   4.928   3.916
 6591SOL    HW220673   5.292   5.086   3.951
 6592SOL     OW20674   4.863   6.604   3.248
 6592SOL    HW120675   4.842   6.687   3.299
 6592SOL    HW220676   4.962   6.589   3.249
 6593SOL     OW20677   2.556   2.383   2.411
 6593SOL    HW120678   2.544   2.447   2.335
 6593SOL    HW220679   2.511   2.420   2.493
 6594SOL     OW20680   4.015   1.626   6.346
 6594SOL    HW120681   3.995   1.705   6.404
 6594SOL    HW220682   4.057   1.657   6.261
 6595SOL     OW20683   1.896   2.205   4.892
 6595SOL    HW120684   1.859   2.112   4.898
 6595SOL    HW220685   1.829   2.269   4.929
 6596SOL     OW20686   5.599   5.967   2.592
 6596SOL    HW120687   5.503   5.982   2.568
 6596SOL    HW220688   5.630   6.040   2.653
 6597SOL     OW20689   1.192   5.094   2.643
 6597SOL    HW120690   1.224   5.033   2.571
 6597SOL    HW220691   1.192   5.045   2.730
 6598SOL     OW20692   1.848   4.835   4.271
 6598SOL    HW120693   1.781   4.839   4.196
 6598SOL    HW220694   1.909   4.757   4.256
 6599SOL     OW20695   5.877   6.366   6.108
 6599SOL    HW120696   5.911   6.402   6.195
 6599SOL    HW220697   5.954   6.355   6.045
 6600SOL     OW20698   4.593   6.915   5.483
 6600SOL    HW120699   4.512   6.860   5.502
 6600SOL    HW220700   4.590   6.999   5.537
 6601SOL     OW20701   1.299   3.038   2.509
 6601SOL    HW120702   1.218   3.090   2.538
 6601SOL    HW220703   1.340   3.083   2.430
 6602SOL     OW20704   2.236   0.238   1.431
 6602SOL    HW120705   2.306   0.176   1.395
 6602SOL    HW220706   2.269   0.279   1.516
 6603SOL     OW20707   0.531   2.540   3.214
 6603SOL    HW120708   0.625   2.570   3.226
 6603SOL    HW220709   0.487   2.594   3.143
 6604SOL     OW20710   2.104   6.787   1.928
 6604SOL    HW120711   2.033   6.731   1.886
 6604SOL    HW220712   2.091   6.883   1.902
 6605SOL     OW20713   6.253   5.323   1.748
 6605SOL    HW120714   6.261   5.383   1.669
 6605SOL    HW220715   6.162   5.281   1.749
 6606SOL     OW20716   1.686   3.313   4.019
 6606SOL    HW120717   1.661   3.303   3.922
 6606SOL    HW220718   1.713   3.225   4.056
 6607SOL     OW20719   5.557   3.965   3.536
 6607SOL    HW120720   5.599   3.970   3.626
 6607SOL    HW220721   5.618   4.005   3.468
 6608SOL     OW20722   6.905   6.922   6.461
 6608SOL    HW120723   6.982   6.959   6.512
 6608SOL    HW220724   6.906   6.958   6.368
 6609SOL     OW20725   4.759   2.042   5.764
 6609SOL    HW120726   4.804   1.954   5.780
 6609SOL    HW220727   4.795   2.082   5.679
 6610SOL     OW20728   3.064   5.591   1.263
 6610SOL    HW120729   3.052   5.630   1.355
 6610SOL    HW220730   3.046   5.493   1.266
 6611SOL     OW20731   5.130   2.299   3.834
 6611SOL    HW120732   5.166   2.242   3.760
 6611SOL    HW220733   5.118   2.243   3.916
 6612SOL     OW20734   5.808   2.048   6.484
 6612SOL    HW120735   5.861   2.038   6.400
 6612SOL    HW220736   5.821   2.141   6.520
 6613SOL     OW20737   5.128   0.485   6.772
 6613SOL    HW120738   5.118   0.541   6.690
 6613SOL    HW220739   5.076   0.400   6.761
 6614SOL     OW20740   4.569   5.911   2.043
 6614SOL    HW120741   4.545   5.928   2.138
 6614SOL    HW220742   4.516   5.833   2.009
 6615SOL     OW20743   2.989   5.894   0.621
 6615SOL    HW120744   2.976   5.808   0.571
 6615SOL    HW220745   2.969   5.971   0.560
 6616SOL     OW20746   4.616   0.808   6.563
 6616SOL    HW120747   4.650   0.718   6.589
 6616SOL    HW220748   4.518   0.814   6.583
 6617SOL     OW20749   3.927   0.750   3.743
 6617SOL    HW120750   3.997   0.701   3.691
 6617SOL    HW220751   3.970   0.818   3.803
 6618SOL     OW20752   0.581   1.813   3.397
 6618SOL    HW120753   0.516   1.846   3.466
 6618SOL    HW220754   0.669   1.797   3.440
 6619SOL     OW20755   4.609   6.211   4.407
 6619SOL    HW120756   4.618   6.239   4.311
 6619SOL    HW220757   4.640   6.285   4.467
 6620SOL     OW20758   0.431   3.511   3.939
 6620SOL    HW120759   0.402   3.443   3.873
 6620SOL    HW220760   0.509   3.475   3.991
 6621SOL     OW20761   4.091   3.267   5.286
 6621SOL    HW120762   4.130   3.176   5.296
 6621SOL    HW220763   4.084   3.290   5.188
 6622SOL     OW20764   6.786   5.934   0.828
 6622SOL    HW120765   6.763   5.907   0.922
 6622SOL    HW220766   6.725   6.008   0.800
 6623SOL     OW20767   3.490   4.710   5.834
 6623SOL    HW120768   3.447   4.620   5.832
 6623SOL    HW220769   3.453   4.766   5.760
 6624SOL     OW20770   0.521   2.396   4.543
 6624SOL    HW120771   0.620   2.397   4.530
 6624SOL    HW220772   0.489   2.302   4.544
 6625SOL     OW20773   5.952   2.956   5.457
 6625SOL    HW120774   6.036   2.951   5.509
 6625SOL    HW220775   5.880   2.903   5.503
 6626SOL     OW20776   2.859   6.842   4.613
 6626SOL    HW120777   2.953   6.809   4.612
 6626SOL    HW220778   2.859   6.942   4.608
 6627SOL     OW20779   1.204   5.971   4.566
 6627SOL    HW120780   1.231   5.922   4.648
 6627SOL    HW220781   1.204   5.908   4.488
 6628SOL     OW20782   4.697   5.458   3.914
 6628SOL    HW120783   4.757   5.525   3.959
 6628SOL    HW220784   4.690   5.480   3.817
 6629SOL     OW20785   5.361   6.174   0.049
 6629SOL    HW120786   5.359   6.198   0.146
 6629SOL    HW220787   5.401   6.249   7.022
 6630SOL     OW20788   2.342   1.753   1.348
 6630SOL    HW120789   2.436   1.770   1.379
 6630SOL    HW220790   2.306   1.672   1.393
 6631SOL     OW20791   1.929   4.766   6.106
 6631SOL    HW120792   1.852   4.808   6.152
 6631SOL    HW220793   1.911   4.762   6.008
 6632SOL     OW20794   1.120   0.248   0.449
 6632SOL    HW120795   1.207   0.243   0.497
 6632SOL    HW220796   1.047   0.271   0.514
 6633SOL     OW20797   3.260   5.830   6.414
 6633SOL    HW120798   3.249   5.833   6.514
 6633SOL    HW220799   3.244   5.736   6.382
 6634SOL     OW20800   4.961   1.499   5.304
 6634SOL    HW120801   4.923   1.531   5.390
 6634SOL    HW220802   5.060   1.514   5.303
 6635SOL     OW20803   5.443   4.593   2.145
 6635SOL    HW120804   5.530   4.588   2.095
 6635SOL    HW220805   5.397   4.679   2.122
 6636SOL     OW20806   3.541   0.049   1.894
 6636SOL    HW120807   3.478   0.111   1.941
 6636SOL    HW220808   3.496   0.010   1.813
 6637SOL     OW20809   1.518   0.778   0.545
 6637SOL    HW120810   1.485   0.750   0.635
 6637SOL    HW220811   1.466   0.858   0.514
 6638SOL     OW20812   3.218   3.940   3.837
 6638SOL    HW120813   3.234   3.847   3.871
 6638SOL    HW220814   3.301   3.994   3.848
 6639SOL     OW20815   4.655   2.738   1.213
 6639SOL    HW120816   4.556   2.753   1.205
 6639SOL    HW220817   4.690   2.790   1.290
 6640SOL     OW20818   0.981   2.611   5.162
 6640SOL    HW120819   0.949   2.690   5.215
 6640SOL    HW220820   1.068   2.579   5.199
 6641SOL     OW20821   3.824   1.921   0.893
 6641SOL    HW120822   3.906   1.870   0.917
 6641SOL    HW220823   3.824   2.008   0.941
 6642SOL     OW20824   1.514   5.644   0.365
 6642SOL    HW120825   1.550   5.736   0.372
 6642SOL    HW220826   1.536   5.606   0.275
 6643SOL     OW20827   5.002   6.674   0.470
 6643SOL    HW120828   4.911   6.673   0.512
 6643SOL    HW220829   5.072   6.684   0.541
 6644SOL     OW20830   1.643   6.447   2.969
 6644SOL    HW120831   1.607   6.475   2.880
 6644SOL    HW220832   1.573   6.458   3.038
 6645SOL     OW20833   6.344   3.028   0.287
 6645SOL    HW120834   6.310   3.121   0.274
 6645SOL    HW220835   6.422   3.012   0.226
 6646SOL     OW20836   4.052   0.285   6.918
 6646SOL    HW120837   4.023   0.303   7.012
 6646SOL    HW220838   4.027   0.362   6.860
 6647SOL     OW20839   4.306   4.998   1.310
 6647SOL    HW120840   4.318   4.902   1.336
 6647SOL    HW220841   4.336   5.057   1.384
 6648SOL     OW20842   3.061   6.354   4.776
 6648SOL    HW120843   3.139   6.292   4.783
 6648SOL    HW220844   3.006   6.330   4.695
 6649SOL     OW20845   5.755   2.511   6.788
 6649SOL    HW120846   5.831   2.470   6.839
 6649SOL    HW220847   5.676   2.449   6.791
 6650SOL     OW20848   3.084   1.002   5.503
 6650SOL    HW120849   2.995   1.020   5.545
 6650SOL    HW220850   3.157   1.020   5.569
 6651SOL     OW20851   0.737   1.577   6.780
 6651SOL    HW120852   0.716   1.481   6.801
 6651SOL    HW220853   0.696   1.601   6.692
 6652SOL     OW20854   1.047   4.802   0.013
 6652SOL    HW120855   1.062   4.870   0.085
 6652SOL    HW220856   0.992   4.726   0.050
 6653SOL     OW20857   5.409   2.831   0.623
 6653SOL    HW120858   5.465   2.817   0.541
 6653SOL    HW220859   5.414   2.750   0.681
 6654SOL     OW20860   0.481   4.549   3.302
 6654SOL    HW120861   0.519   4.582   3.215
 6654SOL    HW220862   0.397   4.598   3.322
 6655SOL     OW20863   6.784   5.392   1.667
 6655SOL    HW120864   6.857   5.460   1.674
 6655SOL    HW220865   6.725   5.398   1.748
 6656SOL     OW20866   4.006   1.228   2.467
 6656SOL    HW120867   4.105   1.237   2.472
 6656SOL    HW220868   3.965   1.318   2.449
 6657SOL     OW20869   5.685   2.680   4.776
 6657SOL    HW120870   5.659   2.653   4.868
 6657SOL    HW220871   5.632   2.628   4.709
 6658SOL     OW20872   6.074   6.585   4.845
 6658SOL    HW120873   6.149   6.630   4.895
 6658SOL    HW220874   5.995   6.575   4.905
 6659SOL     OW20875   0.933   4.750   2.184
 6659SOL    HW120876   1.018   4.726   2.230
 6659SOL    HW220877   0.941   4.840   2.143
 6660SOL     OW20878   0.471   5.434   2.755
 6660SOL    HW120879   0.450   5.454   2.659
 6660SOL    HW220880   0.399   5.473   2.812
 6661SOL     OW20881   3.177   6.730   4.152
 6661SOL    HW120882   3.256   6.683   4.113
 6661SOL    HW220883   3.166   6.819   4.108
 6662SOL     OW20884   2.665   0.071   1.991
 6662SOL    HW120885   2.747   0.052   1.936
 6662SOL    HW220886   2.590   0.015   1.956
 6663SOL     OW20887   1.472   5.114   6.106
 6663SOL    HW120888   1.430   5.131   6.195
 6663SOL    HW220889   1.426   5.168   6.036
 6664SOL     OW20890   2.384   0.756   1.375
 6664SOL    HW120891   2.389   0.710   1.287
 6664SOL    HW220892   2.462   0.818   1.385
 6665SOL     OW20893   2.908   0.517   5.870
 6665SOL    HW120894   2.983   0.459   5.902
 6665SOL    HW220895   2.823   0.488   5.913
 6666SOL     OW20896   6.241   5.619   4.648
 6666SOL    HW120897   6.277   5.583   4.733
 6666SOL    HW220898   6.232   5.544   4.581
 6667SOL     OW20899   6.259   6.443   5.733
 6667SOL    HW120900   6.290   6.535   5.711
 6667SOL    HW220901   6.327   6.396   5.789
 6668SOL     OW20902   6.820   6.485   1.512
 6668SOL    HW120903   6.831   6.562   1.575
 6668SOL    HW220904   6.784   6.518   1.425
 6669SOL     OW20905   1.806   1.507   1.734
 6669SOL    HW120906   1.880   1.452   1.695
 6669SOL    HW220907   1.832   1.536   1.826
 6670SOL     OW20908   3.180   1.826   6.933
 6670SOL    HW120909   3.175   1.729   6.954
 6670SOL    HW220910   3.190   1.839   6.834
 6671SOL     OW20911   5.227   6.643   0.305
 6671SOL    HW120912   5.241   6.737   0.274
 6671SOL    HW220913   5.135   6.633   0.342
 6672SOL     OW20914   1.286   2.682   0.402
 6672SOL    HW120915   1.362   2.651   0.460
 6672SOL    HW220916   1.270   2.614   0.330
 6673SOL     OW20917   5.171   3.249   4.339
 6673SOL    HW120918   5.079   3.248   4.380
 6673SOL    HW220919   5.183   3.333   4.286
 6674SOL     OW20920   0.345   2.795   6.580
 6674SOL    HW120921   0.328   2.888   6.610
 6674SOL    HW220922   0.312   2.783   6.486
 6675SOL     OW20923   4.675   2.722   6.953
 6675SOL    HW120924   4.612   2.798   6.934
 6675SOL    HW220925   4.766   2.759   6.974
 6676SOL     OW20926   1.255   3.627   3.745
 6676SOL    HW120927   1.327   3.637   3.814
 6676SOL    HW220928   1.184   3.565   3.779
 6677SOL     OW20929   0.426   0.992   0.102
 6677SOL    HW120930   0.413   0.920   0.033
 6677SOL    HW220931   0.376   0.968   0.185
 6678SOL     OW20932   1.674   4.796   0.707
 6678SOL    HW120933   1.756   4.848   0.685
 6678SOL    HW220934   1.644   4.819   0.800
 6679SOL     OW20935   2.311   0.832   3.415
 6679SOL    HW120936   2.336   0.929   3.423
 6679SOL    HW220937   2.223   0.824   3.369
 6680SOL     OW20938   5.384   6.535   0.784
 6680SOL    HW120939   5.422   6.525   0.876
 6680SOL    HW220940   5.435   6.478   0.720
 6681SOL     OW20941   4.743   5.498   1.535
 6681SOL    HW120942   4.690   5.418   1.505
 6681SOL    HW220943   4.710   5.527   1.625
 6682SOL     OW20944   3.074   5.515   0.106
 6682SOL    HW120945   3.074   5.423   0.144
 6682SOL    HW220946   3.168   5.545   0.091
 6683SOL     OW20947   5.947   3.583   6.777
 6683SOL    HW120948   6.039   3.621   6.787
 6683SOL    HW220949   5.890   3.647   6.726
 6684SOL     OW20950   3.186   6.958   1.741
 6684SOL    HW120951   3.096   7.000   1.748
 6684SOL    HW220952   3.185   6.869   1.788
 6685SOL     OW20953   3.896   3.489   6.520
 6685SOL    HW120954   3.963   3.522   6.586
 6685SOL    HW220955   3.805   3.487   6.563
 6686SOL     OW20956   6.025   5.438   3.906
 6686SOL    HW120957   6.002   5.530   3.874
 6686SOL    HW220958   6.046   5.380   3.827
 6687SOL     OW20959   6.703   2.437   1.766
 6687SOL    HW120960   6.658   2.495   1.697
 6687SOL    HW220961   6.657   2.348   1.769
 6688SOL     OW20962   3.868   5.060   1.163
 6688SOL    HW120963   3.785   5.087   1.214
 6688SOL    HW220964   3.896   5.136   1.104
 6689SOL     OW20965   3.224   4.982   6.036
 6689SOL    HW120966   3.195   5.074   6.010
 6689SOL    HW220967   3.158   4.915   6.002
 6690SOL     OW20968   0.920   0.360   6.100
 6690SOL    HW120969   0.939   0.321   6.190
 6690SOL    HW220970   0.931   0.459   6.104
 6691SOL     OW20971   1.756   1.618   2.646
 6691SOL    HW120972   1.811   1.624   2.729
 6691SOL    HW220973   1.708   1.705   2.632
 6692SOL     OW20974   4.158   4.587   1.795
 6692SOL    HW120975   4.083   4.630   1.745
 6692SOL    HW220976   4.170   4.494   1.763
 6693SOL     OW20977   4.669   1.420   4.979
 6693SOL    HW120978   4.730   1.341   4.979
 6693SOL    HW220979   4.592   1.402   4.917
 6694SOL     OW20980   3.816   5.934   1.067
 6694SOL    HW120981   3.838   5.885   1.152
 6694SOL    HW220982   3.885   5.913   0.998
 6695SOL     OW20983   2.986   2.110   0.368
 6695SOL    HW120984   2.983   2.210   0.374
 6695SOL    HW220985   2.965   2.082   0.274
 6696SOL     OW20986   3.743   4.153   4.167
 6696SOL    HW120987   3.660   4.136   4.221
 6696SOL    HW220988   3.751   4.251   4.148
 6697SOL     OW20989   4.861   1.927   2.366
 6697SOL    HW120990   4.781   1.905   2.310
 6697SOL    HW220991   4.930   1.855   2.355
 6698SOL     OW20992   3.602   4.202   1.636
 6698SOL    HW120993   3.574   4.124   1.693
 6698SOL    HW220994   3.539   4.278   1.650
 6699SOL     OW20995   1.407   4.860   6.065
 6699SOL    HW120996   1.457   4.947   6.059
 6699SOL    HW220997   1.395   4.835   6.161
 6700SOL     OW20998   5.786   0.432   0.809
 6700SOL    HW120999   5.690   0.423   0.835
 6700SOL    HW221000   5.810   0.360   0.744
 6701SOL     OW21001   5.914   6.614   1.758
 6701SOL    HW121002   5.999   6.630   1.708
 6701SOL    HW221003   5.933   6.618   1.857
 6702SOL     OW21004   2.528   1.952   1.036
 6702SOL    HW121005   2.465   2.018   1.077
 6702SOL    HW221006   2.480   1.867   1.017
 6703SOL     OW21007   1.414   1.839   5.897
 6703SOL    HW121008   1.476   1.810   5.970
 6703SOL    HW221009   1.427   1.781   5.817
 6704SOL     OW21010   3.748   1.701   4.953
 6704SOL    HW121011   3.790   1.779   4.907
 6704SOL    HW221012   3.810   1.622   4.949
 6705SOL     OW21013   6.307   3.777   1.295
 6705SOL    HW121014   6.281   3.851   1.358
 6705SOL    HW221015   6.239   3.771   1.222
 6706SOL     OW21016   0.753   6.311   1.170
 6706SOL    HW121017   0.760   6.217   1.137
 6706SOL    HW221018   0.657   6.334   1.186
 6707SOL     OW21019   6.181   0.474   2.531
 6707SOL    HW121020   6.278   0.454   2.512
 6707SOL    HW221021   6.126   0.446   2.452
 6708SOL     OW21022   6.712   4.532   1.276
 6708SOL    HW121023   6.637   4.465   1.275
 6708SOL    HW221024   6.763   4.526   1.190
 6709SOL     OW21025   1.408   4.613   2.269
 6709SOL    HW121026   1.325   4.589   2.218
 6709SOL    HW221027   1.424   4.711   2.261
 6710SOL     OW21028   4.039   1.174   1.843
 6710SOL    HW121029   3.965   1.212   1.898
 6710SOL    HW221030   4.017   1.184   1.746
 6711SOL     OW21031   4.667   6.158   6.990
 6711SOL    HW121032   4.685   6.178   6.893
 6711SOL    HW221033   4.707   6.070   7.014
 6712SOL     OW21034   5.907   3.820   0.378
 6712SOL    HW121035   5.892   3.744   0.441
 6712SOL    HW221036   5.993   3.804   0.328
 6713SOL     OW21037   1.592   0.495   4.154
 6713SOL    HW121038   1.547   0.423   4.206
 6713SOL    HW221039   1.557   0.584   4.183
 6714SOL     OW21040   5.724   1.218   0.528
 6714SOL    HW121041   5.802   1.282   0.522
 6714SOL    HW221042   5.668   1.242   0.608
 6715SOL     OW21043   1.253   1.046   1.151
 6715SOL    HW121044   1.285   1.059   1.245
 6715SOL    HW221045   1.330   1.019   1.094
 6716SOL     OW21046   6.638   5.546   2.499
 6716SOL    HW121047   6.577   5.507   2.430
 6716SOL    HW221048   6.597   5.535   2.590
 6717SOL     OW21049   3.250   2.805   6.892
 6717SOL    HW121050   3.249   2.715   6.936
 6717SOL    HW221051   3.161   2.849   6.904
 6718SOL     OW21052   3.596   0.894   1.693
 6718SOL    HW121053   3.604   0.819   1.628
 6718SOL    HW221054   3.556   0.860   1.778
 6719SOL     OW21055   1.924   0.059   0.191
 6719SOL    HW121056   1.907   0.157   0.186
 6719SOL    HW221057   1.951   0.034   0.284
 6720SOL     OW21058   2.688   0.937   5.877
 6720SOL    HW121059   2.608   0.988   5.843
 6720SOL    HW221060   2.716   0.871   5.808
 6721SOL     OW21061   0.177   1.233   0.619
 6721SOL    HW121062   0.110   1.160   0.619
 6721SOL    HW221063   0.269   1.194   0.622
 6722SOL     OW21064   6.538   2.959   0.106
 6722SOL    HW121065   6.631   2.938   0.077
 6722SOL    HW221066   6.474   2.898   0.059
 6723SOL     OW21067   1.528   1.640   6.073
 6723SOL    HW121068   1.542   1.578   6.150
 6723SOL    HW221069   1.581   1.609   5.994
 6724SOL     OW21070   2.129   3.179   6.033
 6724SOL    HW121071   2.055   3.125   6.072
 6724SOL    HW221072   2.102   3.276   6.030
 6725SOL     OW21073   5.885   3.091   2.986
 6725SOL    HW121074   5.911   3.147   3.065
 6725SOL    HW221075   5.968   3.063   2.938
 6726SOL     OW21076   0.158   1.254   5.408
 6726SOL    HW121077   0.240   1.230   5.356
 6726SOL    HW221078   0.181   1.263   5.505
 6727SOL     OW21079   1.375   5.000   5.779
 6727SOL    HW121080   1.429   4.956   5.851
 6727SOL    HW221081   1.342   4.930   5.715
 6728SOL     OW21082   4.209   1.854   3.451
 6728SOL    HW121083   4.142   1.919   3.487
 6728SOL    HW221084   4.161   1.784   3.398
 6729SOL     OW21085   5.669   2.044   1.086
 6729SOL    HW121086   5.699   2.134   1.118
 6729SOL    HW221087   5.681   1.978   1.160
 6730SOL     OW21088   1.606   1.068   0.780
 6730SOL    HW121089   1.543   1.037   0.851
 6730SOL    HW221090   1.569   1.043   0.690
 6731SOL     OW21091   2.178   6.465   0.927
 6731SOL    HW121092   2.179   6.472   1.027
 6731SOL    HW221093   2.145   6.551   0.888
 6732SOL     OW21094   5.854   4.153   4.276
 6732SOL    HW121095   5.935   4.203   4.305
 6732SOL    HW221096   5.818   4.193   4.191
 6733SOL     OW21097   3.346   6.038   0.131
 6733SOL    HW121098   3.252   6.038   0.164
 6733SOL    HW221099   3.405   6.084   0.197
 6734SOL     OW21100   5.128   1.680   5.062
 6734SOL    HW121101   5.194   1.634   5.120
 6734SOL    HW221102   5.086   1.614   5.000
 6735SOL     OW21103   6.007   3.179   4.040
 6735SOL    HW121104   6.060   3.231   4.107
 6735SOL    HW221105   6.003   3.083   4.068
 6736SOL     OW21106   3.351   4.468   1.091
 6736SOL    HW121107   3.316   4.430   1.006
 6736SOL    HW221108   3.296   4.547   1.117
 6737SOL     OW21109   0.841   2.708   1.125
 6737SOL    HW121110   0.791   2.753   1.051
 6737SOL    HW221111   0.926   2.757   1.142
 6738SOL     OW21112   1.544   5.616   3.501
 6738SOL    HW121113   1.631   5.652   3.534
 6738SOL    HW221114   1.506   5.553   3.569
 6739SOL     OW21115   6.842   6.935   3.747
 6739SOL    HW121116   6.795   6.931   3.658
 6739SOL    HW221117   6.902   6.855   3.756
 6740SOL     OW21118   6.442   0.080   4.260
 6740SOL    HW121119   6.462   7.008   4.256
 6740SOL    HW221120   6.475   0.125   4.176
 6741SOL     OW21121   4.877   1.813   5.837
 6741SOL    HW121122   4.847   1.720   5.855
 6741SOL    HW221123   4.960   1.832   5.889
 6742SOL     OW21124   5.322   4.924   3.668
 6742SOL    HW121125   5.355   4.867   3.742
 6742SOL    HW221126   5.243   4.880   3.625
 6743SOL     OW21127   3.669   4.405   6.639
 6743SOL    HW121128   3.671   4.496   6.679
 6743SOL    HW221129   3.624   4.342   6.702
 6744SOL     OW21130   6.443   5.614   6.111
 6744SOL    HW121131   6.434   5.621   6.210
 6744SOL    HW221132   6.534   5.580   6.088
 6745SOL     OW21133   0.219   6.342   4.073
 6745SOL    HW121134   0.301   6.285   4.081
 6745SOL    HW221135   0.141   6.284   4.048
 6746SOL     OW21136   1.540   1.478   2.482
 6746SOL    HW121137   1.612   1.525   2.533
 6746SOL    HW221138   1.452   1.519   2.503
 6747SOL     OW21139   0.186   6.892   6.346
 6747SOL    HW121140   0.150   6.913   6.255
 6747SOL    HW221141   0.211   6.795   6.350
 6748SOL     OW21142   3.224   1.810   4.145
 6748SOL    HW121143   3.304   1.801   4.086
 6748SOL    HW221144   3.253   1.838   4.236
 6749SOL     OW21145   3.240   4.153   0.688
 6749SOL    HW121146   3.338   4.139   0.704
 6749SOL    HW221147   3.224   4.163   0.590
 6750SOL     OW21148   2.898   1.202   4.379
 6750SOL    HW121149   2.968   1.130   4.380
 6750SOL    HW221150   2.931   1.281   4.431
 6751SOL     OW21151   4.485   0.352   3.543
 6751SOL    HW121152   4.449   0.330   3.634
 6751SOL    HW221153   4.462   0.446   3.519
 6752SOL     OW21154   1.505   6.584   2.752
 6752SOL    HW121155   1.416   6.544   2.728
 6752SOL    HW221156   1.524   6.661   2.691
 6753SOL     OW21157   3.791   2.235   5.799
 6753SOL    HW121158   3.759   2.305   5.863
 6753SOL    HW221159   3.873   2.268   5.753
 6754SOL     OW21160   6.087   0.660   1.107
 6754SOL    HW121161   6.051   0.609   1.029
 6754SOL    HW221162   6.032   0.743   1.121
 6755SOL     OW21163   3.228   4.964   1.271
 6755SOL    HW121164   3.145   4.935   1.318
 6755SOL    HW221165   3.212   5.054   1.229
 6756SOL     OW21166   2.626   1.285   5.702
 6756SOL    HW121167   2.641   1.294   5.603
 6756SOL    HW221168   2.688   1.347   5.750
 6757SOL     OW21169   3.382   1.310   1.137
 6757SOL    HW121170   3.469   1.345   1.101
 6757SOL    HW221171   3.382   1.317   1.236
 6758SOL     OW21172   5.006   2.985   1.216
 6758SOL    HW121173   4.941   2.965   1.289
 6758SOL    HW221174   5.084   3.035   1.253
 6759SOL     OW21175   6.604   3.111   3.186
 6759SOL    HW121176   6.666   3.040   3.151
 6759SOL    HW221177   6.654   3.197   3.195
 6760SOL     OW21178   6.002   3.231   2.634
 6760SOL    HW121179   5.932   3.166   2.663
 6760SOL    HW221180   5.966   3.289   2.561
 6761SOL     OW21181   4.987   2.539   4.564
 6761SOL    HW121182   4.916   2.606   4.542
 6761SOL    HW221183   4.952   2.477   4.634
 6762SOL     OW21184   0.527   4.878   3.975
 6762SOL    HW121185   0.538   4.788   4.019
 6762SOL    HW221186   0.468   4.935   4.032
 6763SOL     OW21187   5.133   5.984   5.129
 6763SOL    HW121188   5.216   5.943   5.089
 6763SOL    HW221189   5.104   5.929   5.207
 6764SOL     OW21190   1.373   5.733   2.091
 6764SOL    HW121191   1.384   5.708   1.995
 6764SOL    HW221192   1.444   5.688   2.145
 6765SOL     OW21193   6.278   4.265   3.675
 6765SOL    HW121194   6.273   4.338   3.607
 6765SOL    HW221195   6.340   4.194   3.642
 6766SOL     OW21196   4.470   6.586   0.072
 6766SOL    HW121197   4.448   6.573   7.001
 6766SOL    HW221198   4.540   6.520   0.100
 6767SOL     OW21199   3.175   0.661   0.460
 6767SOL    HW121200   3.263   0.703   0.483
 6767SOL    HW221201   3.134   0.710   0.384
 6768SOL     OW21202   1.970   0.781   5.882
 6768SOL    HW121203   1.948   0.875   5.911
 6768SOL    HW221204   2.068   0.773   5.867
 6769SOL     OW21205   3.146   2.297   0.084
 6769SOL    HW121206   3.237   2.333   0.107
 6769SOL    HW221207   3.155   2.221   0.020
 6770SOL     OW21208   6.680   0.692   2.054
 6770SOL    HW121209   6.678   0.768   1.989
 6770SOL    HW221210   6.620   0.713   2.132
 6771SOL     OW21211   4.884   2.372   2.863
 6771SOL    HW121212   4.933   2.302   2.914
 6771SOL    HW221213   4.831   2.429   2.926
 6772SOL     OW21214   3.261   1.282   2.714
 6772SOL    HW121215   3.164   1.301   2.726
 6772SOL    HW221216   3.274   1.188   2.683
 6773SOL     OW21217   6.653   4.445   1.708
 6773SOL    HW121218   6.674   4.522   1.649
 6773SOL    HW221219   6.738   4.399   1.735
 6774SOL     OW21220   6.959   2.662   6.323
 6774SOL    HW121221   6.928   2.590   6.261
 6774SOL    HW221222   6.992   2.622   6.408
 6775SOL     OW21223   2.679   3.428   1.215
 6775SOL    HW121224   2.652   3.509   1.267
 6775SOL    HW221225   2.734   3.456   1.137
 6776SOL     OW21226   4.316   4.635   6.928
 6776SOL    HW121227   4.326   4.727   6.890
 6776SOL    HW221228   4.327   4.568   6.855
 6777SOL     OW21229   3.685   4.193   6.470
 6777SOL    HW121230   3.617   4.139   6.518
 6777SOL    HW221231   3.694   4.283   6.514
 6778SOL     OW21232   0.627   4.189   1.981
 6778SOL    HW121233   0.580   4.102   1.964
 6778SOL    HW221234   0.704   4.198   1.918
 6779SOL     OW21235   6.476   4.371   6.391
 6779SOL    HW121236   6.564   4.369   6.439
 6779SOL    HW221237   6.492   4.374   6.293
 6780SOL     OW21238   0.940   2.209   2.541
 6780SOL    HW121239   0.913   2.251   2.628
 6780SOL    HW221240   0.859   2.201   2.482
 6781SOL     OW21241   5.559   6.858   4.959
 6781SOL    HW121242   5.549   6.758   4.962
 6781SOL    HW221243   5.514   6.893   4.877
 6782SOL     OW21244   0.193   0.371   2.827
 6782SOL    HW121245   0.175   0.294   2.889
 6782SOL    HW221246   0.192   0.456   2.879
 6783SOL     OW21247   0.098   0.014   6.592
 6783SOL    HW121248   0.151   6.994   6.520
 6783SOL    HW221249   0.153   0.020   6.675
 6784SOL     OW21250   3.592   4.130   0.338
 6784SOL    HW121251   3.527   4.199   0.307
 6784SOL    HW221252   3.609   4.141   0.436
 6785SOL     OW21253   5.206   4.761   2.329
 6785SOL    HW121254   5.128   4.740   2.271
 6785SOL    HW221255   5.243   4.676   2.367
 6786SOL     OW21256   1.364   1.899   6.547
 6786SOL    HW121257   1.297   1.825   6.539
 6786SOL    HW221258   1.430   1.891   6.473
 6787SOL     OW21259   1.690   3.557   0.907
 6787SOL    HW121260   1.635   3.497   0.849
 6787SOL    HW221261   1.674   3.534   1.003
 6788SOL     OW21262   2.598   3.963   1.547
 6788SOL    HW121263   2.693   3.991   1.557
 6788SOL    HW221264   2.583   3.877   1.596
 6789SOL     OW21265   0.449   6.827   2.359
 6789SOL    HW121266   0.462   6.782   2.448
 6789SOL    HW221267   0.471   6.924   2.368
 6790SOL     OW21268   1.194   4.166   0.555
 6790SOL    HW121269   1.191   4.067   0.539
 6790SOL    HW221270   1.115   4.193   0.610
 6791SOL     OW21271   3.577   2.265   0.897
 6791SOL    HW121272   3.499   2.301   0.947
 6791SOL    HW221273   3.546   2.195   0.832
 6792SOL     OW21274   6.825   6.195   5.790
 6792SOL    HW121275   6.887   6.137   5.736
 6792SOL    HW221276   6.816   6.158   5.882
 6793SOL     OW21277   0.896   2.437   0.647
 6793SOL    HW121278   0.896   2.534   0.623
 6793SOL    HW221279   0.886   2.382   0.564
 6794SOL     OW21280   5.014   1.056   4.729
 6794SOL    HW121281   5.040   1.078   4.635
 6794SOL    HW221282   5.096   1.050   4.786
 6795SOL     OW21283   2.663   6.016   0.638
 6795SOL    HW121284   2.722   6.023   0.719
 6795SOL    HW221285   2.595   5.943   0.652
 6796SOL     OW21286   6.132   0.974   2.652
 6796SOL    HW121287   6.072   1.023   2.588
 6796SOL    HW221288   6.129   1.019   2.741
 6797SOL     OW21289   4.957   3.343   1.606
 6797SOL    HW121290   4.912   3.416   1.657
 6797SOL    HW221291   4.913   3.256   1.627
 6798SOL     OW21292   5.856   6.024   3.148
 6798SOL    HW121293   5.866   6.118   3.114
 6798SOL    HW221294   5.917   6.011   3.226
 6799SOL     OW21295   5.963   5.831   6.880
 6799SOL    HW121296   5.882   5.888   6.864
 6799SOL    HW221297   6.008   5.860   6.964
 6800SOL     OW21298   2.292   4.570   1.038
 6800SOL    HW121299   2.253   4.618   0.959
 6800SOL    HW221300   2.332   4.483   1.008
 6801SOL     OW21301   1.720   1.119   2.203
 6801SOL    HW121302   1.804   1.082   2.244
 6801SOL    HW221303   1.677   1.181   2.268
 6802SOL     OW21304   2.852   5.644   0.824
 6802SOL    HW121305   2.785   5.714   0.849
 6802SOL    HW221306   2.924   5.640   0.894
 6803SOL     OW21307   4.602   2.447   6.418
 6803SOL    HW121308   4.514   2.492   6.437
 6803SOL    HW221309   4.664   2.461   6.494
 6804SOL     OW21310   2.493   5.091   3.815
 6804SOL    HW121311   2.491   5.186   3.845
 6804SOL    HW221312   2.400   5.058   3.802
 6805SOL     OW21313   6.004   6.008   4.500
 6805SOL    HW121314   5.995   5.908   4.492
 6805SOL    HW221315   5.973   6.051   4.416
 6806SOL     OW21316   5.623   1.171   3.631
 6806SOL    HW121317   5.661   1.217   3.711
 6806SOL    HW221318   5.535   1.212   3.607
 6807SOL     OW21319   2.169   3.611   0.677
 6807SOL    HW121320   2.076   3.639   0.701
 6807SOL    HW221321   2.198   3.659   0.594
 6808SOL     OW21322   0.558   2.812   5.366
 6808SOL    HW121323   0.536   2.731   5.312
 6808SOL    HW221324   0.641   2.794   5.419
 6809SOL     OW21325   1.755   3.867   0.470
 6809SOL    HW121326   1.718   3.777   0.495
 6809SOL    HW221327   1.689   3.938   0.494
 6810SOL     OW21328   1.661   0.386   1.856
 6810SOL    HW121329   1.601   0.465   1.851
 6810SOL    HW221330   1.748   0.407   1.812
 6811SOL     OW21331   4.497   4.244   0.156
 6811SOL    HW121332   4.534   4.262   0.247
 6811SOL    HW221333   4.503   4.327   0.101
 6812SOL     OW21334   3.885   3.123   3.240
 6812SOL    HW121335   3.928   3.062   3.306
 6812SOL    HW221336   3.815   3.179   3.286
 6813SOL     OW21337   4.464   1.631   2.033
 6813SOL    HW121338   4.381   1.663   1.988
 6813SOL    HW221339   4.532   1.606   1.963
 6814SOL     OW21340   3.071   3.004   0.542
 6814SOL    HW121341   2.972   3.023   0.542
 6814SOL    HW221342   3.108   3.027   0.633
 6815SOL     OW21343   2.913   0.027   1.416
 6815SOL    HW121344   2.871   0.094   1.478
 6815SOL    HW221345   3.003   0.061   1.386
 6816SOL     OW21346   0.033   5.631   7.018
 6816SOL    HW121347   6.993   5.682   6.962
 6816SOL    HW221348   0.118   5.619   6.967
 6817SOL     OW21349   6.458   1.930   5.434
 6817SOL    HW121350   6.422   1.856   5.377
 6817SOL    HW221351   6.557   1.935   5.425
 6818SOL     OW21352   2.561   5.878   2.228
 6818SOL    HW121353   2.506   5.803   2.264
 6818SOL    HW221354   2.658   5.853   2.233
 6819SOL     OW21355   4.169   1.287   4.316
 6819SOL    HW121356   4.259   1.312   4.281
 6819SOL    HW221357   4.105   1.273   4.240
 6820SOL     OW21358   1.365   5.135   3.184
 6820SOL    HW121359   1.362   5.181   3.095
 6820SOL    HW221360   1.393   5.040   3.171
 6821SOL     OW21361   3.129   1.847   5.462
 6821SOL    HW121362   3.120   1.865   5.364
 6821SOL    HW221363   3.149   1.750   5.476
 6822SOL     OW21364   5.806   1.791   6.023
 6822SOL    HW121365   5.788   1.693   6.018
 6822SOL    HW221366   5.850   1.822   5.938
 6823SOL     OW21367   3.901   3.070   4.039
 6823SOL    HW121368   3.823   3.029   4.087
 6823SOL    HW221369   3.883   3.069   3.941
 6824SOL     OW21370   0.782   3.030   6.364
 6824SOL    HW121371   0.826   2.947   6.398
 6824SOL    HW221372   0.710   3.005   6.298
 6825SOL     OW21373   5.492   6.747   2.702
 6825SOL    HW121374   5.443   6.832   2.682
 6825SOL    HW221375   5.516   6.744   2.799
 6826SOL     OW21376   2.227   4.177   2.905
 6826SOL    HW121377   2.203   4.196   3.000
 6826SOL    HW221378   2.295   4.244   2.874
 6827SOL     OW21379   4.976   6.093   0.717
 6827SOL    HW121380   4.879   6.093   0.741
 6827SOL    HW221381   4.991   6.028   0.643
 6828SOL     OW21382   2.188   2.011   1.307
 6828SOL    HW121383   2.223   2.095   1.265
 6828SOL    HW221384   2.257   1.939   1.300
 6829SOL     OW21385   4.464   6.679   4.086
 6829SOL    HW121386   4.448   6.646   4.179
 6829SOL    HW221387   4.416   6.621   4.021
 6830SOL     OW21388   5.969   1.116   3.195
 6830SOL    HW121389   5.888   1.082   3.244
 6830SOL    HW221390   5.977   1.069   3.107
 6831SOL     OW21391   1.099   0.025   6.301
 6831SOL    HW121392   1.138   0.020   6.209
 6831SOL    HW221393   1.034   6.977   6.313
 6832SOL     OW21394   2.492   4.332   1.421
 6832SOL    HW121395   2.400   4.328   1.459
 6832SOL    HW221396   2.492   4.393   1.341
 6833SOL     OW21397   4.311   5.139   6.835
 6833SOL    HW121398   4.339   5.043   6.827
 6833SOL    HW221399   4.278   5.157   6.928
 6834SOL     OW21400   4.426   6.725   1.678
 6834SOL    HW121401   4.474   6.640   1.699
 6834SOL    HW221402   4.342   6.704   1.627
 6835SOL     OW21403   4.453   6.645   5.100
 6835SOL    HW121404   4.418   6.721   5.155
 6835SOL    HW221405   4.417   6.559   5.136
 6836SOL     OW21406   3.116   6.192   0.706
 6836SOL    HW121407   3.099   6.097   0.680
 6836SOL    HW221408   3.082   6.207   0.799
 6837SOL     OW21409   1.245   2.861   2.060
 6837SOL    HW121410   1.318   2.886   1.996
 6837SOL    HW221411   1.285   2.832   2.147
 6838SOL     OW21412   1.691   0.318   0.862
 6838SOL    HW121413   1.669   0.221   0.862
 6838SOL    HW221414   1.788   0.330   0.840
 6839SOL     OW21415   5.338   1.311   0.577
 6839SOL    HW121416   5.331   1.230   0.518
 6839SOL    HW221417   5.248   1.337   0.609
 6840SOL     OW21418   2.098   1.870   5.094
 6840SOL    HW121419   2.198   1.867   5.096
 6840SOL    HW221420   2.063   1.896   5.184
 6841SOL     OW21421   5.403   3.450   5.979
 6841SOL    HW121422   5.407   3.397   6.063
 6841SOL    HW221423   5.308   3.480   5.963
 6842SOL     OW21424   2.783   4.652   1.346
 6842SOL    HW121425   2.775   4.569   1.291
 6842SOL    HW221426   2.694   4.675   1.386
 6843SOL     OW21427   5.643   6.896   6.987
 6843SOL    HW121428   5.599   6.806   6.988
 6843SOL    HW221429   5.666   6.921   6.893
 6844SOL     OW21430   5.750   1.254   4.435
 6844SOL    HW121431   5.836   1.227   4.391
 6844SOL    HW221432   5.749   1.225   4.530
 6845SOL     OW21433   6.153   3.090   2.884
 6845SOL    HW121434   6.187   3.088   2.790
 6845SOL    HW221435   6.229   3.073   2.947
 6846SOL     OW21436   3.086   4.232   6.693
 6846SOL    HW121437   2.989   4.224   6.670
 6846SOL    HW221438   3.114   4.328   6.689
 6847SOL     OW21439   6.741   3.647   4.929
 6847SOL    HW121440   6.779   3.591   5.002
 6847SOL    HW221441   6.809   3.715   4.900
 6848SOL     OW21442   5.537   4.028   4.132
 6848SOL    HW121443   5.515   4.046   4.227
 6848SOL    HW221444   5.544   3.929   4.118
 6849SOL     OW21445   3.373   4.452   5.807
 6849SOL    HW121446   3.388   4.374   5.868
 6849SOL    HW221447   3.320   4.422   5.727
 6850SOL     OW21448   4.299   2.336   2.826
 6850SOL    HW121449   4.221   2.298   2.878
 6850SOL    HW221450   4.373   2.358   2.890
 6851SOL     OW21451   1.671   2.766   2.654
 6851SOL    HW121452   1.751   2.719   2.693
 6851SOL    HW221453   1.657   2.853   2.702
 6852SOL     OW21454   2.615   5.480   1.417
 6852SOL    HW121455   2.611   5.571   1.377
 6852SOL    HW221456   2.544   5.423   1.376
 6853SOL     OW21457   5.233   3.168   5.789
 6853SOL    HW121458   5.152   3.217   5.758
 6853SOL    HW221459   5.213   3.121   5.875
 6854SOL     OW21460   5.683   6.570   5.527
 6854SOL    HW121461   5.586   6.586   5.509
 6854SOL    HW221462   5.715   6.492   5.472
 6855SOL     OW21463   4.681   5.575   3.672
 6855SOL    HW121464   4.702   5.530   3.586
 6855SOL    HW221465   4.690   5.674   3.662
 6856SOL     OW21466   0.504   2.411   5.990
 6856SOL    HW121467   0.503   2.386   5.893
 6856SOL    HW221468   0.555   2.497   6.002
 6857SOL     OW21469   0.964   3.736   6.368
 6857SOL    HW121470   0.962   3.639   6.392
 6857SOL    HW221471   1.053   3.774   6.390
 6858SOL     OW21472   3.400   4.402   1.659
 6858SOL    HW121473   3.304   4.392   1.684
 6858SOL    HW221474   3.439   4.481   1.706
 6859SOL     OW21475   0.862   1.465   1.820
 6859SOL    HW121476   0.944   1.413   1.845
 6859SOL    HW221477   0.890   1.551   1.777
 6860SOL     OW21478   6.937   4.839   2.465
 6860SOL    HW121479   6.918   4.772   2.393
 6860SOL    HW221480   7.025   4.883   2.447
 6861SOL     OW21481   4.816   3.308   6.233
 6861SOL    HW121482   4.853   3.237   6.293
 6861SOL    HW221483   4.720   3.288   6.213
 6862SOL     OW21484   0.819   5.117   5.935
 6862SOL    HW121485   0.896   5.128   5.998
 6862SOL    HW221486   0.838   5.040   5.874
 6863SOL     OW21487   0.291   5.877   5.069
 6863SOL    HW121488   0.207   5.896   5.121
 6863SOL    HW221489   0.307   5.778   5.068
 6864SOL     OW21490   1.832   4.443   5.984
 6864SOL    HW121491   1.739   4.409   6.002
 6864SOL    HW221492   1.853   4.434   5.887
 6865SOL     OW21493   2.262   0.730   5.524
 6865SOL    HW121494   2.274   0.659   5.593
 6865SOL    HW221495   2.337   0.796   5.529
 6866SOL     OW21496   6.164   4.165   2.112
 6866SOL    HW121497   6.254   4.200   2.086
 6866SOL    HW221498   6.161   4.150   2.210
 6867SOL     OW21499   2.040   4.481   1.238
 6867SOL    HW121500   1.950   4.525   1.240
 6867SOL    HW221501   2.097   4.521   1.309
 6868SOL     OW21502   2.198   5.775   4.966
 6868SOL    HW121503   2.214   5.744   5.060
 6868SOL    HW221504   2.134   5.713   4.920
 6869SOL     OW21505   3.770   0.095   5.949
 6869SOL    HW121506   3.737   0.009   5.988
 6869SOL    HW221507   3.692   0.149   5.917
 6870SOL     OW21508   1.040   3.482   0.397
 6870SOL    HW121509   1.103   3.460   0.323
 6870SOL    HW221510   1.045   3.412   0.468
 6871SOL     OW21511   0.253   3.700   2.402
 6871SOL    HW121512   0.187   3.633   2.369
 6871SOL    HW221513   0.239   3.717   2.500
 6872SOL     OW21514   1.401   2.307   2.278
 6872SOL    HW121515   1.375   2.220   2.235
 6872SOL    HW221516   1.321   2.367   2.283
 6873SOL     OW21517   1.076   4.010   4.218
 6873SOL    HW121518   0.987   3.967   4.235
 6873SOL    HW221519   1.107   3.987   4.126
 6874SOL     OW21520   6.256   5.541   3.382
 6874SOL    HW121521   6.210   5.513   3.298
 6874SOL    HW221522   6.275   5.639   3.378
 6875SOL     OW21523   1.908   2.312   1.736
 6875SOL    HW121524   1.955   2.398   1.755
 6875SOL    HW221525   1.867   2.316   1.644
 6876SOL     OW21526   3.281   0.186   3.283
 6876SOL    HW121527   3.257   0.185   3.186
 6876SOL    HW221528   3.302   0.279   3.312
 6877SOL     OW21529   2.958   4.443   1.419
 6877SOL    HW121530   3.034   4.455   1.356
 6877SOL    HW221531   2.920   4.533   1.443
 6878SOL     OW21532   2.320   1.619   3.871
 6878SOL    HW121533   2.348   1.524   3.861
 6878SOL    HW221534   2.346   1.652   3.962
 6879SOL     OW21535   1.890   2.599   0.147
 6879SOL    HW121536   1.845   2.511   0.161
 6879SOL    HW221537   1.928   2.602   0.054
 6880SOL     OW21538   1.245   6.194   6.429
 6880SOL    HW121539   1.339   6.162   6.442
 6880SOL    HW221540   1.183   6.136   6.481
 6881SOL     OW21541   1.818   3.874   1.217
 6881SOL    HW121542   1.900   3.923   1.247
 6881SOL    HW221543   1.803   3.891   1.120
 6882SOL     OW21544   2.935   1.400   0.172
 6882SOL    HW121545   2.946   1.499   0.158
 6882SOL    HW221546   2.859   1.367   0.116
 6883SOL     OW21547   5.142   0.460   6.091
 6883SOL    HW121548   5.156   0.536   6.027
 6883SOL    HW221549   5.060   0.476   6.145
 6884SOL     OW21550   2.037   4.498   2.998
 6884SOL    HW121551   2.002   4.584   3.034
 6884SOL    HW221552   1.976   4.464   2.927
 6885SOL     OW21553   5.029   4.947   4.414
 6885SOL    HW121554   5.020   5.008   4.335
 6885SOL    HW221555   4.997   4.856   4.390
 6886SOL     OW21556   6.283   1.371   4.869
 6886SOL    HW121557   6.382   1.364   4.870
 6886SOL    HW221558   6.243   1.283   4.896
 6887SOL     OW21559   4.847   5.593   0.294
 6887SOL    HW121560   4.830   5.557   0.386
 6887SOL    HW221561   4.830   5.692   0.294
 6888SOL     OW21562   5.349   4.344   6.164
 6888SOL    HW121563   5.251   4.364   6.158
 6888SOL    HW221564   5.378   4.348   6.260
 6889SOL     OW21565   1.456   2.500   5.790
 6889SOL    HW121566   1.466   2.595   5.761
 6889SOL    HW221567   1.544   2.453   5.780
 6890SOL     OW21568   3.686   5.813   2.852
 6890SOL    HW121569   3.637   5.835   2.768
 6890SOL    HW221570   3.783   5.802   2.831
 6891SOL     OW21571   2.560   2.740   1.340
 6891SOL    HW121572   2.550   2.765   1.436
 6891SOL    HW221573   2.586   2.644   1.332
 6892SOL     OW21574   3.355   1.623   3.887
 6892SOL    HW121575   3.335   1.618   3.789
 6892SOL    HW221576   3.371   1.531   3.923
 6893SOL     OW21577   6.239   3.449   6.875
 6893SOL    HW121578   6.200   3.357   6.887
 6893SOL    HW221579   6.254   3.491   6.964
 6894SOL     OW21580   5.450   3.870   0.957
 6894SOL    HW121581   5.483   3.920   1.038
 6894SOL    HW221582   5.500   3.784   0.949
 6895SOL     OW21583   1.300   5.754   1.041
 6895SOL    HW121584   1.394   5.732   1.016
 6895SOL    HW221585   1.245   5.762   0.958
 6896SOL     OW21586   3.592   1.793   3.974
 6896SOL    HW121587   3.678   1.743   3.983
 6896SOL    HW221588   3.537   1.751   3.902
 6897SOL     OW21589   4.877   4.002   4.690
 6897SOL    HW121590   4.862   3.932   4.760
 6897SOL    HW221591   4.904   4.088   4.733
 6898SOL     OW21592   3.073   1.030   1.688
 6898SOL    HW121593   2.988   0.982   1.710
 6898SOL    HW221594   3.054   1.107   1.627
 6899SOL     OW21595   5.370   6.158   3.124
 6899SOL    HW121596   5.357   6.212   3.207
 6899SOL    HW221597   5.424   6.210   3.058
 6900SOL     OW21598   6.513   4.944   6.219
 6900SOL    HW121599   6.439   4.973   6.158
 6900SOL    HW221600   6.495   4.852   6.253
 6901SOL     OW21601   4.580   5.255   6.633
 6901SOL    HW121602   4.600   5.266   6.730
 6901SOL    HW221603   4.627   5.325   6.581
 6902SOL     OW21604   6.692   5.619   5.528
 6902SOL    HW121605   6.647   5.648   5.613
 6902SOL    HW221606   6.631   5.636   5.451
 6903SOL     OW21607   3.025   5.166   5.389
 6903SOL    HW121608   3.025   5.090   5.454
 6903SOL    HW221609   2.945   5.160   5.330
 6904SOL     OW21610   0.382   6.405   5.492
 6904SOL    HW121611   0.475   6.418   5.526
 6904SOL    HW221612   0.382   6.407   5.392
 6905SOL     OW21613   5.319   5.367   0.110
 6905SOL    HW121614   5.408   5.384   0.152
 6905SOL    HW221615   5.316   5.409   0.019
 6906SOL     OW21616   3.425   1.927   3.554
 6906SOL    HW121617   3.431   1.977   3.640
 6906SOL    HW221618   3.409   1.830   3.573
 6907SOL     OW21619   6.225   2.076   1.441
 6907SOL    HW121620   6.204   1.980   1.425
 6907SOL    HW221621   6.140   2.128   1.451
 6908SOL     OW21622   2.603   4.348   6.838
 6908SOL    HW121623   2.636   4.440   6.855
 6908SOL    HW221624   2.509   4.352   6.803
 6909SOL     OW21625   4.837   4.999   1.975
 6909SOL    HW121626   4.783   5.051   2.041
 6909SOL    HW221627   4.847   4.905   2.006
 6910SOL     OW21628   1.688   3.160   3.126
 6910SOL    HW121629   1.699   3.064   3.101
 6910SOL    HW221630   1.763   3.188   3.185
 6911SOL     OW21631   3.709   0.206   5.335
 6911SOL    HW121632   3.753   0.202   5.425
 6911SOL    HW221633   3.776   0.233   5.266
 6912SOL     OW21634   2.503   3.116   5.835
 6912SOL    HW121635   2.550   3.154   5.755
 6912SOL    HW221636   2.529   3.020   5.847
 6913SOL     OW21637   5.666   6.102   5.040
 6913SOL    HW121638   5.695   6.101   5.136
 6913SOL    HW221639   5.744   6.129   4.983
 6914SOL     OW21640   6.170   3.917   1.969
 6914SOL    HW121641   6.156   3.874   2.059
 6914SOL    HW221642   6.176   4.016   1.980
 6915SOL     OW21643   0.968   2.743   1.917
 6915SOL    HW121644   1.062   2.713   1.899
 6915SOL    HW221645   0.969   2.832   1.962
 6916SOL     OW21646   5.508   1.027   5.850
 6916SOL    HW121647   5.457   0.945   5.823
 6916SOL    HW221648   5.488   1.049   5.945
 6917SOL     OW21649   5.012   5.652   1.828
 6917SOL    HW121650   5.043   5.740   1.864
 6917SOL    HW221651   5.053   5.578   1.881
 6918SOL     OW21652   0.394   2.982   2.620
 6918SOL    HW121653   0.323   2.922   2.656
 6918SOL    HW221654   0.365   3.078   2.629
 6919SOL     OW21655   6.350   6.618   3.099
 6919SOL    HW121656   6.280   6.619   3.028
 6919SOL    HW221657   6.366   6.524   3.129
 6920SOL     OW21658   4.843   7.012   5.697
 6920SOL    HW121659   4.831   6.988   5.793
 6920SOL    HW221660   4.853   6.928   5.643
 6921SOL     OW21661   4.032   0.055   4.528
 6921SOL    HW121662   4.129   0.052   4.504
 6921SOL    HW221663   3.978   0.069   4.444
 6922SOL     OW21664   1.843   6.194   4.887
 6922SOL    HW121665   1.919   6.134   4.914
 6922SOL    HW221666   1.776   6.140   4.836
 6923SOL     OW21667   5.965   6.263   2.490
 6923SOL    HW121668   5.984   6.175   2.449
 6923SOL    HW221669   5.876   6.261   2.536
 6924SOL     OW21670   3.023   5.695   1.522
 6924SOL    HW121671   3.006   5.604   1.560
 6924SOL    HW221672   2.936   5.742   1.508
 6925SOL     OW21673   4.846   5.931   6.645
 6925SOL    HW121674   4.931   5.907   6.599
 6925SOL    HW221675   4.768   5.899   6.591
 6926SOL     OW21676   2.277   1.476   7.020
 6926SOL    HW121677   2.208   1.404   0.003
 6926SOL    HW221678   2.306   1.505   0.086
 6927SOL     OW21679   3.688   1.055   0.373
 6927SOL    HW121680   3.772   1.107   0.354
 6927SOL    HW221681   3.712   0.964   0.405
 6928SOL     OW21682   5.076   5.470   0.978
 6928SOL    HW121683   5.152   5.518   0.935
 6928SOL    HW221684   5.077   5.374   0.950
 6929SOL     OW21685   5.687   5.328   1.236
 6929SOL    HW121686   5.715   5.355   1.144
 6929SOL    HW221687   5.653   5.408   1.285
 6930SOL     OW21688   0.726   1.369   0.681
 6930SOL    HW121689   0.759   1.287   0.729
 6930SOL    HW221690   0.725   1.446   0.744
 6931SOL     OW21691   2.100   2.011   0.663
 6931SOL    HW121692   2.103   2.110   0.671
 6931SOL    HW221693   2.119   1.969   0.752
 6932SOL     OW21694   4.840   5.007   0.732
 6932SOL    HW121695   4.878   4.921   0.768
 6932SOL    HW221696   4.853   5.010   0.633
 6933SOL     OW21697   3.846   6.333   6.165
 6933SOL    HW121698   3.852   6.432   6.181
 6933SOL    HW221699   3.928   6.288   6.200
 6934SOL     OW21700   4.915   3.585   6.539
 6934SOL    HW121701   5.000   3.534   6.531
 6934SOL    HW221702   4.934   3.683   6.528
 6935SOL     OW21703   4.762   5.691   2.864
 6935SOL    HW121704   4.734   5.598   2.844
 6935SOL    HW221705   4.682   5.751   2.862
 6936SOL     OW21706   0.215   1.845   4.466
 6936SOL    HW121707   0.223   1.793   4.551
 6936SOL    HW221708   0.148   1.919   4.479
 6937SOL     OW21709   5.933   6.180   0.591
 6937SOL    HW121710   5.993   6.258   0.575
 6937SOL    HW221711   5.858   6.181   0.525
 6938SOL     OW21712   0.333   1.244   4.889
 6938SOL    HW121713   0.324   1.228   4.987
 6938SOL    HW221714   0.256   1.202   4.842
 6939SOL     OW21715   6.303   5.121   3.321
 6939SOL    HW121716   6.215   5.155   3.289
 6939SOL    HW221717   6.329   5.170   3.405
 6940SOL     OW21718   5.032   6.968   0.386
 6940SOL    HW121719   5.023   6.874   0.418
 6940SOL    HW221720   4.946   6.996   0.343
 6941SOL     OW21721   3.006   3.791   2.059
 6941SOL    HW121722   2.970   3.770   2.150
 6941SOL    HW221723   3.058   3.713   2.025
 6942SOL     OW21724   5.974   6.631   2.019
 6942SOL    HW121725   6.074   6.633   2.006
 6942SOL    HW221726   5.941   6.724   2.036
 6943SOL     OW21727   4.193   4.952   0.213
 6943SOL    HW121728   4.146   4.922   0.296
 6943SOL    HW221729   4.145   4.917   0.133
 6944SOL     OW21730   1.161   4.885   6.452
 6944SOL    HW121731   1.112   4.970   6.431
 6944SOL    HW221732   1.248   4.885   6.404
 6945SOL     OW21733   6.526   2.539   0.800
 6945SOL    HW121734   6.573   2.455   0.827
 6945SOL    HW221735   6.480   2.578   0.879
 6946SOL     OW21736   3.956   6.175   1.724
 6946SOL    HW121737   3.943   6.203   1.819
 6946SOL    HW221738   3.867   6.174   1.678
 6947SOL     OW21739   4.225   5.482   6.031
 6947SOL    HW121740   4.251   5.414   6.100
 6947SOL    HW221741   4.277   5.467   5.948
 6948SOL     OW21742   0.037   6.553   1.283
 6948SOL    HW121743   0.076   6.614   1.353
 6948SOL    HW221744   0.109   6.494   1.246
 6949SOL     OW21745   2.525   2.502   3.140
 6949SOL    HW121746   2.444   2.459   3.179
 6949SOL    HW221747   2.607   2.469   3.189
 6950SOL     OW21748   1.367   0.167   4.067
 6950SOL    HW121749   1.329   0.243   4.120
 6950SOL    HW221750   1.460   0.147   4.099
 6951SOL     OW21751   6.096   5.623   6.611
 6951SOL    HW121752   6.132   5.583   6.527
 6951SOL    HW221753   6.028   5.561   6.651
 6952SOL     OW21754   2.936   4.854   3.382
 6952SOL    HW121755   2.841   4.826   3.394
 6952SOL    HW221756   2.982   4.855   3.471
 6953SOL     OW21757   5.271   6.946   0.594
 6953SOL    HW121758   5.233   6.981   0.509
 6953SOL    HW221759   5.335   7.013   0.632
 6954SOL     OW21760   6.958   3.623   1.123
 6954SOL    HW121761   6.916   3.570   1.050
 6954SOL    HW221762   6.967   3.718   1.095
 6955SOL     OW21763   5.199   0.211   2.684
 6955SOL    HW121764   5.189   0.296   2.632
 6955SOL    HW221765   5.241   0.231   2.773
 6956SOL     OW21766   6.085   5.747   2.575
 6956SOL    HW121767   6.130   5.829   2.609
 6956SOL    HW221768   6.060   5.688   2.652
 6957SOL     OW21769   4.967   5.618   6.857
 6957SOL    HW121770   4.926   5.583   6.773
 6957SOL    HW221771   4.918   5.581   6.936
 6958SOL     OW21772   3.506   3.646   4.074
 6958SOL    HW121773   3.447   3.681   4.000
 6958SOL    HW221774   3.449   3.616   4.150
 6959SOL     OW21775   1.631   3.919   2.944
 6959SOL    HW121776   1.729   3.930   2.963
 6959SOL    HW221777   1.580   3.991   2.990
 6960SOL     OW21778   1.549   4.605   1.114
 6960SOL    HW121779   1.582   4.695   1.086
 6960SOL    HW221780   1.461   4.587   1.069
 6961SOL     OW21781   4.784   1.141   4.475
 6961SOL    HW121782   4.710   1.075   4.490
 6961SOL    HW221783   4.871   1.099   4.501
 6962SOL     OW21784   3.490   6.582   0.475
 6962SOL    HW121785   3.437   6.527   0.411
 6962SOL    HW221786   3.428   6.629   0.538
 6963SOL     OW21787   5.202   5.755   6.793
 6963SOL    HW121788   5.244   5.810   6.865
 6963SOL    HW221789   5.113   5.722   6.824
 6964SOL     OW21790   2.988   0.298   5.475
 6964SOL    HW121791   2.953   0.385   5.438
 6964SOL    HW221792   2.913   0.245   5.512
 6965SOL     OW21793   1.183   2.240   6.821
 6965SOL    HW121794   1.104   2.284   6.778
 6965SOL    HW221795   1.218   2.167   6.763
 6966SOL     OW21796   1.885   1.032   1.822
 6966SOL    HW121797   1.810   0.965   1.822
 6966SOL    HW221798   1.970   0.986   1.799
 6967SOL     OW21799   3.924   1.444   5.740
 6967SOL    HW121800   3.934   1.438   5.839
 6967SOL    HW221801   3.829   1.429   5.715
 6968SOL     OW21802   2.949   0.394   2.978
 6968SOL    HW121803   2.855   0.366   2.960
 6968SOL    HW221804   2.956   0.494   2.970
 6969SOL     OW21805   2.995   1.971   1.035
 6969SOL    HW121806   3.007   1.927   1.124
 6969SOL    HW221807   2.907   1.944   0.996
 6970SOL     OW21808   3.466   5.062   6.170
 6970SOL    HW121809   3.536   4.999   6.137
 6970SOL    HW221810   3.379   5.043   6.124
 6971SOL     OW21811   5.415   4.493   1.438
 6971SOL    HW121812   5.365   4.410   1.460
 6971SOL    HW221813   5.371   4.572   1.483
 6972SOL     OW21814   5.119   3.558   2.889
 6972SOL    HW121815   5.142   3.556   2.986
 6972SOL    HW221816   5.020   3.554   2.877
 6973SOL     OW21817   1.220   2.468   2.966
 6973SOL    HW121818   1.134   2.500   2.927
 6973SOL    HW221819   1.295   2.490   2.903
 6974SOL     OW21820   3.032   3.981   2.342
 6974SOL    HW121821   2.973   3.909   2.306
 6974SOL    HW221822   3.057   3.959   2.436
 6975SOL     OW21823   2.635   5.548   4.456
 6975SOL    HW121824   2.642   5.459   4.501
 6975SOL    HW221825   2.543   5.584   4.466
 6976SOL     OW21826   5.034   4.308   5.316
 6976SOL    HW121827   4.963   4.273   5.377
 6976SOL    HW221828   5.049   4.243   5.242
 6977SOL     OW21829   4.117   4.113   1.569
 6977SOL    HW121830   4.158   4.025   1.594
 6977SOL    HW221831   4.017   4.106   1.575
 6978SOL     OW21832   5.564   2.997   1.160
 6978SOL    HW121833   5.649   2.945   1.159
 6978SOL    HW221834   5.581   3.089   1.197
 6979SOL     OW21835   1.215   3.234   1.404
 6979SOL    HW121836   1.248   3.274   1.490
 6979SOL    HW221837   1.278   3.258   1.330
 6980SOL     OW21838   1.400   0.976   3.313
 6980SOL    HW121839   1.450   0.908   3.259
 6980SOL    HW221840   1.331   1.019   3.256
 6981SOL     OW21841   3.333   3.306   6.521
 6981SOL    HW121842   3.270   3.362   6.467
 6981SOL    HW221843   3.319   3.210   6.498
 6982SOL     OW21844   0.810   1.227   3.531
 6982SOL    HW121845   0.714   1.248   3.512
 6982SOL    HW221846   0.820   1.201   3.627
 6983SOL     OW21847   4.639   1.279   5.289
 6983SOL    HW121848   4.680   1.336   5.217
 6983SOL    HW221849   4.698   1.200   5.306
 6984SOL     OW21850   1.674   2.365   2.746
 6984SOL    HW121851   1.627   2.277   2.750
 6984SOL    HW221852   1.734   2.367   2.665
 6985SOL     OW21853   6.362   4.473   0.304
 6985SOL    HW121854   6.341   4.417   0.225
 6985SOL    HW221855   6.457   4.504   0.299
 6986SOL     OW21856   3.833   6.372   6.475
 6986SOL    HW121857   3.790   6.336   6.558
 6986SOL    HW221858   3.770   6.365   6.398
 6987SOL     OW21859   7.018   1.753   5.536
 6987SOL    HW121860   7.022   1.729   5.633
 6987SOL    HW221861   7.004   1.670   5.482
 6988SOL     OW21862   2.702   0.451   6.024
 6988SOL    HW121863   2.770   0.495   6.083
 6988SOL    HW221864   2.629   0.517   6.004
 6989SOL     OW21865   6.619   4.526   1.982
 6989SOL    HW121866   6.622   4.519   1.882
 6989SOL    HW221867   6.653   4.441   2.023
 6990SOL     OW21868   3.928   3.003   1.877
 6990SOL    HW121869   4.007   2.952   1.842
 6990SOL    HW221870   3.957   3.096   1.901
 6991SOL     OW21871   4.822   4.526   3.609
 6991SOL    HW121872   4.863   4.475   3.534
 6991SOL    HW221873   4.740   4.478   3.641
 6992SOL     OW21874   0.178   6.708   0.443
 6992SOL    HW121875   0.103   6.656   0.403
 6992SOL    HW221876   0.163   6.720   0.541
 6993SOL     OW21877   6.134   0.548   1.612
 6993SOL    HW121878   6.132   0.539   1.512
 6993SOL    HW221879   6.049   0.591   1.643
 6994SOL     OW21880   1.245   0.050   3.624
 6994SOL    HW121881   1.195   0.101   3.694
 6994SOL    HW221882   1.336   0.026   3.658
 6995SOL     OW21883   0.745   3.815   0.309
 6995SOL    HW121884   0.684   3.860   0.373
 6995SOL    HW221885   0.727   3.848   0.216
 6996SOL     OW21886   1.478   0.685   6.981
 6996SOL    HW121887   1.460   0.767   6.926
 6996SOL    HW221888   1.397   0.663   0.010
 6997SOL     OW21889   0.035   4.739   5.364
 6997SOL    HW121890   0.123   4.784   5.349
 6997SOL    HW221891   0.017   4.734   5.462
 6998SOL     OW21892   0.334   1.508   1.722
 6998SOL    HW121893   0.330   1.601   1.760
 6998SOL    HW221894   0.271   1.449   1.772
 6999SOL     OW21895   0.443   2.342   6.626
 6999SOL    HW121896   0.399   2.346   6.536
 6999SOL    HW221897   0.467   2.434   6.655
 7000SOL     OW21898   5.995   0.351   2.707
 7000SOL    HW121899   6.079   0.387   2.666
 7000SOL    HW221900   5.916   0.393   2.664
 7001SOL     OW21901   0.868   1.637   4.503
 7001SOL    HW121902   0.935   1.638   4.577
 7001SOL    HW221903   0.799   1.567   4.522
 7002SOL     OW21904   0.887   5.424   3.840
 7002SOL    HW121905   0.935   5.446   3.925
 7002SOL    HW221906   0.931   5.346   3.796
 7003SOL     OW21907   5.817   4.474   1.065
 7003SOL    HW121908   5.785   4.556   1.017
 7003SOL    HW221909   5.746   4.443   1.129
 7004SOL     OW21910   1.525   5.936   0.439
 7004SOL    HW121911   1.504   5.909   0.533
 7004SOL    HW221912   1.575   6.022   0.439
 7005SOL     OW21913   0.807   0.276   6.721
 7005SOL    HW121914   0.855   0.219   6.788
 7005SOL    HW221915   0.872   0.307   6.651
 7006SOL     OW21916   6.563   6.486   3.348
 7006SOL    HW121917   6.563   6.403   3.293
 7006SOL    HW221918   6.522   6.467   3.438
 7007SOL     OW21919   4.308   0.351   5.624
 7007SOL    HW121920   4.318   0.377   5.528
 7007SOL    HW221921   4.396   0.362   5.672
 7008SOL     OW21922   6.701   4.300   3.774
 7008SOL    HW121923   6.659   4.244   3.846
 7008SOL    HW221924   6.743   4.239   3.706
 7009SOL     OW21925   4.180   6.548   2.008
 7009SOL    HW121926   4.082   6.554   2.025
 7009SOL    HW221927   4.195   6.522   1.912
 7010SOL     OW21928   5.789   4.081   2.764
 7010SOL    HW121929   5.791   4.074   2.664
 7010SOL    HW221930   5.876   4.049   2.801
 7011SOL     OW21931   3.816   6.945   0.766
 7011SOL    HW121932   3.768   6.870   0.720
 7011SOL    HW221933   3.837   6.917   0.860
 7012SOL     OW21934   1.396   3.005   0.933
 7012SOL    HW121935   1.362   3.075   0.869
 7012SOL    HW221936   1.365   2.915   0.903
 7013SOL     OW21937   2.343   1.054   6.692
 7013SOL    HW121938   2.274   0.982   6.684
 7013SOL    HW221939   2.298   1.142   6.707
 7014SOL     OW21940   6.028   3.798   1.397
 7014SOL    HW121941   6.077   3.711   1.388
 7014SOL    HW221942   6.010   3.836   1.306
 7015SOL     OW21943   5.858   4.601   2.381
 7015SOL    HW121944   5.838   4.511   2.419
 7015SOL    HW221945   5.847   4.598   2.282
 7016SOL     OW21946   3.513   4.907   1.284
 7016SOL    HW121947   3.568   4.990   1.296
 7016SOL    HW221948   3.417   4.927   1.304
 7017SOL     OW21949   3.749   4.964   3.174
 7017SOL    HW121950   3.666   4.940   3.224
 7017SOL    HW221951   3.828   4.920   3.216
 7018SOL     OW21952   5.093   2.989   4.142
 7018SOL    HW121953   4.998   3.006   4.117
 7018SOL    HW221954   5.123   3.061   4.206
 7019SOL     OW21955   4.693   5.364   2.324
 7019SOL    HW121956   4.614   5.425   2.316
 7019SOL    HW221957   4.710   5.345   2.421
 7020SOL     OW21958   0.597   3.651   6.689
 7020SOL    HW121959   0.533   3.611   6.754
 7020SOL    HW221960   0.688   3.655   6.730
 7021SOL     OW21961   0.933   2.995   4.875
 7021SOL    HW121962   0.854   2.970   4.820
 7021SOL    HW221963   0.968   3.083   4.844
 7022SOL     OW21964   4.093   0.504   0.220
 7022SOL    HW121965   4.039   0.585   0.245
 7022SOL    HW221966   4.032   0.426   0.205
 7023SOL     OW21967   0.491   2.094   1.842
 7023SOL    HW121968   0.447   2.004   1.842
 7023SOL    HW221969   0.428   2.161   1.803
 7024SOL     OW21970   3.582   2.939   3.931
 7024SOL    HW121971   3.486   2.914   3.947
 7024SOL    HW221972   3.631   2.941   4.018
 7025SOL     OW21973   3.530   0.129   6.924
 7025SOL    HW121974   3.593   0.204   6.907
 7025SOL    HW221975   3.567   0.070   6.996
 7026SOL     OW21976   3.388   1.326   1.439
 7026SOL    HW121977   3.439   1.247   1.474
 7026SOL    HW221978   3.437   1.410   1.461
 7027SOL     OW21979   2.367   6.019   3.450
 7027SOL    HW121980   2.371   6.071   3.365
 7027SOL    HW221981   2.276   5.979   3.461
 7028SOL     OW21982   2.462   0.640   3.564
 7028SOL    HW121983   2.392   0.677   3.502
 7028SOL    HW221984   2.417   0.603   3.645
 7029SOL     OW21985   3.114   3.733   5.828
 7029SOL    HW121986   3.034   3.676   5.845
 7029SOL    HW221987   3.194   3.693   5.872
 7030SOL     OW21988   0.739   1.994   4.776
 7030SOL    HW121989   0.689   2.017   4.692
 7030SOL    HW221990   0.701   2.046   4.853
 7031SOL     OW21991   4.388   6.236   0.289
 7031SOL    HW121992   4.441   6.219   0.372
 7031SOL    HW221993   4.330   6.316   0.302
 7032SOL     OW21994   4.182   0.695   4.525
 7032SOL    HW121995   4.205   0.721   4.619
 7032SOL    HW221996   4.249   0.733   4.462
 7033SOL     OW21997   1.550   2.774   4.595
 7033SOL    HW121998   1.616   2.721   4.542
 7033SOL    HW221999   1.516   2.850   4.540
 7034SOL     OW22000   6.410   2.354   3.535
 7034SOL    HW122001   6.341   2.343   3.463
 7034SOL    HW222002   6.429   2.451   3.548
 7035SOL     OW22003   1.592   6.992   1.913
 7035SOL    HW122004   1.668   7.017   1.973
 7035SOL    HW222005   1.602   0.013   1.825
 7036SOL     OW22006   0.208   1.872   2.266
 7036SOL    HW122007   0.129   1.877   2.328
 7036SOL    HW222008   0.273   1.805   2.302
 7037SOL     OW22009   0.192   0.532   5.537
 7037SOL    HW122010   0.120   0.474   5.577
 7037SOL    HW222011   0.253   0.565   5.609
 7038SOL     OW22012   3.053   4.572   5.662
 7038SOL    HW122013   2.979   4.611   5.607
 7038SOL    HW222014   3.017   4.538   5.749
 7039SOL     OW22015   0.736   5.114   3.729
 7039SOL    HW122016   0.691   5.116   3.818
 7039SOL    HW222017   0.808   5.046   3.729
 7040SOL     OW22018   4.695   2.150   5.010
 7040SOL    HW122019   4.611   2.170   4.961
 7040SOL    HW222020   4.725   2.057   4.990
 7041SOL     OW22021   1.278   1.465   3.440
 7041SOL    HW122022   1.319   1.555   3.428
 7041SOL    HW222023   1.290   1.412   3.355
 7042SOL     OW22024   4.485   5.932   5.096
 7042SOL    HW122025   4.517   5.872   5.170
 7042SOL    HW222026   4.553   5.933   5.023
 7043SOL     OW22027   2.493   4.445   3.992
 7043SOL    HW122028   2.412   4.409   3.945
 7043SOL    HW222029   2.542   4.507   3.930
 7044SOL     OW22030   4.754   7.020   4.766
 7044SOL    HW122031   4.757   7.009   4.865
 7044SOL    HW222032   4.686   6.958   4.727
 7045SOL     OW22033   6.113   5.396   2.604
 7045SOL    HW122034   6.027   5.349   2.621
 7045SOL    HW222035   6.125   5.469   2.671
 7046SOL     OW22036   3.291   2.116   4.439
 7046SOL    HW122037   3.202   2.129   4.397
 7046SOL    HW222038   3.284   2.131   4.538
 7047SOL     OW22039   0.415   0.860   1.702
 7047SOL    HW122040   0.404   0.881   1.605
 7047SOL    HW222041   0.492   0.798   1.715
 7048SOL     OW22042   6.421   6.289   5.089
 7048SOL    HW122043   6.516   6.311   5.066
 7048SOL    HW222044   6.381   6.236   5.014
 7049SOL     OW22045   3.806   1.522   2.090
 7049SOL    HW122046   3.900   1.519   2.056
 7049SOL    HW222047   3.753   1.586   2.034
 7050SOL     OW22048   3.750   4.914   0.924
 7050SOL    HW122049   3.788   4.972   0.996
 7050SOL    HW222050   3.697   4.840   0.966
 7051SOL     OW22051   0.261   0.118   1.498
 7051SOL    HW122052   0.171   0.101   1.459
 7051SOL    HW222053   0.274   0.058   1.577
 7052SOL     OW22054   5.191   6.772   3.293
 7052SOL    HW122055   5.229   6.825   3.369
 7052SOL    HW222056   5.163   6.682   3.326
 7053SOL     OW22057   1.394   3.360   3.999
 7053SOL    HW122058   1.441   3.439   4.038
 7053SOL    HW222059   1.429   3.276   4.041
 7054SOL     OW22060   0.392   0.241   1.055
 7054SOL    HW122061   0.380   0.340   1.061
 7054SOL    HW222062   0.310   0.195   1.089
 7055SOL     OW22063   1.990   0.348   6.665
 7055SOL    HW122064   1.920   0.338   6.736
 7055SOL    HW222065   2.040   0.261   6.655
 7056SOL     OW22066   6.700   5.838   1.099
 7056SOL    HW122067   6.622   5.778   1.080
 7056SOL    HW222068   6.668   5.924   1.137
 7057SOL     OW22069   3.171   5.206   4.196
 7057SOL    HW122070   3.117   5.139   4.145
 7057SOL    HW222071   3.110   5.272   4.240
 7058SOL     OW22072   5.259   1.949   6.689
 7058SOL    HW122073   5.318   1.927   6.767
 7058SOL    HW222074   5.261   2.047   6.672
 7059SOL     OW22075   2.164   1.636   4.482
 7059SOL    HW122076   2.086   1.659   4.423
 7059SOL    HW222077   2.134   1.636   4.578
 7060SOL     OW22078   3.043   6.777   2.563
 7060SOL    HW122079   2.959   6.819   2.597
 7060SOL    HW222080   3.055   6.800   2.467
 7061SOL     OW22081   1.368   1.895   2.494
 7061SOL    HW122082   1.301   1.963   2.523
 7061SOL    HW222083   1.395   1.913   2.399
 7062SOL     OW22084   4.486   2.009   4.264
 7062SOL    HW122085   4.410   1.965   4.216
 7062SOL    HW222086   4.452   2.083   4.321
 7063SOL     OW22087   0.376   6.634   2.547
 7063SOL    HW122088   0.282   6.649   2.578
 7063SOL    HW222089   0.379   6.558   2.482
 7064SOL     OW22090   5.218   1.475   5.644
 7064SOL    HW122091   5.309   1.478   5.687
 7064SOL    HW222092   5.183   1.568   5.635
 7065SOL     OW22093   3.347   4.531   5.380
 7065SOL    HW122094   3.273   4.471   5.412
 7065SOL    HW222095   3.431   4.478   5.369
 7066SOL     OW22096   4.801   0.704   6.977
 7066SOL    HW122097   4.886   0.737   7.017
 7066SOL    HW222098   4.726   0.765   7.002
 7067SOL     OW22099   1.756   3.472   6.820
 7067SOL    HW122100   1.736   3.544   6.885
 7067SOL    HW222101   1.852   3.477   6.792
 7068SOL     OW22102   5.626   4.281   4.057
 7068SOL    HW122103   5.601   4.194   4.100
 7068SOL    HW222104   5.608   4.275   3.958
 7069SOL     OW22105   6.100   1.491   5.783
 7069SOL    HW122106   6.068   1.443   5.865
 7069SOL    HW222107   6.083   1.435   5.702
 7070SOL     OW22108   0.163   6.536   4.914
 7070SOL    HW122109   0.239   6.474   4.929
 7070SOL    HW222110   0.115   6.553   5.000
 7071SOL     OW22111   5.323   6.396   6.725
 7071SOL    HW122112   5.315   6.414   6.627
 7071SOL    HW222113   5.286   6.474   6.776
 7072SOL     OW22114   1.048   4.353   6.983
 7072SOL    HW122115   1.147   4.365   6.968
 7072SOL    HW222116   1.001   4.357   6.894
 7073SOL     OW22117   4.134   0.336   3.253
 7073SOL    HW122118   4.155   0.265   3.186
 7073SOL    HW222119   4.152   0.426   3.213
 7074SOL     OW22120   6.815   3.107   3.612
 7074SOL    HW122121   6.732   3.082   3.562
 7074SOL    HW222122   6.854   3.190   3.572
 7075SOL     OW22123   2.988   4.909   5.223
 7075SOL    HW122124   3.029   4.821   5.245
 7075SOL    HW222125   2.917   4.930   5.290
 7076SOL     OW22126   5.930   3.218   1.805
 7076SOL    HW122127   5.977   3.293   1.851
 7076SOL    HW222128   5.871   3.170   1.870
 7077SOL     OW22129   2.891   4.907   2.570
 7077SOL    HW122130   2.961   4.959   2.618
 7077SOL    HW222131   2.913   4.904   2.472
 7078SOL     OW22132   5.551   6.783   0.544
 7078SOL    HW122133   5.480   6.719   0.574
 7078SOL    HW222134   5.605   6.812   0.623
 7079SOL     OW22135   1.150   6.840   3.748
 7079SOL    HW122136   1.179   6.772   3.680
 7079SOL    HW222137   1.167   6.932   3.712
 7080SOL     OW22138   4.061   1.790   4.613
 7080SOL    HW122139   4.116   1.730   4.672
 7080SOL    HW222140   3.987   1.831   4.667
 7081SOL     OW22141   1.489   1.082   6.931
 7081SOL    HW122142   1.407   1.027   6.949
 7081SOL    HW222143   1.552   1.030   6.873
 7082SOL     OW22144   6.788   3.638   1.782
 7082SOL    HW122145   6.740   3.658   1.868
 7082SOL    HW222146   6.870   3.695   1.776
 7083SOL     OW22147   6.852   2.309   2.198
 7083SOL    HW122148   6.784   2.372   2.160
 7083SOL    HW222149   6.913   2.277   2.126
 7084SOL     OW22150   0.326   5.427   6.379
 7084SOL    HW122151   0.314   5.525   6.367
 7084SOL    HW222152   0.237   5.381   6.373
 7085SOL     OW22153   0.034   2.628   2.564
 7085SOL    HW122154   0.117   2.592   2.520
 7085SOL    HW222155   7.021   2.701   2.508
 7086SOL     OW22156   5.909   0.674   7.013
 7086SOL    HW122157   5.846   0.739   6.970
 7086SOL    HW222158   5.898   0.679   0.087
 7087SOL     OW22159   5.153   3.283   2.777
 7087SOL    HW122160   5.088   3.270   2.702
 7087SOL    HW222161   5.146   3.376   2.812
 7088SOL     OW22162   5.922   1.366   4.997
 7088SOL    HW122163   5.958   1.386   4.906
 7088SOL    HW222164   5.963   1.429   5.063
 7089SOL     OW22165   3.956   5.782   2.446
 7089SOL    HW122166   4.001   5.870   2.427
 7089SOL    HW222167   4.024   5.716   2.477
 7090SOL     OW22168   3.686   1.325   0.871
 7090SOL    HW122169   3.774   1.341   0.826
 7090SOL    HW222170   3.671   1.397   0.939
 7091SOL     OW22171   0.782   0.206   0.421
 7091SOL    HW122172   0.730   0.143   0.478
 7091SOL    HW222173   0.755   0.300   0.441
 7092SOL     OW22174   4.234   2.111   6.732
 7092SOL    HW122175   4.143   2.084   6.764
 7092SOL    HW222176   4.228   2.196   6.679
 7093SOL     OW22177   3.550   3.554   1.107
 7093SOL    HW122178   3.560   3.475   1.047
 7093SOL    HW222179   3.637   3.604   1.112
 7094SOL     OW22180   2.132   6.790   5.987
 7094SOL    HW122181   2.044   6.787   6.035
 7094SOL    HW222182   2.204   6.762   6.050
 7095SOL     OW22183   3.311   4.928   5.274
 7095SOL    HW122184   3.276   5.013   5.313
 7095SOL    HW222185   3.234   4.867   5.252
 7096SOL     OW22186   6.825   0.707   1.078
 7096SOL    HW122187   6.846   0.695   0.981
 7096SOL    HW222188   6.847   0.800   1.106
 7097SOL     OW22189   5.363   7.014   1.824
 7097SOL    HW122190   5.310   0.072   1.839
 7097SOL    HW222191   5.350   6.982   1.730
 7098SOL     OW22192   1.681   0.065   4.616
 7098SOL    HW122193   1.648   0.140   4.673
 7098SOL    HW222194   1.656   7.003   4.659
 7099SOL     OW22195   3.439   2.082   4.200
 7099SOL    HW122196   3.376   2.085   4.123
 7099SOL    HW222197   3.389   2.096   4.285
 7100SOL     OW22198   0.771   3.380   0.536
 7100SOL    HW122199   0.678   3.381   0.571
 7100SOL    HW222200   0.808   3.473   0.535
 7101SOL     OW22201   2.098   6.294   5.522
 7101SOL    HW122202   2.114   6.252   5.433
 7101SOL    HW222203   2.001   6.316   5.531
 7102SOL     OW22204   5.046   1.335   1.112
 7102SOL    HW122205   5.048   1.429   1.147
 7102SOL    HW222206   4.954   1.297   1.123
 7103SOL     OW22207   4.951   5.246   2.265
 7103SOL    HW122208   4.991   5.198   2.343
 7103SOL    HW222209   4.852   5.252   2.277
 7104SOL     OW22210   5.469   3.121   3.030
 7104SOL    HW122211   5.519   3.158   3.108
 7104SOL    HW222212   5.528   3.118   2.950
 7105SOL     OW22213   3.115   4.060   4.090
 7105SOL    HW122214   3.163   4.147   4.083
 7105SOL    HW222215   3.154   3.995   4.025
 7106SOL     OW22216   3.588   2.813   1.411
 7106SOL    HW122217   3.511   2.845   1.466
 7106SOL    HW222218   3.587   2.713   1.405
 7107SOL     OW22219   4.543   0.085   6.890
 7107SOL    HW122220   4.484   0.165   6.900
 7107SOL    HW222221   4.489   0.002   6.904
 7108SOL     OW22222   2.930   6.464   2.980
 7108SOL    HW122223   2.889   6.402   3.046
 7108SOL    HW222224   2.989   6.529   3.028
 7109SOL     OW22225   1.303   0.613   6.265
 7109SOL    HW122226   1.369   0.539   6.253
 7109SOL    HW222227   1.345   0.700   6.240
 7110SOL     OW22228   3.120   6.742   4.596
 7110SOL    HW122229   3.194   6.730   4.530
 7110SOL    HW222230   3.131   6.677   4.671
 7111SOL     OW22231   1.453   0.855   4.001
 7111SOL    HW122232   1.385   0.786   4.027
 7111SOL    HW222233   1.406   0.938   3.973
 7112SOL     OW22234   2.042   4.329   4.544
 7112SOL    HW122235   2.016   4.403   4.606
 7112SOL    HW222236   2.123   4.283   4.579
 7113SOL     OW22237   2.648   4.791   5.202
 7113SOL    HW122238   2.723   4.730   5.178
 7113SOL    HW222239   2.596   4.751   5.277
 7114SOL     OW22240   4.797   5.300   1.121
 7114SOL    HW122241   4.805   5.204   1.097
 7114SOL    HW222242   4.856   5.354   1.060
 7115SOL     OW22243   5.621   4.388   6.556
 7115SOL    HW122244   5.606   4.350   6.647
 7115SOL    HW222245   5.719   4.385   6.534
 7116SOL     OW22246   6.548   3.749   4.026
 7116SOL    HW122247   6.468   3.769   4.081
 7116SOL    HW222248   6.630   3.755   4.083
 7117SOL     OW22249   5.999   6.733   3.596
 7117SOL    HW122250   5.996   6.642   3.638
 7117SOL    HW222251   6.090   6.750   3.559
 7118SOL     OW22252   4.085   4.581   5.332
 7118SOL    HW122253   4.051   4.615   5.420
 7118SOL    HW222254   4.091   4.481   5.335
 7119SOL     OW22255   5.045   0.363   4.817
 7119SOL    HW122256   5.059   0.362   4.916
 7119SOL    HW222257   5.133   0.376   4.772
 7120SOL     OW22258   5.190   1.591   1.135
 7120SOL    HW122259   5.182   1.667   1.072
 7120SOL    HW222260   5.154   1.618   1.225
 7121SOL     OW22261   0.994   6.403   3.690
 7121SOL    HW122262   0.994   6.494   3.732
 7121SOL    HW222263   1.016   6.334   3.759
 7122SOL     OW22264   2.808   6.788   5.641
 7122SOL    HW122265   2.883   6.798   5.576
 7122SOL    HW222266   2.723   6.819   5.598
 7123SOL     OW22267   6.230   4.908   4.868
 7123SOL    HW122268   6.177   4.983   4.909
 7123SOL    HW222269   6.280   4.942   4.789
 7124SOL     OW22270   1.214   2.724   1.718
 7124SOL    HW122271   1.174   2.653   1.660
 7124SOL    HW222272   1.249   2.798   1.661
 7125SOL     OW22273   0.840   0.309   1.837
 7125SOL    HW122274   0.875   0.229   1.789
 7125SOL    HW222275   0.909   0.381   1.836
 7126SOL     OW22276   4.135   6.280   1.350
 7126SOL    HW122277   4.041   6.283   1.315
 7126SOL    HW222278   4.133   6.243   1.443
 7127SOL     OW22279   3.382   6.134   5.319
 7127SOL    HW122280   3.372   6.096   5.411
 7127SOL    HW222281   3.308   6.200   5.303
 7128SOL     OW22282   3.284   4.850   6.277
 7128SOL    HW122283   3.276   4.751   6.276
 7128SOL    HW222284   3.275   4.886   6.185
 7129SOL     OW22285   0.492   1.583   1.342
 7129SOL    HW122286   0.585   1.619   1.336
 7129SOL    HW222287   0.491   1.505   1.404
 7130SOL     OW22288   2.687   0.017   4.411
 7130SOL    HW122289   2.758   0.043   4.345
 7130SOL    HW222290   2.662   6.947   4.396
 7131SOL     OW22291   3.839   0.544   2.795
 7131SOL    HW122292   3.901   0.571   2.722
 7131SOL    HW222293   3.776   0.474   2.761
 7132SOL     OW22294   5.375   3.638   6.656
 7132SOL    HW122295   5.356   3.722   6.605
 7132SOL    HW222296   5.363   3.559   6.595
 7133SOL     OW22297   3.409   6.020   3.609
 7133SOL    HW122298   3.352   6.026   3.691
 7133SOL    HW222299   3.433   5.925   3.592
 7134SOL     OW22300   5.935   5.484   1.741
 7134SOL    HW122301   5.856   5.453   1.793
 7134SOL    HW222302   5.990   5.545   1.797
 7135SOL     OW22303   2.000   3.342   1.977
 7135SOL    HW122304   1.931   3.391   1.923
 7135SOL    HW222305   2.075   3.404   2.000
 7136SOL     OW22306   2.828   1.730   1.904
 7136SOL    HW122307   2.780   1.734   1.817
 7136SOL    HW222308   2.879   1.815   1.918
 7137SOL     OW22309   2.914   1.918   1.585
 7137SOL    HW122310   2.915   2.018   1.584
 7137SOL    HW222311   2.971   1.885   1.660
 7138SOL     OW22312   1.746   1.865   0.680
 7138SOL    HW122313   1.755   1.840   0.777
 7138SOL    HW222314   1.698   1.793   0.631
 7139SOL     OW22315   5.462   5.678   2.199
 7139SOL    HW122316   5.405   5.733   2.138
 7139SOL    HW222317   5.536   5.735   2.235
 7140SOL     OW22318   6.430   3.635   0.769
 7140SOL    HW122319   6.529   3.625   0.771
 7140SOL    HW222320   6.406   3.732   0.781
 7141SOL     OW22321   4.059   6.873   1.015
 7141SOL    HW122322   3.985   6.922   1.061
 7141SOL    HW222323   4.147   6.916   1.037
 7142SOL     OW22324   3.417   0.942   4.421
 7142SOL    HW122325   3.510   0.906   4.420
 7142SOL    HW222326   3.368   0.911   4.339
 7143SOL     OW22327   2.703   5.076   6.501
 7143SOL    HW122328   2.728   4.999   6.559
 7143SOL    HW222329   2.786   5.127   6.476
 7144SOL     OW22330   6.797   0.874   4.307
 7144SOL    HW122331   6.796   0.959   4.255
 7144SOL    HW222332   6.718   0.871   4.369
 7145SOL     OW22333   4.916   1.924   0.394
 7145SOL    HW122334   4.925   2.022   0.415
 7145SOL    HW222335   4.844   1.911   0.326
 7146SOL     OW22336   2.223   1.313   5.200
 7146SOL    HW122337   2.174   1.275   5.122
 7146SOL    HW222338   2.315   1.341   5.172
 7147SOL     OW22339   5.480   4.856   2.673
 7147SOL    HW122340   5.429   4.781   2.717
 7147SOL    HW222341   5.453   4.943   2.715
 7148SOL     OW22342   6.376   6.046   1.802
 7148SOL    HW122343   6.417   6.023   1.890
 7148SOL    HW222344   6.276   6.038   1.808
 7149SOL     OW22345   0.081   4.794   4.463
 7149SOL    HW122346   0.126   4.762   4.379
 7149SOL    HW222347   0.069   4.718   4.527
 7150SOL     OW22348   3.988   3.425   0.071
 7150SOL    HW122349   3.959   3.361   7.025
 7150SOL    HW222350   3.964   3.518   0.045
 7151SOL     OW22351   3.959   0.268   1.283
 7151SOL    HW122352   3.915   0.269   1.193
 7151SOL    HW222353   4.012   0.352   1.296
 7152SOL     OW22354   0.288   0.743   6.716
 7152SOL    HW122355   0.248   0.687   6.788
 7152SOL    HW222356   0.218   0.767   6.648
 7153SOL     OW22357   4.380   6.197   1.247
 7153SOL    HW122358   4.394   6.132   1.321
 7153SOL    HW222359   4.295   6.248   1.262
 7154SOL     OW22360   4.287   1.254   2.435
 7154SOL    HW122361   4.280   1.186   2.362
 7154SOL    HW222362   4.384   1.271   2.454
 7155SOL     OW22363   3.338   1.943   2.493
 7155SOL    HW122364   3.438   1.935   2.490
 7155SOL    HW222365   3.301   1.945   2.400
 7156SOL     OW22366   5.832   3.580   1.101
 7156SOL    HW122367   5.866   3.555   1.191
 7156SOL    HW222368   5.872   3.521   1.032
 7157SOL     OW22369   6.279   4.188   6.403
 7157SOL    HW122370   6.310   4.141   6.321
 7157SOL    HW222371   6.343   4.262   6.426
 7158SOL     OW22372   5.175   6.750   4.141
 7158SOL    HW122373   5.120   6.765   4.059
 7158SOL    HW222374   5.135   6.676   4.195
 7159SOL     OW22375   0.239   5.423   4.164
 7159SOL    HW122376   0.142   5.447   4.172
 7159SOL    HW222377   0.287   5.447   4.248
 7160SOL     OW22378   5.448   7.004   2.947
 7160SOL    HW122379   5.470   6.913   2.982
 7160SOL    HW222380   5.353   7.007   2.918
 7161SOL     OW22381   4.004   3.237   3.519
 7161SOL    HW122382   3.972   3.142   3.518
 7161SOL    HW222383   3.925   3.298   3.535
 7162SOL     OW22384   0.337   5.362   1.930
 7162SOL    HW122385   0.238   5.355   1.940
 7162SOL    HW222386   0.360   5.448   1.885
 7163SOL     OW22387   1.095   1.706   2.143
 7163SOL    HW122388   1.186   1.665   2.145
 7163SOL    HW222389   1.075   1.741   2.051
 7164SOL     OW22390   1.510   1.203   6.235
 7164SOL    HW122391   1.538   1.169   6.325
 7164SOL    HW222392   1.419   1.245   6.243
 7165SOL     OW22393   5.942   0.305   0.133
 7165SOL    HW122394   5.887   0.222   0.148
 7165SOL    HW222395   5.922   0.342   0.042
 7166SOL     OW22396   5.074   6.606   6.345
 7166SOL    HW122397   5.150   6.632   6.404
 7166SOL    HW222398   5.010   6.548   6.395
 7167SOL     OW22399   5.964   1.761   4.952
 7167SOL    HW122400   5.904   1.753   4.872
 7167SOL    HW222401   6.006   1.852   4.953
 7168SOL     OW22402   2.452   0.955   2.284
 7168SOL    HW122403   2.403   0.977   2.368
 7168SOL    HW222404   2.399   0.889   2.231
 7169SOL     OW22405   1.708   4.154   5.846
 7169SOL    HW122406   1.693   4.248   5.816
 7169SOL    HW222407   1.796   4.122   5.811
 7170SOL     OW22408   4.037   0.538   1.727
 7170SOL    HW122409   4.124   0.499   1.696
 7170SOL    HW222410   4.011   0.613   1.667
 7171SOL     OW22411   5.529   4.987   0.712
 7171SOL    HW122412   5.548   4.987   0.614
 7171SOL    HW222413   5.615   4.984   0.763
 7172SOL     OW22414   1.748   0.878   4.261
 7172SOL    HW122415   1.788   0.861   4.171
 7172SOL    HW222416   1.679   0.949   4.255
 7173SOL     OW22417   5.473   5.757   6.621
 7173SOL    HW122418   5.559   5.767   6.671
 7173SOL    HW222419   5.401   5.728   6.683
 7174SOL     OW22420   6.150   4.436   0.924
 7174SOL    HW122421   6.217   4.389   0.981
 7174SOL    HW222422   6.094   4.369   0.875
 7175SOL     OW22423   6.228   3.822   5.269
 7175SOL    HW122424   6.226   3.824   5.169
 7175SOL    HW222425   6.215   3.915   5.305
 7176SOL     OW22426   0.211   1.378   4.347
 7176SOL    HW122427   0.238   1.475   4.346
 7176SOL    HW222428   0.206   1.346   4.442
 7177SOL     OW22429   2.117   5.228   5.261
 7177SOL    HW122430   2.112   5.137   5.302
 7177SOL    HW222431   2.049   5.287   5.303
 7178SOL     OW22432   0.524   0.705   5.152
 7178SOL    HW122433   0.594   0.665   5.212
 7178SOL    HW222434   0.446   0.734   5.207
 7179SOL     OW22435   3.242   5.819   6.698
 7179SOL    HW122436   3.148   5.852   6.707
 7179SOL    HW222437   3.299   5.860   6.770
 7180SOL     OW22438   1.232   4.899   1.645
 7180SOL    HW122439   1.317   4.847   1.651
 7180SOL    HW222440   1.251   4.996   1.663
 7181SOL     OW22441   2.147   1.652   5.901
 7181SOL    HW122442   2.180   1.567   5.862
 7181SOL    HW222443   2.119   1.714   5.828
 7182SOL     OW22444   0.819   3.259   4.021
 7182SOL    HW122445   0.904   3.283   3.975
 7182SOL    HW222446   0.804   3.321   4.098
 7183SOL     OW22447   1.330   6.450   1.589
 7183SOL    HW122448   1.263   6.381   1.559
 7183SOL    HW222449   1.380   6.415   1.668
 7184SOL     OW22450   6.744   0.232   3.593
 7184SOL    HW122451   6.787   0.227   3.683
 7184SOL    HW222452   6.757   0.145   3.545
 7185SOL     OW22453   4.735   0.497   5.050
 7185SOL    HW122454   4.834   0.511   5.057
 7185SOL    HW222455   4.717   0.405   5.016
 7186SOL     OW22456   0.213   0.261   0.129
 7186SOL    HW122457   0.127   0.261   0.180
 7186SOL    HW222458   0.229   0.171   0.090
 7187SOL     OW22459   3.499   3.063   5.114
 7187SOL    HW122460   3.583   3.105   5.080
 7187SOL    HW222461   3.466   2.996   5.047
 7188SOL     OW22462   4.283   5.204   0.111
 7188SOL    HW122463   4.275   5.108   0.138
 7188SOL    HW222464   4.339   5.253   0.178
 7189SOL     OW22465   6.388   2.201   5.394
 7189SOL    HW122466   6.396   2.104   5.417
 7189SOL    HW222467   6.340   2.211   5.307
 7190SOL     OW22468   5.901   5.579   1.302
 7190SOL    HW122469   5.857   5.504   1.352
 7190SOL    HW222470   5.840   5.658   1.302
 7191SOL     OW22471   0.823   4.168   3.428
 7191SOL    HW122472   0.805   4.083   3.478
 7191SOL    HW222473   0.736   4.208   3.399
 7192SOL     OW22474   1.819   5.079   6.835
 7192SOL    HW122475   1.734   5.031   6.811
 7192SOL    HW222476   1.874   5.091   6.752
 7193SOL     OW22477   2.594   2.287   2.745
 7193SOL    HW122478   2.554   2.273   2.835
 7193SOL    HW222479   2.618   2.198   2.705
 7194SOL     OW22480   2.795   2.974   6.698
 7194SOL    HW122481   2.718   2.936   6.750
 7194SOL    HW222482   2.872   2.991   6.760
 7195SOL     OW22483   0.383   3.542   6.838
 7195SOL    HW122484   0.413   3.454   6.873
 7195SOL    HW222485   0.356   3.601   6.915
 7196SOL     OW22486   3.266   4.085   2.240
 7196SOL    HW122487   3.173   4.082   2.275
 7196SOL    HW222488   3.268   4.135   2.153
 7197SOL     OW22489   1.600   3.615   5.578
 7197SOL    HW122490   1.691   3.587   5.610
 7197SOL    HW222491   1.543   3.534   5.567
 7198SOL     OW22492   6.631   0.923   0.515
 7198SOL    HW122493   6.646   1.021   0.530
 7198SOL    HW222494   6.591   0.883   0.597
 7199SOL     OW22495   0.971   1.074   2.345
 7199SOL    HW122496   0.878   1.056   2.377
 7199SOL    HW222497   0.996   1.169   2.366
 7200SOL     OW22498   2.353   2.451   0.436
 7200SOL    HW122499   2.440   2.482   0.472
 7200SOL    HW222500   2.311   2.525   0.383
 7201SOL     OW22501   5.848   5.629   4.142
 7201SOL    HW122502   5.890   5.666   4.059
 7201SOL    HW222503   5.781   5.695   4.177
 7202SOL     OW22504   5.138   6.713   5.807
 7202SOL    HW122505   5.177   6.783   5.867
 7202SOL    HW222506   5.078   6.653   5.860
 7203SOL     OW22507   0.019   1.570   2.111
 7203SOL    HW122508   0.064   1.513   2.180
 7203SOL    HW222509   6.970   1.519   2.069
 7204SOL     OW22510   0.198   1.602   0.882
 7204SOL    HW122511   0.247   1.620   0.797
 7204SOL    HW222512   0.263   1.593   0.957
 7205SOL     OW22513   2.017   2.355   5.351
 7205SOL    HW122514   2.047   2.322   5.262
 7205SOL    HW222515   1.977   2.446   5.342
 7206SOL     OW22516   1.693   2.206   0.974
 7206SOL    HW122517   1.773   2.227   0.918
 7206SOL    HW222518   1.718   2.203   1.070
 7207SOL     OW22519   2.288   2.475   3.824
 7207SOL    HW122520   2.296   2.421   3.907
 7207SOL    HW222521   2.198   2.519   3.820
 7208SOL     OW22522   3.935   0.850   4.596
 7208SOL    HW122523   3.949   0.946   4.573
 7208SOL    HW222524   3.998   0.793   4.543
 7209SOL     OW22525   2.334   2.643   2.391
 7209SOL    HW122526   2.379   2.648   2.480
 7209SOL    HW222527   2.400   2.613   2.322
 7210SOL     OW22528   2.350   1.672   2.751
 7210SOL    HW122529   2.368   1.610   2.674
 7210SOL    HW222530   2.414   1.749   2.747
 7211SOL     OW22531   3.269   5.968   5.131
 7211SOL    HW122532   3.293   6.019   5.213
 7211SOL    HW222533   3.178   5.995   5.100
 7212SOL     OW22534   5.814   5.116   5.879
 7212SOL    HW122535   5.803   5.163   5.791
 7212SOL    HW222536   5.911   5.102   5.897
 7213SOL     OW22537   3.989   0.523   0.686
 7213SOL    HW122538   4.048   0.443   0.685
 7213SOL    HW222539   3.894   0.495   0.701
 7214SOL     OW22540   0.623   0.748   6.319
 7214SOL    HW122541   0.556   0.710   6.255
 7214SOL    HW222542   0.580   0.759   6.409
 7215SOL     OW22543   0.418   2.688   2.994
 7215SOL    HW122544   0.433   2.786   2.983
 7215SOL    HW222545   0.399   2.646   2.905
 7216SOL     OW22546   3.278   6.460   3.092
 7216SOL    HW122547   3.347   6.480   3.162
 7216SOL    HW222548   3.229   6.544   3.069
 7217SOL     OW22549   1.591   4.394   3.854
 7217SOL    HW122550   1.661   4.343   3.903
 7217SOL    HW222551   1.538   4.332   3.797
 7218SOL     OW22552   6.565   3.121   4.459
 7218SOL    HW122553   6.469   3.104   4.483
 7218SOL    HW222554   6.624   3.087   4.532
 7219SOL     OW22555   2.944   6.674   1.614
 7219SOL    HW122556   2.996   6.640   1.692
 7219SOL    HW222557   3.004   6.728   1.555
 7220SOL     OW22558   6.752   3.989   4.742
 7220SOL    HW122559   6.799   4.046   4.809
 7220SOL    HW222560   6.664   3.960   4.779
 7221SOL     OW22561   3.237   6.151   4.815
 7221SOL    HW122562   3.230   6.096   4.733
 7221SOL    HW222563   3.227   6.093   4.896
 7222SOL     OW22564   6.254   6.478   3.532
 7222SOL    HW122565   6.347   6.494   3.566
 7222SOL    HW222566   6.240   6.380   3.520
 7223SOL     OW22567   2.334   1.872   0.229
 7223SOL    HW122568   2.391   1.840   0.153
 7223SOL    HW222569   2.374   1.955   0.268
 7224SOL     OW22570   4.454   2.482   3.598
 7224SOL    HW122571   4.415   2.478   3.690
 7224SOL    HW222572   4.535   2.424   3.593
 7225SOL     OW22573   1.985   0.017   0.834
 7225SOL    HW122574   2.081   7.017   0.834
 7225SOL    HW222575   1.944   7.016   0.746
 7226SOL     OW22576   5.936   1.033   0.445
 7226SOL    HW122577   5.975   1.114   0.401
 7226SOL    HW222578   5.838   1.047   0.459
 7227SOL     OW22579   2.502   0.488   2.352
 7227SOL    HW122580   2.551   0.557   2.405
 7227SOL    HW222581   2.565   0.441   2.291
 7228SOL     OW22582   0.689   2.120   2.390
 7228SOL    HW122583   0.637   2.056   2.446
 7228SOL    HW222584   0.690   2.088   2.295
 7229SOL     OW22585   6.545   0.224   4.552
 7229SOL    HW122586   6.610   0.155   4.585
 7229SOL    HW222587   6.498   0.188   4.471
 7230SOL     OW22588   2.883   5.145   3.930
 7230SOL    HW122589   2.819   5.074   3.901
 7230SOL    HW222590   2.947   5.107   3.997
 7231SOL     OW22591   4.064   1.349   6.965
 7231SOL    HW122592   4.070   1.261   7.013
 7231SOL    HW222593   3.976   1.355   6.917
 7232SOL     OW22594   5.092   6.772   2.813
 7232SOL    HW122595   5.061   6.838   2.745
 7232SOL    HW222596   5.104   6.817   2.901
 7233SOL     OW22597   5.982   2.026   6.119
 7233SOL    HW122598   6.067   1.982   6.091
 7233SOL    HW222599   5.905   1.967   6.098
 7234SOL     OW22600   4.824   3.755   3.334
 7234SOL    HW122601   4.836   3.719   3.242
 7234SOL    HW222602   4.788   3.848   3.329
 7235SOL     OW22603   6.224   5.706   1.754
 7235SOL    HW122604   6.274   5.676   1.835
 7235SOL    HW222605   6.289   5.719   1.679
 7236SOL     OW22606   1.999   2.827   2.997
 7236SOL    HW122607   2.069   2.893   2.970
 7236SOL    HW222608   2.040   2.735   3.000
 7237SOL     OW22609   5.249   0.243   6.899
 7237SOL    HW122610   5.235   0.255   6.801
 7237SOL    HW222611   5.333   0.191   6.915
 7238SOL     OW22612   4.956   2.860   6.712
 7238SOL    HW122613   4.987   2.955   6.709
 7238SOL    HW222614   5.034   2.798   6.710
 7239SOL     OW22615   0.537   3.411   2.272
 7239SOL    HW122616   0.483   3.464   2.207
 7239SOL    HW222617   0.511   3.315   2.268
 7240SOL     OW22618   6.826   1.444   5.970
 7240SOL    HW122619   6.736   1.450   5.927
 7240SOL    HW222620   6.832   1.511   6.045
 7241SOL     OW22621   2.181   0.840   0.755
 7241SOL    HW122622   2.118   0.918   0.757
 7241SOL    HW222623   2.258   0.857   0.817
 7242SOL     OW22624   0.385   6.095   4.964
 7242SOL    HW122625   0.478   6.058   4.970
 7242SOL    HW222626   0.322   6.035   5.014
 7243SOL     OW22627   0.193   3.509   6.128
 7243SOL    HW122628   0.150   3.581   6.182
 7243SOL    HW222629   0.240   3.551   6.050
 7244SOL     OW22630   0.223   6.471   6.991
 7244SOL    HW122631   0.153   6.404   7.014
 7244SOL    HW222632   0.216   6.550   0.026
 7245SOL     OW22633   1.611   2.338   6.722
 7245SOL    HW122634   1.686   2.351   6.657
 7245SOL    HW222635   1.559   2.257   6.696
 7246SOL     OW22636   2.983   0.658   4.734
 7246SOL    HW122637   3.018   0.608   4.654
 7246SOL    HW222638   2.978   0.755   4.712
 7247SOL     OW22639   3.087   2.373   5.549
 7247SOL    HW122640   3.150   2.308   5.508
 7247SOL    HW222641   3.066   2.446   5.484
 7248SOL     OW22642   3.042   0.544   4.160
 7248SOL    HW122643   3.047   0.563   4.062
 7248SOL    HW222644   2.993   0.458   4.175
 7249SOL     OW22645   4.222   4.689   2.029
 7249SOL    HW122646   4.288   4.627   2.071
 7249SOL    HW222647   4.189   4.649   1.943
 7250SOL     OW22648   5.178   4.762   6.177
 7250SOL    HW122649   5.149   4.834   6.114
 7250SOL    HW222650   5.272   4.779   6.206
 7251SOL     OW22651   1.062   6.608   6.104
 7251SOL    HW122652   1.077   6.636   6.199
 7251SOL    HW222653   1.050   6.508   6.101
 7252SOL     OW22654   3.057   4.039   1.930
 7252SOL    HW122655   3.017   3.964   1.982
 7252SOL    HW222656   3.028   4.127   1.969
 7253SOL     OW22657   1.621   6.783   6.087
 7253SOL    HW122658   1.659   6.722   6.157
 7253SOL    HW222659   1.529   6.753   6.064
 7254SOL     OW22660   5.489   4.660   3.620
 7254SOL    HW122661   5.518   4.738   3.675
 7254SOL    HW222662   5.513   4.575   3.667
 7255SOL     OW22663   5.272   3.241   6.715
 7255SOL    HW122664   5.234   3.258   6.806
 7255SOL    HW222665   5.277   3.142   6.698
 7256SOL     OW22666   3.802   6.637   5.544
 7256SOL    HW122667   3.850   6.551   5.529
 7256SOL    HW222668   3.717   6.638   5.492
 7257SOL     OW22669   0.086   1.956   5.213
 7257SOL    HW122670   7.025   1.998   5.188
 7257SOL    HW222671   0.089   1.942   5.312
 7258SOL     OW22672   5.482   2.449   1.790
 7258SOL    HW122673   5.554   2.415   1.851
 7258SOL    HW222674   5.509   2.538   1.753
 7259SOL     OW22675   1.377   3.460   3.075
 7259SOL    HW122676   1.447   3.531   3.079
 7259SOL    HW222677   1.290   3.501   3.046
 7260SOL     OW22678   5.210   2.509   1.081
 7260SOL    HW122679   5.131   2.543   1.132
 7260SOL    HW222680   5.256   2.438   1.135
 7261SOL     OW22681   0.110   4.047   0.847
 7261SOL    HW122682   0.196   4.014   0.808
 7261SOL    HW222683   0.126   4.074   0.942
 7262SOL     OW22684   5.582   1.346   6.224
 7262SOL    HW122685   5.529   1.382   6.301
 7262SOL    HW222686   5.676   1.331   6.254
 7263SOL     OW22687   0.198   6.954   0.281
 7263SOL    HW122688   0.190   6.860   0.312
 7263SOL    HW222689   0.251   7.007   0.347
 7264SOL     OW22690   5.701   1.103   1.092
 7264SOL    HW122691   5.610   1.141   1.106
 7264SOL    HW222692   5.756   1.167   1.038
 7265SOL     OW22693   5.982   5.481   4.325
 7265SOL    HW122694   5.967   5.527   4.238
 7265SOL    HW222695   5.983   5.382   4.310
 7266SOL     OW22696   6.957   0.341   3.361
 7266SOL    HW122697   6.931   0.312   3.453
 7266SOL    HW222698   0.001   0.412   3.367
 7267SOL     OW22699   6.514   6.484   4.830
 7267SOL    HW122700   6.567   6.416   4.882
 7267SOL    HW222701   6.423   6.448   4.812
 7268SOL     OW22702   6.966   5.564   4.532
 7268SOL    HW122703   6.874   5.572   4.570
 7268SOL    HW222704   7.017   5.649   4.551
 7269SOL     OW22705   1.921   6.232   5.881
 7269SOL    HW122706   1.842   6.182   5.916
 7269SOL    HW222707   1.901   6.330   5.883
 7270SOL     OW22708   6.959   2.034   4.234
 7270SOL    HW122709   6.988   2.033   4.138
 7270SOL    HW222710   6.876   2.089   4.243
 7271SOL     OW22711   1.838   5.139   3.845
 7271SOL    HW122712   1.829   5.195   3.763
 7271SOL    HW222713   1.819   5.043   3.822
 7272SOL     OW22714   6.476   5.989   2.098
 7272SOL    HW122715   6.477   5.890   2.093
 7272SOL    HW222716   6.564   6.025   2.069
 7273SOL     OW22717   5.378   3.333   6.236
 7273SOL    HW122718   5.361   3.371   6.326
 7273SOL    HW222719   5.307   3.267   6.213
 7274SOL     OW22720   0.325   4.059   6.814
 7274SOL    HW122721   0.404   4.000   6.806
 7274SOL    HW222722   0.243   4.004   6.833
 7275SOL     OW22723   0.362   6.437   2.768
 7275SOL    HW122724   0.343   6.365   2.834
 7275SOL    HW222725   0.279   6.489   2.751
 7276SOL     OW22726   5.300   0.018   3.732
 7276SOL    HW122727   5.372   0.050   3.793
 7276SOL    HW222728   5.309   6.944   3.720
 7277SOL     OW22729   4.973   0.234   5.659
 7277SOL    HW122730   5.009   0.245   5.566
 7277SOL    HW222731   4.901   0.164   5.658
 7278SOL     OW22732   3.063   3.863   1.572
 7278SOL    HW122733   3.131   3.909   1.630
 7278SOL    HW222734   2.977   3.914   1.575
 7279SOL     OW22735   4.138   6.438   0.115
 7279SOL    HW122736   4.096   6.498   0.183
 7279SOL    HW222737   4.235   6.428   0.135
 7280SOL     OW22738   5.783   7.009   4.904
 7280SOL    HW122739   5.856   6.979   4.965
 7280SOL    HW222740   5.700   6.956   4.922
 7281SOL     OW22741   2.986   1.656   0.153
 7281SOL    HW122742   3.049   1.678   0.228
 7281SOL    HW222743   2.935   1.737   0.127
 7282SOL     OW22744   6.292   4.993   2.693
 7282SOL    HW122745   6.205   5.028   2.730
 7282SOL    HW222746   6.343   4.948   2.766
 7283SOL     OW22747   3.019   1.302   3.586
 7283SOL    HW122748   3.026   1.311   3.487
 7283SOL    HW222749   2.931   1.339   3.617
 7284SOL     OW22750   0.454   3.443   5.297
 7284SOL    HW122751   0.502   3.456   5.384
 7284SOL    HW222752   0.369   3.495   5.297
 7285SOL     OW22753   5.117   3.861   2.297
 7285SOL    HW122754   5.187   3.800   2.260
 7285SOL    HW222755   5.160   3.942   2.336
 7286SOL     OW22756   3.219   1.807   0.982
 7286SOL    HW122757   3.180   1.715   0.973
 7286SOL    HW222758   3.145   1.873   0.996
 7287SOL     OW22759   0.698   2.193   6.718
 7287SOL    HW122760   0.757   2.129   6.669
 7287SOL    HW222761   0.611   2.202   6.669
 7288SOL     OW22762   3.791   0.577   6.575
 7288SOL    HW122763   3.733   0.657   6.589
 7288SOL    HW222764   3.871   0.602   6.521
 7289SOL     OW22765   6.424   1.639   3.397
 7289SOL    HW122766   6.457   1.551   3.431
 7289SOL    HW222767   6.331   1.655   3.428
 7290SOL     OW22768   2.670   6.131   5.282
 7290SOL    HW122769   2.629   6.057   5.334
 7290SOL    HW222770   2.725   6.188   5.343
 7291SOL     OW22771   1.896   0.045   1.646
 7291SOL    HW122772   1.924   0.122   1.589
 7291SOL    HW222773   1.797   0.045   1.656
 7292SOL     OW22774   2.412   0.536   4.534
 7292SOL    HW122775   2.442   0.608   4.472
 7292SOL    HW222776   2.407   0.572   4.628
 7293SOL     OW22777   1.544   1.351   5.138
 7293SOL    HW122778   1.616   1.421   5.137
 7293SOL    HW222779   1.537   1.309   5.048
 7294SOL     OW22780   2.828   5.373   0.790
 7294SOL    HW122781   2.885   5.333   0.862
 7294SOL    HW222782   2.837   5.472   0.790
 7295SOL     OW22783   1.099   2.886   0.587
 7295SOL    HW122784   1.167   2.893   0.514
 7295SOL    HW222785   1.032   2.959   0.577
 7296SOL     OW22786   2.853   4.980   1.121
 7296SOL    HW122787   2.918   4.974   1.197
 7296SOL    HW222788   2.766   5.015   1.155
 7297SOL     OW22789   3.752   5.768   1.321
 7297SOL    HW122790   3.811   5.707   1.375
 7297SOL    HW222791   3.773   5.863   1.345
 7298SOL     OW22792   4.959   4.338   5.938
 7298SOL    HW122793   5.008   4.262   5.981
 7298SOL    HW222794   5.008   4.368   5.857
 7299SOL     OW22795   0.227   1.588   0.026
 7299SOL    HW122796   0.239   1.643   0.108
 7299SOL    HW222797   0.317   1.561   7.016
 7300SOL     OW22798   5.827   5.417   2.313
 7300SOL    HW122799   5.746   5.415   2.254
 7300SOL    HW222800   5.832   5.505   2.361
 7301SOL     OW22801   6.351   0.748   4.438
 7301SOL    HW122802   6.338   0.650   4.424
 7301SOL    HW222803   6.286   0.799   4.382
 7302SOL     OW22804   0.819   1.295   6.177
 7302SOL    HW122805   0.808   1.393   6.157
 7302SOL    HW222806   0.737   1.246   6.147
 7303SOL     OW22807   5.070   0.641   6.554
 7303SOL    HW122808   4.980   0.668   6.588
 7303SOL    HW222809   5.139   0.705   6.587
 7304SOL     OW22810   3.665   4.287   7.010
 7304SOL    HW122811   3.762   4.267   7.002
 7304SOL    HW222812   3.651   4.359   0.052
 7305SOL     OW22813   4.720   1.858   0.752
 7305SOL    HW122814   4.803   1.896   0.712
 7305SOL    HW222815   4.645   1.923   0.740
 7306SOL     OW22816   5.231   3.367   1.198
 7306SOL    HW122817   5.259   3.363   1.102
 7306SOL    HW222818   5.206   3.276   1.230
 7307SOL     OW22819   3.086   0.281   1.759
 7307SOL    HW122820   3.182   0.274   1.731
 7307SOL    HW222821   3.048   0.367   1.725
 7308SOL     OW22822   6.960   4.081   5.519
 7308SOL    HW122823   6.953   4.084   5.420
 7308SOL    HW222824   7.009   4.162   5.552
 7309SOL     OW22825   5.467   5.998   0.612
 7309SOL    HW122826   5.443   6.083   0.658
 7309SOL    HW222827   5.416   5.990   0.527
 7310SOL     OW22828   1.985   3.763   1.506
 7310SOL    HW122829   2.071   3.717   1.482
 7310SOL    HW222830   2.005   3.850   1.550
 7311SOL     OW22831   3.544   2.047   2.184
 7311SOL    HW122832   3.613   2.117   2.164
 7311SOL    HW222833   3.454   2.079   2.154
 7312SOL     OW22834   0.294   3.348   5.792
 7312SOL    HW122835   0.292   3.447   5.803
 7312SOL    HW222836   0.318   3.325   5.697
 7313SOL     OW22837   4.341   2.220   6.309
 7313SOL    HW122838   4.403   2.294   6.283
 7313SOL    HW222839   4.280   2.198   6.232
 7314SOL     OW22840   6.495   3.498   5.688
 7314SOL    HW122841   6.558   3.451   5.627
 7314SOL    HW222842   6.516   3.474   5.783
 7315SOL     OW22843   6.819   0.346   2.687
 7315SOL    HW122844   6.848   0.298   2.605
 7315SOL    HW222845   6.809   0.444   2.667
 7316SOL     OW22846   3.159   3.462   6.395
 7316SOL    HW122847   3.187   3.555   6.416
 7316SOL    HW222848   3.061   3.461   6.373
 7317SOL     OW22849   4.810   0.870   2.420
 7317SOL    HW122850   4.731   0.921   2.387
 7317SOL    HW222851   4.780   0.781   2.454
 7318SOL     OW22852   0.957   1.930   0.567
 7318SOL    HW122853   0.874   1.878   0.584
 7318SOL    HW222854   0.963   1.953   0.470
 7319SOL     OW22855   6.283   3.805   6.151
 7319SOL    HW122856   6.285   3.753   6.236
 7319SOL    HW222857   6.188   3.823   6.125
 7320SOL     OW22858   6.416   3.532   1.785
 7320SOL    HW122859   6.451   3.625   1.771
 7320SOL    HW222860   6.344   3.534   1.854
 7321SOL     OW22861   3.149   6.337   5.285
 7321SOL    HW122862   3.142   6.352   5.187
 7321SOL    HW222863   3.072   6.381   5.332
 7322SOL     OW22864   0.426   2.533   2.728
 7322SOL    HW122865   0.470   2.621   2.708
 7322SOL    HW222866   0.475   2.460   2.680
 7323SOL     OW22867   2.250   2.321   1.797
 7323SOL    HW122868   2.198   2.397   1.759
 7323SOL    HW222869   2.329   2.302   1.739
 7324SOL     OW22870   5.075   6.452   2.573
 7324SOL    HW122871   5.061   6.466   2.476
 7324SOL    HW222872   5.146   6.515   2.606
 7325SOL     OW22873   4.307   6.954   6.738
 7325SOL    HW122874   4.262   6.894   6.803
 7325SOL    HW222875   4.257   0.015   6.731
 7326SOL     OW22876   2.262   6.627   5.520
 7326SOL    HW122877   2.245   6.617   5.618
 7326SOL    HW222878   2.210   6.705   5.485
 7327SOL     OW22879   6.505   3.070   5.269
 7327SOL    HW122880   6.528   3.060   5.172
 7327SOL    HW222881   6.548   2.996   5.322
 7328SOL     OW22882   3.379   0.367   6.356
 7328SOL    HW122883   3.362   0.318   6.441
 7328SOL    HW222884   3.477   0.383   6.346
 7329SOL     OW22885   4.510   3.753   1.678
 7329SOL    HW122886   4.537   3.840   1.719
 7329SOL    HW222887   4.541   3.750   1.583
 7330SOL     OW22888   3.034   2.088   6.905
 7330SOL    HW122889   2.942   2.093   6.866
 7330SOL    HW222890   3.060   1.992   6.918
 7331SOL     OW22891   5.548   0.190   1.659
 7331SOL    HW122892   5.610   0.165   1.585
 7331SOL    HW222893   5.599   0.190   1.746
 7332SOL     OW22894   2.191   5.942   0.338
 7332SOL    HW122895   2.111   5.946   0.278
 7332SOL    HW222896   2.184   5.863   0.399
 7333SOL     OW22897   0.087   3.233   3.692
 7333SOL    HW122898   0.093   3.141   3.731
 7333SOL    HW222899   0.023   3.288   3.746
 7334SOL     OW22900   3.924   6.269   0.111
 7334SOL    HW122901   4.004   6.321   0.081
 7334SOL    HW222902   3.954   6.182   0.150
 7335SOL     OW22903   1.944   2.933   2.716
 7335SOL    HW122904   1.922   2.844   2.756
 7335SOL    HW222905   1.923   2.932   2.619
 7336SOL     OW22906   1.672   6.053   3.060
 7336SOL    HW122907   1.730   6.116   3.008
 7336SOL    HW222908   1.594   6.026   3.004
 7337SOL     OW22909   0.363   2.702   2.183
 7337SOL    HW122910   0.277   2.651   2.175
 7337SOL    HW222911   0.355   2.788   2.133
 7338SOL     OW22912   6.330   2.767   1.242
 7338SOL    HW122913   6.378   2.849   1.273
 7338SOL    HW222914   6.389   2.687   1.254
 7339SOL     OW22915   5.007   6.203   3.733
 7339SOL    HW122916   4.963   6.203   3.644
 7339SOL    HW222917   4.964   6.135   3.792
 7340SOL     OW22918   1.385   0.935   0.223
 7340SOL    HW122919   1.402   1.033   0.213
 7340SOL    HW222920   1.471   0.885   0.207
 7341SOL     OW22921   6.865   2.645   6.799
 7341SOL    HW122922   6.865   2.578   6.725
 7341SOL    HW222923   6.874   2.737   6.761
 7342SOL     OW22924   6.508   0.967   1.613
 7342SOL    HW122925   6.488   0.958   1.710
 7342SOL    HW222926   6.498   1.063   1.586
 7343SOL     OW22927   4.153   2.786   6.891
 7343SOL    HW122928   4.177   2.747   6.981
 7343SOL    HW222929   4.069   2.839   6.899
 7344SOL     OW22930   1.092   6.783   5.903
 7344SOL    HW122931   1.068   6.703   5.959
 7344SOL    HW222932   1.041   6.780   5.817
 7345SOL     OW22933   3.417   3.402   5.676
 7345SOL    HW122934   3.430   3.481   5.736
 7345SOL    HW222935   3.412   3.434   5.581
 7346SOL     OW22936   4.255   6.353   2.598
 7346SOL    HW122937   4.251   6.374   2.501
 7346SOL    HW222938   4.173   6.387   2.643
 7347SOL     OW22939   0.468   1.491   0.487
 7347SOL    HW122940   0.538   1.541   0.437
 7347SOL    HW222941   0.403   1.451   0.422
 7348SOL     OW22942   1.111   3.427   3.994
 7348SOL    HW122943   1.093   3.522   4.020
 7348SOL    HW222944   1.209   3.415   3.979
 7349SOL     OW22945   4.050   6.873   1.821
 7349SOL    HW122946   4.141   6.914   1.813
 7349SOL    HW222947   4.050   6.808   1.896
 7350SOL     OW22948   2.602   1.593   5.558
 7350SOL    HW122949   2.517   1.604   5.608
 7350SOL    HW222950   2.588   1.533   5.479
 7351SOL     OW22951   5.389   5.176   3.312
 7351SOL    HW122952   5.442   5.223   3.241
 7351SOL    HW222953   5.294   5.170   3.284
 7352SOL     OW22954   1.248   2.011   2.892
 7352SOL    HW122955   1.283   1.953   2.966
 7352SOL    HW222956   1.176   1.962   2.843
 7353SOL     OW22957   0.465   0.474   6.895
 7353SOL    HW122958   0.553   0.497   6.936
 7353SOL    HW222959   0.479   0.403   6.825
 7354SOL     OW22960   1.668   0.797   4.527
 7354SOL    HW122961   1.675   0.884   4.575
 7354SOL    HW222962   1.723   0.800   4.443
 7355SOL     OW22963   0.359   2.092   6.706
 7355SOL    HW122964   0.417   2.174   6.703
 7355SOL    HW222965   0.329   2.076   6.800
 7356SOL     OW22966   3.623   4.163   6.209
 7356SOL    HW122967   3.645   4.165   6.307
 7356SOL    HW222968   3.702   4.131   6.158
 7357SOL     OW22969   3.312   6.071   2.217
 7357SOL    HW122970   3.367   6.020   2.150
 7357SOL    HW222971   3.296   6.164   2.183
 7358SOL     OW22972   6.364   3.208   2.299
 7358SOL    HW122973   6.460   3.212   2.326
 7358SOL    HW222974   6.325   3.122   2.331
 7359SOL     OW22975   4.373   2.638   5.805
 7359SOL    HW122976   4.429   2.626   5.723
 7359SOL    HW222977   4.430   2.673   5.879
 7360SOL     OW22978   2.260   3.608   5.596
 7360SOL    HW122979   2.269   3.551   5.514
 7360SOL    HW222980   2.204   3.688   5.575
 7361SOL     OW22981   5.484   0.980   2.752
 7361SOL    HW122982   5.420   0.927   2.696
 7361SOL    HW222983   5.434   1.048   2.805
 7362SOL     OW22984   3.073   6.007   6.328
 7362SOL    HW122985   3.149   5.950   6.360
 7362SOL    HW222986   3.052   6.077   6.396
 7363SOL     OW22987   4.523   0.816   1.481
 7363SOL    HW122988   4.540   0.871   1.400
 7363SOL    HW222989   4.435   0.769   1.472
 7364SOL     OW22990   4.642   0.170   1.893
 7364SOL    HW122991   4.679   0.113   1.966
 7364SOL    HW222992   4.555   0.211   1.924
 7365SOL     OW22993   0.125   6.019   2.235
 7365SOL    HW122994   0.026   6.020   2.251
 7365SOL    HW222995   0.172   5.989   2.318
 7366SOL     OW22996   1.931   6.716   5.332
 7366SOL    HW122997   1.876   6.678   5.258
 7366SOL    HW222998   2.001   6.777   5.294
 7367SOL     OW22999   3.939   2.427   0.281
 7367SOL    HW123000   3.954   2.440   0.183
 7367SOL    HW223001   3.952   2.330   0.304
 7368SOL     OW23002   3.670   2.918   2.885
 7368SOL    HW123003   3.671   2.922   2.984
 7368SOL    HW223004   3.628   2.832   2.855
 7369SOL     OW23005   3.531   2.641   1.101
 7369SOL    HW123006   3.469   2.664   1.176
 7369SOL    HW223007   3.561   2.546   1.111
 7370SOL     OW23008   2.646   2.136   5.550
 7370SOL    HW123009   2.727   2.165   5.499
 7370SOL    HW223010   2.637   2.037   5.545
 7371SOL     OW23011   3.152   6.972   4.024
 7371SOL    HW123012   3.064   6.931   4.000
 7371SOL    HW223013   3.178   0.013   3.954
 7372SOL     OW23014   4.216   6.583   4.730
 7372SOL    HW123015   4.170   6.594   4.818
 7372SOL    HW223016   4.301   6.532   4.744
 7373SOL     OW23017   5.552   2.011   4.819
 7373SOL    HW123018   5.629   2.051   4.868
 7373SOL    HW223019   5.486   1.974   4.884
 7374SOL     OW23020   1.493   2.026   4.517
 7374SOL    HW123021   1.406   1.986   4.545
 7374SOL    HW223022   1.562   1.954   4.510
 7375SOL     OW23023   2.379   2.771   1.847
 7375SOL    HW123024   2.315   2.720   1.905
 7375SOL    HW223025   2.359   2.869   1.854
 7376SOL     OW23026   1.135   2.966   1.460
 7376SOL    HW123027   1.155   3.063   1.448
 7376SOL    HW223028   1.037   2.954   1.474
 7377SOL     OW23029   3.966   5.254   0.989
 7377SOL    HW123030   3.985   5.350   0.969
 7377SOL    HW223031   4.027   5.196   0.935
 7378SOL     OW23032   1.289   6.811   4.542
 7378SOL    HW123033   1.238   6.890   4.575
 7378SOL    HW223034   1.311   6.824   4.445
 7379SOL     OW23035   2.579   0.233   2.210
 7379SOL    HW123036   2.499   0.185   2.245
 7379SOL    HW223037   2.623   0.177   2.139
 7380SOL     OW23038   6.411   4.053   3.590
 7380SOL    HW123039   6.440   3.990   3.518
 7380SOL    HW223040   6.440   4.017   3.679
 7381SOL     OW23041   4.049   2.654   0.867
 7381SOL    HW123042   3.993   2.704   0.801
 7381SOL    HW223043   4.018   2.672   0.960
 7382SOL     OW23044   6.838   1.846   6.096
 7382SOL    HW123045   6.807   1.898   6.176
 7382SOL    HW223046   6.830   1.903   6.014
 7383SOL     OW23047   2.255   5.878   1.924
 7383SOL    HW123048   2.209   5.923   2.001
 7383SOL    HW223049   2.189   5.864   1.850
 7384SOL     OW23050   6.663   6.916   1.349
 7384SOL    HW123051   6.734   6.846   1.353
 7384SOL    HW223052   6.574   6.876   1.372
 7385SOL     OW23053   3.066   5.064   2.700
 7385SOL    HW123054   3.008   5.059   2.781
 7385SOL    HW223055   3.086   5.160   2.679
 7386SOL     OW23056   6.601   3.043   6.448
 7386SOL    HW123057   6.661   3.122   6.441
 7386SOL    HW223058   6.558   3.041   6.539
 7387SOL     OW23059   6.537   5.482   5.771
 7387SOL    HW123060   6.523   5.580   5.756
 7387SOL    HW223061   6.545   5.435   5.683
 7388SOL     OW23062   1.337   5.204   2.934
 7388SOL    HW123063   1.329   5.264   2.854
 7388SOL    HW223064   1.350   5.110   2.903
 7389SOL     OW23065   0.021   3.571   0.246
 7389SOL    HW123066   6.991   3.637   0.195
 7389SOL    HW223067   6.988   3.500   0.284
 7390SOL     OW23068   2.565   1.946   2.023
 7390SOL    HW123069   2.471   1.951   1.989
 7390SOL    HW223070   2.584   1.853   2.054
 7391SOL     OW23071   4.051   3.496   3.010
 7391SOL    HW123072   3.961   3.461   3.034
 7391SOL    HW223073   4.116   3.421   3.003
 7392SOL     OW23074   3.364   6.270   6.999
 7392SOL    HW123075   3.350   6.197   0.040
 7392SOL    HW223076   3.277   6.289   6.952
 7393SOL     OW23077   6.709   4.403   3.329
 7393SOL    HW123078   6.691   4.381   3.233
 7393SOL    HW223079   6.624   4.400   3.381
 7394SOL     OW23080   2.132   3.024   6.457
 7394SOL    HW123081   2.069   2.947   6.447
 7394SOL    HW223082   2.211   3.010   6.398
 7395SOL     OW23083   2.228   3.271   1.467
 7395SOL    HW123084   2.195   3.240   1.556
 7395SOL    HW223085   2.320   3.310   1.478
 7396SOL     OW23086   2.367   6.113   1.657
 7396SOL    HW123087   2.404   6.203   1.676
 7396SOL    HW223088   2.292   6.093   1.719
 7397SOL     OW23089   4.927   3.206   4.562
 7397SOL    HW123090   4.912   3.305   4.554
 7397SOL    HW223091   4.905   3.177   4.655
 7398SOL     OW23092   1.060   4.765   3.163
 7398SOL    HW123093   0.994   4.837   3.187
 7398SOL    HW223094   1.118   4.746   3.242
 7399SOL     OW23095   6.587   2.832   4.427
 7399SOL    HW123096   6.542   2.891   4.494
 7399SOL    HW223097   6.519   2.776   4.380
 7400SOL     OW23098   4.698   2.182   5.316
 7400SOL    HW123099   4.714   2.177   5.218
 7400SOL    HW223100   4.613   2.233   5.333
 7401SOL     OW23101   1.771   2.969   3.441
 7401SOL    HW123102   1.764   3.056   3.391
 7401SOL    HW223103   1.707   2.903   3.400
 7402SOL     OW23104   2.621   5.041   5.520
 7402SOL    HW123105   2.523   5.057   5.512
 7402SOL    HW223106   2.639   4.978   5.596
 7403SOL     OW23107   1.850   3.189   2.856
 7403SOL    HW123108   1.905   3.144   2.786
 7403SOL    HW223109   1.911   3.229   2.925
 7404SOL     OW23110   3.327   4.145   1.516
 7404SOL    HW123111   3.351   4.238   1.546
 7404SOL    HW223112   3.273   4.101   1.588
 7405SOL     OW23113   2.839   5.277   5.175
 7405SOL    HW123114   2.860   5.245   5.082
 7405SOL    HW223115   2.785   5.207   5.222
 7406SOL     OW23116   1.083   1.737   5.217
 7406SOL    HW123117   1.004   1.780   5.173
 7406SOL    HW223118   1.122   1.669   5.154
 7407SOL     OW23119   0.917   6.430   6.816
 7407SOL    HW123120   0.935   6.335   6.790
 7407SOL    HW223121   0.838   6.434   6.878
 7408SOL     OW23122   3.174   4.368   5.525
 7408SOL    HW123123   3.140   4.442   5.583
 7408SOL    HW223124   3.222   4.301   5.581
 7409SOL     OW23125   5.199   4.233   0.036
 7409SOL    HW123126   5.286   4.272   0.007
 7409SOL    HW223127   5.128   4.255   6.994
 7410SOL     OW23128   0.482   0.506   0.440
 7410SOL    HW123129   0.495   0.602   0.467
 7410SOL    HW223130   0.444   0.502   0.348
 7411SOL     OW23131   1.650   1.560   5.848
 7411SOL    HW123132   1.733   1.561   5.903
 7411SOL    HW223133   1.673   1.543   5.752
 7412SOL     OW23134   4.567   6.633   0.359
 7412SOL    HW123135   4.534   6.619   0.266
 7412SOL    HW223136   4.657   6.676   0.357
 7413SOL     OW23137   4.832   4.371   3.352
 7413SOL    HW123138   4.865   4.279   3.332
 7413SOL    HW223139   4.732   4.372   3.352
 7414SOL     OW23140   2.203   2.284   4.275
 7414SOL    HW123141   2.245   2.207   4.321
 7414SOL    HW223142   2.165   2.347   4.343
 7415SOL     OW23143   3.046   6.530   6.448
 7415SOL    HW123144   3.098   6.478   6.516
 7415SOL    HW223145   3.087   6.516   6.358
 7416SOL     OW23146   1.181   1.201   2.649
 7416SOL    HW123147   1.130   1.256   2.716
 7416SOL    HW223148   1.150   1.226   2.557
 7417SOL     OW23149   1.456   2.520   2.856
 7417SOL    HW123150   1.494   2.612   2.857
 7417SOL    HW223151   1.511   2.461   2.797
 7418SOL     OW23152   1.676   4.725   6.747
 7418SOL    HW123153   1.720   4.684   6.827
 7418SOL    HW223154   1.743   4.734   6.673
 7419SOL     OW23155   6.021   3.440   3.686
 7419SOL    HW123156   5.949   3.493   3.642
 7419SOL    HW223157   6.053   3.368   3.625
 7420SOL     OW23158   6.751   6.044   1.782
 7420SOL    HW123159   6.737   6.061   1.879
 7420SOL    HW223160   6.843   6.006   1.768
 7421SOL     OW23161   4.443   3.791   1.392
 7421SOL    HW123162   4.461   3.866   1.329
 7421SOL    HW223163   4.350   3.800   1.429
 7422SOL     OW23164   6.295   3.617   2.273
 7422SOL    HW123165   6.377   3.559   2.270
 7422SOL    HW223166   6.271   3.637   2.368
 7423SOL     OW23167   5.556   1.977   5.367
 7423SOL    HW123168   5.585   2.066   5.332
 7423SOL    HW223169   5.542   1.983   5.466
 7424SOL     OW23170   6.361   1.039   5.246
 7424SOL    HW123171   6.417   1.007   5.323
 7424SOL    HW223172   6.399   1.002   5.161
 7425SOL     OW23173   5.329   6.891   0.202
 7425SOL    HW123174   5.394   6.955   0.161
 7425SOL    HW223175   5.241   6.936   0.215
 7426SOL     OW23176   3.368   2.253   5.848
 7426SOL    HW123177   3.377   2.309   5.766
 7426SOL    HW223178   3.277   2.211   5.850
 7427SOL     OW23179   3.682   1.577   3.681
 7427SOL    HW123180   3.583   1.585   3.673
 7427SOL    HW223181   3.708   1.480   3.682
 7428SOL     OW23182   3.952   6.374   5.854
 7428SOL    HW123183   4.023   6.330   5.799
 7428SOL    HW223184   3.868   6.381   5.800
 7429SOL     OW23185   1.326   6.484   3.678
 7429SOL    HW123186   1.369   6.432   3.605
 7429SOL    HW223187   1.265   6.553   3.639
 7430SOL     OW23188   6.867   4.322   1.833
 7430SOL    HW123189   6.962   4.348   1.847
 7430SOL    HW223190   6.832   4.276   1.915
 7431SOL     OW23191   2.229   2.768   4.331
 7431SOL    HW123192   2.287   2.793   4.253
 7431SOL    HW223193   2.174   2.688   4.307
 7432SOL     OW23194   1.996   0.588   3.789
 7432SOL    HW123195   2.053   0.667   3.813
 7432SOL    HW223196   1.963   0.544   3.873
 7433SOL     OW23197   2.655   0.036   6.758
 7433SOL    HW123198   2.710   0.024   6.840
 7433SOL    HW223199   2.558   0.030   6.781
 7434SOL     OW23200   4.890   6.058   6.202
 7434SOL    HW123201   4.844   5.969   6.201
 7434SOL    HW223202   4.918   6.080   6.295
 7435SOL     OW23203   4.644   6.154   1.940
 7435SOL    HW123204   4.565   6.199   1.900
 7435SOL    HW223205   4.614   6.071   1.987
 7436SOL     OW23206   4.570   4.458   6.272
 7436SOL    HW123207   4.591   4.363   6.296
 7436SOL    HW223208   4.638   4.493   6.208
 7437SOL     OW23209   2.903   5.445   1.550
 7437SOL    HW123210   2.810   5.447   1.512
 7437SOL    HW223211   2.943   5.355   1.535
 7438SOL     OW23212   1.797   0.805   0.487
 7438SOL    HW123213   1.825   0.711   0.465
 7438SOL    HW223214   1.717   0.803   0.547
 7439SOL     OW23215   1.687   5.170   5.311
 7439SOL    HW123216   1.764   5.234   5.314
 7439SOL    HW223217   1.722   5.077   5.299
 7440SOL     OW23218   5.429   3.031   4.012
 7440SOL    HW123219   5.381   3.109   4.053
 7440SOL    HW223220   5.480   2.983   4.084
 7441SOL     OW23221   5.929   6.590   3.101
 7441SOL    HW123222   5.835   6.622   3.090
 7441SOL    HW223223   5.975   6.592   3.012
 7442SOL     OW23224   5.996   0.900   6.193
 7442SOL    HW123225   6.055   0.980   6.201
 7442SOL    HW223226   5.900   0.929   6.193
 7443SOL     OW23227   0.031   5.411   1.905
 7443SOL    HW123228   7.024   5.483   1.843
 7443SOL    HW223229   6.988   5.394   1.975
 7444SOL     OW23230   6.616   0.744   6.082
 7444SOL    HW123231   6.523   0.760   6.048
 7444SOL    HW223232   6.680   0.802   6.031
 7445SOL     OW23233   3.801   6.912   1.419
 7445SOL    HW123234   3.810   7.011   1.428
 7445SOL    HW223235   3.714   6.890   1.374
 7446SOL     OW23236   5.167   2.780   0.534
 7446SOL    HW123237   5.098   2.759   0.604
 7446SOL    HW223238   5.251   2.811   0.579
 7447SOL     OW23239   6.993   4.567   0.159
 7447SOL    HW123240   6.911   4.513   0.142
 7447SOL    HW223241   6.972   4.641   0.222
 7448SOL     OW23242   5.412   6.349   6.092
 7448SOL    HW123243   5.353   6.430   6.096
 7448SOL    HW223244   5.479   6.361   6.019
 7449SOL     OW23245   0.604   5.326   0.124
 7449SOL    HW123246   0.565   5.255   0.183
 7449SOL    HW223247   0.550   5.334   0.041
 7450SOL     OW23248   5.484   1.781   5.755
 7450SOL    HW123249   5.460   1.869   5.714
 7450SOL    HW223250   5.553   1.735   5.698
 7451SOL     OW23251   5.673   5.645   2.686
 7451SOL    HW123252   5.607   5.654   2.611
 7451SOL    HW223253   5.624   5.644   2.773
 7452SOL     OW23254   6.279   6.358   4.729
 7452SOL    HW123255   6.234   6.290   4.671
 7452SOL    HW223256   6.210   6.407   4.783
 7453SOL     OW23257   5.149   5.666   6.375
 7453SOL    HW123258   5.141   5.721   6.292
 7453SOL    HW223259   5.114   5.719   6.453
 7454SOL     OW23260   3.455   1.547   0.267
 7454SOL    HW123261   3.537   1.584   0.222
 7454SOL    HW223262   3.468   1.550   0.366
 7455SOL     OW23263   6.012   2.946   2.592
 7455SOL    HW123264   5.917   2.970   2.568
 7455SOL    HW223265   6.074   2.985   2.524
 7456SOL     OW23266   2.590   2.276   4.955
 7456SOL    HW123267   2.573   2.344   4.883
 7456SOL    HW223268   2.689   2.267   4.970
 7457SOL     OW23269   2.482   0.112   4.209
 7457SOL    HW123270   2.569   0.147   4.245
 7457SOL    HW223271   2.413   0.111   4.281
 7458SOL     OW23272   1.043   6.991   4.944
 7458SOL    HW123273   0.973   0.034   4.960
 7458SOL    HW223274   1.034   6.955   4.851
 7459SOL     OW23275   6.470   1.326   2.289
 7459SOL    HW123276   6.488   1.228   2.284
 7459SOL    HW223277   6.374   1.341   2.314
 7460SOL     OW23278   1.517   6.762   0.082
 7460SOL    HW123279   1.454   6.782   0.157
 7460SOL    HW223280   1.593   6.827   0.084
 7461SOL     OW23281   0.061   6.296   5.623
 7461SOL    HW123282   0.015   6.209   5.609
 7461SOL    HW223283   0.159   6.286   5.604
 7462SOL     OW23284   0.866   5.692   0.939
 7462SOL    HW123285   0.814   5.700   0.854
 7462SOL    HW223286   0.803   5.678   1.016
 7463SOL     OW23287   3.547   4.315   0.797
 7463SOL    HW123288   3.577   4.354   0.710
 7463SOL    HW223289   3.460   4.358   0.823
 7464SOL     OW23290   0.407   5.745   4.757
 7464SOL    HW123291   0.487   5.802   4.739
 7464SOL    HW223292   0.336   5.801   4.801
 7465SOL     OW23293   2.621   5.225   0.413
 7465SOL    HW123294   2.609   5.177   0.326
 7465SOL    HW223295   2.602   5.322   0.400
 7466SOL     OW23296   0.417   0.604   5.680
 7466SOL    HW123297   0.481   0.537   5.717
 7466SOL    HW223298   0.467   0.672   5.626
 7467SOL     OW23299   0.351   2.682   6.306
 7467SOL    HW123300   0.317   2.604   6.358
 7467SOL    HW223301   0.331   2.668   6.209
 7468SOL     OW23302   5.795   3.017   4.654
 7468SOL    HW123303   5.738   3.061   4.724
 7468SOL    HW223304   5.888   3.053   4.660
 7469SOL     OW23305   6.690   2.161   0.134
 7469SOL    HW123306   6.619   2.210   0.084
 7469SOL    HW223307   6.720   2.215   0.212
 7470SOL     OW23308   5.764   4.063   3.377
 7470SOL    HW123309   5.858   4.057   3.342
 7470SOL    HW223310   5.713   4.131   3.325
 7471SOL     OW23311   5.202   5.877   6.114
 7471SOL    HW123312   5.208   5.953   6.179
 7471SOL    HW223313   5.209   5.912   6.021
 7472SOL     OW23314   6.730   0.555   5.548
 7472SOL    HW123315   6.826   0.535   5.569
 7472SOL    HW223316   6.689   0.603   5.625
 7473SOL     OW23317   4.373   6.979   3.975
 7473SOL    HW123318   4.317   6.897   3.960
 7473SOL    HW223319   4.314   0.033   3.990
 7474SOL     OW23320   6.007   2.120   6.885
 7474SOL    HW123321   6.013   2.116   6.785
 7474SOL    HW223322   5.930   2.065   6.916
 7475SOL     OW23323   4.574   2.018   2.297
 7475SOL    HW123324   4.486   2.045   2.335
 7475SOL    HW223325   4.647   2.065   2.346
 7476SOL     OW23326   2.219   2.394   2.691
 7476SOL    HW123327   2.156   2.469   2.713
 7476SOL    HW223328   2.312   2.430   2.684
 7477SOL     OW23329   0.472   3.355   4.688
 7477SOL    HW123330   0.525   3.431   4.725
 7477SOL    HW223331   0.412   3.389   4.615
 7478SOL     OW23332   5.677   2.866   5.053
 7478SOL    HW123333   5.579   2.848   5.059
 7478SOL    HW223334   5.707   2.913   5.137
 7479SOL     OW23335   5.223   2.978   6.786
 7479SOL    HW123336   5.206   3.012   6.879
 7479SOL    HW223337   5.313   2.934   6.783
 7480SOL     OW23338   2.555   5.597   2.928
 7480SOL    HW123339   2.461   5.602   2.893
 7480SOL    HW223340   2.584   5.687   2.958
 7481SOL     OW23341   5.881   4.388   6.486
 7481SOL    HW123342   5.949   4.457   6.509
 7481SOL    HW223343   5.927   4.306   6.451
 7482SOL     OW23344   4.206   2.227   2.578
 7482SOL    HW123345   4.248   2.137   2.586
 7482SOL    HW223346   4.228   2.281   2.659
 7483SOL     OW23347   4.856   1.833   4.443
 7483SOL    HW123348   4.836   1.916   4.391
 7483SOL    HW223349   4.954   1.813   4.438
 7484SOL     OW23350   1.871   5.569   4.623
 7484SOL    HW123351   1.915   5.539   4.538
 7484SOL    HW223352   1.817   5.651   4.606
 7485SOL     OW23353   2.554   0.338   4.045
 7485SOL    HW123354   2.490   0.271   4.081
 7485SOL    HW223355   2.643   0.295   4.031
 7486SOL     OW23356   0.617   5.983   0.250
 7486SOL    HW123357   0.609   5.946   0.342
 7486SOL    HW223358   0.526   6.007   0.216
 7487SOL     OW23359   4.606   0.726   3.371
 7487SOL    HW123360   4.645   0.803   3.420
 7487SOL    HW223361   4.618   0.642   3.425
 7488SOL     OW23362   1.276   6.021   4.222
 7488SOL    HW123363   1.326   5.938   4.244
 7488SOL    HW223364   1.327   6.101   4.254
 7489SOL     OW23365   6.240   3.805   7.022
 7489SOL    HW123366   6.317   3.742   0.007
 7489SOL    HW223367   6.155   3.754   7.025
 7490SOL     OW23368   1.462   2.172   2.825
 7490SOL    HW123369   1.391   2.112   2.864
 7490SOL    HW223370   1.466   2.159   2.726
 7491SOL     OW23371   4.718   3.130   0.886
 7491SOL    HW123372   4.648   3.076   0.839
 7491SOL    HW223373   4.675   3.183   0.959
 7492SOL     OW23374   1.819   0.831   4.004
 7492SOL    HW123375   1.907   0.791   3.976
 7492SOL    HW223376   1.744   0.776   3.966
 7493SOL     OW23377   6.649   3.755   5.657
 7493SOL    HW123378   6.668   3.801   5.571
 7493SOL    HW223379   6.598   3.670   5.639
 7494SOL     OW23380   5.810   0.535   3.465
 7494SOL    HW123381   5.747   0.605   3.497
 7494SOL    HW223382   5.796   0.451   3.518
 7495SOL     OW23383   2.194   3.091   4.727
 7495SOL    HW123384   2.255   3.013   4.710
 7495SOL    HW223385   2.194   3.113   4.824
 7496SOL     OW23386   6.158   3.227   3.573
 7496SOL    HW123387   6.207   3.182   3.498
 7496SOL    HW223388   6.180   3.182   3.660
 7497SOL     OW23389   1.477   6.568   0.985
 7497SOL    HW123390   1.410   6.605   0.921
 7497SOL    HW223391   1.517   6.485   0.947
 7498SOL     OW23392   3.060   0.833   3.639
 7498SOL    HW123393   3.097   0.858   3.729
 7498SOL    HW223394   3.012   0.911   3.600
 7499SOL     OW23395   4.192   2.184   3.876
 7499SOL    HW123396   4.106   2.140   3.849
 7499SOL    HW223397   4.188   2.210   3.972
 7500SOL     OW23398   3.720   6.763   3.619
 7500SOL    HW123399   3.636   6.801   3.659
 7500SOL    HW223400   3.744   6.816   3.538
 7501SOL     OW23401   5.788   2.871   3.743
 7501SOL    HW123402   5.776   2.825   3.655
 7501SOL    HW223403   5.723   2.947   3.750
 7502SOL     OW23404   3.822   0.440   4.358
 7502SOL    HW123405   3.805   0.412   4.264
 7502SOL    HW223406   3.738   0.430   4.411
 7503SOL     OW23407   1.796   5.707   0.824
 7503SOL    HW123408   1.864   5.735   0.891
 7503SOL    HW223409   1.792   5.775   0.751
 7504SOL     OW23410   0.459   6.143   2.346
 7504SOL    HW123411   0.482   6.056   2.302
 7504SOL    HW223412   0.392   6.192   2.291
 7505SOL     OW23413   0.433   1.718   5.298
 7505SOL    HW123414   0.515   1.760   5.259
 7505SOL    HW223415   0.418   1.754   5.390
 7506SOL     OW23416   3.052   2.013   3.165
 7506SOL    HW123417   3.064   1.919   3.196
 7506SOL    HW223418   3.068   2.018   3.067
 7507SOL     OW23419   6.491   3.733   4.818
 7507SOL    HW123420   6.580   3.694   4.843
 7507SOL    HW223421   6.453   3.684   4.740
 7508SOL     OW23422   1.802   5.727   0.194
 7508SOL    HW123423   1.844   5.686   0.275
 7508SOL    HW223424   1.808   5.662   0.118
 7509SOL     OW23425   5.040   4.333   0.252
 7509SOL    HW123426   5.110   4.298   0.190
 7509SOL    HW223427   5.061   4.305   0.345
 7510SOL     OW23428   4.050   3.269   4.135
 7510SOL    HW123429   3.991   3.193   4.110
 7510SOL    HW223430   4.120   3.281   4.064
 7511SOL     OW23431   3.290   5.447   2.957
 7511SOL    HW123432   3.341   5.365   2.982
 7511SOL    HW223433   3.312   5.472   2.862
 7512SOL     OW23434   2.808   0.577   6.359
 7512SOL    HW123435   2.886   0.525   6.325
 7512SOL    HW223436   2.813   0.584   6.459
 7513SOL     OW23437   2.063   2.602   3.507
 7513SOL    HW123438   2.074   2.659   3.426
 7513SOL    HW223439   1.968   2.570   3.513
 7514SOL     OW23440   1.970   4.311   3.761
 7514SOL    HW123441   1.955   4.300   3.859
 7514SOL    HW223442   2.066   4.293   3.740
 7515SOL     OW23443   6.580   4.334   5.175
 7515SOL    HW123444   6.671   4.293   5.186
 7515SOL    HW223445   6.510   4.263   5.174
 7516SOL     OW23446   1.424   5.510   6.271
 7516SOL    HW123447   1.426   5.591   6.212
 7516SOL    HW223448   1.349   5.450   6.243
 7517SOL     OW23449   1.186   2.629   6.933
 7517SOL    HW123450   1.244   2.548   6.927
 7517SOL    HW223451   1.090   2.603   6.920
 7518SOL     OW23452   4.837   3.048   4.037
 7518SOL    HW123453   4.824   3.114   3.963
 7518SOL    HW223454   4.762   2.982   4.037
 7519SOL     OW23455   4.847   0.285   4.662
 7519SOL    HW123456   4.917   0.311   4.728
 7519SOL    HW223457   4.793   0.209   4.700
 7520SOL     OW23458   1.522   1.501   1.965
 7520SOL    HW123459   1.563   1.424   2.014
 7520SOL    HW223460   1.569   1.585   1.991
 7521SOL     OW23461   5.387   1.685   4.715
 7521SOL    HW123462   5.452   1.717   4.646
 7521SOL    HW223463   5.395   1.742   4.797
 7522SOL     OW23464   1.038   6.418   4.072
 7522SOL    HW123465   0.981   6.337   4.085
 7522SOL    HW223466   1.119   6.394   4.018
 7523SOL     OW23467   5.439   0.713   5.962
 7523SOL    HW123468   5.342   0.694   5.977
 7523SOL    HW223469   5.475   0.649   5.893
 7524SOL     OW23470   6.797   2.637   4.422
 7524SOL    HW123471   6.713   2.687   4.443
 7524SOL    HW223472   6.850   2.688   4.355
 7525SOL     OW23473   4.399   6.883   0.030
 7525SOL    HW123474   4.300   6.872   0.023
 7525SOL    HW223475   4.441   6.793   0.041
 7526SOL     OW23476   2.189   3.275   1.751
 7526SOL    HW123477   2.247   3.343   1.797
 7526SOL    HW223478   2.108   3.258   1.806
 7527SOL     OW23479   4.061   6.014   4.102
 7527SOL    HW123480   4.124   5.938   4.115
 7527SOL    HW223481   3.971   5.979   4.074
 7528SOL     OW23482   5.515   2.012   0.358
 7528SOL    HW123483   5.590   2.009   0.293
 7528SOL    HW223484   5.432   1.975   0.316
 7529SOL     OW23485   6.132   1.642   3.387
 7529SOL    HW123486   6.132   1.660   3.289
 7529SOL    HW223487   6.057   1.580   3.409
 7530SOL     OW23488   6.868   1.525   2.421
 7530SOL    HW123489   6.960   1.495   2.399
 7530SOL    HW223490   6.827   1.568   2.340
 7531SOL     OW23491   4.759   2.518   3.074
 7531SOL    HW123492   4.683   2.456   3.094
 7531SOL    HW223493   4.837   2.496   3.132
 7532SOL     OW23494   4.747   6.186   6.732
 7532SOL    HW123495   4.797   6.100   6.719
 7532SOL    HW223496   4.789   6.257   6.675
 7533SOL     OW23497   4.450   2.846   1.722
 7533SOL    HW123498   4.472   2.753   1.753
 7533SOL    HW223499   4.503   2.912   1.775
 7534SOL     OW23500   5.044   6.575   4.656
 7534SOL    HW123501   5.094   6.653   4.693
 7534SOL    HW223502   4.981   6.540   4.725
 7535SOL     OW23503   1.230   6.398   4.731
 7535SOL    HW123504   1.329   6.412   4.738
 7535SOL    HW223505   1.209   6.351   4.646
 7536SOL     OW23506   5.280   6.039   3.992
 7536SOL    HW123507   5.250   6.086   4.075
 7536SOL    HW223508   5.219   6.062   3.916
 7537SOL     OW23509   2.169   5.426   2.166
 7537SOL    HW123510   2.203   5.520   2.167
 7537SOL    HW223511   2.225   5.370   2.227
 7538SOL     OW23512   0.978   3.167   1.757
 7538SOL    HW123513   0.992   3.102   1.832
 7538SOL    HW223514   0.888   3.153   1.717
 7539SOL     OW23515   1.392   5.480   3.715
 7539SOL    HW123516   1.432   5.390   3.731
 7539SOL    HW223517   1.355   5.516   3.801
 7540SOL     OW23518   4.824   5.791   4.448
 7540SOL    HW123519   4.903   5.849   4.432
 7540SOL    HW223520   4.853   5.695   4.451
 7541SOL     OW23521   0.681   3.987   6.471
 7541SOL    HW123522   0.687   3.936   6.385
 7541SOL    HW223523   0.604   3.952   6.525
 7542SOL     OW23524   6.193   5.960   5.437
 7542SOL    HW123525   6.290   5.955   5.463
 7542SOL    HW223526   6.145   5.879   5.468
 7543SOL     OW23527   2.822   0.303   5.231
 7543SOL    HW123528   2.811   0.319   5.133
 7543SOL    HW223529   2.861   0.384   5.274
 7544SOL     OW23530   0.087   2.091   4.453
 7544SOL    HW123531   0.036   2.056   4.374
 7544SOL    HW223532   0.028   2.151   4.507
 7545SOL     OW23533   0.184   5.518   6.666
 7545SOL    HW123534   0.107   5.576   6.638
 7545SOL    HW223535   0.258   5.527   6.598
 7546SOL     OW23536   4.081   2.533   1.702
 7546SOL    HW123537   4.035   2.622   1.711
 7546SOL    HW223538   4.014   2.460   1.716
 7547SOL     OW23539   4.526   0.489   1.687
 7547SOL    HW123540   4.616   0.457   1.659
 7547SOL    HW223541   4.530   0.522   1.782
 7548SOL     OW23542   4.539   2.302   6.860
 7548SOL    HW123543   4.532   2.375   6.928
 7548SOL    HW223544   4.451   2.254   6.853
 7549SOL     OW23545   3.940   2.596   5.878
 7549SOL    HW123546   3.863   2.563   5.823
 7549SOL    HW223547   3.917   2.687   5.915
 7550SOL     OW23548   1.931   3.974   3.881
 7550SOL    HW123549   2.026   4.004   3.883
 7550SOL    HW223550   1.926   3.875   3.894
 7551SOL     OW23551   5.128   2.027   5.487
 7551SOL    HW123552   5.153   2.014   5.391
 7551SOL    HW223553   5.149   1.943   5.538
 7552SOL     OW23554   1.807   5.953   4.260
 7552SOL    HW123555   1.831   5.958   4.163
 7552SOL    HW223556   1.723   6.005   4.277
 7553SOL     OW23557   5.682   5.893   5.842
 7553SOL    HW123558   5.612   5.823   5.828
 7553SOL    HW223559   5.667   5.968   5.778
 7554SOL     OW23560   5.557   1.328   0.344
 7554SOL    HW123561   5.622   1.288   0.407
 7554SOL    HW223562   5.509   1.256   0.295
 7555SOL     OW23563   2.866   6.769   6.473
 7555SOL    HW123564   2.908   6.684   6.441
 7555SOL    HW223565   2.923   6.846   6.445
 7556SOL     OW23566   1.391   1.323   0.288
 7556SOL    HW123567   1.445   1.375   0.355
 7556SOL    HW223568   1.452   1.266   0.233
 7557SOL     OW23569   5.037   0.254   0.274
 7557SOL    HW123570   4.950   0.213   0.301
 7557SOL    HW223571   5.028   0.353   0.270
 7558SOL     OW23572   1.466   2.534   3.941
 7558SOL    HW123573   1.399   2.508   3.872
 7558SOL    HW223574   1.430   2.611   3.994
 7559SOL     OW23575   3.666   2.188   5.320
 7559SOL    HW123576   3.750   2.152   5.362
 7559SOL    HW223577   3.588   2.132   5.348
 7560SOL     OW23578   6.293   0.145   6.458
 7560SOL    HW123579   6.270   0.065   6.514
 7560SOL    HW223580   6.243   0.225   6.492
 7561SOL     OW23581   5.260   2.202   5.776
 7561SOL    HW123582   5.174   2.214   5.824
 7561SOL    HW223583   5.329   2.262   5.817
 7562SOL     OW23584   0.964   4.947   5.079
 7562SOL    HW123585   1.031   4.998   5.133
 7562SOL    HW223586   0.999   4.856   5.058
 7563SOL     OW23587   3.379   6.497   2.798
 7563SOL    HW123588   3.478   6.508   2.799
 7563SOL    HW223589   3.352   6.430   2.867
 7564SOL     OW23590   4.463   0.511   5.151
 7564SOL    HW123591   4.556   0.516   5.115
 7564SOL    HW223592   4.410   0.447   5.095
 7565SOL     OW23593   5.831   3.881   5.979
 7565SOL    HW123594   5.865   3.972   5.957
 7565SOL    HW223595   5.746   3.889   6.031
 7566SOL     OW23596   5.459   4.898   2.361
 7566SOL    HW123597   5.514   4.832   2.412
 7566SOL    HW223598   5.367   4.862   2.347
 7567SOL     OW23599   0.645   1.429   4.551
 7567SOL    HW123600   0.596   1.423   4.638
 7567SOL    HW223601   0.591   1.386   4.479
 7568SOL     OW23602   5.846   5.636   2.465
 7568SOL    HW123603   5.934   5.669   2.498
 7568SOL    HW223604   5.778   5.644   2.537
 7569SOL     OW23605   4.000   4.876   6.784
 7569SOL    HW123606   3.997   4.959   6.727
 7569SOL    HW223607   4.049   4.804   6.736
 7570SOL     OW23608   6.952   2.868   3.244
 7570SOL    HW123609   0.006   2.814   3.217
 7570SOL    HW223610   6.941   2.865   3.343
 7571SOL     OW23611   5.495   3.411   2.780
 7571SOL    HW123612   5.554   3.339   2.816
 7571SOL    HW223613   5.444   3.377   2.701
 7572SOL     OW23614   4.589   6.245   2.970
 7572SOL    HW123615   4.678   6.268   3.009
 7572SOL    HW223616   4.573   6.300   2.888
 7573SOL     OW23617   6.160   0.376   5.703
 7573SOL    HW123618   6.126   0.467   5.678
 7573SOL    HW223619   6.187   0.327   5.620
 7574SOL     OW23620   6.134   1.119   3.800
 7574SOL    HW123621   6.169   1.037   3.756
 7574SOL    HW223622   6.046   1.098   3.843
 7575SOL     OW23623   5.975   6.447   1.043
 7575SOL    HW123624   6.004   6.495   1.125
 7575SOL    HW223625   5.876   6.430   1.047
 7576SOL     OW23626   5.336   2.720   0.992
 7576SOL    HW123627   5.272   2.669   1.050
 7576SOL    HW223628   5.287   2.794   0.946
 7577SOL     OW23629   7.012   0.261   0.268
 7577SOL    HW123630   0.032   0.251   0.357
 7577SOL    HW223631   6.924   0.306   0.281
 7578SOL     OW23632   0.693   5.254   2.688
 7578SOL    HW123633   0.651   5.327   2.741
 7578SOL    HW223634   0.773   5.219   2.736
 7579SOL     OW23635   6.540   1.962   1.618
 7579SOL    HW123636   6.457   1.913   1.590
 7579SOL    HW223637   6.523   2.060   1.613
 7580SOL     OW23638   1.820   4.331   3.325
 7580SOL    HW123639   1.842   4.288   3.237
 7580SOL    HW223640   1.778   4.420   3.309
 7581SOL     OW23641   0.832   1.575   1.160
 7581SOL    HW123642   0.930   1.566   1.142
 7581SOL    HW223643   0.817   1.639   1.235
 7582SOL     OW23644   4.278   1.837   4.182
 7582SOL    HW123645   4.253   1.778   4.259
 7582SOL    HW223646   4.197   1.879   4.144
 7583SOL     OW23647   5.263   3.666   3.630
 7583SOL    HW123648   5.235   3.754   3.669
 7583SOL    HW223649   5.357   3.673   3.596
 7584SOL     OW23650   1.221   0.358   2.709
 7584SOL    HW123651   1.129   0.362   2.749
 7584SOL    HW223652   1.244   0.263   2.688
 7585SOL     OW23653   1.109   2.022   6.616
 7585SOL    HW123654   1.189   2.022   6.557
 7585SOL    HW223655   1.110   1.941   6.674
 7586SOL     OW23656   1.359   0.798   2.225
 7586SOL    HW123657   1.270   0.843   2.221
 7586SOL    HW223658   1.427   0.855   2.179
 7587SOL     OW23659   3.380   0.810   0.585
 7587SOL    HW123660   3.341   0.822   0.676
 7587SOL    HW223661   3.477   0.785   0.594
 7588SOL     OW23662   1.091   2.889   4.445
 7588SOL    HW123663   1.059   2.984   4.447
 7588SOL    HW223664   1.136   2.868   4.532
 7589SOL     OW23665   0.737   1.007   2.901
 7589SOL    HW123666   0.670   0.932   2.893
 7589SOL    HW223667   0.714   1.078   2.835
 7590SOL     OW23668   0.179   1.357   0.133
 7590SOL    HW123669   0.138   1.447   0.118
 7590SOL    HW223670   0.261   1.366   0.190
 7591SOL     OW23671   4.737   2.727   6.626
 7591SOL    HW123672   4.749   2.630   6.643
 7591SOL    HW223673   4.816   2.778   6.661
 7592SOL     OW23674   6.066   4.682   4.843
 7592SOL    HW123675   6.142   4.627   4.809
 7592SOL    HW223676   6.100   4.773   4.869
 7593SOL     OW23677   6.642   2.030   5.940
 7593SOL    HW123678   6.589   1.986   5.868
 7593SOL    HW223679   6.585   2.038   6.023
 7594SOL     OW23680   0.277   4.415   1.002
 7594SOL    HW123681   0.291   4.358   0.921
 7594SOL    HW223682   0.365   4.429   1.049
 7595SOL     OW23683   6.687   2.887   5.893
 7595SOL    HW123684   6.727   2.977   5.874
 7595SOL    HW223685   6.696   2.867   5.990
 7596SOL     OW23686   3.132   0.189   5.184
 7596SOL    HW123687   3.096   0.170   5.093
 7596SOL    HW223688   3.063   0.164   5.253
 7597SOL     OW23689   2.404   6.300   2.737
 7597SOL    HW123690   2.447   6.332   2.652
 7597SOL    HW223691   2.446   6.347   2.815
 7598SOL     OW23692   6.074   0.699   2.715
 7598SOL    HW123693   6.134   0.630   2.673
 7598SOL    HW223694   6.103   0.790   2.686
 7599SOL     OW23695   4.492   3.327   0.906
 7599SOL    HW123696   4.442   3.362   0.985
 7599SOL    HW223697   4.464   3.233   0.888
 7600SOL     OW23698   1.321   0.942   3.591
 7600SOL    HW123699   1.377   0.861   3.608
 7600SOL    HW223700   1.324   0.965   3.494
 7601SOL     OW23701   3.722   5.409   1.862
 7601SOL    HW123702   3.769   5.454   1.938
 7601SOL    HW223703   3.682   5.323   1.894
 7602SOL     OW23704   0.550   2.328   0.192
 7602SOL    HW123705   0.485   2.264   0.234
 7602SOL    HW223706   0.530   2.337   0.095
 7603SOL     OW23707   2.474   0.366   6.154
 7603SOL    HW123708   2.434   0.294   6.097
 7603SOL    HW223709   2.572   0.373   6.136
 7604SOL     OW23710   1.473   2.164   4.936
 7604SOL    HW123711   1.414   2.206   5.004
 7604SOL    HW223712   1.479   2.065   4.953
 7605SOL     OW23713   1.678   0.526   6.769
 7605SOL    HW123714   1.626   0.481   6.697
 7605SOL    HW223715   1.617   0.587   6.821
 7606SOL     OW23716   5.985   1.746   4.300
 7606SOL    HW123717   6.038   1.726   4.217
 7606SOL    HW223718   6.028   1.822   4.350
 7607SOL     OW23719   3.091   6.696   0.247
 7607SOL    HW123720   3.154   6.640   0.193
 7607SOL    HW223721   3.013   6.724   0.191
 7608SOL     OW23722   5.555   2.196   6.296
 7608SOL    HW123723   5.474   2.250   6.275
 7608SOL    HW223724   5.612   2.244   6.363
 7609SOL     OW23725   0.181   2.970   3.788
 7609SOL    HW123726   0.190   2.908   3.710
 7609SOL    HW223727   0.178   2.916   3.872
 7610SOL     OW23728   3.598   5.604   6.853
 7610SOL    HW123729   3.643   5.588   6.765
 7610SOL    HW223730   3.501   5.582   6.845
 7611SOL     OW23731   4.669   3.344   1.142
 7611SOL    HW123732   4.734   3.404   1.096
 7611SOL    HW223733   4.577   3.380   1.132
 7612SOL     OW23734   3.644   2.114   2.918
 7612SOL    HW123735   3.668   2.073   3.005
 7612SOL    HW223736   3.727   2.142   2.870
 7613SOL     OW23737   1.459   1.973   2.263
 7613SOL    HW123738   1.533   2.021   2.217
 7613SOL    HW223739   1.371   2.010   2.232
 7614SOL     OW23740   4.855   3.276   0.485
 7614SOL    HW123741   4.872   3.179   0.469
 7614SOL    HW223742   4.865   3.296   0.582
 7615SOL     OW23743   5.524   3.941   5.547
 7615SOL    HW123744   5.461   4.006   5.505
 7615SOL    HW223745   5.562   3.881   5.476
 7616SOL     OW23746   5.814   7.004   3.182
 7616SOL    HW123747   5.902   6.958   3.195
 7616SOL    HW223748   5.829   0.068   3.140
 7617SOL     OW23749   4.769   4.831   3.139
 7617SOL    HW123750   4.686   4.839   3.084
 7617SOL    HW223751   4.758   4.756   3.205
 7618SOL     OW23752   2.212   2.180   0.054
 7618SOL    HW123753   2.224   2.232   6.995
 7618SOL    HW223754   2.148   2.228   0.114
 7619SOL     OW23755   0.450   2.638   4.662
 7619SOL    HW123756   0.452   2.555   4.605
 7619SOL    HW223757   0.390   2.706   4.620
 7620SOL     OW23758   3.513   4.047   0.661
 7620SOL    HW123759   3.529   4.108   0.739
 7620SOL    HW223760   3.509   3.953   0.693
 7621SOL     OW23761   0.242   5.800   0.777
 7621SOL    HW123762   0.323   5.819   0.834
 7621SOL    HW223763   0.160   5.801   0.835
 7622SOL     OW23764   4.257   4.452   0.334
 7622SOL    HW123765   4.295   4.524   0.391
 7622SOL    HW223766   4.307   4.449   0.247
 7623SOL     OW23767   4.189   4.588   1.507
 7623SOL    HW123768   4.108   4.530   1.519
 7623SOL    HW223769   4.248   4.580   1.588
 7624SOL     OW23770   0.256   2.295   2.373
 7624SOL    HW123771   0.236   2.208   2.418
 7624SOL    HW223772   0.353   2.316   2.383
 7625SOL     OW23773   5.269   1.883   0.568
 7625SOL    HW123774   5.264   1.965   0.626
 7625SOL    HW223775   5.365   1.854   0.561
 7626SOL     OW23776   6.357   0.857   5.944
 7626SOL    HW123777   6.300   0.833   6.023
 7626SOL    HW223778   6.394   0.774   5.903
 7627SOL     OW23779   3.586   1.871   7.010
 7627SOL    HW123780   3.663   1.914   0.031
 7627SOL    HW223781   3.504   1.926   7.025
 7628SOL     OW23782   3.560   2.576   0.797
 7628SOL    HW123783   3.607   2.512   0.857
 7628SOL    HW223784   3.552   2.665   0.843
 7629SOL     OW23785   5.826   3.206   3.650
 7629SOL    HW123786   5.817   3.306   3.641
 7629SOL    HW223787   5.903   3.186   3.710
 7630SOL     OW23788   1.331   0.244   5.209
 7630SOL    HW123789   1.277   0.182   5.266
 7630SOL    HW223790   1.302   0.338   5.225
 7631SOL     OW23791   1.840   6.555   5.103
 7631SOL    HW123792   1.773   6.526   5.035
 7631SOL    HW223793   1.930   6.562   5.061
 7632SOL     OW23794   4.617   5.290   1.410
 7632SOL    HW123795   4.659   5.255   1.327
 7632SOL    HW223796   4.533   5.239   1.429
 7633SOL     OW23797   5.731   0.016   1.427
 7633SOL    HW123798   5.672   6.971   1.468
 7633SOL    HW223799   5.796   6.998   1.365
 7634SOL     OW23800   1.307   1.696   0.817
 7634SOL    HW123801   1.360   1.690   0.902
 7634SOL    HW223802   1.305   1.791   0.786
 7635SOL     OW23803   2.847   5.124   4.427
 7635SOL    HW123804   2.758   5.082   4.447
 7635SOL    HW223805   2.915   5.052   4.412
 7636SOL     OW23806   0.567   4.585   4.367
 7636SOL    HW123807   0.572   4.673   4.319
 7636SOL    HW223808   0.638   4.524   4.332
 7637SOL     OW23809   0.394   6.149   4.004
 7637SOL    HW123810   0.427   6.091   3.929
 7637SOL    HW223811   0.351   6.092   4.074
 7638SOL     OW23812   0.833   5.427   2.071
 7638SOL    HW123813   0.924   5.413   2.109
 7638SOL    HW223814   0.777   5.346   2.090
 7639SOL     OW23815   0.234   1.157   6.997
 7639SOL    HW123816   0.298   1.101   0.024
 7639SOL    HW223817   0.202   1.233   0.027
 7640SOL     OW23818   3.403   1.504   6.862
 7640SOL    HW123819   3.447   1.593   6.857
 7640SOL    HW223820   3.449   1.440   6.800
 7641SOL     OW23821   6.808   3.830   2.801
 7641SOL    HW123822   6.854   3.891   2.866
 7641SOL    HW223823   6.869   3.810   2.725
 7642SOL     OW23824   5.704   1.272   2.994
 7642SOL    HW123825   5.686   1.207   3.068
 7642SOL    HW223826   5.685   1.365   3.026
 7643SOL     OW23827   5.215   2.121   2.918
 7643SOL    HW123828   5.311   2.107   2.939
 7643SOL    HW223829   5.207   2.186   2.842
 7644SOL     OW23830   4.889   3.163   2.297
 7644SOL    HW123831   4.848   3.170   2.205
 7644SOL    HW223832   4.891   3.067   2.325
 7645SOL     OW23833   3.354   3.978   5.874
 7645SOL    HW123834   3.376   3.909   5.804
 7645SOL    HW223835   3.255   3.994   5.875
 7646SOL     OW23836   1.512   2.783   2.943
 7646SOL    HW123837   1.434   2.789   3.005
 7646SOL    HW223838   1.503   2.854   2.872
 7647SOL     OW23839   0.109   2.893   4.297
 7647SOL    HW123840   0.040   2.938   4.354
 7647SOL    HW223841   0.063   2.835   4.230
 7648SOL     OW23842   2.057   2.157   3.234
 7648SOL    HW123843   2.054   2.060   3.210
 7648SOL    HW223844   1.996   2.174   3.310
 7649SOL     OW23845   0.069   1.121   4.815
 7649SOL    HW123846   0.072   1.113   4.915
 7649SOL    HW223847   7.022   1.184   4.789
 7650SOL     OW23848   4.186   0.919   1.295
 7650SOL    HW123849   4.189   0.819   1.294
 7650SOL    HW223850   4.218   0.952   1.383
 7651SOL     OW23851   2.407   5.113   4.634
 7651SOL    HW123852   2.358   5.197   4.611
 7651SOL    HW223853   2.469   5.089   4.559
 7652SOL     OW23854   6.092   2.252   4.771
 7652SOL    HW123855   6.014   2.284   4.825
 7652SOL    HW223856   6.061   2.218   4.683
 7653SOL     OW23857   1.034   1.675   6.721
 7653SOL    HW123858   1.080   1.738   6.785
 7653SOL    HW223859   0.936   1.690   6.725
 7654SOL     OW23860   5.850   3.518   5.091
 7654SOL    HW123861   5.866   3.590   5.158
 7654SOL    HW223862   5.911   3.441   5.109
 7655SOL     OW23863   3.226   0.645   3.532
 7655SOL    HW123864   3.152   0.703   3.566
 7655SOL    HW223865   3.211   0.623   3.436
 7656SOL     OW23866   6.313   4.100   6.137
 7656SOL    HW123867   6.282   4.006   6.151
 7656SOL    HW223868   6.308   4.124   6.040
 7657SOL     OW23869   1.406   3.982   4.792
 7657SOL    HW123870   1.322   3.937   4.761
 7657SOL    HW223871   1.426   3.956   4.886
 7658SOL     OW23872   2.901   0.911   0.506
 7658SOL    HW123873   2.884   0.881   0.600
 7658SOL    HW223874   2.937   1.004   0.506
 7659SOL     OW23875   4.565   4.274   5.558
 7659SOL    HW123876   4.532   4.265   5.464
 7659SOL    HW223877   4.533   4.361   5.597
 7660SOL     OW23878   6.733   5.247   4.851
 7660SOL    HW123879   6.724   5.168   4.912
 7660SOL    HW223880   6.652   5.252   4.792
 7661SOL     OW23881   4.658   2.061   6.008
 7661SOL    HW123882   4.673   2.053   5.909
 7661SOL    HW223883   4.575   2.011   6.033
 7662SOL     OW23884   1.194   2.080   2.570
 7662SOL    HW123885   1.215   2.134   2.652
 7662SOL    HW223886   1.097   2.090   2.547
 7663SOL     OW23887   5.721   5.772   5.453
 7663SOL    HW123888   5.658   5.794   5.378
 7663SOL    HW223889   5.675   5.711   5.517
 7664SOL     OW23890   4.226   0.843   3.035
 7664SOL    HW123891   4.281   0.820   2.955
 7664SOL    HW223892   4.162   0.917   3.012
 7665SOL     OW23893   5.299   2.579   3.358
 7665SOL    HW123894   5.264   2.517   3.428
 7665SOL    HW223895   5.248   2.567   3.273
 7666SOL     OW23896   5.995   5.683   3.776
 7666SOL    HW123897   5.903   5.722   3.778
 7666SOL    HW223898   6.003   5.619   3.699
 7667SOL     OW23899   4.813   6.812   2.443
 7667SOL    HW123900   4.763   6.870   2.507
 7667SOL    HW223901   4.751   6.778   2.372
 7668SOL     OW23902   2.574   5.039   1.239
 7668SOL    HW123903   2.534   5.116   1.189
 7668SOL    HW223904   2.543   5.041   1.334
 7669SOL     OW23905   3.654   6.915   6.084
 7669SOL    HW123906   3.711   6.883   6.160
 7669SOL    HW223907   3.630   6.837   6.026
 7670SOL     OW23908   0.756   6.740   0.357
 7670SOL    HW123909   0.686   6.673   0.332
 7670SOL    HW223910   0.846   6.699   0.347
 7671SOL     OW23911   5.497   6.719   2.304
 7671SOL    HW123912   5.524   6.704   2.209
 7671SOL    HW223913   5.522   6.639   2.359
 7672SOL     OW23914   6.198   4.651   3.021
 7672SOL    HW123915   6.126   4.720   3.030
 7672SOL    HW223916   6.244   4.640   3.109
 7673SOL     OW23917   1.101   5.545   3.051
 7673SOL    HW123918   1.123   5.483   3.125
 7673SOL    HW223919   1.185   5.578   3.008
 7674SOL     OW23920   4.278   0.806   4.744
 7674SOL    HW123921   4.238   0.792   4.834
 7674SOL    HW223922   4.277   0.904   4.722
 7675SOL     OW23923   3.464   6.803   3.839
 7675SOL    HW123924   3.381   6.800   3.784
 7675SOL    HW223925   3.489   6.711   3.868
 7676SOL     OW23926   3.193   2.995   6.003
 7676SOL    HW123927   3.117   2.977   6.066
 7676SOL    HW223928   3.164   3.061   5.934
 7677SOL     OW23929   6.700   5.023   1.370
 7677SOL    HW123930   6.739   4.932   1.385
 7677SOL    HW223931   6.603   5.021   1.394
 7678SOL     OW23932   1.427   2.139   5.409
 7678SOL    HW123933   1.372   2.152   5.492
 7678SOL    HW223934   1.449   2.042   5.399
 7679SOL     OW23935   2.085   4.982   5.448
 7679SOL    HW123936   2.017   4.977   5.522
 7679SOL    HW223937   2.094   4.892   5.405
 7680SOL     OW23938   1.256   0.533   5.303
 7680SOL    HW123939   1.288   0.540   5.398
 7680SOL    HW223940   1.158   0.552   5.299
 7681SOL     OW23941   3.007   2.616   6.328
 7681SOL    HW123942   3.101   2.651   6.330
 7681SOL    HW223943   2.959   2.646   6.410
 7682SOL     OW23944   3.039   1.713   2.637
 7682SOL    HW123945   2.990   1.773   2.701
 7682SOL    HW223946   3.068   1.766   2.557
 7683SOL     OW23947   0.113   1.024   4.554
 7683SOL    HW123948   0.147   1.044   4.646
 7683SOL    HW223949   0.105   0.925   4.543
 7684SOL     OW23950   3.971   2.028   1.913
 7684SOL    HW123951   3.937   1.936   1.899
 7684SOL    HW223952   3.904   2.081   1.965
 7685SOL     OW23953   3.806   1.070   0.019
 7685SOL    HW123954   3.812   1.140   6.973
 7685SOL    HW223955   3.790   1.114   0.107
 7686SOL     OW23956   4.513   0.224   4.781
 7686SOL    HW123957   4.473   0.132   4.787
 7686SOL    HW223958   4.451   0.284   4.729
 7687SOL     OW23959   5.202   5.675   4.715
 7687SOL    HW123960   5.234   5.623   4.794
 7687SOL    HW223961   5.147   5.753   4.747
 7688SOL     OW23962   0.264   5.165   6.229
 7688SOL    HW123963   0.263   5.066   6.212
 7688SOL    HW223964   0.182   5.191   6.279
 7689SOL     OW23965   4.963   0.616   1.883
 7689SOL    HW123966   4.898   0.685   1.916
 7689SOL    HW223967   5.047   0.620   1.938
 7690SOL     OW23968   5.545   4.678   0.513
 7690SOL    HW123969   5.602   4.735   0.454
 7690SOL    HW223970   5.574   4.582   0.504
 7691SOL     OW23971   4.402   5.077   2.691
 7691SOL    HW123972   4.375   5.022   2.613
 7691SOL    HW223973   4.483   5.131   2.669
 7692SOL     OW23974   0.682   6.467   1.417
 7692SOL    HW123975   0.752   6.396   1.428
 7692SOL    HW223976   0.697   6.538   1.486
 7693SOL     OW23977   3.061   0.745   0.710
 7693SOL    HW123978   3.090   0.727   0.616
 7693SOL    HW223979   3.141   0.749   0.770
 7694SOL     OW23980   5.726   2.809   4.475
 7694SOL    HW123981   5.798   2.741   4.459
 7694SOL    HW223982   5.748   2.863   4.556
 7695SOL     OW23983   6.408   0.043   2.864
 7695SOL    HW123984   6.331   0.099   2.892
 7695SOL    HW223985   6.420   6.993   2.928
 7696SOL     OW23986   0.319   2.093   6.427
 7696SOL    HW123987   0.334   2.065   6.522
 7696SOL    HW223988   0.305   2.192   6.424
 7697SOL     OW23989   3.679   6.875   2.811
 7697SOL    HW123990   3.684   6.821   2.895
 7697SOL    HW223991   3.730   6.960   2.823
 7698SOL     OW23992   6.029   2.689   0.006
 7698SOL    HW123993   6.109   2.738   0.040
 7698SOL    HW223994   6.015   2.711   6.935
 7699SOL     OW23995   2.724   5.567   0.181
 7699SOL    HW123996   2.785   5.566   0.102
 7699SOL    HW223997   2.773   5.532   0.261
 7700SOL     OW23998   4.980   5.795   2.953
 7700SOL    HW123999   4.999   5.757   3.043
 7700SOL    HW224000   4.889   5.765   2.923
 7701SOL     OW24001   0.228   2.352   6.131
 7701SOL    HW124002   0.268   2.321   6.045
 7701SOL    HW224003   0.132   2.378   6.117
 7702SOL     OW24004   4.551   0.022   5.948
 7702SOL    HW124005   4.489   6.970   5.937
 7702SOL    HW224006   4.512   0.104   5.906
 7703SOL     OW24007   6.501   0.314   5.002
 7703SOL    HW124008   6.544   0.229   4.970
 7703SOL    HW224009   6.430   0.341   4.936
 7704SOL     OW24010   6.924   1.377   4.144
 7704SOL    HW124011   6.828   1.392   4.166
 7704SOL    HW224012   6.979   1.384   4.228
 7705SOL     OW24013   2.590   4.864   0.451
 7705SOL    HW124014   2.654   4.831   0.382
 7705SOL    HW224015   2.516   4.798   0.462
 7706SOL     OW24016   3.634   2.950   3.141
 7706SOL    HW124017   3.546   2.983   3.176
 7706SOL    HW224018   3.708   2.989   3.196
 7707SOL     OW24019   6.744   5.808   0.114
 7707SOL    HW124020   6.713   5.773   0.025
 7707SOL    HW224021   6.768   5.732   0.174
 7708SOL     OW24022   1.873   0.051   4.411
 7708SOL    HW124023   1.829   0.070   4.499
 7708SOL    HW224024   1.935   0.126   4.389
 7709SOL     OW24025   6.735   4.876   0.904
 7709SOL    HW124026   6.730   4.968   0.943
 7709SOL    HW224027   6.715   4.879   0.807
 7710SOL     OW24028   1.578   2.990   0.670
 7710SOL    HW124029   1.533   2.901   0.660
 7710SOL    HW224030   1.651   2.984   0.738
 7711SOL     OW24031   6.626   4.777   5.617
 7711SOL    HW124032   6.609   4.797   5.520
 7711SOL    HW224033   6.631   4.678   5.630
 7712SOL     OW24034   6.724   4.520   6.532
 7712SOL    HW124035   6.748   4.568   6.448
 7712SOL    HW224036   6.661   4.575   6.585
 7713SOL     OW24037   1.690   4.384   0.922
 7713SOL    HW124038   1.638   4.469   0.914
 7713SOL    HW224039   1.788   4.404   0.921
 7714SOL     OW24040   6.696   0.359   4.311
 7714SOL    HW124041   6.631   0.420   4.266
 7714SOL    HW224042   6.646   0.292   4.366
 7715SOL     OW24043   1.999   2.802   6.544
 7715SOL    HW124044   1.939   2.735   6.501
 7715SOL    HW224045   1.952   2.842   6.623
 7716SOL     OW24046   0.678   5.592   6.833
 7716SOL    HW124047   0.621   5.511   6.826
 7716SOL    HW224048   0.657   5.654   6.757
 7717SOL     OW24049   1.090   2.205   5.974
 7717SOL    HW124050   1.180   2.177   5.943
 7717SOL    HW224051   1.099   2.271   6.049
 7718SOL     OW24052   1.250   3.827   2.594
 7718SOL    HW124053   1.337   3.816   2.643
 7718SOL    HW224054   1.194   3.896   2.640
 7719SOL     OW24055   1.535   4.214   4.910
 7719SOL    HW124056   1.634   4.227   4.916
 7719SOL    HW224057   1.514   4.144   4.842
 7720SOL     OW24058   6.299   2.112   6.375
 7720SOL    HW124059   6.303   2.017   6.347
 7720SOL    HW224060   6.203   2.143   6.373
 7721SOL     OW24061   1.624   0.502   2.478
 7721SOL    HW124062   1.618   0.414   2.526
 7721SOL    HW224063   1.623   0.577   2.544
 7722SOL     OW24064   2.258   4.938   4.039
 7722SOL    HW124065   2.256   4.999   4.118
 7722SOL    HW224066   2.195   4.971   3.969
 7723SOL     OW24067   4.627   3.010   6.796
 7723SOL    HW124068   4.690   2.932   6.793
 7723SOL    HW224069   4.539   2.983   6.755
 7724SOL     OW24070   3.398   3.910   1.126
 7724SOL    HW124071   3.331   3.983   1.138
 7724SOL    HW224072   3.358   3.835   1.073
 7725SOL     OW24073   5.716   2.613   2.711
 7725SOL    HW124074   5.758   2.572   2.630
 7725SOL    HW224075   5.709   2.544   2.783
 7726SOL     OW24076   0.647   3.300   6.103
 7726SOL    HW124077   0.677   3.234   6.172
 7726SOL    HW224078   0.548   3.311   6.109
 7727SOL     OW24079   4.925   2.505   2.164
 7727SOL    HW124080   4.896   2.480   2.072
 7727SOL    HW224081   4.951   2.423   2.215
 7728SOL     OW24082   2.263   2.936   5.293
 7728SOL    HW124083   2.354   2.951   5.255
 7728SOL    HW224084   2.228   2.847   5.261
 7729SOL     OW24085   6.427   1.665   2.533
 7729SOL    HW124086   6.346   1.684   2.588
 7729SOL    HW224087   6.487   1.745   2.534
 7730SOL     OW24088   5.852   4.849   5.569
 7730SOL    HW124089   5.778   4.824   5.631
 7730SOL    HW224090   5.857   4.781   5.495
 7731SOL     OW24091   6.107   0.271   0.561
 7731SOL    HW124092   6.130   0.228   0.648
 7731SOL    HW224093   6.190   0.288   0.509
 7732SOL     OW24094   4.670   0.384   6.608
 7732SOL    HW124095   4.704   0.291   6.622
 7732SOL    HW224096   4.570   0.382   6.602
 7733SOL     OW24097   6.792   5.751   2.826
 7733SOL    HW124098   6.797   5.851   2.830
 7733SOL    HW224099   6.854   5.712   2.894
 7734SOL     OW24100   2.432   4.798   5.613
 7734SOL    HW124101   2.365   4.836   5.549
 7734SOL    HW224102   2.498   4.743   5.563
 7735SOL     OW24103   6.361   6.092   0.417
 7735SOL    HW124104   6.429   6.019   0.402
 7735SOL    HW224105   6.352   6.147   0.334
 7736SOL     OW24106   2.677   3.106   0.790
 7736SOL    HW124107   2.601   3.042   0.781
 7736SOL    HW224108   2.655   3.191   0.741
 7737SOL     OW24109   4.283   5.347   1.384
 7737SOL    HW124110   4.216   5.311   1.449
 7737SOL    HW224111   4.364   5.377   1.434
 7738SOL     OW24112   2.669   6.142   6.764
 7738SOL    HW124113   2.703   6.058   6.722
 7738SOL    HW224114   2.573   6.131   6.787
 7739SOL     OW24115   1.539   2.679   2.104
 7739SOL    HW124116   1.527   2.759   2.045
 7739SOL    HW224117   1.634   2.649   2.101
 7740SOL     OW24118   1.693   0.617   2.931
 7740SOL    HW124119   1.716   0.521   2.947
 7740SOL    HW224120   1.614   0.643   2.987
 7741SOL     OW24121   1.966   4.778   5.767
 7741SOL    HW124122   2.047   4.731   5.731
 7741SOL    HW224123   1.963   4.871   5.731
 7742SOL     OW24124   3.984   1.876   4.070
 7742SOL    HW124125   3.942   1.930   3.997
 7742SOL    HW224126   3.927   1.796   4.088
 7743SOL     OW24127   5.380   1.144   6.430
 7743SOL    HW124128   5.289   1.123   6.466
 7743SOL    HW224129   5.378   1.233   6.385
 7744SOL     OW24130   0.787   5.810   5.175
 7744SOL    HW124131   0.786   5.748   5.254
 7744SOL    HW224132   0.881   5.826   5.147
 7745SOL     OW24133   2.153   6.185   6.813
 7745SOL    HW124134   2.131   6.281   6.826
 7745SOL    HW224135   2.117   6.132   6.889
 7746SOL     OW24136   0.876   6.183   0.765
 7746SOL    HW124137   0.935   6.250   0.812
 7746SOL    HW224138   0.851   6.110   0.828
 7747SOL     OW24139   6.811   6.383   0.688
 7747SOL    HW124140   6.859   6.361   0.774
 7747SOL    HW224141   6.778   6.299   0.646
 7748SOL     OW24142   3.766   2.815   5.489
 7748SOL    HW124143   3.670   2.788   5.484
 7748SOL    HW224144   3.823   2.738   5.463
 7749SOL     OW24145   3.833   3.489   3.636
 7749SOL    HW124146   3.898   3.561   3.662
 7749SOL    HW224147   3.755   3.490   3.699
 7750SOL     OW24148   5.378   5.062   6.009
 7750SOL    HW124149   5.422   5.009   5.937
 7750SOL    HW224150   5.352   5.152   5.973
 7751SOL     OW24151   0.097   1.713   3.732
 7751SOL    HW124152   0.155   1.647   3.684
 7751SOL    HW224153   0.002   1.683   3.729
 7752SOL     OW24154   5.521   5.232   5.164
 7752SOL    HW124155   5.591   5.185   5.218
 7752SOL    HW224156   5.476   5.166   5.104
 7753SOL     OW24157   2.620   0.146   4.925
 7753SOL    HW124158   2.665   0.098   5.000
 7753SOL    HW224159   2.523   0.158   4.946
 7754SOL     OW24160   5.698   0.756   1.006
 7754SOL    HW124161   5.722   0.838   0.954
 7754SOL    HW224162   5.781   0.703   1.024
 7755SOL     OW24163   0.450   6.249   5.796
 7755SOL    HW124164   0.446   6.289   5.888
 7755SOL    HW224165   0.510   6.304   5.739
 7756SOL     OW24166   2.645   5.323   2.306
 7756SOL    HW124167   2.666   5.406   2.254
 7756SOL    HW224168   2.616   5.347   2.398
 7757SOL     OW24169   4.841   6.163   5.485
 7757SOL    HW124170   4.927   6.135   5.526
 7757SOL    HW224171   4.787   6.215   5.551
 7758SOL     OW24172   1.686   2.817   6.460
 7758SOL    HW124173   1.735   2.737   6.428
 7758SOL    HW224174   1.618   2.790   6.529
 7759SOL     OW24175   1.933   0.441   4.654
 7759SOL    HW124176   1.850   0.394   4.624
 7759SOL    HW224177   1.930   0.537   4.627
 7760SOL     OW24178   5.483   3.186   1.948
 7760SOL    HW124179   5.477   3.107   1.887
 7760SOL    HW224180   5.461   3.269   1.898
 7761SOL     OW24181   3.155   6.910   6.060
 7761SOL    HW124182   3.231   6.931   6.121
 7761SOL    HW224183   3.069   6.932   6.105
 7762SOL     OW24184   4.088   0.944   6.622
 7762SOL    HW124185   4.096   0.975   6.717
 7762SOL    HW224186   4.064   1.022   6.564
 7763SOL     OW24187   1.371   1.965   0.736
 7763SOL    HW124188   1.445   2.032   0.743
 7763SOL    HW224189   1.285   2.009   0.763
 7764SOL     OW24190   3.831   3.360   2.457
 7764SOL    HW124191   3.759   3.303   2.497
 7764SOL    HW224192   3.893   3.391   2.529
 7765SOL     OW24193   6.456   3.270   3.801
 7765SOL    HW124194   6.470   3.368   3.816
 7765SOL    HW224195   6.361   3.247   3.823
 7766SOL     OW24196   5.840   1.728   0.171
 7766SOL    HW124197   5.775   1.655   0.193
 7766SOL    HW224198   5.931   1.701   0.202
 7767SOL     OW24199   4.039   6.243   3.418
 7767SOL    HW124200   4.053   6.230   3.320
 7767SOL    HW224201   3.955   6.197   3.447
 7768SOL     OW24202   3.288   4.946   2.598
 7768SOL    HW124203   3.345   4.959   2.680
 7768SOL    HW224204   3.198   4.986   2.613
 7769SOL     OW24205   4.496   1.913   1.741
 7769SOL    HW124206   4.580   1.946   1.698
 7769SOL    HW224207   4.506   1.917   1.840
 7770SOL     OW24208   2.679   4.781   1.858
 7770SOL    HW124209   2.738   4.724   1.915
 7770SOL    HW224210   2.645   4.728   1.781
 7771SOL     OW24211   2.693   2.043   4.527
 7771SOL    HW124212   2.597   2.014   4.521
 7771SOL    HW224213   2.699   2.141   4.508
 7772SOL     OW24214   5.177   1.437   3.614
 7772SOL    HW124215   5.114   1.414   3.689
 7772SOL    HW224216   5.125   1.478   3.539
 7773SOL     OW24217   3.913   4.647   6.245
 7773SOL    HW124218   4.002   4.618   6.278
 7773SOL    HW224219   3.849   4.570   6.249
 7774SOL     OW24220   5.671   1.215   5.727
 7774SOL    HW124221   5.617   1.263   5.658
 7774SOL    HW224222   5.622   1.134   5.758
 7775SOL     OW24223   3.255   6.557   3.555
 7775SOL    HW124224   3.299   6.595   3.637
 7775SOL    HW224225   3.169   6.605   3.539
 7776SOL     OW24226   3.317   3.419   6.116
 7776SOL    HW124227   3.406   3.375   6.129
 7776SOL    HW224228   3.271   3.429   6.204
 7777SOL     OW24229   2.269   1.423   5.835
 7777SOL    HW124230   2.366   1.439   5.852
 7777SOL    HW224231   2.251   1.325   5.836
 7778SOL     OW24232   5.768   0.263   0.592
 7778SOL    HW124233   5.759   0.337   0.526
 7778SOL    HW224234   5.696   0.195   0.576
 7779SOL     OW24235   3.508   2.744   0.444
 7779SOL    HW124236   3.583   2.787   0.493
 7779SOL    HW224237   3.425   2.748   0.499
 7780SOL     OW24238   1.041   6.079   4.314
 7780SOL    HW124239   1.051   6.160   4.372
 7780SOL    HW224240   1.131   6.044   4.289
 7781SOL     OW24241   1.661   4.000   6.064
 7781SOL    HW124242   1.658   4.071   5.995
 7781SOL    HW224243   1.753   3.961   6.069
 7782SOL     OW24244   1.965   4.244   6.147
 7782SOL    HW124245   1.907   4.316   6.110
 7782SOL    HW224246   1.941   4.156   6.105
 7783SOL     OW24247   2.478   6.605   6.474
 7783SOL    HW124248   2.486   6.699   6.509
 7783SOL    HW224249   2.425   6.550   6.539
 7784SOL     OW24250   1.195   3.270   0.161
 7784SOL    HW124251   1.214   3.368   0.164
 7784SOL    HW224252   1.224   3.232   0.074
 7785SOL     OW24253   2.329   6.699   4.142
 7785SOL    HW124254   2.395   6.627   4.123
 7785SOL    HW224255   2.369   6.788   4.120
 7786SOL     OW24256   3.123   4.699   5.267
 7786SOL    HW124257   3.196   4.650   5.315
 7786SOL    HW224258   3.059   4.633   5.228
 7787SOL     OW24259   2.393   2.505   5.126
 7787SOL    HW124260   2.356   2.591   5.091
 7787SOL    HW224261   2.450   2.462   5.056
 7788SOL     OW24262   1.397   1.847   1.773
 7788SOL    HW124263   1.486   1.820   1.809
 7788SOL    HW224264   1.368   1.932   1.817
 7789SOL     OW24265   2.352   0.082   0.997
 7789SOL    HW124266   2.398   7.019   0.997
 7789SOL    HW224267   2.413   0.152   0.960
 7790SOL     OW24268   6.444   4.070   3.223
 7790SOL    HW124269   6.363   4.119   3.255
 7790SOL    HW224270   6.483   4.017   3.298
 7791SOL     OW24271   2.524   5.849   4.691
 7791SOL    HW124272   2.491   5.943   4.705
 7791SOL    HW224273   2.622   5.845   4.711
 7792SOL     OW24274   1.690   5.110   6.346
 7792SOL    HW124275   1.639   5.025   6.342
 7792SOL    HW224276   1.777   5.099   6.298
 7793SOL     OW24277   1.870   1.249   5.256
 7793SOL    HW124278   1.963   1.279   5.275
 7793SOL    HW224279   1.870   1.152   5.232
 7794SOL     OW24280   5.320   4.956   4.653
 7794SOL    HW124281   5.297   4.927   4.746
 7794SOL    HW224282   5.239   4.949   4.595
 7795SOL     OW24283   1.928   4.075   5.438
 7795SOL    HW124284   1.896   3.988   5.476
 7795SOL    HW224285   2.011   4.060   5.385
 7796SOL     OW24286   3.655   3.959   3.651
 7796SOL    HW124287   3.687   3.989   3.561
 7796SOL    HW224288   3.710   4.003   3.723
 7797SOL     OW24289   0.049   5.734   3.453
 7797SOL    HW124290   0.016   5.649   3.493
 7797SOL    HW224291   0.117   5.775   3.513
 7798SOL     OW24292   2.695   5.147   0.139
 7798SOL    HW124293   2.763   5.099   0.196
 7798SOL    HW224294   2.724   5.242   0.127
 7799SOL     OW24295   6.672   5.661   1.820
 7799SOL    HW124296   6.635   5.576   1.856
 7799SOL    HW224297   6.607   5.701   1.755
 7800SOL     OW24298   0.647   4.228   1.672
 7800SOL    HW124299   0.558   4.230   1.627
 7800SOL    HW224300   0.697   4.312   1.651
 7801SOL     OW24301   2.294   1.547   0.895
 7801SOL    HW124302   2.379   1.503   0.923
 7801SOL    HW224303   2.304   1.583   0.803
 7802SOL     OW24304   5.930   2.853   1.559
 7802SOL    HW124305   5.884   2.934   1.522
 7802SOL    HW224306   6.027   2.857   1.535
 7803SOL     OW24307   4.476   3.290   5.622
 7803SOL    HW124308   4.465   3.331   5.532
 7803SOL    HW224309   4.408   3.219   5.635
 7804SOL     OW24310   6.326   1.138   4.029
 7804SOL    HW124311   6.276   1.153   3.944
 7804SOL    HW224312   6.326   1.222   4.083
 7805SOL     OW24313   5.695   2.295   1.187
 7805SOL    HW124314   5.757   2.368   1.159
 7805SOL    HW224315   5.613   2.335   1.228
 7806SOL     OW24316   5.496   3.248   5.805
 7806SOL    HW124317   5.407   3.203   5.799
 7806SOL    HW224318   5.483   3.345   5.827
 7807SOL     OW24319   7.007   4.672   6.584
 7807SOL    HW124320   6.918   4.714   6.605
 7807SOL    HW224321   0.010   4.699   6.492
 7808SOL     OW24322   0.700   2.496   4.755
 7808SOL    HW124323   0.611   2.489   4.711
 7808SOL    HW224324   0.771   2.500   4.685
 7809SOL     OW24325   2.152   5.282   4.822
 7809SOL    HW124326   2.119   5.260   4.730
 7809SOL    HW224327   2.248   5.310   4.817
 7810SOL     OW24328   3.084   1.006   5.852
 7810SOL    HW124329   3.042   0.945   5.784
 7810SOL    HW224330   3.015   1.034   5.918
 7811SOL     OW24331   6.237   4.456   4.250
 7811SOL    HW124332   6.160   4.397   4.277
 7811SOL    HW224333   6.293   4.476   4.329
 7812SOL     OW24334   1.355   1.850   3.866
 7812SOL    HW124335   1.306   1.782   3.920
 7812SOL    HW224336   1.438   1.878   3.915
 7813SOL     OW24337   4.954   2.837   6.384
 7813SOL    HW124338   5.031   2.799   6.333
 7813SOL    HW224339   4.877   2.774   6.379
 7814SOL     OW24340   0.202   2.532   3.331
 7814SOL    HW124341   0.119   2.535   3.387
 7814SOL    HW224342   0.220   2.437   3.304
 7815SOL     OW24343   5.481   1.433   6.738
 7815SOL    HW124344   5.458   1.489   6.658
 7815SOL    HW224345   5.422   1.459   6.814
 7816SOL     OW24346   0.923   3.136   6.012
 7816SOL    HW124347   0.935   3.149   5.914
 7816SOL    HW224348   0.857   3.063   6.029
 7817SOL     OW24349   6.003   3.633   4.308
 7817SOL    HW124350   5.917   3.682   4.295
 7817SOL    HW224351   6.065   3.652   4.232
 7818SOL     OW24352   5.694   0.257   1.946
 7818SOL    HW124353   5.695   0.352   1.916
 7818SOL    HW224354   5.780   0.213   1.921
 7819SOL     OW24355   0.100   3.066   1.553
 7819SOL    HW124356   0.173   3.059   1.485
 7819SOL    HW224357   0.111   2.995   1.622
 7820SOL     OW24358   1.670   2.349   4.979
 7820SOL    HW124359   1.591   2.289   4.973
 7820SOL    HW224360   1.655   2.430   4.922
 7821SOL     OW24361   4.345   5.818   1.387
 7821SOL    HW124362   4.375   5.851   1.297
 7821SOL    HW224363   4.421   5.823   1.452
 7822SOL     OW24364   0.254   6.764   5.341
 7822SOL    HW124365   0.213   6.687   5.391
 7822SOL    HW224366   0.330   6.731   5.285
 7823SOL     OW24367   2.273   4.145   4.609
 7823SOL    HW124368   2.200   4.086   4.642
 7823SOL    HW224369   2.344   4.154   4.679
 7824SOL     OW24370   6.830   2.458   5.022
 7824SOL    HW124371   6.743   2.435   5.065
 7824SOL    HW224372   6.904   2.451   5.089
 7825SOL     OW24373   2.537   3.175   6.897
 7825SOL    HW124374   2.518   3.102   6.831
 7825SOL    HW224375   2.630   3.208   6.883
 7826SOL     OW24376   6.888   1.525   0.277
 7826SOL    HW124377   6.900   1.436   0.321
 7826SOL    HW224378   6.902   1.597   0.344
 7827SOL     OW24379   0.351   5.749   2.530
 7827SOL    HW124380   0.329   5.652   2.526
 7827SOL    HW224381   0.413   5.767   2.607
 7828SOL     OW24382   6.820   4.131   6.970
 7828SOL    HW124383   6.862   4.137   6.879
 7828SOL    HW224384   6.733   4.083   6.963
 7829SOL     OW24385   3.453   3.041   1.251
 7829SOL    HW124386   3.486   2.985   1.175
 7829SOL    HW224387   3.484   3.002   1.337
 7830SOL     OW24388   3.405   5.685   5.249
 7830SOL    HW124389   3.402   5.597   5.201
 7830SOL    HW224390   3.461   5.749   5.197
 7831SOL     OW24391   1.884   1.266   1.035
 7831SOL    HW124392   1.793   1.251   0.998
 7831SOL    HW224393   1.929   1.341   0.985
 7832SOL     OW24394   4.836   0.482   4.242
 7832SOL    HW124395   4.793   0.492   4.332
 7832SOL    HW224396   4.917   0.541   4.238
 7833SOL     OW24397   1.237   0.414   4.166
 7833SOL    HW124398   1.255   0.480   4.239
 7833SOL    HW224399   1.285   0.442   4.083
 7834SOL     OW24400   6.688   1.748   3.967
 7834SOL    HW124401   6.777   1.781   3.999
 7834SOL    HW224402   6.689   1.649   3.962
 7835SOL     OW24403   4.057   1.776   5.260
 7835SOL    HW124404   4.119   1.855   5.266
 7835SOL    HW224405   4.065   1.721   5.344
 7836SOL     OW24406   4.052   4.064   5.197
 7836SOL    HW124407   4.045   4.026   5.104
 7836SOL    HW224408   4.000   4.007   5.260
 7837SOL     OW24409   5.591   6.459   0.567
 7837SOL    HW124410   5.672   6.511   0.592
 7837SOL    HW224411   5.550   6.498   0.484
 7838SOL     OW24412   5.011   4.937   1.153
 7838SOL    HW124413   4.988   4.896   1.241
 7838SOL    HW224414   5.111   4.941   1.143
 7839SOL     OW24415   5.954   4.135   4.990
 7839SOL    HW124416   5.872   4.079   4.981
 7839SOL    HW224417   5.928   4.230   5.003
 7840SOL     OW24418   0.547   4.032   3.761
 7840SOL    HW124419   0.473   4.024   3.826
 7840SOL    HW224420   0.517   4.084   3.681
 7841SOL     OW24421   5.055   2.026   6.220
 7841SOL    HW124422   5.019   1.936   6.246
 7841SOL    HW224423   4.979   2.087   6.198
 7842SOL     OW24424   2.418   2.118   2.393
 7842SOL    HW124425   2.349   2.081   2.331
 7842SOL    HW224426   2.431   2.216   2.375
 7843SOL     OW24427   6.785   7.005   4.233
 7843SOL    HW124428   6.864   0.034   4.202
 7843SOL    HW224429   6.727   6.984   4.154
 7844SOL     OW24430   3.281   0.589   2.404
 7844SOL    HW124431   3.305   0.498   2.368
 7844SOL    HW224432   3.362   0.647   2.403
 7845SOL     OW24433   5.382   2.121   1.423
 7845SOL    HW124434   5.323   2.052   1.464
 7845SOL    HW224435   5.403   2.192   1.490
 7846SOL     OW24436   1.578   2.792   0.413
 7846SOL    HW124437   1.592   2.700   0.377
 7846SOL    HW224438   1.638   2.807   0.492
 7847SOL     OW24439   6.196   1.839   3.589
 7847SOL    HW124440   6.208   1.934   3.558
 7847SOL    HW224441   6.156   1.785   3.516
 7848SOL     OW24442   3.183   4.661   1.189
 7848SOL    HW124443   3.105   4.662   1.127
 7848SOL    HW224444   3.210   4.755   1.210
 7849SOL     OW24445   5.715   3.486   5.400
 7849SOL    HW124446   5.768   3.425   5.341
 7849SOL    HW224447   5.775   3.529   5.467
 7850SOL     OW24448   6.684   1.588   3.243
 7850SOL    HW124449   6.782   1.581   3.223
 7850SOL    HW224450   6.662   1.681   3.272
 7851SOL     OW24451   0.660   3.540   1.825
 7851SOL    HW124452   0.691   3.508   1.736
 7851SOL    HW224453   0.724   3.510   1.896
 7852SOL     OW24454   3.183   1.108   0.662
 7852SOL    HW124455   3.212   1.143   0.751
 7852SOL    HW224456   3.263   1.101   0.601
 7853SOL     OW24457   4.381   3.137   1.763
 7853SOL    HW124458   4.464   3.100   1.804
 7853SOL    HW224459   4.370   3.101   1.671
 7854SOL     OW24460   4.490   2.306   6.015
 7854SOL    HW124461   4.403   2.258   6.009
 7854SOL    HW224462   4.563   2.240   6.034
 7855SOL     OW24463   4.981   6.382   4.486
 7855SOL    HW124464   4.984   6.293   4.532
 7855SOL    HW224465   5.020   6.452   4.545
 7856SOL     OW24466   1.775   4.493   4.966
 7856SOL    HW124467   1.742   4.426   4.898
 7856SOL    HW224468   1.714   4.572   4.966
 7857SOL     OW24469   4.883   4.056   0.291
 7857SOL    HW124470   4.799   4.002   0.285
 7857SOL    HW224471   4.913   4.081   0.199
 7858SOL     OW24472   0.231   5.629   5.086
 7858SOL    HW124473   0.283   5.548   5.056
 7858SOL    HW224474   0.137   5.621   5.055
 7859SOL     OW24475   5.154   3.173   6.309
 7859SOL    HW124476   5.068   3.219   6.331
 7859SOL    HW224477   5.178   3.111   6.384
 7860SOL     OW24478   3.679   1.181   4.452
 7860SOL    HW124479   3.704   1.087   4.474
 7860SOL    HW224480   3.591   1.203   4.494
 7861SOL     OW24481   2.748   5.701   1.861
 7861SOL    HW124482   2.663   5.747   1.887
 7861SOL    HW224483   2.728   5.634   1.789
 7862SOL     OW24484   3.067   5.340   2.006
 7862SOL    HW124485   3.000   5.395   1.956
 7862SOL    HW224486   3.030   5.249   2.022
 7863SOL     OW24487   0.025   4.208   3.455
 7863SOL    HW124488   0.108   4.175   3.410
 7863SOL    HW224489   0.044   4.223   3.553
 7864SOL     OW24490   2.029   6.228   6.583
 7864SOL    HW124491   1.955   6.294   6.599
 7864SOL    HW224492   2.055   6.186   6.670
 7865SOL     OW24493   5.928   6.153   3.789
 7865SOL    HW124494   5.893   6.110   3.872
 7865SOL    HW224495   5.963   6.244   3.810
 7866SOL     OW24496   1.978   0.475   5.653
 7866SOL    HW124497   1.933   0.565   5.657
 7866SOL    HW224498   2.075   0.486   5.672
 7867SOL     OW24499   5.419   6.822   4.036
 7867SOL    HW124500   5.325   6.789   4.044
 7867SOL    HW224501   5.474   6.788   4.112
 7868SOL     OW24502   4.007   6.098   0.664
 7868SOL    HW124503   3.966   6.147   0.587
 7868SOL    HW224504   4.097   6.135   0.683
 7869SOL     OW24505   5.152   4.861   5.597
 7869SOL    HW124506   5.115   4.886   5.508
 7869SOL    HW224507   5.250   4.844   5.590
 7870SOL     OW24508   4.569   0.194   5.370
 7870SOL    HW124509   4.577   0.110   5.318
 7870SOL    HW224510   4.563   0.173   5.468
 7871SOL     OW24511   5.259   0.826   2.109
 7871SOL    HW124512   5.280   0.795   2.017
 7871SOL    HW224513   5.323   0.898   2.136
 7872SOL     OW24514   1.833   5.096   2.785
 7872SOL    HW124515   1.742   5.061   2.807
 7872SOL    HW224516   1.868   5.048   2.704
 7873SOL     OW24517   6.718   1.029   1.037
 7873SOL    HW124518   6.704   1.041   1.136
 7873SOL    HW224519   6.735   1.118   0.995
 7874SOL     OW24520   5.613   2.653   0.997
 7874SOL    HW124521   5.636   2.675   1.091
 7874SOL    HW224522   5.517   2.674   0.980
 7875SOL     OW24523   3.779   3.711   6.751
 7875SOL    HW124524   3.842   3.774   6.796
 7875SOL    HW224525   3.772   3.735   6.654
 7876SOL     OW24526   1.309   0.416   2.452
 7876SOL    HW124527   1.408   0.428   2.444
 7876SOL    HW224528   1.282   0.423   2.548
 7877SOL     OW24529   5.696   1.491   2.616
 7877SOL    HW124530   5.794   1.473   2.610
 7877SOL    HW224531   5.654   1.477   2.526
 7878SOL     OW24532   4.853   3.673   3.763
 7878SOL    HW124533   4.891   3.675   3.671
 7878SOL    HW224534   4.846   3.579   3.795
 7879SOL     OW24535   3.172   5.326   3.587
 7879SOL    HW124536   3.212   5.322   3.495
 7879SOL    HW224537   3.081   5.286   3.585
 7880SOL     OW24538   2.371   3.904   1.267
 7880SOL    HW124539   2.326   3.868   1.349
 7880SOL    HW224540   2.305   3.908   1.192
 7881SOL     OW24541   5.309   4.026   4.303
 7881SOL    HW124542   5.308   4.115   4.346
 7881SOL    HW224543   5.231   4.017   4.241
 7882SOL     OW24544   2.842   3.950   1.280
 7882SOL    HW124545   2.798   3.871   1.322
 7882SOL    HW224546   2.772   4.017   1.255
 7883SOL     OW24547   0.787   0.740   4.919
 7883SOL    HW124548   0.754   0.776   5.006
 7883SOL    HW224549   0.768   0.642   4.914
 7884SOL     OW24550   0.217   3.223   4.042
 7884SOL    HW124551   0.165   3.143   4.013
 7884SOL    HW224552   0.310   3.195   4.065
 7885SOL     OW24553   6.349   5.595   0.827
 7885SOL    HW124554   6.336   5.504   0.788
 7885SOL    HW224555   6.347   5.663   0.754
 7886SOL     OW24556   4.549   5.589   0.692
 7886SOL    HW124557   4.594   5.608   0.779
 7886SOL    HW224558   4.595   5.512   0.647
 7887SOL     OW24559   4.018   1.745   6.832
 7887SOL    HW124560   4.076   1.664   6.829
 7887SOL    HW224561   3.923   1.718   6.845
 7888SOL     OW24562   5.086   0.374   4.007
 7888SOL    HW124563   5.029   0.456   4.009
 7888SOL    HW224564   5.153   0.381   3.932
 7889SOL     OW24565   0.682   6.123   2.103
 7889SOL    HW124566   0.689   6.024   2.088
 7889SOL    HW224567   0.586   6.151   2.095
 7890SOL     OW24568   2.210   3.935   2.251
 7890SOL    HW124569   2.171   3.966   2.338
 7890SOL    HW224570   2.258   3.848   2.266
 7891SOL     OW24571   2.740   4.786   2.198
 7891SOL    HW124572   2.769   4.730   2.120
 7891SOL    HW224573   2.819   4.837   2.232
 7892SOL     OW24574   1.932   2.792   5.543
 7892SOL    HW124575   1.847   2.829   5.505
 7892SOL    HW224576   1.916   2.758   5.635
 7893SOL     OW24577   5.929   6.735   1.465
 7893SOL    HW124578   5.834   6.716   1.490
 7893SOL    HW224579   5.952   6.829   1.490
 7894SOL     OW24580   2.200   6.412   2.477
 7894SOL    HW124581   2.151   6.359   2.546
 7894SOL    HW224582   2.299   6.402   2.492
 7895SOL     OW24583   6.211   1.108   4.985
 7895SOL    HW124584   6.111   1.108   4.980
 7895SOL    HW224585   6.240   1.104   5.081
 7896SOL     OW24586   4.877   3.692   5.680
 7896SOL    HW124587   4.811   3.731   5.743
 7896SOL    HW224588   4.829   3.638   5.610
 7897SOL     OW24589   2.301   3.934   6.551
 7897SOL    HW124590   2.223   3.988   6.585
 7897SOL    HW224591   2.285   3.908   6.456
 7898SOL     OW24592   4.972   2.450   3.675
 7898SOL    HW124593   4.961   2.544   3.708
 7898SOL    HW224594   5.031   2.399   3.737
 7899SOL     OW24595   6.286   2.356   2.041
 7899SOL    HW124596   6.330   2.417   1.975
 7899SOL    HW224597   6.187   2.373   2.041
 7900SOL     OW24598   1.305   5.237   1.564
 7900SOL    HW124599   1.368   5.313   1.545
 7900SOL    HW224600   1.339   5.154   1.520
 7901SOL     OW24601   5.822   6.799   6.158
 7901SOL    HW124602   5.742   6.859   6.148
 7901SOL    HW224603   5.822   6.730   6.086
 7902SOL     OW24604   4.445   4.696   1.325
 7902SOL    HW124605   4.472   4.657   1.413
 7902SOL    HW224606   4.345   4.702   1.321
 7903SOL     OW24607   6.502   1.863   0.360
 7903SOL    HW124608   6.465   1.944   0.314
 7903SOL    HW224609   6.547   1.891   0.445
 7904SOL     OW24610   0.084   0.738   2.682
 7904SOL    HW124611   0.078   0.762   2.585
 7904SOL    HW224612   0.178   0.751   2.713
 7905SOL     OW24613   3.881   1.645   1.161
 7905SOL    HW124614   3.915   1.707   1.090
 7905SOL    HW224615   3.957   1.594   1.201
 7906SOL     OW24616   6.185   5.878   6.692
 7906SOL    HW124617   6.169   5.807   6.623
 7906SOL    HW224618   6.114   5.874   6.762
 7907SOL     OW24619   6.330   2.271   4.150
 7907SOL    HW124620   6.343   2.198   4.218
 7907SOL    HW224621   6.376   2.245   4.065
 7908SOL     OW24622   0.681   1.224   3.163
 7908SOL    HW124623   0.613   1.237   3.235
 7908SOL    HW224624   0.684   1.128   3.136
 7909SOL     OW24625   4.957   3.978   4.434
 7909SOL    HW124626   5.013   4.060   4.422
 7909SOL    HW224627   4.921   3.976   4.527
 7910SOL     OW24628   4.358   3.081   6.282
 7910SOL    HW124629   4.398   2.990   6.276
 7910SOL    HW224630   4.280   3.087   6.220
 7911SOL     OW24631   6.786   4.977   0.432
 7911SOL    HW124632   6.721   4.982   0.356
 7911SOL    HW224633   6.814   5.069   0.458
 7912SOL     OW24634   6.024   5.046   6.425
 7912SOL    HW124635   6.001   4.992   6.344
 7912SOL    HW224636   5.940   5.085   6.465
 7913SOL     OW24637   6.949   5.240   6.584
 7913SOL    HW124638   6.929   5.278   6.674
 7913SOL    HW224639   6.864   5.223   6.535
 7914SOL     OW24640   6.221   4.930   1.064
 7914SOL    HW124641   6.123   4.931   1.083
 7914SOL    HW224642   6.250   4.837   1.041
 7915SOL     OW24643   4.857   2.018   3.102
 7915SOL    HW124644   4.802   2.011   3.019
 7915SOL    HW224645   4.927   1.945   3.101
 7916SOL     OW24646   5.327   3.283   5.518
 7916SOL    HW124647   5.322   3.380   5.541
 7916SOL    HW224648   5.287   3.228   5.591
 7917SOL     OW24649   3.929   3.845   4.601
 7917SOL    HW124650   4.001   3.816   4.539
 7917SOL    HW224651   3.883   3.926   4.564
 7918SOL     OW24652   6.246   1.337   1.493
 7918SOL    HW124653   6.198   1.425   1.480
 7918SOL    HW224654   6.179   1.266   1.515
 7919SOL     OW24655   5.745   4.318   2.393
 7919SOL    HW124656   5.684   4.328   2.471
 7919SOL    HW224657   5.693   4.296   2.311
 7920SOL     OW24658   0.487   4.851   1.610
 7920SOL    HW124659   0.518   4.770   1.560
 7920SOL    HW224660   0.395   4.876   1.580
 7921SOL     OW24661   2.641   6.661   1.270
 7921SOL    HW124662   2.698   6.622   1.342
 7921SOL    HW224663   2.563   6.709   1.310
 7922SOL     OW24664   0.013   5.169   6.997
 7922SOL    HW124665   0.032   5.086   6.943
 7922SOL    HW224666   6.944   5.166   0.002
 7923SOL     OW24667   1.764   1.108   2.787
 7923SOL    HW124668   1.715   1.120   2.874
 7923SOL    HW224669   1.837   1.177   2.781
 7924SOL     OW24670   2.929   6.872   3.714
 7924SOL    HW124671   2.884   6.874   3.624
 7924SOL    HW224672   2.863   6.892   3.785
 7925SOL     OW24673   6.375   1.661   6.092
 7925SOL    HW124674   6.467   1.628   6.113
 7925SOL    HW224675   6.307   1.596   6.126
 7926SOL     OW24676   3.320   1.068   3.442
 7926SOL    HW124677   3.412   1.031   3.438
 7926SOL    HW224678   3.287   1.087   3.350
 7927SOL     OW24679   4.102   5.455   5.210
 7927SOL    HW124680   4.095   5.358   5.231
 7927SOL    HW224681   4.098   5.508   5.295
 7928SOL     OW24682   2.027   4.947   3.016
 7928SOL    HW124683   2.046   5.028   3.072
 7928SOL    HW224684   2.113   4.900   2.995
 7929SOL     OW24685   3.692   3.693   4.652
 7929SOL    HW124686   3.617   3.735   4.600
 7929SOL    HW224687   3.778   3.739   4.627
 7930SOL     OW24688   4.337   4.978   3.284
 7930SOL    HW124689   4.333   5.030   3.369
 7930SOL    HW224690   4.416   5.008   3.231
 7931SOL     OW24691   2.265   2.644   6.873
 7931SOL    HW124692   2.298   2.711   6.940
 7931SOL    HW224693   2.255   2.688   6.784
 7932SOL     OW24694   2.562   0.323   6.942
 7932SOL    HW124695   2.656   0.289   6.947
 7932SOL    HW224696   2.526   0.337   0.008
 7933SOL     OW24697   0.151   6.623   6.753
 7933SOL    HW124698   0.201   6.599   6.836
 7933SOL    HW224699   0.142   6.722   6.747
 7934SOL     OW24700   2.539   3.975   0.380
 7934SOL    HW124701   2.525   3.877   0.365
 7934SOL    HW224702   2.569   3.990   0.474
 7935SOL     OW24703   4.901   5.803   0.914
 7935SOL    HW124704   4.923   5.757   0.828
 7935SOL    HW224705   4.842   5.882   0.895
 7936SOL     OW24706   4.007   6.289   3.127
 7936SOL    HW124707   3.909   6.301   3.143
 7936SOL    HW224708   4.039   6.358   3.062
 7937SOL     OW24709   5.943   6.367   5.494
 7937SOL    HW124710   5.981   6.458   5.507
 7937SOL    HW224711   6.016   6.303   5.470
 7938SOL     OW24712   3.809   5.081   4.737
 7938SOL    HW124713   3.870   5.138   4.793
 7938SOL    HW224714   3.852   4.992   4.721
 7939SOL     OW24715   1.192   1.363   5.459
 7939SOL    HW124716   1.234   1.394   5.544
 7939SOL    HW224717   1.111   1.308   5.480
 7940SOL     OW24718   2.121   5.404   1.399
 7940SOL    HW124719   2.043   5.347   1.422
 7940SOL    HW224720   2.146   5.460   1.478
 7941SOL     OW24721   0.447   1.114   0.593
 7941SOL    HW124722   0.517   1.078   0.531
 7941SOL    HW224723   0.450   1.064   0.680
 7942SOL     OW24724   0.252   6.670   1.973
 7942SOL    HW124725   0.161   6.689   2.010
 7942SOL    HW224726   0.303   6.612   2.037
 7943SOL     OW24727   5.398   1.996   1.163
 7943SOL    HW124728   5.365   2.058   1.234
 7943SOL    HW224729   5.484   2.031   1.126
 7944SOL     OW24730   6.928   3.180   1.393
 7944SOL    HW124731   6.955   3.262   1.342
 7944SOL    HW224732   6.992   3.165   1.468
 7945SOL     OW24733   5.105   6.908   3.057
 7945SOL    HW124734   5.094   7.002   3.091
 7945SOL    HW224735   5.140   6.850   3.131
 7946SOL     OW24736   1.402   2.528   6.070
 7946SOL    HW124737   1.438   2.442   6.105
 7946SOL    HW224738   1.430   2.540   5.975
 7947SOL     OW24739   3.558   2.841   6.432
 7947SOL    HW124740   3.607   2.890   6.360
 7947SOL    HW224741   3.468   2.814   6.397
 7948SOL     OW24742   0.094   0.296   0.530
 7948SOL    HW124743   0.169   0.257   0.477
 7948SOL    HW224744   0.103   0.268   0.626
 7949SOL     OW24745   5.395   4.768   3.903
 7949SOL    HW124746   5.322   4.708   3.936
 7949SOL    HW224747   5.479   4.715   3.892
 7950SOL     OW24748   3.971   4.828   3.282
 7950SOL    HW124749   3.950   4.812   3.378
 7950SOL    HW224750   4.063   4.793   3.261
 7951SOL     OW24751   3.010   3.636   0.908
 7951SOL    HW124752   3.004   3.691   0.991
 7951SOL    HW224753   2.989   3.541   0.930
 7952SOL     OW24754   6.632   2.614   6.478
 7952SOL    HW124755   6.575   2.686   6.440
 7952SOL    HW224756   6.597   2.588   6.568
 7953SOL     OW24757   2.211   2.987   2.739
 7953SOL    HW124758   2.114   2.971   2.722
 7953SOL    HW224759   2.222   3.032   2.828
 7954SOL     OW24760   4.333   5.119   5.079
 7954SOL    HW124761   4.247   5.155   5.115
 7954SOL    HW224762   4.388   5.193   5.042
 7955SOL     OW24763   6.841   6.529   6.786
 7955SOL    HW124764   6.878   6.618   6.812
 7955SOL    HW224765   6.862   6.510   6.690
 7956SOL     OW24766   0.111   6.110   3.511
 7956SOL    HW124767   0.154   6.155   3.589
 7956SOL    HW224768   0.175   6.107   3.434
 7957SOL     OW24769   1.256   1.936   0.230
 7957SOL    HW124770   1.222   2.001   0.162
 7957SOL    HW224771   1.296   1.987   0.307
 7958SOL     OW24772   3.769   5.808   4.259
 7958SOL    HW124773   3.808   5.818   4.167
 7958SOL    HW224774   3.738   5.713   4.272
 7959SOL     OW24775   5.552   4.444   0.245
 7959SOL    HW124776   5.611   4.464   0.323
 7959SOL    HW224777   5.473   4.391   0.275
 7960SOL     OW24778   3.090   1.395   1.123
 7960SOL    HW124779   3.183   1.359   1.122
 7960SOL    HW224780   3.081   1.467   1.053
 7961SOL     OW24781   1.352   6.409   6.076
 7961SOL    HW124782   1.350   6.508   6.070
 7961SOL    HW224783   1.305   6.380   6.160
 7962SOL     OW24784   2.160   1.138   0.964
 7962SOL    HW124785   2.086   1.141   1.031
 7962SOL    HW224786   2.171   1.229   0.924
 7963SOL     OW24787   0.237   0.922   5.478
 7963SOL    HW124788   0.232   1.013   5.437
 7963SOL    HW224789   0.147   0.879   5.473
 7964SOL     OW24790   5.159   4.685   3.586
 7964SOL    HW124791   5.124   4.593   3.570
 7964SOL    HW224792   5.255   4.689   3.560
 7965SOL     OW24793   4.373   2.284   0.321
 7965SOL    HW124794   4.471   2.287   0.303
 7965SOL    HW224795   4.347   2.356   0.385
 7966SOL     OW24796   1.167   4.524   4.576
 7966SOL    HW124797   1.128   4.613   4.602
 7966SOL    HW224798   1.199   4.476   4.658
 7967SOL     OW24799   3.100   5.718   2.942
 7967SOL    HW124800   3.082   5.787   3.012
 7967SOL    HW224801   3.124   5.631   2.986
 7968SOL     OW24802   2.635   2.059   3.799
 7968SOL    HW124803   2.541   2.032   3.819
 7968SOL    HW224804   2.698   1.996   3.845
 7969SOL     OW24805   4.150   0.426   2.795
 7969SOL    HW124806   4.241   0.448   2.831
 7969SOL    HW224807   4.114   0.346   2.843
 7970SOL     OW24808   6.806   3.524   3.012
 7970SOL    HW124809   6.732   3.546   2.949
 7970SOL    HW224810   6.781   3.552   3.105
 7971SOL     OW24811   2.545   0.562   1.834
 7971SOL    HW124812   2.464   0.621   1.829
 7971SOL    HW224813   2.607   0.597   1.905
 7972SOL     OW24814   0.048   4.188   1.404
 7972SOL    HW124815   0.110   4.188   1.482
 7972SOL    HW224816   7.015   4.270   1.409
 7973SOL     OW24817   5.180   3.442   3.774
 7973SOL    HW124818   5.195   3.527   3.725
 7973SOL    HW224819   5.187   3.365   3.711
 7974SOL     OW24820   5.391   0.437   4.168
 7974SOL    HW124821   5.357   0.529   4.186
 7974SOL    HW224822   5.317   0.381   4.131
 7975SOL     OW24823   4.037   0.458   4.542
 7975SOL    HW124824   3.971   0.438   4.469
 7975SOL    HW224825   4.078   0.548   4.528
 7976SOL     OW24826   0.803   6.963   5.220
 7976SOL    HW124827   0.813   7.008   5.131
 7976SOL    HW224828   0.720   6.996   5.265
 7977SOL     OW24829   5.192   5.846   2.797
 7977SOL    HW124830   5.182   5.915   2.726
 7977SOL    HW224831   5.102   5.818   2.829
 7978SOL     OW24832   4.329   3.528   6.283
 7978SOL    HW124833   4.355   3.445   6.333
 7978SOL    HW224834   4.412   3.573   6.249
 7979SOL     OW24835   3.369   0.522   4.885
 7979SOL    HW124836   3.456   0.569   4.902
 7979SOL    HW224837   3.362   0.444   4.948
 7980SOL     OW24838   3.537   6.155   0.295
 7980SOL    HW124839   3.594   6.079   0.325
 7980SOL    HW224840   3.594   6.234   0.274
 7981SOL     OW24841   0.856   4.823   2.445
 7981SOL    HW124842   0.805   4.741   2.418
 7981SOL    HW224843   0.813   4.904   2.405
 7982SOL     OW24844   6.641   2.725   0.649
 7982SOL    HW124845   6.574   2.797   0.628
 7982SOL    HW224846   6.593   2.644   0.684
 7983SOL     OW24847   5.133   1.657   2.826
 7983SOL    HW124848   5.061   1.588   2.825
 7983SOL    HW224849   5.093   1.748   2.816
 7984SOL     OW24850   1.217   2.311   1.882
 7984SOL    HW124851   1.144   2.318   1.950
 7984SOL    HW224852   1.290   2.375   1.905
 7985SOL     OW24853   0.938   0.459   2.258
 7985SOL    HW124854   0.951   0.521   2.336
 7985SOL    HW224855   1.016   0.468   2.196
 7986SOL     OW24856   4.287   1.385   6.667
 7986SOL    HW124857   4.218   1.399   6.596
 7986SOL    HW224858   4.256   1.427   6.753
 7987SOL     OW24859   0.310   2.866   5.626
 7987SOL    HW124860   0.354   2.850   5.715
 7987SOL    HW224861   0.368   2.926   5.571
 7988SOL     OW24862   3.055   2.193   4.491
 7988SOL    HW124863   3.041   2.094   4.491
 7988SOL    HW224864   2.986   2.236   4.549
 7989SOL     OW24865   3.666   2.443   5.412
 7989SOL    HW124866   3.569   2.465   5.412
 7989SOL    HW224867   3.682   2.362   5.355
 7990SOL     OW24868   0.823   3.024   4.186
 7990SOL    HW124869   0.835   3.094   4.116
 7990SOL    HW224870   0.910   2.978   4.203
 7991SOL     OW24871   0.263   2.668   6.014
 7991SOL    HW124872   0.278   2.570   6.002
 7991SOL    HW224873   0.270   2.713   5.925
 7992SOL     OW24874   1.676   0.042   0.890
 7992SOL    HW124875   1.774   0.026   0.879
 7992SOL    HW224876   1.650   0.022   0.985
 7993SOL     OW24877   1.858   5.835   6.873
 7993SOL    HW124878   1.815   5.755   6.915
 7993SOL    HW224879   1.875   5.817   6.776
 7994SOL     OW24880   4.565   0.896   3.814
 7994SOL    HW124881   4.505   0.837   3.760
 7994SOL    HW224882   4.539   0.891   3.911
 7995SOL     OW24883   3.836   5.448   3.903
 7995SOL    HW124884   3.895   5.522   3.868
 7995SOL    HW224885   3.891   5.384   3.957
 7996SOL     OW24886   3.324   6.684   4.425
 7996SOL    HW124887   3.298   6.740   4.346
 7996SOL    HW224888   3.320   6.588   4.400
 7997SOL     OW24889   6.454   1.643   1.305
 7997SOL    HW124890   6.519   1.575   1.272
 7997SOL    HW224891   6.367   1.633   1.255
 7998SOL     OW24892   5.300   4.616   0.409
 7998SOL    HW124893   5.299   4.624   0.310
 7998SOL    HW224894   5.392   4.635   0.443
 7999SOL     OW24895   1.115   0.113   5.457
 7999SOL    HW124896   1.107   0.088   5.360
 7999SOL    HW224897   1.206   0.089   5.490
 8000SOL     OW24898   6.014   0.247   6.153
 8000SOL    HW124899   5.993   0.286   6.242
 8000SOL    HW224900   6.088   0.180   6.163
 8001SOL     OW24901   1.701   6.414   1.644
 8001SOL    HW124902   1.625   6.410   1.709
 8001SOL    HW224903   1.760   6.335   1.656
 8002SOL     OW24904   0.137   3.508   4.923
 8002SOL    HW124905   0.152   3.435   4.990
 8002SOL    HW224906   0.207   3.578   4.935
 8003SOL     OW24907   3.006   5.046   2.957
 8003SOL    HW124908   2.972   5.139   2.946
 8003SOL    HW224909   3.032   5.031   3.053
 8004SOL     OW24910   2.191   4.358   3.154
 8004SOL    HW124911   2.137   4.418   3.095
 8004SOL    HW224912   2.280   4.400   3.171
 8005SOL     OW24913   2.613   1.020   2.020
 8005SOL    HW124914   2.565   0.962   2.086
 8005SOL    HW224915   2.697   1.054   2.062
 8006SOL     OW24916   2.574   5.811   0.078
 8006SOL    HW124917   2.639   5.739   0.104
 8006SOL    HW224918   2.601   5.851   7.017
 8007SOL     OW24919   0.967   6.956   3.936
 8007SOL    HW124920   1.026   6.910   3.870
 8007SOL    HW224921   1.022   7.017   3.993
 8008SOL     OW24922   5.628   6.082   6.645
 8008SOL    HW124923   5.537   6.109   6.678
 8008SOL    HW224924   5.662   6.150   6.581
 8009SOL     OW24925   6.945   0.294   2.913
 8009SOL    HW124926   6.915   0.362   2.980
 8009SOL    HW224927   6.895   0.309   2.827
 8010SOL     OW24928   2.491   2.078   6.670
 8010SOL    HW124929   2.527   2.060   6.578
 8010SOL    HW224930   2.409   2.135   6.663
 8011SOL     OW24931   2.759   1.877   0.927
 8011SOL    HW124932   2.741   1.844   0.834
 8011SOL    HW224933   2.677   1.923   0.962
 8012SOL     OW24934   1.601   6.824   1.063
 8012SOL    HW124935   1.579   6.727   1.051
 8012SOL    HW224936   1.699   6.838   1.048
 8013SOL     OW24937   6.174   4.437   3.991
 8013SOL    HW124938   6.206   4.418   4.084
 8013SOL    HW224939   6.234   4.505   3.949
 8014SOL     OW24940   1.858   5.822   6.584
 8014SOL    HW124941   1.768   5.779   6.589
 8014SOL    HW224942   1.848   5.919   6.563
 8015SOL     OW24943   2.970   2.779   0.783
 8015SOL    HW124944   3.050   2.720   0.794
 8015SOL    HW224945   2.990   2.849   0.715
 8016SOL     OW24946   4.603   0.353   0.664
 8016SOL    HW124947   4.565   0.445   0.673
 8016SOL    HW224948   4.695   0.350   0.702
 8017SOL     OW24949   0.348   4.222   5.644
 8017SOL    HW124950   0.376   4.129   5.620
 8017SOL    HW224951   0.269   4.249   5.589
 8018SOL     OW24952   4.898   1.592   5.579
 8018SOL    HW124953   4.818   1.652   5.576
 8018SOL    HW224954   4.880   1.515   5.641
 8019SOL     OW24955   1.673   4.847   0.998
 8019SOL    HW124956   1.603   4.916   1.017
 8019SOL    HW224957   1.758   4.892   0.972
 8020SOL     OW24958   5.883   5.936   6.596
 8020SOL    HW124959   5.784   5.951   6.602
 8020SOL    HW224960   5.910   5.932   6.500
 8021SOL     OW24961   0.704   1.537   1.585
 8021SOL    HW124962   0.783   1.597   1.580
 8021SOL    HW224963   0.696   1.485   1.500
 8022SOL     OW24964   4.501   0.232   3.105
 8022SOL    HW124965   4.581   0.268   3.153
 8022SOL    HW224966   4.429   0.212   3.170
 8023SOL     OW24967   6.583   6.101   2.782
 8023SOL    HW124968   6.546   6.009   2.773
 8023SOL    HW224969   6.679   6.096   2.809
 8024SOL     OW24970   4.263   5.841   6.376
 8024SOL    HW124971   4.197   5.794   6.317
 8024SOL    HW224972   4.250   5.812   6.471
 8025SOL     OW24973   3.591   6.624   6.295
 8025SOL    HW124974   3.533   6.634   6.214
 8025SOL    HW224975   3.686   6.610   6.267
 8026SOL     OW24976   0.870   3.523   6.828
 8026SOL    HW124977   0.894   3.611   6.787
 8026SOL    HW224978   0.889   3.527   6.926
 8027SOL     OW24979   4.766   1.875   4.980
 8027SOL    HW124980   4.769   1.868   4.880
 8027SOL    HW224981   4.782   1.784   5.019
 8028SOL     OW24982   4.484   5.235   6.055
 8028SOL    HW124983   4.568   5.254   6.105
 8028SOL    HW224984   4.470   5.304   5.984
 8029SOL     OW24985   4.738   4.144   6.551
 8029SOL    HW124986   4.644   4.169   6.571
 8029SOL    HW224987   4.766   4.069   6.610
 8030SOL     OW24988   5.370   4.742   5.496
 8030SOL    HW124989   5.449   4.802   5.479
 8030SOL    HW224990   5.381   4.657   5.443
 8031SOL     OW24991   5.086   5.490   2.265
 8031SOL    HW124992   5.058   5.560   2.200
 8031SOL    HW224993   5.017   5.418   2.269
 8032SOL     OW24994   6.244   3.829   5.008
 8032SOL    HW124995   6.332   3.786   4.990
 8032SOL    HW224996   6.186   3.824   4.927
 8033SOL     OW24997   5.475   2.409   0.005
 8033SOL    HW124998   5.387   2.401   6.982
 8033SOL    HW224999   5.467   2.366   0.095
 8034SOL     OW25000   5.637   6.799   5.270
 8034SOL    HW125001   5.569   6.798   5.197
 8034SOL    HW225002   5.608   6.861   5.343
 8035SOL     OW25003   5.813   5.987   5.588
 8035SOL    HW125004   5.773   5.908   5.542
 8035SOL    HW225005   5.855   5.957   5.674
 8036SOL     OW25006   2.238   3.694   1.774
 8036SOL    HW125007   2.273   3.608   1.811
 8036SOL    HW225008   2.148   3.712   1.812
 8037SOL     OW25009   2.209   2.864   1.033
 8037SOL    HW125010   2.299   2.868   1.076
 8037SOL    HW225011   2.138   2.871   1.103
 8038SOL     OW25012   6.421   1.728   3.139
 8038SOL    HW125013   6.499   1.693   3.088
 8038SOL    HW225014   6.436   1.714   3.237
 8039SOL     OW25015   2.275   7.002   3.003
 8039SOL    HW125016   2.226   6.915   3.008
 8039SOL    HW225017   2.286   0.003   2.907
 8040SOL     OW25018   0.364   5.744   1.143
 8040SOL    HW125019   0.372   5.819   1.078
 8040SOL    HW225020   0.415   5.664   1.109
 8041SOL     OW25021   3.481   1.018   1.343
 8041SOL    HW125022   3.535   1.032   1.426
 8041SOL    HW225023   3.511   0.934   1.298
 8042SOL     OW25024   3.675   2.972   1.984
 8042SOL    HW125025   3.763   2.967   1.936
 8042SOL    HW225026   3.691   2.981   2.083
 8043SOL     OW25027   2.590   0.725   0.608
 8043SOL    HW125028   2.522   0.713   0.681
 8043SOL    HW225029   2.543   0.744   0.522
 8044SOL     OW25030   3.142   2.916   1.350
 8044SOL    HW125031   3.082   2.885   1.424
 8044SOL    HW225032   3.164   3.012   1.363
 8045SOL     OW25033   5.988   1.467   2.646
 8045SOL    HW125034   6.017   1.562   2.655
 8045SOL    HW225035   6.025   1.428   2.561
 8046SOL     OW25036   5.366   4.514   5.377
 8046SOL    HW125037   5.307   4.505   5.297
 8046SOL    HW225038   5.364   4.430   5.430
 8047SOL     OW25039   3.124   5.857   4.630
 8047SOL    HW125040   3.185   5.838   4.706
 8047SOL    HW225041   3.096   5.771   4.587
 8048SOL     OW25042   6.043   0.621   5.634
 8048SOL    HW125043   6.122   0.637   5.575
 8048SOL    HW225044   5.987   0.548   5.595
 8049SOL     OW25045   0.658   0.174   1.074
 8049SOL    HW125046   0.566   0.193   1.041
 8049SOL    HW225047   0.660   0.180   1.174
 8050SOL     OW25048   1.622   3.133   1.314
 8050SOL    HW125049   1.654   3.220   1.350
 8050SOL    HW225050   1.697   3.066   1.316
 8051SOL     OW25051   4.682   0.590   2.947
 8051SOL    HW125052   4.584   0.568   2.947
 8051SOL    HW225053   4.714   0.598   3.041
 8052SOL     OW25054   3.279   1.605   2.178
 8052SOL    HW125055   3.296   1.562   2.089
 8052SOL    HW225056   3.254   1.534   2.244
 8053SOL     OW25057   4.038   3.799   3.047
 8053SOL    HW125058   3.961   3.835   2.994
 8053SOL    HW225059   4.032   3.700   3.052
 8054SOL     OW25060   4.455   6.482   4.779
 8054SOL    HW125061   4.466   6.390   4.817
 8054SOL    HW225062   4.514   6.546   4.829
 8055SOL     OW25063   0.739   0.233   5.940
 8055SOL    HW125064   0.697   0.164   6.000
 8055SOL    HW225065   0.802   0.289   5.993
 8056SOL     OW25066   4.516   1.653   2.925
 8056SOL    HW125067   4.504   1.601   3.010
 8056SOL    HW225068   4.459   1.735   2.928
 8057SOL     OW25069   2.831   0.647   2.867
 8057SOL    HW125070   2.744   0.599   2.853
 8057SOL    HW225071   2.830   0.732   2.815
 8058SOL     OW25072   2.625   0.115   2.588
 8058SOL    HW125073   2.546   0.174   2.571
 8058SOL    HW225074   2.678   0.105   2.504
 8059SOL     OW25075   3.623   2.017   4.656
 8059SOL    HW125076   3.599   2.040   4.562
 8059SOL    HW225077   3.541   1.991   4.707
 8060SOL     OW25078   0.087   1.169   4.190
 8060SOL    HW125079   0.089   1.222   4.275
 8060SOL    HW225080   0.056   1.228   4.115
 8061SOL     OW25081   6.692   5.458   2.875
 8061SOL    HW125082   6.657   5.550   2.893
 8061SOL    HW225083   6.637   5.416   2.802
 8062SOL     OW25084   1.391   4.202   4.625
 8062SOL    HW125085   1.332   4.184   4.546
 8062SOL    HW225086   1.419   4.115   4.666
 8063SOL     OW25087   2.567   3.578   6.894
 8063SOL    HW125088   2.592   3.512   6.965
 8063SOL    HW225089   2.619   3.558   6.810
 8064SOL     OW25090   0.237   3.916   0.226
 8064SOL    HW125091   0.170   3.923   0.151
 8064SOL    HW225092   0.292   3.999   0.229
 8065SOL     OW25093   4.555   6.851   4.635
 8065SOL    HW125094   4.464   6.811   4.628
 8065SOL    HW225095   4.611   6.821   4.557
 8066SOL     OW25096   1.873   1.201   0.209
 8066SOL    HW125097   1.950   1.265   0.208
 8066SOL    HW225098   1.883   1.136   0.134
 8067SOL     OW25099   4.152   2.892   1.756
 8067SOL    HW125100   4.242   2.936   1.764
 8067SOL    HW225101   4.155   2.822   1.686
 8068SOL     OW25102   0.084   4.940   5.067
 8068SOL    HW125103   0.089   4.968   5.163
 8068SOL    HW225104   0.126   5.009   5.009
 8069SOL     OW25105   1.960   6.245   1.308
 8069SOL    HW125106   2.005   6.194   1.381
 8069SOL    HW225107   1.881   6.193   1.274
 8070SOL     OW25108   3.410   6.070   1.742
 8070SOL    HW125109   3.357   6.013   1.805
 8070SOL    HW225110   3.352   6.143   1.707
 8071SOL     OW25111   4.273   6.538   5.353
 8071SOL    HW125112   4.208   6.465   5.328
 8071SOL    HW225113   4.325   6.510   5.433
 8072SOL     OW25114   4.675   1.238   0.509
 8072SOL    HW125115   4.615   1.185   0.568
 8072SOL    HW225116   4.661   1.335   0.526
 8073SOL     OW25117   4.793   6.950   5.968
 8073SOL    HW125118   4.723   7.020   5.982
 8073SOL    HW225119   4.812   6.903   6.054
 8074SOL     OW25120   3.215   3.473   0.573
 8074SOL    HW125121   3.242   3.443   0.665
 8074SOL    HW225122   3.121   3.509   0.577
 8075SOL     OW25123   6.621   1.052   2.069
 8075SOL    HW125124   6.577   1.046   2.158
 8075SOL    HW225125   6.683   1.130   2.067
 8076SOL     OW25126   5.514   2.443   5.386
 8076SOL    HW125127   5.465   2.455   5.472
 8076SOL    HW225128   5.610   2.468   5.397
 8077SOL     OW25129   1.167   0.003   1.536
 8077SOL    HW125130   1.196   0.063   1.462
 8077SOL    HW225131   1.247   7.001   1.590
 8078SOL     OW25132   6.809   2.091   0.855
 8078SOL    HW125133   6.893   2.051   0.891
 8078SOL    HW225134   6.730   2.043   0.894
 8079SOL     OW25135   6.682   2.204   3.077
 8079SOL    HW125136   6.628   2.198   2.993
 8079SOL    HW225137   6.639   2.270   3.140
 8080SOL     OW25138   2.308   3.798   0.510
 8080SOL    HW125139   2.280   3.800   0.414
 8080SOL    HW225140   2.282   3.884   0.555
 8081SOL     OW25141   5.642   0.802   5.207
 8081SOL    HW125142   5.593   0.869   5.264
 8081SOL    HW225143   5.737   0.795   5.237
 8082SOL     OW25144   6.231   2.354   3.335
 8082SOL    HW125145   6.159   2.423   3.337
 8082SOL    HW225146   6.258   2.337   3.240
 8083SOL     OW25147   4.894   2.967   2.617
 8083SOL    HW125148   4.847   2.889   2.658
 8083SOL    HW225149   4.930   2.942   2.527
 8084SOL     OW25150   6.397   6.023   1.524
 8084SOL    HW125151   6.381   6.015   1.623
 8084SOL    HW225152   6.483   6.071   1.508
 8085SOL     OW25153   5.383   0.188   0.994
 8085SOL    HW125154   5.332   0.130   1.058
 8085SOL    HW225155   5.330   0.270   0.973
 8086SOL     OW25156   4.308   0.150   4.487
 8086SOL    HW125157   4.300   0.214   4.564
 8086SOL    HW225158   4.376   0.184   4.423
 8087SOL     OW25159   2.742   2.366   0.799
 8087SOL    HW125160   2.782   2.434   0.738
 8087SOL    HW225161   2.692   2.298   0.745
 8088SOL     OW25162   5.882   0.900   2.316
 8088SOL    HW125163   5.893   0.936   2.224
 8088SOL    HW225164   5.804   0.837   2.318
 8089SOL     OW25165   4.971   2.936   0.410
 8089SOL    HW125166   5.063   2.904   0.435
 8089SOL    HW225167   4.930   2.982   0.489
 8090SOL     OW25168   5.332   1.610   6.563
 8090SOL    HW125169   5.248   1.661   6.547
 8090SOL    HW225170   5.408   1.674   6.575
 8091SOL     OW25171   3.202   4.491   6.666
 8091SOL    HW125172   3.149   4.555   6.612
 8091SOL    HW225173   3.293   4.479   6.625
 8092SOL     OW25174   1.256   1.771   4.839
 8092SOL    HW125175   1.204   1.705   4.892
 8092SOL    HW225176   1.322   1.817   4.898
 8093SOL     OW25177   5.628   5.329   1.660
 8093SOL    HW125178   5.536   5.290   1.651
 8093SOL    HW225179   5.664   5.307   1.751
 8094SOL     OW25180   1.115   4.427   6.657
 8094SOL    HW125181   1.071   4.512   6.629
 8094SOL    HW225182   1.186   4.448   6.725
 8095SOL     OW25183   5.556   3.306   4.198
 8095SOL    HW125184   5.509   3.226   4.236
 8095SOL    HW225185   5.620   3.277   4.126
 8096SOL     OW25186   3.154   5.445   2.321
 8096SOL    HW125187   3.124   5.416   2.230
 8096SOL    HW225188   3.212   5.526   2.313
 8097SOL     OW25189   5.335   0.391   3.159
 8097SOL    HW125190   5.418   0.339   3.181
 8097SOL    HW225191   5.348   0.487   3.186
 8098SOL     OW25192   2.528   5.992   4.051
 8098SOL    HW125193   2.565   5.911   4.097
 8098SOL    HW225194   2.428   5.983   4.044
 8099SOL     OW25195   5.433   6.918   4.717
 8099SOL    HW125196   5.384   6.996   4.677
 8099SOL    HW225197   5.490   6.875   4.647
 8100SOL     OW25198   6.830   6.764   0.391
 8100SOL    HW125199   6.865   6.679   0.429
 8100SOL    HW225200   6.786   6.818   0.463
 8101SOL     OW25201   1.570   0.401   4.699
 8101SOL    HW125202   1.627   0.407   4.617
 8101SOL    HW225203   1.594   0.318   4.750
 8102SOL     OW25204   0.350   4.926   5.976
 8102SOL    HW125205   0.297   4.906   6.058
 8102SOL    HW225206   0.438   4.966   6.002
 8103SOL     OW25207   3.846   1.249   2.042
 8103SOL    HW125208   3.801   1.182   2.101
 8103SOL    HW225209   3.817   1.341   2.068
 8104SOL     OW25210   3.198   6.790   5.673
 8104SOL    HW125211   3.269   6.812   5.605
 8104SOL    HW225212   3.139   6.718   5.638
 8105SOL     OW25213   2.692   2.369   3.896
 8105SOL    HW125214   2.679   2.276   3.863
 8105SOL    HW225215   2.789   2.394   3.889
 8106SOL     OW25216   1.432   4.030   3.396
 8106SOL    HW125217   1.479   3.942   3.392
 8106SOL    HW225218   1.333   4.015   3.402
 8107SOL     OW25219   1.887   6.512   5.918
 8107SOL    HW125220   1.972   6.533   5.870
 8107SOL    HW225221   1.811   6.513   5.853
 8108SOL     OW25222   0.075   3.750   4.520
 8108SOL    HW125223   7.008   3.784   4.506
 8108SOL    HW225224   0.114   3.791   4.603
 8109SOL     OW25225   1.905   4.340   5.383
 8109SOL    HW125226   1.929   4.247   5.410
 8109SOL    HW225227   1.838   4.338   5.309
 8110SOL     OW25228   2.223   0.103   0.538
 8110SOL    HW125229   2.212   0.023   0.479
 8110SOL    HW225230   2.134   0.146   0.553
 8111SOL     OW25231   2.667   6.072   4.838
 8111SOL    HW125232   2.720   6.055   4.755
 8111SOL    HW225233   2.667   5.991   4.896
 8112SOL     OW25234   3.135   0.468   5.650
 8112SOL    HW125235   3.098   0.384   5.610
 8112SOL    HW225236   3.158   0.452   5.746
 8113SOL     OW25237   3.374   2.428   0.320
 8113SOL    HW125238   3.420   2.343   0.345
 8113SOL    HW225239   3.332   2.469   0.401
 8114SOL     OW25240   2.129   3.213   2.381
 8114SOL    HW125241   2.187   3.139   2.413
 8114SOL    HW225242   2.112   3.202   2.283
 8115SOL     OW25243   3.133   1.248   1.499
 8115SOL    HW125244   3.079   1.307   1.439
 8115SOL    HW225245   3.225   1.286   1.509
 8116SOL     OW25246   6.059   6.623   5.455
 8116SOL    HW125247   6.142   6.622   5.399
 8116SOL    HW225248   6.073   6.684   5.533
 8117SOL     OW25249   1.300   1.914   4.194
 8117SOL    HW125250   1.248   1.843   4.241
 8117SOL    HW225251   1.253   2.002   4.204
 8118SOL     OW25252   1.302   4.142   5.533
 8118SOL    HW125253   1.396   4.122   5.559
 8118SOL    HW225254   1.255   4.186   5.610
 8119SOL     OW25255   0.570   5.585   3.653
 8119SOL    HW125256   0.486   5.570   3.601
 8119SOL    HW225257   0.581   5.512   3.720
 8120SOL     OW25258   4.395   4.663   0.501
 8120SOL    HW125259   4.482   4.639   0.545
 8120SOL    HW225260   4.339   4.715   0.565
 8121SOL     OW25261   0.083   0.058   2.747
 8121SOL    HW125262   0.133   0.060   2.834
 8121SOL    HW225263   0.081   0.149   2.707
 8122SOL     OW25264   0.393   6.097   1.507
 8122SOL    HW125265   0.324   6.047   1.559
 8122SOL    HW225266   0.441   6.160   1.569
 8123SOL     OW25267   0.897   6.854   6.272
 8123SOL    HW125268   0.849   6.826   6.355
 8123SOL    HW225269   0.939   6.774   6.230
 8124SOL     OW25270   1.445   5.482   1.386
 8124SOL    HW125271   1.462   5.579   1.406
 8124SOL    HW225272   1.533   5.435   1.376
 8125SOL     OW25273   6.163   4.473   2.809
 8125SOL    HW125274   6.070   4.450   2.838
 8125SOL    HW225275   6.202   4.540   2.873
 8126SOL     OW25276   5.911   4.421   2.878
 8126SOL    HW125277   5.855   4.452   2.801
 8126SOL    HW225278   5.854   4.371   2.943
 8127SOL     OW25279   2.338   5.135   0.560
 8127SOL    HW125280   2.275   5.065   0.593
 8127SOL    HW225281   2.314   5.160   0.466
 8128SOL     OW25282   3.305   2.684   6.244
 8128SOL    HW125283   3.276   2.657   6.152
 8128SOL    HW225284   3.343   2.777   6.241
 8129SOL     OW25285   5.314   0.765   6.638
 8129SOL    HW125286   5.364   0.772   6.551
 8129SOL    HW225287   5.371   0.803   6.712
 8130SOL     OW25288   0.961   5.275   6.533
 8130SOL    HW125289   0.869   5.255   6.500
 8130SOL    HW225290   0.979   5.373   6.522
 8131SOL     OW25291   3.496   0.249   0.242
 8131SOL    HW125292   3.437   0.312   0.193
 8131SOL    HW225293   3.539   0.296   0.319
 8132SOL     OW25294   6.001   5.181   4.304
 8132SOL    HW125295   6.100   5.190   4.290
 8132SOL    HW225296   5.983   5.116   4.377
 8133SOL     OW25297   2.868   5.277   3.276
 8133SOL    HW125298   2.816   5.350   3.232
 8133SOL    HW225299   2.927   5.316   3.346
 8134SOL     OW25300   2.381   2.458   4.125
 8134SOL    HW125301   2.437   2.381   4.094
 8134SOL    HW225302   2.299   2.423   4.171
 8135SOL     OW25303   3.491   5.323   2.292
 8135SOL    HW125304   3.514   5.228   2.271
 8135SOL    HW225305   3.392   5.332   2.300
 8136SOL     OW25306   3.790   5.487   2.325
 8136SOL    HW125307   3.821   5.523   2.413
 8136SOL    HW225308   3.786   5.388   2.328
 8137SOL     OW25309   1.877   3.647   5.274
 8137SOL    HW125310   1.954   3.663   5.212
 8137SOL    HW225311   1.794   3.631   5.221
 8138SOL     OW25312   5.424   1.648   2.043
 8138SOL    HW125313   5.476   1.677   1.963
 8138SOL    HW225314   5.329   1.678   2.034
 8139SOL     OW25315   1.119   2.922   3.305
 8139SOL    HW125316   1.039   2.874   3.270
 8139SOL    HW225317   1.096   3.018   3.320
 8140SOL     OW25318   4.622   0.363   0.268
 8140SOL    HW125319   4.562   0.441   0.288
 8140SOL    HW225320   4.570   0.292   0.222
 8141SOL     OW25321   4.956   1.010   6.181
 8141SOL    HW125322   4.884   0.954   6.222
 8141SOL    HW225323   5.045   0.980   6.214
 8142SOL     OW25324   1.951   5.952   0.199
 8142SOL    HW125325   1.889   5.875   0.181
 8142SOL    HW225326   1.997   5.978   0.114
 8143SOL     OW25327   4.996   4.049   0.549
 8143SOL    HW125328   4.948   4.045   0.462
 8143SOL    HW225329   5.032   4.141   0.564
 8144SOL     OW25330   0.558   5.082   6.091
 8144SOL    HW125331   0.558   5.157   6.157
 8144SOL    HW225332   0.638   5.091   6.031
 8145SOL     OW25333   5.785   5.582   0.183
 8145SOL    HW125334   5.875   5.577   0.226
 8145SOL    HW225335   5.793   5.552   0.088
 8146SOL     OW25336   6.018   0.259   4.389
 8146SOL    HW125337   6.068   0.204   4.456
 8146SOL    HW225338   5.956   0.321   4.437
 8147SOL     OW25339   1.084   0.731   6.099
 8147SOL    HW125340   1.090   0.798   6.024
 8147SOL    HW225341   1.176   0.712   6.133
 8148SOL     OW25342   3.985   4.328   6.470
 8148SOL    HW125343   3.960   4.305   6.376
 8148SOL    HW225344   4.017   4.246   6.518
 8149SOL     OW25345   1.328   0.190   4.538
 8149SOL    HW125346   1.350   0.272   4.590
 8149SOL    HW225347   1.326   0.111   4.599
 8150SOL     OW25348   0.954   3.431   1.025
 8150SOL    HW125349   1.037   3.375   1.035
 8150SOL    HW225350   0.878   3.373   0.998
 8151SOL     OW25351   5.906   4.383   3.822
 8151SOL    HW125352   5.857   4.335   3.895
 8151SOL    HW225353   5.994   4.414   3.857
 8152SOL     OW25354   4.461   1.762   3.437
 8152SOL    HW125355   4.376   1.814   3.427
 8152SOL    HW225356   4.531   1.820   3.478
 8153SOL     OW25357   0.370   1.292   3.726
 8153SOL    HW125358   0.462   1.259   3.703
 8153SOL    HW225359   0.320   1.220   3.774
 8154SOL     OW25360   2.283   1.796   3.364
 8154SOL    HW125361   2.194   1.780   3.408
 8154SOL    HW225362   2.270   1.811   3.266
 8155SOL     OW25363   1.606   4.435   2.072
 8155SOL    HW125364   1.562   4.383   2.145
 8155SOL    HW225365   1.551   4.429   1.989
 8156SOL     OW25366   6.387   5.198   1.235
 8156SOL    HW125367   6.298   5.170   1.271
 8156SOL    HW225368   6.411   5.140   1.157
 8157SOL     OW25369   6.496   2.814   6.334
 8157SOL    HW125370   6.415   2.844   6.284
 8157SOL    HW225371   6.542   2.893   6.375
 8158SOL     OW25372   6.000   4.694   5.933
 8158SOL    HW125373   6.007   4.659   5.839
 8158SOL    HW225374   6.092   4.712   5.968
 8159SOL     OW25375   3.609   5.983   5.874
 8159SOL    HW125376   3.509   5.980   5.866
 8159SOL    HW225377   3.635   6.052   5.941
 8160SOL     OW25378   5.443   1.822   3.047
 8160SOL    HW125379   5.531   1.847   3.088
 8160SOL    HW225380   5.421   1.885   2.973
 8161SOL     OW25381   5.789   3.224   0.457
 8161SOL    HW125382   5.731   3.301   0.484
 8161SOL    HW225383   5.748   3.177   0.379
 8162SOL     OW25384   0.375   5.065   6.506
 8162SOL    HW125385   0.282   5.078   6.540
 8162SOL    HW225386   0.386   5.113   6.419
 8163SOL     OW25387   4.444   4.622   5.373
 8163SOL    HW125388   4.528   4.575   5.344
 8163SOL    HW225389   4.422   4.595   5.467
 8164SOL     OW25390   5.612   0.745   0.113
 8164SOL    HW125391   5.623   0.844   0.124
 8164SOL    HW225392   5.528   0.726   0.063
 8165SOL     OW25393   6.566   2.381   6.170
 8165SOL    HW125394   6.637   2.408   6.235
 8165SOL    HW225395   6.529   2.463   6.125
 8166SOL     OW25396   1.519   2.307   4.588
 8166SOL    HW125397   1.572   2.356   4.518
 8166SOL    HW225398   1.537   2.209   4.580
 8167SOL     OW25399   6.588   1.266   4.026
 8167SOL    HW125400   6.516   1.215   3.979
 8167SOL    HW225401   6.632   1.329   3.961
 8168SOL     OW25402   2.427   0.675   1.124
 8168SOL    HW125403   2.414   0.774   1.116
 8168SOL    HW225404   2.369   0.629   1.056
 8169SOL     OW25405   5.112   2.350   0.740
 8169SOL    HW125406   5.195   2.398   0.770
 8169SOL    HW225407   5.100   2.267   0.795
 8170SOL     OW25408   6.699   4.189   2.061
 8170SOL    HW125409   6.734   4.119   2.124
 8170SOL    HW225410   6.665   4.145   1.978
 8171SOL     OW25411   1.655   1.501   0.032
 8171SOL    HW125412   1.650   1.411   0.076
 8171SOL    HW225413   1.563   1.533   0.012
 8172SOL     OW25414   0.817   2.356   1.620
 8172SOL    HW125415   0.819   2.285   1.691
 8172SOL    HW225416   0.745   2.422   1.642
 8173SOL     OW25417   5.621   2.047   2.289
 8173SOL    HW125418   5.585   1.957   2.314
 8173SOL    HW225419   5.680   2.039   2.209
 8174SOL     OW25420   1.504   5.925   2.823
 8174SOL    HW125421   1.583   5.864   2.831
 8174SOL    HW225422   1.464   5.915   2.732
 8175SOL     OW25423   1.151   2.653   4.318
 8175SOL    HW125424   1.070   2.595   4.320
 8175SOL    HW225425   1.132   2.740   4.364
 8176SOL     OW25426   1.706   4.544   1.596
 8176SOL    HW125427   1.767   4.473   1.631
 8176SOL    HW225428   1.632   4.501   1.544
 8177SOL     OW25429   3.699   1.180   2.570
 8177SOL    HW125430   3.774   1.127   2.529
 8177SOL    HW225431   3.674   1.254   2.507
 8178SOL     OW25432   2.655   6.697   0.575
 8178SOL    HW125433   2.559   6.688   0.602
 8178SOL    HW225434   2.711   6.717   0.656
 8179SOL     OW25435   5.330   1.047   3.842
 8179SOL    HW125436   5.266   1.043   3.765
 8179SOL    HW225437   5.289   1.099   3.916
 8180SOL     OW25438   5.863   6.525   6.910
 8180SOL    HW125439   5.802   6.590   6.866
 8180SOL    HW225440   5.846   6.433   6.873
 8181SOL     OW25441   1.064   0.898   1.002
 8181SOL    HW125442   1.123   0.973   1.034
 8181SOL    HW225443   0.973   0.909   1.041
 8182SOL     OW25444   3.144   3.638   4.916
 8182SOL    HW125445   3.047   3.618   4.902
 8182SOL    HW225446   3.162   3.733   4.889
 8183SOL     OW25447   6.495   0.628   4.847
 8183SOL    HW125448   6.542   0.546   4.814
 8183SOL    HW225449   6.558   0.682   4.904
 8184SOL     OW25450   0.747   6.752   6.787
 8184SOL    HW125451   0.723   6.847   6.810
 8184SOL    HW225452   0.812   6.717   6.855
 8185SOL     OW25453   0.954   0.355   0.653
 8185SOL    HW125454   0.856   0.335   0.657
 8185SOL    HW225455   0.968   0.453   0.662
 8186SOL     OW25456   1.579   5.407   6.770
 8186SOL    HW125457   1.523   5.327   6.793
 8186SOL    HW225458   1.623   5.393   6.681
 8187SOL     OW25459   1.784   1.521   5.161
 8187SOL    HW125460   1.822   1.446   5.215
 8187SOL    HW225461   1.858   1.574   5.120
 8188SOL     OW25462   3.900   2.097   3.876
 8188SOL    HW125463   3.847   2.074   3.794
 8188SOL    HW225464   3.840   2.095   3.956
 8189SOL     OW25465   4.578   4.594   3.844
 8189SOL    HW125466   4.655   4.640   3.888
 8189SOL    HW225467   4.512   4.662   3.812
 8190SOL     OW25468   5.349   3.408   3.019
 8190SOL    HW125469   5.385   3.405   2.926
 8190SOL    HW225470   5.322   3.316   3.049
 8191SOL     OW25471   4.293   4.837   1.788
 8191SOL    HW125472   4.365   4.823   1.856
 8191SOL    HW225473   4.269   4.751   1.745
 8192SOL     OW25474   1.822   5.014   3.429
 8192SOL    HW125475   1.796   4.999   3.334
 8192SOL    HW225476   1.741   5.042   3.481
 8193SOL     OW25477   7.020   5.391   4.851
 8193SOL    HW125478   0.049   5.373   4.769
 8193SOL    HW225479   6.952   5.318   4.862
 8194SOL     OW25480   4.454   0.028   1.562
 8194SOL    HW125481   4.514   0.105   1.580
 8194SOL    HW225482   4.372   0.035   1.620
 8195SOL     OW25483   5.994   6.508   3.744
 8195SOL    HW125484   5.956   6.457   3.666
 8195SOL    HW225485   6.057   6.450   3.795
 8196SOL     OW25486   4.949   1.162   0.203
 8196SOL    HW125487   5.029   1.104   0.185
 8196SOL    HW225488   4.942   1.179   0.301
 8197SOL     OW25489   4.445   1.617   1.313
 8197SOL    HW125490   4.510   1.671   1.260
 8197SOL    HW225491   4.428   1.662   1.401
 8198SOL     OW25492   2.588   0.323   1.770
 8198SOL    HW125493   2.596   0.273   1.856
 8198SOL    HW225494   2.571   0.420   1.790
 8199SOL     OW25495   5.086   2.757   5.982
 8199SOL    HW125496   5.035   2.825   5.930
 8199SOL    HW225497   5.046   2.666   5.968
 8200SOL     OW25498   5.500   4.053   1.172
 8200SOL    HW125499   5.576   4.112   1.146
 8200SOL    HW225500   5.415   4.106   1.169
 8201SOL     OW25501   0.334   0.689   5.354
 8201SOL    HW125502   0.284   0.637   5.423
 8201SOL    HW225503   0.348   0.783   5.387
 8202SOL     OW25504   0.108   6.138   1.992
 8202SOL    HW125505   0.044   6.215   2.002
 8202SOL    HW225506   0.130   6.101   2.082
 8203SOL     OW25507   1.843   2.851   0.296
 8203SOL    HW125508   1.814   2.820   0.386
 8203SOL    HW225509   1.861   2.772   0.237
 8204SOL     OW25510   4.553   3.601   0.833
 8204SOL    HW125511   4.652   3.586   0.830
 8204SOL    HW225512   4.507   3.512   0.835
 8205SOL     OW25513   0.701   2.760   0.435
 8205SOL    HW125514   0.740   2.818   0.364
 8205SOL    HW225515   0.641   2.815   0.494
 8206SOL     OW25516   4.475   1.228   0.054
 8206SOL    HW125517   4.508   1.222   6.985
 8206SOL    HW225518   4.415   1.308   0.064
 8207SOL     OW25519   3.563   3.119   4.403
 8207SOL    HW125520   3.565   3.213   4.435
 8207SOL    HW225521   3.634   3.066   4.449
 8208SOL     OW25522   1.051   1.083   0.034
 8208SOL    HW125523   1.042   1.137   0.117
 8208SOL    HW225524   0.976   1.104   6.996
 8209SOL     OW25525   0.217   0.766   5.126
 8209SOL    HW125526   0.186   0.692   5.067
 8209SOL    HW225527   0.257   0.728   5.210
 8210SOL     OW25528   1.924   3.081   6.969
 8210SOL    HW125529   1.846   3.132   7.003
 8210SOL    HW225530   1.894   3.013   6.902
 8211SOL     OW25531   3.530   3.974   1.406
 8211SOL    HW125532   3.471   4.031   1.463
 8211SOL    HW225533   3.480   3.945   1.324
 8212SOL     OW25534   1.656   2.479   3.100
 8212SOL    HW125535   1.581   2.475   3.033
 8212SOL    HW225536   1.739   2.442   3.058
 8213SOL     OW25537   0.645   5.258   2.098
 8213SOL    HW125538   0.554   5.272   2.058
 8213SOL    HW225539   0.663   5.159   2.106
 8214SOL     OW25540   5.611   4.852   3.151
 8214SOL    HW125541   5.635   4.921   3.083
 8214SOL    HW225542   5.542   4.888   3.214
 8215SOL     OW25543   3.434   5.323   4.601
 8215SOL    HW125544   3.509   5.303   4.664
 8215SOL    HW225545   3.370   5.246   4.599
 8216SOL     OW25546   5.046   5.069   4.163
 8216SOL    HW125547   4.965   5.116   4.129
 8216SOL    HW225548   5.098   5.031   4.086
 8217SOL     OW25549   1.800   5.115   0.946
 8217SOL    HW125550   1.881   5.094   1.000
 8217SOL    HW225551   1.826   5.165   0.863
 8218SOL     OW25552   0.622   2.033   0.028
 8218SOL    HW125553   0.605   2.109   6.991
 8218SOL    HW225554   0.560   2.040   0.106
 8219SOL     OW25555   4.728   2.427   0.943
 8219SOL    HW125556   4.750   2.523   0.929
 8219SOL    HW225557   4.765   2.372   0.868
 8220SOL     OW25558   3.812   3.343   2.907
 8220SOL    HW125559   3.850   3.263   2.861
 8220SOL    HW225560   3.755   3.314   2.983
 8221SOL     OW25561   4.581   5.941   4.397
 8221SOL    HW125562   4.662   5.884   4.402
 8221SOL    HW225563   4.607   6.037   4.398
 8222SOL     OW25564   5.004   1.427   2.002
 8222SOL    HW125565   4.959   1.465   2.082
 8222SOL    HW225566   4.937   1.381   1.944
 8223SOL     OW25567   0.378   4.578   5.677
 8223SOL    HW125568   0.419   4.654   5.729
 8223SOL    HW225569   0.413   4.579   5.583
 8224SOL     OW25570   1.329   2.552   3.469
 8224SOL    HW125571   1.298   2.532   3.376
 8224SOL    HW225572   1.353   2.649   3.475
 8225SOL     OW25573   4.598   0.909   0.027
 8225SOL    HW125574   4.626   0.981   0.090
 8225SOL    HW225575   4.624   0.934   6.960
 8226SOL     OW25576   5.297   0.263   1.731
 8226SOL    HW125577   5.386   0.237   1.694
 8226SOL    HW225578   5.308   0.339   1.795
 8227SOL     OW25579   0.228   2.381   4.030
 8227SOL    HW125580   0.283   2.298   4.016
 8227SOL    HW225581   0.197   2.385   4.125
 8228SOL     OW25582   0.130   2.852   5.401
 8228SOL    HW125583   0.040   2.817   5.426
 8228SOL    HW225584   0.183   2.870   5.484
 8229SOL     OW25585   3.353   5.297   0.539
 8229SOL    HW125586   3.347   5.392   0.568
 8229SOL    HW225587   3.416   5.290   0.462
 8230SOL     OW25588   5.442   6.927   5.587
 8230SOL    HW125589   5.524   6.969   5.549
 8230SOL    HW225590   5.372   6.997   5.601
 8231SOL     OW25591   4.727   5.958   1.665
 8231SOL    HW125592   4.782   6.025   1.715
 8231SOL    HW225593   4.736   5.868   1.709
 8232SOL     OW25594   4.592   1.603   0.266
 8232SOL    HW125595   4.508   1.657   0.274
 8232SOL    HW225596   4.606   1.551   0.350
 8233SOL     OW25597   0.713   5.467   6.179
 8233SOL    HW125598   0.727   5.444   6.083
 8233SOL    HW225599   0.796   5.510   6.215
 8234SOL     OW25600   2.674   2.812   0.022
 8234SOL    HW125601   2.610   2.744   0.057
 8234SOL    HW225602   2.649   2.836   6.953
 8235SOL     OW25603   2.447   3.020   0.523
 8235SOL    HW125604   2.366   3.045   0.471
 8235SOL    HW225605   2.437   3.051   0.618
 8236SOL     OW25606   6.913   3.799   6.800
 8236SOL    HW125607   6.815   3.788   6.780
 8236SOL    HW225608   6.942   3.892   6.777
 8237SOL     OW25609   4.772   6.119   4.985
 8237SOL    HW125610   4.773   6.024   4.955
 8237SOL    HW225611   4.865   6.156   4.981
 8238SOL     OW25612   1.611   4.240   0.355
 8238SOL    HW125613   1.597   4.217   0.452
 8238SOL    HW225614   1.562   4.174   0.298
 8239SOL     OW25615   6.342   2.134   5.826
 8239SOL    HW125616   6.279   2.085   5.887
 8239SOL    HW225617   6.391   2.068   5.770
 8240SOL     OW25618   3.759   3.735   2.594
 8240SOL    HW125619   3.845   3.783   2.609
 8240SOL    HW225620   3.746   3.666   2.665
 8241SOL     OW25621   2.977   6.655   0.514
 8241SOL    HW125622   3.051   6.603   0.557
 8241SOL    HW225623   3.003   6.679   0.421
 8242SOL     OW25624   0.986   4.489   5.699
 8242SOL    HW125625   1.085   4.483   5.687
 8242SOL    HW225626   0.941   4.471   5.612
 8243SOL     OW25627   0.887   3.275   6.374
 8243SOL    HW125628   0.945   3.276   6.293
 8243SOL    HW225629   0.829   3.193   6.372
 8244SOL     OW25630   0.980   6.635   3.835
 8244SOL    HW125631   0.993   6.600   3.928
 8244SOL    HW225632   1.032   6.720   3.825
 8245SOL     OW25633   4.180   1.484   2.280
 8245SOL    HW125634   4.083   1.486   2.258
 8245SOL    HW225635   4.202   1.398   2.325
 8246SOL     OW25636   6.796   4.335   5.721
 8246SOL    HW125637   6.838   4.337   5.811
 8246SOL    HW225638   6.734   4.257   5.714
 8247SOL     OW25639   1.127   1.567   1.200
 8247SOL    HW125640   1.174   1.489   1.159
 8247SOL    HW225641   1.156   1.651   1.153
 8248SOL     OW25642   6.187   4.616   3.651
 8248SOL    HW125643   6.092   4.646   3.653
 8248SOL    HW225644   6.233   4.645   3.735
 8249SOL     OW25645   1.907   4.119   4.630
 8249SOL    HW125646   1.864   4.063   4.560
 8249SOL    HW225647   1.957   4.194   4.587
 8250SOL     OW25648   3.477   3.952   2.725
 8250SOL    HW125649   3.445   3.956   2.630
 8250SOL    HW225650   3.401   3.974   2.786
 8251SOL     OW25651   5.651   2.494   5.015
 8251SOL    HW125652   5.612   2.403   4.998
 8251SOL    HW225653   5.581   2.553   5.054
 8252SOL     OW25654   3.042   3.620   6.690
 8252SOL    HW125655   2.980   3.642   6.614
 8252SOL    HW225656   2.993   3.565   6.757
 8253SOL     OW25657   3.675   3.106   5.353
 8253SOL    HW125658   3.647   3.150   5.268
 8253SOL    HW225659   3.755   3.155   5.390
 8254SOL     OW25660   4.239   4.740   4.520
 8254SOL    HW125661   4.272   4.811   4.582
 8254SOL    HW225662   4.310   4.672   4.506
 8255SOL     OW25663   3.398   6.220   4.527
 8255SOL    HW125664   3.467   6.291   4.545
 8255SOL    HW225665   3.439   6.130   4.540
 8256SOL     OW25666   6.262   0.222   3.289
 8256SOL    HW125667   6.211   0.139   3.267
 8256SOL    HW225668   6.339   0.233   3.226
 8257SOL     OW25669   6.365   4.651   3.277
 8257SOL    HW125670   6.454   4.653   3.231
 8257SOL    HW225671   6.361   4.574   3.340
 8258SOL     OW25672   4.752   1.609   0.806
 8258SOL    HW125673   4.679   1.564   0.756
 8258SOL    HW225674   4.754   1.706   0.782
 8259SOL     OW25675   4.122   1.663   3.756
 8259SOL    HW125676   4.193   1.642   3.690
 8259SOL    HW225677   4.143   1.750   3.801
 8260SOL     OW25678   2.699   0.199   1.541
 8260SOL    HW125679   2.645   0.264   1.595
 8260SOL    HW225680   2.667   0.106   1.558
 8261SOL     OW25681   5.564   1.291   1.586
 8261SOL    HW125682   5.623   1.292   1.667
 8261SOL    HW225683   5.616   1.320   1.506
 8262SOL     OW25684   0.529   2.231   0.857
 8262SOL    HW125685   0.589   2.306   0.827
 8262SOL    HW225686   0.561   2.145   0.818
 8263SOL     OW25687   0.437   2.307   0.502
 8263SOL    HW125688   0.464   2.387   0.555
 8263SOL    HW225689   0.352   2.327   0.453
 8264SOL     OW25690   1.260   5.900   2.290
 8264SOL    HW125691   1.321   5.979   2.303
 8264SOL    HW225692   1.285   5.852   2.206
 8265SOL     OW25693   1.391   6.894   1.608
 8265SOL    HW125694   1.369   6.834   1.530
 8265SOL    HW225695   1.446   6.843   1.674
 8266SOL     OW25696   2.229   0.190   3.182
 8266SOL    HW125697   2.256   0.102   3.144
 8266SOL    HW225698   2.217   0.256   3.108
 8267SOL     OW25699   2.317   3.454   1.187
 8267SOL    HW125700   2.335   3.499   1.100
 8267SOL    HW225701   2.249   3.382   1.174
 8268SOL     OW25702   2.175   6.429   6.459
 8268SOL    HW125703   2.141   6.350   6.510
 8268SOL    HW225704   2.208   6.399   6.369
 8269SOL     OW25705   5.815   1.530   1.190
 8269SOL    HW125706   5.912   1.546   1.176
 8269SOL    HW225707   5.762   1.585   1.125
 8270SOL     OW25708   2.456   6.905   4.701
 8270SOL    HW125709   2.536   6.865   4.744
 8270SOL    HW225710   2.479   6.933   4.608
 8271SOL     OW25711   6.895   0.612   2.215
 8271SOL    HW125712   6.986   0.593   2.177
 8271SOL    HW225713   6.833   0.637   2.141
 8272SOL     OW25714   5.011   0.623   1.349
 8272SOL    HW125715   5.026   0.621   1.448
 8272SOL    HW225716   5.099   0.611   1.303
 8273SOL     OW25717   1.669   6.106   0.998
 8273SOL    HW125718   1.750   6.138   0.947
 8273SOL    HW225719   1.692   6.099   1.095
 8274SOL     OW25720   4.639   4.826   3.508
 8274SOL    HW125721   4.562   4.765   3.490
 8274SOL    HW225722   4.718   4.772   3.539
 8275SOL     OW25723   4.510   1.547   6.193
 8275SOL    HW125724   4.497   1.567   6.291
 8275SOL    HW225725   4.560   1.462   6.183
 8276SOL     OW25726   1.304   2.121   3.909
 8276SOL    HW125727   1.233   2.157   3.848
 8276SOL    HW225728   1.334   2.032   3.877
 8277SOL     OW25729   0.630   0.802   6.863
 8277SOL    HW125730   0.606   0.723   6.919
 8277SOL    HW225731   0.633   0.775   6.767
 8278SOL     OW25732   2.621   2.507   6.441
 8278SOL    HW125733   2.530   2.477   6.469
 8278SOL    HW225734   2.614   2.557   6.354
 8279SOL     OW25735   1.062   0.226   4.533
 8279SOL    HW125736   1.162   0.221   4.532
 8279SOL    HW225737   1.028   0.241   4.440
 8280SOL     OW25738   2.668   3.292   0.408
 8280SOL    HW125739   2.684   3.211   0.352
 8280SOL    HW225740   2.570   3.307   0.419
 8281SOL     OW25741   1.217   5.830   1.738
 8281SOL    HW125742   1.265   5.909   1.775
 8281SOL    HW225743   1.180   5.853   1.648
 8282SOL     OW25744   5.674   3.528   6.482
 8282SOL    HW125745   5.717   3.594   6.543
 8282SOL    HW225746   5.649   3.572   6.396
 8283SOL     OW25747   1.018   4.644   6.518
 8283SOL    HW125748   1.058   4.732   6.493
 8283SOL    HW225749   0.920   4.646   6.500
 8284SOL     OW25750   0.461   3.563   1.578
 8284SOL    HW125751   0.557   3.564   1.550
 8284SOL    HW225752   0.456   3.554   1.678
 8285SOL     OW25753   3.874   3.260   5.451
 8285SOL    HW125754   3.892   3.197   5.527
 8285SOL    HW225755   3.948   3.255   5.385
 8286SOL     OW25756   5.610   3.192   6.496
 8286SOL    HW125757   5.674   3.168   6.569
 8286SOL    HW225758   5.659   3.235   6.420
 8287SOL     OW25759   1.456   5.337   4.570
 8287SOL    HW125760   1.523   5.263   4.558
 8287SOL    HW225761   1.454   5.394   4.488
 8288SOL     OW25762   2.908   2.132   2.494
 8288SOL    HW125763   2.867   2.204   2.438
 8288SOL    HW225764   2.997   2.162   2.527
 8289SOL     OW25765   0.478   0.237   1.391
 8289SOL    HW125766   0.401   0.186   1.429
 8289SOL    HW225767   0.465   0.247   1.292
 8290SOL     OW25768   6.425   1.595   6.717
 8290SOL    HW125769   6.441   1.524   6.786
 8290SOL    HW225770   6.499   1.593   6.649
 8291SOL     OW25771   5.209   6.905   6.908
 8291SOL    HW125772   5.171   6.962   6.981
 8291SOL    HW225773   5.225   6.813   6.943
 8292SOL     OW25774   2.271   6.659   0.163
 8292SOL    HW125775   2.230   6.582   0.213
 8292SOL    HW225776   2.363   6.676   0.198
 8293SOL     OW25777   3.629   0.039   0.148
 8293SOL    HW125778   3.579   0.117   0.188
 8293SOL    HW225779   3.566   6.990   0.129
 8294SOL     OW25780   5.795   4.242   5.359
 8294SOL    HW125781   5.738   4.251   5.441
 8294SOL    HW225782   5.737   4.234   5.278
 8295SOL     OW25783   5.124   5.200   2.048
 8295SOL    HW125784   5.047   5.200   2.112
 8295SOL    HW225785   5.205   5.161   2.092
 8296SOL     OW25786   1.891   6.922   6.100
 8296SOL    HW125787   1.900   6.968   6.188
 8296SOL    HW225788   1.802   6.877   6.094
 8297SOL     OW25789   6.392   2.680   2.705
 8297SOL    HW125790   6.314   2.698   2.645
 8297SOL    HW225791   6.403   2.581   2.715
 8298SOL     OW25792   5.750   1.879   1.574
 8298SOL    HW125793   5.755   1.780   1.565
 8298SOL    HW225794   5.837   1.913   1.611
 8299SOL     OW25795   6.942   2.756   2.344
 8299SOL    HW125796   0.005   2.802   2.340
 8299SOL    HW225797   6.888   2.781   2.263
 8300SOL     OW25798   0.996   5.644   5.935
 8300SOL    HW125799   0.930   5.589   5.885
 8300SOL    HW225800   1.089   5.617   5.911
 8301SOL     OW25801   3.701   1.297   1.276
 8301SOL    HW125802   3.673   1.392   1.290
 8301SOL    HW225803   3.640   1.236   1.326
 8302SOL     OW25804   6.088   5.701   5.515
 8302SOL    HW125805   6.054   5.752   5.594
 8302SOL    HW225806   6.013   5.687   5.450
 8303SOL     OW25807   6.713   0.441   3.884
 8303SOL    HW125808   6.613   0.440   3.884
 8303SOL    HW225809   6.748   0.347   3.884
 8304SOL     OW25810   1.229   3.540   6.889
 8304SOL    HW125811   1.300   3.586   6.835
 8304SOL    HW225812   1.153   3.604   6.903
 8305SOL     OW25813   3.425   4.920   4.526
 8305SOL    HW125814   3.515   4.897   4.489
 8305SOL    HW225815   3.409   4.866   4.608
 8306SOL     OW25816   0.486   2.945   5.000
 8306SOL    HW125817   0.520   2.853   4.977
 8306SOL    HW225818   0.421   2.937   5.076
 8307SOL     OW25819   4.398   5.205   1.866
 8307SOL    HW125820   4.430   5.262   1.942
 8307SOL    HW225821   4.476   5.156   1.827
 8308SOL     OW25822   4.637   6.059   1.259
 8308SOL    HW125823   4.598   6.149   1.281
 8308SOL    HW225824   4.569   6.005   1.210
 8309SOL     OW25825   6.029   5.491   3.579
 8309SOL    HW125826   6.067   5.409   3.621
 8309SOL    HW225827   6.099   5.533   3.520
 8310SOL     OW25828   1.351   4.538   0.912
 8310SOL    HW125829   1.314   4.476   0.843
 8310SOL    HW225830   1.301   4.625   0.909
 8311SOL     OW25831   0.390   1.157   5.225
 8311SOL    HW125832   0.438   1.109   5.152
 8311SOL    HW225833   0.433   1.247   5.240
 8312SOL     OW25834   4.435   6.023   1.583
 8312SOL    HW125835   4.421   6.122   1.576
 8312SOL    HW225836   4.501   6.004   1.656
 8313SOL     OW25837   3.855   1.012   2.447
 8313SOL    HW125838   3.921   1.087   2.451
 8313SOL    HW225839   3.823   1.000   2.353
 8314SOL     OW25840   5.007   6.553   0.836
 8314SOL    HW125841   5.067   6.622   0.796
 8314SOL    HW225842   4.919   6.595   0.859
 8315SOL     OW25843   3.978   3.228   0.640
 8315SOL    HW125844   4.037   3.152   0.615
 8315SOL    HW225845   3.934   3.210   0.728
 8316SOL     OW25846   0.549   2.845   1.375
 8316SOL    HW125847   0.637   2.878   1.342
 8316SOL    HW225848   0.560   2.801   1.464
 8317SOL     OW25849   2.047   3.141   2.150
 8317SOL    HW125850   2.047   3.049   2.112
 8317SOL    HW225851   2.022   3.206   2.078
 8318SOL     OW25852   4.686   1.504   4.374
 8318SOL    HW125853   4.786   1.508   4.379
 8318SOL    HW225854   4.647   1.564   4.443
 8319SOL     OW25855   2.530   1.988   5.821
 8319SOL    HW125856   2.490   2.079   5.835
 8319SOL    HW225857   2.581   1.987   5.735
 8320SOL     OW25858   3.691   4.806   1.458
 8320SOL    HW125859   3.780   4.836   1.425
 8320SOL    HW225860   3.623   4.816   1.386
 8321SOL     OW25861   0.152   1.098   6.578
 8321SOL    HW125862   0.220   1.074   6.648
 8321SOL    HW225863   0.095   1.173   6.611
 8322SOL     OW25864   0.280   0.162   0.406
 8322SOL    HW125865   0.358   0.201   0.456
 8322SOL    HW225866   0.266   0.212   0.322
 8323SOL     OW25867   0.104   6.860   2.546
 8323SOL    HW125868   0.121   6.927   2.618
 8323SOL    HW225869   0.139   6.895   2.459
 8324SOL     OW25870   6.470   0.329   2.263
 8324SOL    HW125871   6.410   0.384   2.204
 8324SOL    HW225872   6.468   0.365   2.356
 8325SOL     OW25873   3.541   3.400   4.436
 8325SOL    HW125874   3.633   3.437   4.420
 8325SOL    HW225875   3.474   3.474   4.433
 8326SOL     OW25876   4.517   3.137   5.383
 8326SOL    HW125877   4.539   3.228   5.346
 8326SOL    HW225878   4.419   3.120   5.370
 8327SOL     OW25879   5.253   2.151   6.067
 8327SOL    HW125880   5.191   2.110   6.135
 8327SOL    HW225881   5.321   2.083   6.040
 8328SOL     OW25882   2.377   4.145   6.084
 8328SOL    HW125883   2.362   4.167   6.180
 8328SOL    HW225884   2.289   4.132   6.038
 8329SOL     OW25885   0.583   3.712   5.978
 8329SOL    HW125886   0.613   3.659   6.057
 8329SOL    HW225887   0.553   3.802   6.008
 8330SOL     OW25888   1.815   0.316   0.149
 8330SOL    HW125889   1.810   0.320   0.049
 8330SOL    HW225890   1.749   0.380   0.188
 8331SOL     OW25891   2.993   0.160   0.530
 8331SOL    HW125892   2.985   0.256   0.505
 8331SOL    HW225893   3.087   0.130   0.519
 8332SOL     OW25894   4.784   4.728   2.599
 8332SOL    HW125895   4.856   4.797   2.611
 8332SOL    HW225896   4.754   4.696   2.689
 8333SOL     OW25897   0.342   6.013   0.164
 8333SOL    HW125898   0.305   5.962   0.086
 8333SOL    HW225899   0.267   6.039   0.225
 8334SOL     OW25900   5.954   1.452   3.459
 8334SOL    HW125901   5.860   1.481   3.441
 8334SOL    HW225902   5.954   1.385   3.533
 8335SOL     OW25903   6.458   5.357   5.504
 8335SOL    HW125904   6.404   5.441   5.501
 8335SOL    HW225905   6.421   5.292   5.437
 8336SOL     OW25906   0.312   1.094   1.787
 8336SOL    HW125907   0.263   1.120   1.704
 8336SOL    HW225908   0.350   1.002   1.776
 8337SOL     OW25909   1.281   6.725   3.528
 8337SOL    HW125910   1.375   6.728   3.496
 8337SOL    HW225911   1.219   6.752   3.454
 8338SOL     OW25912   2.152   4.433   1.970
 8338SOL    HW125913   2.188   4.386   2.051
 8338SOL    HW225914   2.054   4.449   1.983
 8339SOL     OW25915   5.703   1.398   1.383
 8339SOL    HW125916   5.734   1.468   1.448
 8339SOL    HW225917   5.727   1.426   1.290
 8340SOL     OW25918   5.149   4.005   1.050
 8340SOL    HW125919   5.176   4.084   1.106
 8340SOL    HW225920   5.055   3.980   1.071
 8341SOL     OW25921   2.239   6.182   0.453
 8341SOL    HW125922   2.239   6.093   0.408
 8341SOL    HW225923   2.277   6.173   0.545
 8342SOL     OW25924   3.448   6.990   1.666
 8342SOL    HW125925   3.443   0.028   1.589
 8342SOL    HW225926   3.356   6.958   1.689
 8343SOL     OW25927   1.696   4.809   6.296
 8343SOL    HW125928   1.749   4.785   6.378
 8343SOL    HW225929   1.655   4.727   6.258
 8344SOL     OW25930   4.951   6.527   5.457
 8344SOL    HW125931   4.894   6.464   5.509
 8344SOL    HW225932   4.905   6.550   5.371
 8345SOL     OW25933   5.232   2.092   3.374
 8345SOL    HW125934   5.135   2.116   3.375
 8345SOL    HW225935   5.280   2.150   3.308
 8346SOL     OW25936   2.754   4.773   0.250
 8346SOL    HW125937   2.786   4.783   0.156
 8346SOL    HW225938   2.727   4.678   0.266
 8347SOL     OW25939   3.135   6.657   5.125
 8347SOL    HW125940   3.222   6.705   5.138
 8347SOL    HW225941   3.116   6.602   5.206
 8348SOL     OW25942   1.586   0.078   1.661
 8348SOL    HW125943   1.543   0.168   1.662
 8348SOL    HW225944   1.520   0.009   1.631
 8349SOL     OW25945   5.816   4.840   1.387
 8349SOL    HW125946   5.751   4.777   1.430
 8349SOL    HW225947   5.774   4.931   1.379
 8350SOL     OW25948   4.515   0.751   4.535
 8350SOL    HW125949   4.446   0.720   4.601
 8350SOL    HW225950   4.598   0.778   4.584
 8351SOL     OW25951   4.195   5.027   4.710
 8351SOL    HW125952   4.249   4.978   4.778
 8351SOL    HW225953   4.253   5.095   4.665
 8352SOL     OW25954   6.701   0.211   2.099
 8352SOL    HW125955   6.732   0.272   2.026
 8352SOL    HW225956   6.626   0.255   2.149
 8353SOL     OW25957   5.762   3.905   2.249
 8353SOL    HW125958   5.780   3.885   2.152
 8353SOL    HW225959   5.755   3.819   2.300
 8354SOL     OW25960   3.527   0.936   6.896
 8354SOL    HW125961   3.537   0.929   6.995
 8354SOL    HW225962   3.612   0.972   6.857
 8355SOL     OW25963   3.135   0.649   6.606
 8355SOL    HW125964   3.036   0.639   6.617
 8355SOL    HW225965   3.160   0.630   6.511
 8356SOL     OW25966   1.178   6.745   0.575
 8356SOL    HW125967   1.124   6.821   0.538
 8356SOL    HW225968   1.117   6.677   0.616
 8357SOL     OW25969   3.647   6.165   6.094
 8357SOL    HW125970   3.577   6.189   6.161
 8357SOL    HW225971   3.733   6.210   6.118
 8358SOL     OW25972   1.976   2.812   5.113
 8358SOL    HW125973   1.877   2.817   5.100
 8358SOL    HW225974   1.998   2.739   5.177
 8359SOL     OW25975   3.630   6.355   4.235
 8359SOL    HW125976   3.623   6.255   4.231
 8359SOL    HW225977   3.590   6.388   4.321
 8360SOL     OW25978   3.554   6.699   2.438
 8360SOL    HW125979   3.629   6.653   2.486
 8360SOL    HW225980   3.467   6.674   2.481
 8361SOL     OW25981   1.450   1.141   1.875
 8361SOL    HW125982   1.538   1.188   1.881
 8361SOL    HW225983   1.377   1.207   1.861
 8362SOL     OW25984   2.510   2.084   0.307
 8362SOL    HW125985   2.541   2.150   0.376
 8362SOL    HW225986   2.522   2.124   0.215
 8363SOL     OW25987   0.955   2.716   0.240
 8363SOL    HW125988   0.958   2.743   0.336
 8363SOL    HW225989   0.882   2.649   0.226
 8364SOL     OW25990   0.227   3.537   3.455
 8364SOL    HW125991   0.257   3.491   3.372
 8364SOL    HW225992   0.280   3.621   3.467
 8365SOL     OW25993   1.416   4.051   1.581
 8365SOL    HW125994   1.459   3.981   1.639
 8365SOL    HW225995   1.486   4.093   1.522
 8366SOL     OW25996   4.282   5.864   2.324
 8366SOL    HW125997   4.224   5.941   2.353
 8366SOL    HW225998   4.250   5.780   2.367
 8367SOL     OW25999   4.040   5.934   4.508
 8367SOL    HW126000   4.024   5.989   4.425
 8367SOL    HW226001   4.018   5.838   4.489
 8368SOL     OW26002   3.381   6.592   5.785
 8368SOL    HW126003   3.305   6.553   5.733
 8368SOL    HW226004   3.438   6.518   5.821
 8369SOL     OW26005   1.588   1.403   6.633
 8369SOL    HW126006   1.513   1.341   6.609
 8369SOL    HW226007   1.631   1.436   6.549
 8370SOL     OW26008   3.086   2.145   6.110
 8370SOL    HW126009   3.093   2.224   6.171
 8370SOL    HW226010   2.991   2.132   6.082
 8371SOL     OW26011   1.675   4.172   1.112
 8371SOL    HW126012   1.673   4.246   1.044
 8371SOL    HW226013   1.702   4.086   1.067
 8372SOL     OW26014   1.052   6.322   2.579
 8372SOL    HW126015   0.971   6.307   2.635
 8372SOL    HW226016   1.121   6.372   2.632
 8373SOL     OW26017   0.617   0.414   4.898
 8373SOL    HW126018   0.565   0.443   4.818
 8373SOL    HW226019   0.554   0.394   4.973
 8374SOL     OW26020   6.871   0.708   6.778
 8374SOL    HW126021   6.927   0.788   6.758
 8374SOL    HW226022   6.915   0.626   6.740
 8375SOL     OW26023   3.312   5.979   5.963
 8375SOL    HW126024   3.349   5.928   6.041
 8375SOL    HW226025   3.256   5.919   5.907
 8376SOL     OW26026   2.371   0.264   4.590
 8376SOL    HW126027   2.459   0.232   4.626
 8376SOL    HW226028   2.383   0.355   4.551
 8377SOL     OW26029   5.722   5.635   1.988
 8377SOL    HW126030   5.774   5.694   2.050
 8377SOL    HW226031   5.714   5.680   1.899
 8378SOL     OW26032   4.582   4.499   3.110
 8378SOL    HW126033   4.628   4.418   3.073
 8378SOL    HW226034   4.578   4.493   3.210
 8379SOL     OW26035   6.654   3.084   1.127
 8379SOL    HW126036   6.658   3.184   1.122
 8379SOL    HW226037   6.632   3.057   1.221
 8380SOL     OW26038   6.139   0.790   2.049
 8380SOL    HW126039   6.176   0.719   1.989
 8380SOL    HW226040   6.175   0.777   2.141
 8381SOL     OW26041   0.697   4.659   4.807
 8381SOL    HW126042   0.714   4.562   4.823
 8381SOL    HW226043   0.607   4.670   4.764
 8382SOL     OW26044   1.067   1.387   2.040
 8382SOL    HW126045   1.119   1.455   1.989
 8382SOL    HW226046   1.130   1.330   2.092
 8383SOL     OW26047   2.428   2.023   6.354
 8383SOL    HW126048   2.439   1.932   6.316
 8383SOL    HW226049   2.483   2.088   6.301
 8384SOL     OW26050   0.251   6.880   0.700
 8384SOL    HW126051   0.329   6.836   0.654
 8384SOL    HW226052   0.276   6.973   0.726
 8385SOL     OW26053   6.025   2.903   1.956
 8385SOL    HW126054   6.056   2.815   1.922
 8385SOL    HW226055   6.015   2.898   2.056
 8386SOL     OW26056   0.939   3.950   2.719
 8386SOL    HW126057   0.946   4.049   2.706
 8386SOL    HW226058   0.878   3.912   2.650
 8387SOL     OW26059   1.331   1.405   1.135
 8387SOL    HW126060   1.343   1.308   1.111
 8387SOL    HW226061   1.414   1.440   1.176
 8388SOL     OW26062   2.056   5.838   1.727
 8388SOL    HW126063   2.040   5.747   1.688
 8388SOL    HW226064   2.005   5.906   1.674
 8389SOL     OW26065   5.174   3.586   2.218
 8389SOL    HW126066   5.172   3.551   2.124
 8389SOL    HW226067   5.131   3.520   2.279
 8390SOL     OW26068   3.770   1.518   6.292
 8390SOL    HW126069   3.860   1.561   6.292
 8390SOL    HW226070   3.704   1.575   6.243
 8391SOL     OW26071   5.746   6.554   0.842
 8391SOL    HW126072   5.708   6.609   0.916
 8391SOL    HW226073   5.728   6.457   0.860
 8392SOL     OW26074   6.269   3.618   3.703
 8392SOL    HW126075   6.180   3.573   3.717
 8392SOL    HW226076   6.259   3.716   3.723
 8393SOL     OW26077   5.631   0.402   2.714
 8393SOL    HW126078   5.563   0.411   2.787
 8393SOL    HW226079   5.673   0.490   2.696
 8394SOL     OW26080   5.981   3.536   1.688
 8394SOL    HW126081   5.958   3.478   1.610
 8394SOL    HW226082   5.999   3.479   1.769
 8395SOL     OW26083   2.683   6.945   5.942
 8395SOL    HW126084   2.770   6.898   5.929
 8395SOL    HW226085   2.665   6.954   6.040
 8396SOL     OW26086   4.205   4.679   3.555
 8396SOL    HW126087   4.248   4.686   3.645
 8396SOL    HW226088   4.105   4.682   3.566
 8397SOL     OW26089   0.655   1.472   3.454
 8397SOL    HW126090   0.741   1.512   3.423
 8397SOL    HW226091   0.618   1.525   3.530
 8398SOL     OW26092   5.097   1.715   6.689
 8398SOL    HW126093   5.147   1.799   6.711
 8398SOL    HW226094   5.025   1.736   6.623
 8399SOL     OW26095   6.571   6.402   6.797
 8399SOL    HW126096   6.501   6.455   6.845
 8399SOL    HW226097   6.653   6.457   6.785
 8400SOL     OW26098   1.612   2.425   4.360
 8400SOL    HW126099   1.515   2.449   4.348
 8400SOL    HW226100   1.666   2.508   4.371
 8401SOL     OW26101   2.042   0.830   5.459
 8401SOL    HW126102   2.033   0.851   5.362
 8401SOL    HW226103   2.131   0.788   5.476
 8402SOL     OW26104   5.121   1.050   6.504
 8402SOL    HW126105   5.050   1.119   6.489
 8402SOL    HW226106   5.120   0.985   6.428
 8403SOL     OW26107   0.317   3.992   4.182
 8403SOL    HW126108   0.256   3.916   4.202
 8403SOL    HW226109   0.290   4.072   4.237
 8404SOL     OW26110   3.277   0.924   6.031
 8404SOL    HW126111   3.246   0.960   6.119
 8404SOL    HW226112   3.199   0.916   5.969
 8405SOL     OW26113   4.229   1.672   6.131
 8405SOL    HW126114   4.304   1.613   6.101
 8405SOL    HW226115   4.202   1.732   6.055
 8406SOL     OW26116   4.892   0.340   0.777
 8406SOL    HW126117   4.839   0.394   0.843
 8406SOL    HW226118   4.989   0.352   0.795
 8407SOL     OW26119   4.607   6.073   3.811
 8407SOL    HW126120   4.576   6.150   3.868
 8407SOL    HW226121   4.635   6.108   3.721
 8408SOL     OW26122   5.290   5.969   0.424
 8408SOL    HW126123   5.216   5.913   0.462
 8408SOL    HW226124   5.253   6.058   0.397
 8409SOL     OW26125   4.541   2.624   1.867
 8409SOL    HW126126   4.549   2.623   1.966
 8409SOL    HW226127   4.513   2.533   1.835
 8410SOL     OW26128   6.110   1.614   1.495
 8410SOL    HW126129   6.140   1.663   1.577
 8410SOL    HW226130   6.105   1.678   1.418
 8411SOL     OW26131   0.217   6.192   1.102
 8411SOL    HW126132   0.189   6.221   1.193
 8411SOL    HW226133   0.200   6.265   1.036
 8412SOL     OW26134   4.024   2.780   1.103
 8412SOL    HW126135   3.988   2.741   1.188
 8412SOL    HW226136   4.020   2.880   1.107
 8413SOL     OW26137   4.105   6.067   6.566
 8413SOL    HW126138   4.068   5.985   6.523
 8413SOL    HW226139   4.203   6.074   6.547
 8414SOL     OW26140   1.984   1.513   2.496
 8414SOL    HW126141   2.037   1.580   2.549
 8414SOL    HW226142   1.887   1.520   2.522
 8415SOL     OW26143   2.797   6.931   3.981
 8415SOL    HW126144   2.720   6.876   4.011
 8415SOL    HW226145   2.777   0.002   3.996
 8416SOL     OW26146   6.175   1.616   5.046
 8416SOL    HW126147   6.195   1.557   4.968
 8416SOL    HW226148   6.096   1.674   5.025
 8417SOL     OW26149   2.042   3.141   5.754
 8417SOL    HW126150   2.076   3.055   5.716
 8417SOL    HW226151   2.091   3.161   5.839
 8418SOL     OW26152   0.741   5.819   2.485
 8418SOL    HW126153   0.655   5.857   2.450
 8418SOL    HW226154   0.732   5.720   2.496
 8419SOL     OW26155   6.131   1.276   3.315
 8419SOL    HW126156   6.076   1.211   3.263
 8419SOL    HW226157   6.073   1.321   3.383
 8420SOL     OW26158   3.287   6.836   2.092
 8420SOL    HW126159   3.221   6.846   2.166
 8420SOL    HW226160   3.367   6.786   2.124
 8421SOL     OW26161   2.902   6.344   6.791
 8421SOL    HW126162   2.835   6.286   6.745
 8421SOL    HW226163   2.856   6.424   6.830
 8422SOL     OW26164   4.476   2.399   2.206
 8422SOL    HW126165   4.447   2.347   2.287
 8422SOL    HW226166   4.457   2.346   2.124
 8423SOL     OW26167   4.437   4.469   5.884
 8423SOL    HW126168   4.377   4.447   5.961
 8423SOL    HW226169   4.521   4.415   5.891
 8424SOL     OW26170   2.034   1.323   3.694
 8424SOL    HW126171   2.063   1.375   3.613
 8424SOL    HW226172   2.083   1.235   3.696
 8425SOL     OW26173   3.260   3.845   4.366
 8425SOL    HW126174   3.200   3.925   4.370
 8425SOL    HW226175   3.206   3.764   4.344
 8426SOL     OW26176   3.650   3.219   2.580
 8426SOL    HW126177   3.568   3.162   2.575
 8426SOL    HW226178   3.713   3.180   2.648
 8427SOL     OW26179   3.024   3.584   3.154
 8427SOL    HW126180   2.994   3.678   3.165
 8427SOL    HW226181   3.109   3.581   3.102
 8428SOL     OW26182   0.331   0.508   1.254
 8428SOL    HW126183   0.300   0.470   1.341
 8428SOL    HW226184   0.430   0.521   1.255
 8429SOL     OW26185   1.986   5.717   5.972
 8429SOL    HW126186   2.080   5.749   5.963
 8429SOL    HW226187   1.945   5.757   6.053
 8430SOL     OW26188   3.877   4.838   4.360
 8430SOL    HW126189   3.924   4.868   4.444
 8430SOL    HW226190   3.945   4.822   4.288
 8431SOL     OW26191   2.950   3.929   6.539
 8431SOL    HW126192   2.889   3.998   6.577
 8431SOL    HW226193   2.902   3.843   6.529
 8432SOL     OW26194   6.718   5.417   5.962
 8432SOL    HW126195   6.692   5.342   6.021
 8432SOL    HW226196   6.650   5.428   5.889
 8433SOL     OW26197   4.317   2.754   0.955
 8433SOL    HW126198   4.325   2.703   1.041
 8433SOL    HW226199   4.227   2.737   0.915
 8434SOL     OW26200   2.277   5.437   5.118
 8434SOL    HW126201   2.198   5.387   5.153
 8434SOL    HW226202   2.355   5.375   5.107
 8435SOL     OW26203   5.271   0.655   3.239
 8435SOL    HW126204   5.273   0.734   3.301
 8435SOL    HW226205   5.207   0.673   3.164
 8436SOL     OW26206   2.441   6.336   4.025
 8436SOL    HW126207   2.445   6.271   3.949
 8436SOL    HW226208   2.531   6.377   4.038
 8437SOL     OW26209   1.870   3.051   2.363
 8437SOL    HW126210   1.861   3.027   2.267
 8437SOL    HW226211   1.967   3.053   2.388
 8438SOL     OW26212   2.147   3.921   2.923
 8438SOL    HW126213   2.180   4.012   2.899
 8438SOL    HW226214   2.163   3.858   2.847
 8439SOL     OW26215   6.397   5.304   3.790
 8439SOL    HW126216   6.482   5.354   3.806
 8439SOL    HW226217   6.374   5.308   3.693
 8440SOL     OW26218   2.458   1.745   3.588
 8440SOL    HW126219   2.408   1.766   3.504
 8440SOL    HW226220   2.395   1.740   3.665
 8441SOL     OW26221   5.329   5.493   4.864
 8441SOL    HW126222   5.328   5.463   4.959
 8441SOL    HW226223   5.365   5.420   4.806
 8442SOL     OW26224   3.511   0.500   5.552
 8442SOL    HW126225   3.593   0.537   5.509
 8442SOL    HW226226   3.534   0.466   5.643
 8443SOL     OW26227   2.032   5.101   4.042
 8443SOL    HW126228   2.005   5.050   4.124
 8443SOL    HW226229   1.952   5.113   3.983
 8444SOL     OW26230   3.715   6.487   3.537
 8444SOL    HW126231   3.778   6.434   3.595
 8444SOL    HW226232   3.726   6.584   3.556
 8445SOL     OW26233   2.317   0.569   6.980
 8445SOL    HW126234   2.255   0.558   6.902
 8445SOL    HW226235   2.288   0.509   0.029
 8446SOL     OW26236   0.385   6.379   4.973
 8446SOL    HW126237   0.361   6.282   4.976
 8446SOL    HW226238   0.452   6.395   4.900
 8447SOL     OW26239   3.875   1.423   2.351
 8447SOL    HW126240   3.841   1.459   2.265
 8447SOL    HW226241   3.854   1.487   2.425
 8448SOL     OW26242   4.862   6.012   3.908
 8448SOL    HW126243   4.770   6.008   3.869
 8448SOL    HW226244   4.880   5.926   3.957
 8449SOL     OW26245   1.090   3.302   3.686
 8449SOL    HW126246   1.046   3.225   3.732
 8449SOL    HW226247   1.189   3.298   3.702
 8450SOL     OW26248   0.267   0.900   0.315
 8450SOL    HW126249   0.244   0.826   0.378
 8450SOL    HW226250   0.222   0.984   0.345
 8451SOL     OW26251   3.458   0.734   0.960
 8451SOL    HW126252   3.457   0.634   0.958
 8451SOL    HW226253   3.545   0.767   0.921
 8452SOL     OW26254   4.995   2.293   4.315
 8452SOL    HW126255   4.968   2.383   4.349
 8452SOL    HW226256   5.039   2.241   4.388
 8453SOL     OW26257   0.513   5.366   6.860
 8453SOL    HW126258   0.414   5.354   6.848
 8453SOL    HW226259   0.561   5.296   6.807
 8454SOL     OW26260   0.535   4.571   0.469
 8454SOL    HW126261   0.466   4.604   0.405
 8454SOL    HW226262   0.507   4.593   0.562
 8455SOL     OW26263   0.569   0.777   2.848
 8455SOL    HW126264   0.613   0.695   2.810
 8455SOL    HW226265   0.521   0.753   2.932
 8456SOL     OW26266   5.263   0.624   3.636
 8456SOL    HW126267   5.352   0.604   3.597
 8456SOL    HW226268   5.236   0.717   3.610
 8457SOL     OW26269   6.662   6.651   4.624
 8457SOL    HW126270   6.688   6.584   4.554
 8457SOL    HW226271   6.600   6.609   4.690
 8458SOL     OW26272   0.744   0.473   0.464
 8458SOL    HW126273   0.799   0.541   0.512
 8458SOL    HW226274   0.650   0.505   0.458
 8459SOL     OW26275   1.732   5.786   3.081
 8459SOL    HW126276   1.727   5.885   3.071
 8459SOL    HW226277   1.805   5.762   3.146
 8460SOL     OW26278   4.312   4.047   5.354
 8460SOL    HW126279   4.259   4.028   5.271
 8460SOL    HW226280   4.322   4.146   5.365
 8461SOL     OW26281   0.170   2.513   5.096
 8461SOL    HW126282   0.197   2.526   5.192
 8461SOL    HW226283   0.148   2.602   5.056
 8462SOL     OW26284   3.278   1.649   1.357
 8462SOL    HW126285   3.205   1.582   1.371
 8462SOL    HW226286   3.354   1.629   1.419
 8463SOL     OW26287   5.957   6.906   2.090
 8463SOL    HW126288   5.949   6.881   2.187
 8463SOL    HW226289   6.047   6.945   2.073
 8464SOL     OW26290   6.011   3.412   4.538
 8464SOL    HW126291   6.070   3.391   4.460
 8464SOL    HW226292   6.001   3.511   4.547
 8465SOL     OW26293   1.654   2.018   0.264
 8465SOL    HW126294   1.599   2.073   0.326
 8465SOL    HW226295   1.631   2.041   0.169
 8466SOL     OW26296   1.074   5.485   4.099
 8466SOL    HW126297   1.096   5.582   4.106
 8466SOL    HW226298   1.145   5.432   4.146
 8467SOL     OW26299   2.445   5.938   1.335
 8467SOL    HW126300   2.373   5.883   1.376
 8467SOL    HW226301   2.515   5.960   1.403
 8468SOL     OW26302   3.501   2.126   0.333
 8468SOL    HW126303   3.552   2.169   0.258
 8468SOL    HW226304   3.565   2.081   0.395
 8469SOL     OW26305   3.200   3.112   0.045
 8469SOL    HW126306   3.116   3.132   0.096
 8469SOL    HW226307   3.279   3.131   0.103
 8470SOL     OW26308   1.950   2.457   1.088
 8470SOL    HW126309   1.885   2.525   1.056
 8470SOL    HW226310   1.902   2.386   1.140
 8471SOL     OW26311   2.592   0.645   4.133
 8471SOL    HW126312   2.658   0.581   4.173
 8471SOL    HW226313   2.584   0.626   4.035
 8472SOL     OW26314   0.507   6.878   4.433
 8472SOL    HW126315   0.573   6.819   4.479
 8472SOL    HW226316   0.521   6.873   4.334
 8473SOL     OW26317   0.206   5.808   0.364
 8473SOL    HW126318   0.150   5.784   0.444
 8473SOL    HW226319   0.148   5.814   0.283
 8474SOL     OW26320   3.056   2.957   1.830
 8474SOL    HW126321   3.042   2.895   1.753
 8474SOL    HW226322   3.119   2.915   1.895
 8475SOL     OW26323   5.579   1.792   2.343
 8475SOL    HW126324   5.662   1.758   2.300
 8475SOL    HW226325   5.576   1.762   2.439
 8476SOL     OW26326   5.907   6.794   2.335
 8476SOL    HW126327   5.820   6.842   2.344
 8476SOL    HW226328   5.897   6.701   2.370
 8477SOL     OW26329   2.475   6.848   1.028
 8477SOL    HW126330   2.535   6.781   0.983
 8477SOL    HW226331   2.392   6.802   1.060
 8478SOL     OW26332   1.840   0.724   5.618
 8478SOL    HW126333   1.844   0.761   5.711
 8478SOL    HW226334   1.906   0.771   5.560
 8479SOL     OW26335   5.907   1.122   0.033
 8479SOL    HW126336   5.944   1.046   0.086
 8479SOL    HW226337   5.916   1.206   0.085
 8480SOL     OW26338   3.161   0.431   0.698
 8480SOL    HW126339   3.098   0.385   0.761
 8480SOL    HW226340   3.108   0.472   0.623
 8481SOL     OW26341   4.460   1.280   4.822
 8481SOL    HW126342   4.426   1.264   4.914
 8481SOL    HW226343   4.406   1.352   4.778
 8482SOL     OW26344   1.936   0.211   2.200
 8482SOL    HW126345   1.887   0.296   2.182
 8482SOL    HW226346   1.888   0.134   2.156
 8483SOL     OW26347   3.331   5.682   2.328
 8483SOL    HW126348   3.296   5.760   2.379
 8483SOL    HW226349   3.405   5.638   2.379
 8484SOL     OW26350   0.283   4.701   3.388
 8484SOL    HW126351   0.189   4.722   3.418
 8484SOL    HW226352   0.325   4.784   3.351
 8485SOL     OW26353   1.953   3.872   0.678
 8485SOL    HW126354   1.911   3.960   0.700
 8485SOL    HW226355   1.927   3.845   0.586
 8486SOL     OW26356   5.460   0.999   2.398
 8486SOL    HW126357   5.465   0.919   2.459
 8486SOL    HW226358   5.380   1.053   2.422
 8487SOL     OW26359   5.245   6.951   0.897
 8487SOL    HW126360   5.254   6.939   0.798
 8487SOL    HW226361   5.308   7.022   0.928
 8488SOL     OW26362   5.290   4.782   4.192
 8488SOL    HW126363   5.354   4.787   4.115
 8488SOL    HW226364   5.244   4.870   4.203
 8489SOL     OW26365   5.678   5.076   1.351
 8489SOL    HW126366   5.592   5.070   1.402
 8489SOL    HW226367   5.684   5.166   1.307
 8490SOL     OW26368   4.526   5.277   2.950
 8490SOL    HW126369   4.458   5.221   2.998
 8490SOL    HW226370   4.618   5.242   2.972
 8491SOL     OW26371   2.243   0.500   2.283
 8491SOL    HW126372   2.197   0.420   2.322
 8491SOL    HW226373   2.336   0.505   2.320
 8492SOL     OW26374   5.076   3.505   5.506
 8492SOL    HW126375   5.145   3.532   5.439
 8492SOL    HW226376   4.985   3.515   5.466
 8493SOL     OW26377   4.027   1.794   0.067
 8493SOL    HW126378   4.060   1.769   7.001
 8493SOL    HW226379   4.061   1.728   0.134
 8494SOL     OW26380   2.576   5.631   6.731
 8494SOL    HW126381   2.480   5.656   6.743
 8494SOL    HW226382   2.589   5.535   6.759
 8495SOL     OW26383   6.560   3.155   0.475
 8495SOL    HW126384   6.469   3.139   0.437
 8495SOL    HW226385   6.557   3.236   0.534
 8496SOL     OW26386   0.439   1.896   3.704
 8496SOL    HW126387   0.459   1.992   3.725
 8496SOL    HW226388   0.347   1.873   3.737
 8497SOL     OW26389   5.411   5.753   4.551
 8497SOL    HW126390   5.350   5.700   4.610
 8497SOL    HW226391   5.444   5.695   4.476
 8498SOL     OW26392   0.227   0.385   1.482
 8498SOL    HW126393   0.196   0.425   1.568
 8498SOL    HW226394   0.239   0.286   1.495
 8499SOL     OW26395   3.363   5.193   6.566
 8499SOL    HW126396   3.432   5.134   6.526
 8499SOL    HW226397   3.323   5.251   6.495
 8500SOL     OW26398   2.536   0.001   5.721
 8500SOL    HW126399   2.538   6.949   5.657
 8500SOL    HW226400   2.563   6.996   5.812
 8501SOL     OW26401   1.695   3.218   6.936
 8501SOL    HW126402   1.643   3.169   6.866
 8501SOL    HW226403   1.704   3.314   6.910
 8502SOL     OW26404   0.514   6.013   1.243
 8502SOL    HW126405   0.459   6.012   1.327
 8502SOL    HW226406   0.453   6.005   1.164
 8503SOL     OW26407   1.574   5.102   3.561
 8503SOL    HW126408   1.582   5.138   3.654
 8503SOL    HW226409   1.533   5.171   3.502
 8504SOL     OW26410   2.052   6.270   3.722
 8504SOL    HW126411   2.025   6.325   3.643
 8504SOL    HW226412   2.117   6.322   3.778
 8505SOL     OW26413   5.460   4.267   3.254
 8505SOL    HW126414   5.413   4.225   3.176
 8505SOL    HW226415   5.435   4.218   3.338
 8506SOL     OW26416   0.901   6.377   0.143
 8506SOL    HW126417   0.837   6.451   0.122
 8506SOL    HW226418   0.852   6.290   0.148
 8507SOL     OW26419   2.457   1.061   5.777
 8507SOL    HW126420   2.375   1.039   5.829
 8507SOL    HW226421   2.450   1.154   5.740
 8508SOL     OW26422   6.548   2.695   5.187
 8508SOL    HW126423   6.485   2.699   5.110
 8508SOL    HW226424   6.572   2.600   5.206
 8509SOL     OW26425   6.121   0.926   4.314
 8509SOL    HW126426   6.182   0.910   4.236
 8509SOL    HW226427   6.103   1.023   4.324
 8510SOL     OW26428   6.471   5.728   3.044
 8510SOL    HW126429   6.418   5.735   3.128
 8510SOL    HW226430   6.561   5.770   3.057
 8511SOL     OW26431   6.132   4.093   1.102
 8511SOL    HW126432   6.129   4.170   1.165
 8511SOL    HW226433   6.204   4.107   1.035
 8512SOL     OW26434   4.163   2.253   0.111
 8512SOL    HW126435   4.145   2.327   0.047
 8512SOL    HW226436   4.243   2.276   0.167
 8513SOL     OW26437   4.671   3.883   0.387
 8513SOL    HW126438   4.741   3.814   0.368
 8513SOL    HW226439   4.648   3.883   0.484
 8514SOL     OW26440   2.693   1.672   3.709
 8514SOL    HW126441   2.671   1.724   3.792
 8514SOL    HW226442   2.615   1.675   3.647
 8515SOL     OW26443   0.324   1.368   6.792
 8515SOL    HW126444   0.367   1.370   6.882
 8515SOL    HW226445   0.313   1.273   6.762
 8516SOL     OW26446   6.018   2.413   2.767
 8516SOL    HW126447   6.031   2.484   2.836
 8516SOL    HW226448   5.984   2.330   2.811
 8517SOL     OW26449   1.895   2.995   6.089
 8517SOL    HW126450   1.894   2.900   6.058
 8517SOL    HW226451   1.804   3.022   6.121
 8518SOL     OW26452   4.861   4.025   5.978
 8518SOL    HW126453   4.785   4.059   6.033
 8518SOL    HW226454   4.946   4.068   6.008
 8519SOL     OW26455   1.155   4.687   0.552
 8519SOL    HW126456   1.161   4.768   0.493
 8519SOL    HW226457   1.174   4.714   0.646
 8520SOL     OW26458   3.556   3.834   5.136
 8520SOL    HW126459   3.544   3.736   5.144
 8520SOL    HW226460   3.616   3.867   5.209
 8521SOL     OW26461   2.096   6.633   5.764
 8521SOL    HW126462   2.144   6.679   5.839
 8521SOL    HW226463   2.035   6.699   5.719
 8522SOL     OW26464   1.464   0.690   1.016
 8522SOL    HW126465   1.395   0.634   1.061
 8522SOL    HW226466   1.554   0.666   1.051
 8523SOL     OW26467   2.723   6.997   6.470
 8523SOL    HW126468   2.753   6.905   6.494
 8523SOL    HW226469   2.709   0.025   6.554
 8524SOL     OW26470   1.021   4.628   5.024
 8524SOL    HW126471   0.932   4.615   5.067
 8524SOL    HW226472   1.019   4.591   4.931
 8525SOL     OW26473   5.961   4.815   0.781
 8525SOL    HW126474   5.907   4.827   0.864
 8525SOL    HW226475   6.050   4.776   0.805
 8526SOL     OW26476   2.930   6.776   1.198
 8526SOL    HW126477   2.927   6.824   1.110
 8526SOL    HW226478   2.837   6.758   1.229
 8527SOL     OW26479   3.293   0.375   6.841
 8527SOL    HW126480   3.363   0.430   6.795
 8527SOL    HW226481   3.306   0.382   6.940
 8528SOL     OW26482   4.809   1.612   1.114
 8528SOL    HW126483   4.893   1.649   1.153
 8528SOL    HW226484   4.831   1.551   1.038
 8529SOL     OW26485   1.158   6.310   7.022
 8529SOL    HW126486   1.228   6.371   6.986
 8529SOL    HW226487   1.081   6.363   0.032
 8530SOL     OW26488   2.944   3.258   3.919
 8530SOL    HW126489   2.871   3.251   3.851
 8530SOL    HW226490   2.964   3.354   3.937
 8531SOL     OW26491   6.996   5.240   3.494
 8531SOL    HW126492   0.003   5.161   3.546
 8531SOL    HW226493   0.041   5.311   3.496
 8532SOL     OW26494   3.526   6.858   4.257
 8532SOL    HW126495   3.551   6.762   4.241
 8532SOL    HW226496   3.482   6.895   4.175
 8533SOL     OW26497   0.851   6.056   0.097
 8533SOL    HW126498   0.805   6.029   0.182
 8533SOL    HW226499   0.794   6.029   0.019
 8534SOL     OW26500   4.866   2.704   3.676
 8534SOL    HW126501   4.909   2.789   3.705
 8534SOL    HW226502   4.790   2.725   3.614
 8535SOL     OW26503   6.116   0.945   4.585
 8535SOL    HW126504   6.205   0.968   4.624
 8535SOL    HW226505   6.126   0.926   4.488
 8536SOL     OW26506   1.091   2.217   5.052
 8536SOL    HW126507   1.082   2.133   4.999
 8536SOL    HW226508   1.016   2.279   5.029
 8537SOL     OW26509   6.579   1.401   3.416
 8537SOL    HW126510   6.622   1.463   3.350
 8537SOL    HW226511   6.515   1.340   3.369
 8538SOL     OW26512   1.842   1.637   0.220
 8538SOL    HW126513   1.815   1.614   0.127
 8538SOL    HW226514   1.882   1.728   0.222
 8539SOL     OW26515   6.258   2.128   2.486
 8539SOL    HW126516   6.243   2.197   2.416
 8539SOL    HW226517   6.352   2.093   2.478
 8540SOL     OW26518   5.152   6.975   6.629
 8540SOL    HW126519   5.069   7.014   6.589
 8540SOL    HW226520   5.153   6.994   6.727
 8541SOL     OW26521   2.725   1.880   3.974
 8541SOL    HW126522   2.821   1.860   3.992
 8541SOL    HW226523   2.673   1.875   4.059
 8542SOL     OW26524   3.385   5.397   6.317
 8542SOL    HW126525   3.382   5.347   6.230
 8542SOL    HW226526   3.477   5.387   6.357
 8543SOL     OW26527   1.940   2.032   0.442
 8543SOL    HW126528   1.847   2.041   0.477
 8543SOL    HW226529   2.002   2.014   0.519
 8544SOL     OW26530   5.433   2.727   4.477
 8544SOL    HW126531   5.401   2.745   4.385
 8544SOL    HW226532   5.525   2.766   4.489
 8545SOL     OW26533   5.075   6.241   6.702
 8545SOL    HW126534   5.137   6.315   6.728
 8545SOL    HW226535   5.111   6.154   6.736
 8546SOL     OW26536   6.165   1.930   3.125
 8546SOL    HW126537   6.117   1.845   3.146
 8546SOL    HW226538   6.262   1.910   3.108
 8547SOL     OW26539   1.363   5.726   6.129
 8547SOL    HW126540   1.389   5.728   6.032
 8547SOL    HW226541   1.290   5.793   6.145
 8548SOL     OW26542   5.935   2.095   5.533
 8548SOL    HW126543   5.934   2.004   5.493
 8548SOL    HW226544   5.890   2.159   5.470
 8549SOL     OW26545   6.848   4.186   4.165
 8549SOL    HW126546   6.913   4.111   4.154
 8549SOL    HW226547   6.755   4.150   4.161
 8550SOL     OW26548   1.771   4.654   6.984
 8550SOL    HW126549   1.754   4.601   0.041
 8550SOL    HW226550   1.868   4.650   6.960
 8551SOL     OW26551   3.443   4.484   6.519
 8551SOL    HW126552   3.433   4.447   6.427
 8551SOL    HW226553   3.532   4.458   6.557
 8552SOL     OW26554   3.091   5.645   3.275
 8552SOL    HW126555   3.049   5.614   3.361
 8552SOL    HW226556   3.090   5.570   3.209
 8553SOL     OW26557   5.390   6.309   0.288
 8553SOL    HW126558   5.305   6.285   0.336
 8553SOL    HW226559   5.426   6.395   0.325
 8554SOL     OW26560   0.347   4.080   0.500
 8554SOL    HW126561   0.291   4.003   0.532
 8554SOL    HW226562   0.294   4.137   0.438
 8555SOL     OW26563   1.405   0.504   2.873
 8555SOL    HW126564   1.357   0.455   2.800
 8555SOL    HW226565   1.418   0.599   2.846
 8556SOL     OW26566   0.687   0.354   3.068
 8556SOL    HW126567   0.784   0.347   3.046
 8556SOL    HW226568   0.657   0.270   3.115
 8557SOL     OW26569   6.203   7.018   2.111
 8557SOL    HW126570   6.299   6.992   2.121
 8557SOL    HW226571   6.169   0.031   2.197
 8558SOL     OW26572   2.013   5.802   2.630
 8558SOL    HW126573   1.997   5.709   2.598
 8558SOL    HW226574   2.029   5.862   2.552
 8559SOL     OW26575   1.022   0.946   1.871
 8559SOL    HW126576   0.924   0.967   1.864
 8559SOL    HW226577   1.071   0.992   1.797
 8560SOL     OW26578   7.020   0.991   0.589
 8560SOL    HW126579   6.962   1.004   0.670
 8560SOL    HW226580   0.039   0.902   0.594
 8561SOL     OW26581   4.533   6.023   2.340
 8561SOL    HW126582   4.442   5.998   2.375
 8561SOL    HW226583   4.584   6.071   2.411
 8562SOL     OW26584   4.558   6.213   4.862
 8562SOL    HW126585   4.607   6.195   4.948
 8562SOL    HW226586   4.541   6.126   4.816
 8563SOL     OW26587   3.021   3.221   6.731
 8563SOL    HW126588   2.977   3.242   6.644
 8563SOL    HW226589   3.106   3.272   6.738
 8564SOL     OW26590   1.407   0.562   3.247
 8564SOL    HW126591   1.389   0.564   3.346
 8564SOL    HW226592   1.322   0.581   3.198
 8565SOL     OW26593   4.111   6.933   1.359
 8565SOL    HW126594   4.110   6.954   1.261
 8565SOL    HW226595   4.017   6.920   1.390
 8566SOL     OW26596   1.426   2.250   3.082
 8566SOL    HW126597   1.442   2.240   2.984
 8566SOL    HW226598   1.358   2.321   3.098
 8567SOL     OW26599   5.851   1.140   1.319
 8567SOL    HW126600   5.802   1.128   1.232
 8567SOL    HW226601   5.836   1.232   1.354
 8568SOL     OW26602   5.123   1.624   0.060
 8568SOL    HW126603   5.052   1.553   0.060
 8568SOL    HW226604   5.127   1.668   0.149
 8569SOL     OW26605   4.826   0.856   5.149
 8569SOL    HW126606   4.740   0.814   5.178
 8569SOL    HW226607   4.841   0.838   5.052
 8570SOL     OW26608   1.633   4.618   6.124
 8570SOL    HW126609   1.697   4.583   6.056
 8570SOL    HW226610   1.542   4.583   6.105
 8571SOL     OW26611   6.820   4.765   5.246
 8571SOL    HW126612   6.905   4.745   5.296
 8571SOL    HW226613   6.811   4.863   5.233
 8572SOL     OW26614   2.036   5.389   5.556
 8572SOL    HW126615   2.083   5.310   5.595
 8572SOL    HW226616   2.066   5.473   5.602
 8573SOL     OW26617   4.344   6.115   6.820
 8573SOL    HW126618   4.246   6.135   6.821
 8573SOL    HW226619   4.375   6.096   6.913
 8574SOL     OW26620   1.332   4.557   6.237
 8574SOL    HW126621   1.329   4.463   6.271
 8574SOL    HW226622   1.248   4.578   6.187
 8575SOL     OW26623   3.225   2.495   6.574
 8575SOL    HW126624   3.260   2.417   6.522
 8575SOL    HW226625   3.202   2.466   6.667
 8576SOL     OW26626   0.525   0.034   1.714
 8576SOL    HW126627   0.551   0.130   1.727
 8576SOL    HW226628   0.457   0.009   1.783
 8577SOL     OW26629   6.299   5.037   3.850
 8577SOL    HW126630   6.313   5.134   3.831
 8577SOL    HW226631   6.385   4.996   3.883
 8578SOL     OW26632   4.704   6.777   4.389
 8578SOL    HW126633   4.790   6.812   4.426
 8578SOL    HW226634   4.667   6.842   4.324
 8579SOL     OW26635   1.082   4.974   3.432
 8579SOL    HW126636   1.079   5.035   3.353
 8579SOL    HW226637   1.173   4.979   3.474
 8580SOL     OW26638   1.776   6.649   1.781
 8580SOL    HW126639   1.804   6.702   1.701
 8580SOL    HW226640   1.787   6.551   1.761
 8581SOL     OW26641   3.668   1.750   0.716
 8581SOL    HW126642   3.746   1.790   0.765
 8581SOL    HW226643   3.584   1.798   0.741
 8582SOL     OW26644   4.683   4.726   2.097
 8582SOL    HW126645   4.694   4.732   2.196
 8582SOL    HW226646   4.709   4.635   2.066
 8583SOL     OW26647   6.181   0.686   6.511
 8583SOL    HW126648   6.280   0.678   6.514
 8583SOL    HW226649   6.145   0.707   6.602
 8584SOL     OW26650   6.986   4.377   0.845
 8584SOL    HW126651   6.953   4.282   0.852
 8584SOL    HW226652   0.009   4.401   0.928
 8585SOL     OW26653   0.693   0.788   0.725
 8585SOL    HW126654   0.682   0.712   0.789
 8585SOL    HW226655   0.677   0.874   0.773
 8586SOL     OW26656   3.312   5.804   2.793
 8586SOL    HW126657   3.355   5.860   2.863
 8586SOL    HW226658   3.230   5.760   2.830
 8587SOL     OW26659   0.598   1.743   2.923
 8587SOL    HW126660   0.665   1.684   2.968
 8587SOL    HW226661   0.615   1.838   2.948
 8588SOL     OW26662   3.380   1.876   0.763
 8588SOL    HW126663   3.341   1.871   0.671
 8588SOL    HW226664   3.316   1.836   0.829
 8589SOL     OW26665   4.036   1.301   5.312
 8589SOL    HW126666   4.081   1.292   5.223
 8589SOL    HW226667   4.057   1.220   5.367
 8590SOL     OW26668   6.670   5.543   4.985
 8590SOL    HW126669   6.667   5.468   4.919
 8590SOL    HW226670   6.624   5.516   5.069
 8591SOL     OW26671   0.669   4.557   6.549
 8591SOL    HW126672   0.664   4.457   6.541
 8591SOL    HW226673   0.590   4.591   6.599
 8592SOL     OW26674   0.212   4.273   0.359
 8592SOL    HW126675   0.136   4.334   0.382
 8592SOL    HW226676   0.256   4.305   0.275
 8593SOL     OW26677   1.150   6.925   2.171
 8593SOL    HW126678   1.241   6.957   2.147
 8593SOL    HW226679   1.155   6.831   2.204
 8594SOL     OW26680   3.037   3.689   4.284
 8594SOL    HW126681   3.008   3.760   4.349
 8594SOL    HW226682   3.026   3.599   4.326
 8595SOL     OW26683   2.092   2.209   2.506
 8595SOL    HW126684   2.142   2.267   2.571
 8595SOL    HW226685   2.118   2.234   2.413
 8596SOL     OW26686   5.788   5.307   1.946
 8596SOL    HW126687   5.730   5.368   2.000
 8596SOL    HW226688   5.789   5.216   1.987
 8597SOL     OW26689   3.437   1.748   1.146
 8597SOL    HW126690   3.409   1.720   1.238
 8597SOL    HW226691   3.358   1.786   1.098
 8598SOL     OW26692   6.702   5.076   1.096
 8598SOL    HW126693   6.708   5.028   1.184
 8598SOL    HW226694   6.691   5.174   1.112
 8599SOL     OW26695   1.128   2.527   3.890
 8599SOL    HW126696   1.151   2.529   3.792
 8599SOL    HW226697   1.033   2.499   3.901
 8600SOL     OW26698   6.534   4.911   6.526
 8600SOL    HW126699   6.507   4.816   6.514
 8600SOL    HW226700   6.590   4.941   6.448
 8601SOL     OW26701   0.044   1.579   4.674
 8601SOL    HW126702   6.986   1.616   4.633
 8601SOL    HW226703   0.093   1.653   4.721
 8602SOL     OW26704   2.879   6.334   2.740
 8602SOL    HW126705   2.891   6.410   2.676
 8602SOL    HW226706   2.902   6.364   2.832
 8603SOL     OW26707   3.361   4.013   0.037
 8603SOL    HW126708   3.379   4.107   0.007
 8603SOL    HW226709   3.397   3.949   6.994
 8604SOL     OW26710   6.203   3.140   3.844
 8604SOL    HW126711   6.114   3.157   3.888
 8604SOL    HW226712   6.230   3.045   3.859
 8605SOL     OW26713   3.599   5.590   4.023
 8605SOL    HW126714   3.688   5.548   4.005
 8605SOL    HW226715   3.582   5.663   3.957
 8606SOL     OW26716   2.635   4.127   5.949
 8606SOL    HW126717   2.637   4.110   5.850
 8606SOL    HW226718   2.542   4.153   5.976
 8607SOL     OW26719   3.322   5.779   1.359
 8607SOL    HW126720   3.248   5.826   1.408
 8607SOL    HW226721   3.373   5.721   1.423
 8608SOL     OW26722   4.356   4.936   2.469
 8608SOL    HW126723   4.442   4.946   2.420
 8608SOL    HW226724   4.287   4.896   2.409
 8609SOL     OW26725   3.792   0.711   4.764
 8609SOL    HW126726   3.844   0.767   4.700
 8609SOL    HW226727   3.853   0.645   4.808
 8610SOL     OW26728   1.276   0.096   3.340
 8610SOL    HW126729   1.272   0.105   3.440
 8610SOL    HW226730   1.193   0.135   3.300
 8611SOL     OW26731   1.002   2.239   4.447
 8611SOL    HW126732   0.969   2.319   4.498
 8611SOL    HW226733   1.096   2.219   4.475
 8612SOL     OW26734   2.819   3.677   6.499
 8612SOL    HW126735   2.780   3.627   6.577
 8612SOL    HW226736   2.868   3.612   6.440
 8613SOL     OW26737   1.945   1.727   1.031
 8613SOL    HW126738   1.972   1.660   0.961
 8613SOL    HW226739   1.855   1.765   1.007
 8614SOL     OW26740   0.717   3.825   2.954
 8614SOL    HW126741   0.797   3.795   2.901
 8614SOL    HW226742   0.647   3.858   2.891
 8615SOL     OW26743   4.606   1.834   5.237
 8615SOL    HW126744   4.685   1.842   5.297
 8615SOL    HW226745   4.620   1.760   5.172
 8616SOL     OW26746   0.776   4.937   0.566
 8616SOL    HW126747   0.710   4.986   0.509
 8616SOL    HW226748   0.771   4.840   0.546
 8617SOL     OW26749   6.643   1.892   0.614
 8617SOL    HW126750   6.725   1.852   0.655
 8617SOL    HW226751   6.567   1.888   0.679
 8618SOL     OW26752   4.595   6.755   2.280
 8618SOL    HW126753   4.507   6.721   2.247
 8618SOL    HW226754   4.641   6.805   2.207
 8619SOL     OW26755   4.138   5.389   6.965
 8619SOL    HW126756   4.174   5.331   0.012
 8619SOL    HW226757   4.053   5.350   6.929
 8620SOL     OW26758   6.169   6.745   2.913
 8620SOL    HW126759   6.133   6.827   2.958
 8620SOL    HW226760   6.118   6.729   2.828
 8621SOL     OW26761   6.764   1.119   4.206
 8621SOL    HW126762   6.691   1.130   4.139
 8621SOL    HW226763   6.827   1.196   4.200
 8622SOL     OW26764   4.434   4.520   0.117
 8622SOL    HW126765   4.521   4.560   0.144
 8622SOL    HW226766   4.400   4.566   0.035
 8623SOL     OW26767   0.536   4.235   3.047
 8623SOL    HW126768   0.612   4.214   2.986
 8623SOL    HW226769   0.471   4.294   3.001
 8624SOL     OW26770   1.366   4.223   3.727
 8624SOL    HW126771   1.304   4.299   3.707
 8624SOL    HW226772   1.319   4.137   3.709
 8625SOL     OW26773   4.332   0.931   4.314
 8625SOL    HW126774   4.310   1.006   4.376
 8625SOL    HW226775   4.431   0.926   4.300
 8626SOL     OW26776   3.340   3.419   3.894
 8626SOL    HW126777   3.277   3.377   3.829
 8626SOL    HW226778   3.352   3.359   3.973
 8627SOL     OW26779   1.283   1.042   1.413
 8627SOL    HW126780   1.195   1.086   1.396
 8627SOL    HW226781   1.295   1.026   1.511
 8628SOL     OW26782   6.771   0.380   0.344
 8628SOL    HW126783   6.690   0.382   0.286
 8628SOL    HW226784   6.782   0.468   0.390
 8629SOL     OW26785   0.829   5.230   4.150
 8629SOL    HW126786   0.869   5.195   4.234
 8629SOL    HW226787   0.901   5.247   4.083
 8630SOL     OW26788   5.862   3.776   3.969
 8630SOL    HW126789   5.782   3.747   3.917
 8630SOL    HW226790   5.843   3.772   4.066
 8631SOL     OW26791   3.739   5.590   5.702
 8631SOL    HW126792   3.666   5.558   5.762
 8631SOL    HW226793   3.826   5.587   5.752
 8632SOL     OW26794   3.765   0.093   3.841
 8632SOL    HW126795   3.713   0.096   3.756
 8632SOL    HW226796   3.703   0.090   3.919
 8633SOL     OW26797   5.728   1.308   3.869
 8633SOL    HW126798   5.639   1.308   3.915
 8633SOL    HW226799   5.795   1.355   3.925
 8634SOL     OW26800   6.308   4.002   1.462
 8634SOL    HW126801   6.300   3.966   1.555
 8634SOL    HW226802   6.262   4.090   1.456
 8635SOL     OW26803   6.132   3.855   5.839
 8635SOL    HW126804   6.125   3.882   5.743
 8635SOL    HW226805   6.055   3.797   5.863
 8636SOL     OW26806   5.752   5.311   6.957
 8636SOL    HW126807   5.700   5.274   0.009
 8636SOL    HW226808   5.835   5.257   6.943
 8637SOL     OW26809   1.650   0.799   0.208
 8637SOL    HW126810   1.612   0.708   0.194
 8637SOL    HW226811   1.710   0.798   0.288
 8638SOL     OW26812   1.933   3.789   0.265
 8638SOL    HW126813   2.016   3.842   0.252
 8638SOL    HW226814   1.869   3.840   0.323
 8639SOL     OW26815   5.143   2.661   2.279
 8639SOL    HW126816   5.129   2.625   2.371
 8639SOL    HW226817   5.073   2.624   2.218
 8640SOL     OW26818   4.260   4.215   0.473
 8640SOL    HW126819   4.250   4.277   0.551
 8640SOL    HW226820   4.276   4.269   0.390
 8641SOL     OW26821   6.826   4.125   3.223
 8641SOL    HW126822   6.781   4.051   3.272
 8641SOL    HW226823   6.874   4.184   3.289
 8642SOL     OW26824   4.979   0.257   2.432
 8642SOL    HW126825   5.043   0.326   2.466
 8642SOL    HW226826   5.027   0.195   2.370
 8643SOL     OW26827   4.893   0.281   7.015
 8643SOL    HW126828   4.900   0.364   0.044
 8643SOL    HW226829   4.848   0.210   0.044
 8644SOL     OW26830   5.649   2.205   5.238
 8644SOL    HW126831   5.569   2.263   5.251
 8644SOL    HW226832   5.728   2.247   5.282
 8645SOL     OW26833   6.035   4.599   1.195
 8645SOL    HW126834   6.009   4.694   1.177
 8645SOL    HW226835   6.007   4.542   1.118
 8646SOL     OW26836   4.577   1.052   0.705
 8646SOL    HW126837   4.579   0.990   0.626
 8646SOL    HW226838   4.564   0.999   0.789
 8647SOL     OW26839   3.756   4.857   0.162
 8647SOL    HW126840   3.781   4.919   0.088
 8647SOL    HW226841   3.763   4.904   0.250
 8648SOL     OW26842   5.941   0.677   4.342
 8648SOL    HW126843   6.005   0.744   4.307
 8648SOL    HW226844   5.859   0.724   4.375
 8649SOL     OW26845   6.387   4.362   5.617
 8649SOL    HW126846   6.328   4.316   5.552
 8649SOL    HW226847   6.334   4.386   5.699
 8650SOL     OW26848   1.690   4.880   4.046
 8650SOL    HW126849   1.620   4.810   4.033
 8650SOL    HW226850   1.745   4.888   3.962
 8651SOL     OW26851   3.935   1.164   0.297
 8651SOL    HW126852   4.019   1.170   0.243
 8651SOL    HW226853   3.915   1.254   0.336
 8652SOL     OW26854   1.660   3.951   3.731
 8652SOL    HW126855   1.630   4.020   3.665
 8652SOL    HW226856   1.739   3.986   3.781
 8653SOL     OW26857   0.172   1.981   6.203
 8653SOL    HW126858   0.173   2.023   6.294
 8653SOL    HW226859   0.148   1.884   6.211
 8654SOL     OW26860   0.086   6.331   2.656
 8654SOL    HW126861   0.082   6.430   2.671
 8654SOL    HW226862   0.146   6.311   2.578
 8655SOL     OW26863   5.927   0.234   4.117
 8655SOL    HW126864   5.963   0.246   4.210
 8655SOL    HW226865   5.871   0.151   4.113
 8656SOL     OW26866   6.281   0.960   1.228
 8656SOL    HW126867   6.214   0.891   1.259
 8656SOL    HW226868   6.309   0.939   1.134
 8657SOL     OW26869   4.418   4.988   6.009
 8657SOL    HW126870   4.475   4.914   6.044
 8657SOL    HW226871   4.432   5.070   6.065
 8658SOL     OW26872   5.110   4.873   0.218
 8658SOL    HW126873   5.047   4.798   0.195
 8658SOL    HW226874   5.100   4.896   0.315
 8659SOL     OW26875   4.384   0.585   3.476
 8659SOL    HW126876   4.284   0.582   3.482
 8659SOL    HW226877   4.411   0.632   3.392
 8660SOL     OW26878   5.771   3.991   0.026
 8660SOL    HW126879   5.831   3.912   0.017
 8660SOL    HW226880   5.681   3.960   0.058
 8661SOL     OW26881   5.630   3.834   1.653
 8661SOL    HW126882   5.723   3.802   1.669
 8661SOL    HW226883   5.629   3.899   1.577
 8662SOL     OW26884   5.674   6.173   1.661
 8662SOL    HW126885   5.758   6.211   1.699
 8662SOL    HW226886   5.605   6.246   1.654
 8663SOL     OW26887   2.709   5.598   0.609
 8663SOL    HW126888   2.773   5.625   0.680
 8663SOL    HW226889   2.744   5.627   0.520
 8664SOL     OW26890   4.498   5.337   6.893
 8664SOL    HW126891   4.455   5.425   6.915
 8664SOL    HW226892   4.428   5.274   6.859
 8665SOL     OW26893   4.833   5.812   5.515
 8665SOL    HW126894   4.836   5.881   5.587
 8665SOL    HW226895   4.740   5.806   5.479
 8666SOL     OW26896   5.017   1.484   4.923
 8666SOL    HW126897   4.958   1.504   4.845
 8666SOL    HW226898   4.989   1.399   4.967
 8667SOL     OW26899   5.018   1.792   3.143
 8667SOL    HW126900   5.012   1.763   3.048
 8667SOL    HW226901   5.113   1.787   3.174
 8668SOL     OW26902   5.410   2.434   4.084
 8668SOL    HW126903   5.326   2.485   4.097
 8668SOL    HW226904   5.472   2.452   4.160
 8669SOL     OW26905   3.637   0.421   6.355
 8669SOL    HW126906   3.695   0.457   6.429
 8669SOL    HW226907   3.694   0.372   6.289
 8670SOL     OW26908   3.666   5.364   4.747
 8670SOL    HW126909   3.589   5.395   4.804
 8670SOL    HW226910   3.744   5.342   4.806
 8671SOL     OW26911   5.514   0.033   3.931
 8671SOL    HW126912   5.506   6.966   3.971
 8671SOL    HW226913   5.600   0.041   3.882
 8672SOL     OW26914   2.291   5.554   4.495
 8672SOL    HW126915   2.293   5.531   4.592
 8672SOL    HW226916   2.328   5.646   4.482
 8673SOL     OW26917   0.422   1.396   0.225
 8673SOL    HW126918   0.466   1.470   0.174
 8673SOL    HW226919   0.482   1.317   0.229
 8674SOL     OW26920   6.874   6.183   2.263
 8674SOL    HW126921   6.899   6.136   2.348
 8674SOL    HW226922   6.935   6.260   2.248
 8675SOL     OW26923   3.383   1.957   4.841
 8675SOL    HW126924   3.286   1.972   4.825
 8675SOL    HW226925   3.403   1.965   4.939
 8676SOL     OW26926   3.094   0.747   2.767
 8676SOL    HW126927   3.009   0.728   2.816
 8676SOL    HW226928   3.081   0.825   2.705
 8677SOL     OW26929   2.301   5.746   6.186
 8677SOL    HW126930   2.314   5.775   6.280
 8677SOL    HW226931   2.268   5.651   6.184
 8678SOL     OW26932   0.554   0.103   0.016
 8678SOL    HW126933   0.546   0.202   0.008
 8678SOL    HW226934   0.463   0.062   0.024
 8679SOL     OW26935   5.971   1.967   4.701
 8679SOL    HW126936   5.895   1.901   4.701
 8679SOL    HW226937   6.056   1.920   4.676
 8680SOL     OW26938   1.337   3.780   1.361
 8680SOL    HW126939   1.291   3.859   1.321
 8680SOL    HW226940   1.434   3.781   1.336
 8681SOL     OW26941   4.860   4.528   6.888
 8681SOL    HW126942   4.879   4.482   6.802
 8681SOL    HW226943   4.820   4.463   6.953
 8682SOL     OW26944   3.740   6.315   3.037
 8682SOL    HW126945   3.711   6.388   3.099
 8682SOL    HW226946   3.708   6.334   2.945
 8683SOL     OW26947   1.315   2.700   2.264
 8683SOL    HW126948   1.360   2.746   2.341
 8683SOL    HW226949   1.385   2.663   2.203
 8684SOL     OW26950   0.584   2.865   4.570
 8684SOL    HW126951   0.594   2.765   4.573
 8684SOL    HW226952   0.504   2.889   4.515
 8685SOL     OW26953   1.589   2.053   5.649
 8685SOL    HW126954   1.616   2.100   5.564
 8685SOL    HW226955   1.516   1.988   5.629
 8686SOL     OW26956   6.461   2.168   2.123
 8686SOL    HW126957   6.519   2.123   2.055
 8686SOL    HW226958   6.414   2.245   2.081
 8687SOL     OW26959   3.703   6.384   2.752
 8687SOL    HW126960   3.726   6.315   2.683
 8687SOL    HW226961   3.687   6.472   2.707
 8688SOL     OW26962   2.790   6.584   0.242
 8688SOL    HW126963   2.748   6.498   0.213
 8688SOL    HW226964   2.793   6.587   0.342
 8689SOL     OW26965   3.984   6.014   0.195
 8689SOL    HW126966   4.047   5.965   0.136
 8689SOL    HW226967   3.900   5.961   0.206
 8690SOL     OW26968   1.794   2.505   4.094
 8690SOL    HW126969   1.757   2.412   4.091
 8690SOL    HW226970   1.728   2.569   4.053
 8691SOL     OW26971   4.288   2.538   6.458
 8691SOL    HW126972   4.296   2.618   6.517
 8691SOL    HW226973   4.248   2.565   6.370
 8692SOL     OW26974   3.361   2.074   2.877
 8692SOL    HW126975   3.456   2.106   2.888
 8692SOL    HW226976   3.334   2.082   2.782
 8693SOL     OW26977   5.173   1.897   1.028
 8693SOL    HW126978   5.264   1.923   1.060
 8693SOL    HW226979   5.106   1.963   1.061
 8694SOL     OW26980   4.600   0.398   6.279
 8694SOL    HW126981   4.576   0.371   6.372
 8694SOL    HW226982   4.666   0.333   6.242
 8695SOL     OW26983   4.353   2.942   5.979
 8695SOL    HW126984   4.379   2.873   6.047
 8695SOL    HW226985   4.431   2.958   5.918
 8696SOL     OW26986   3.315   5.636   0.850
 8696SOL    HW126987   3.388   5.575   0.819
 8696SOL    HW226988   3.333   5.664   0.944
 8697SOL     OW26989   6.598   3.454   0.192
 8697SOL    HW126990   6.658   3.476   0.270
 8697SOL    HW226991   6.652   3.408   0.121
 8698SOL     OW26992   5.141   5.676   3.924
 8698SOL    HW126993   5.126   5.578   3.912
 8698SOL    HW226994   5.181   5.713   3.840
 8699SOL     OW26995   0.867   2.263   5.559
 8699SOL    HW126996   0.829   2.332   5.620
 8699SOL    HW226997   0.885   2.303   5.470
 8700SOL     OW26998   2.073   0.683   5.112
 8700SOL    HW126999   2.042   0.596   5.151
 8700SOL    HW227000   2.113   0.667   5.022
 8701SOL     OW27001   0.994   0.990   6.026
 8701SOL    HW127002   1.068   0.975   6.091
 8701SOL    HW227003   0.906   0.975   6.072
 8702SOL     OW27004   5.395   4.668   6.814
 8702SOL    HW127005   5.312   4.620   6.841
 8702SOL    HW227006   5.471   4.638   6.873
 8703SOL     OW27007   3.164   5.913   1.623
 8703SOL    HW127008   3.116   5.834   1.585
 8703SOL    HW227009   3.187   5.895   1.719
 8704SOL     OW27010   6.411   3.898   2.557
 8704SOL    HW127011   6.505   3.906   2.522
 8704SOL    HW227012   6.350   3.953   2.499
 8705SOL     OW27013   4.979   0.509   6.326
 8705SOL    HW127014   4.978   0.410   6.343
 8705SOL    HW227015   5.017   0.556   6.406
 8706SOL     OW27016   5.015   2.275   5.953
 8706SOL    HW127017   5.100   2.244   5.997
 8706SOL    HW227018   4.940   2.215   5.982
 8707SOL     OW27019   4.414   2.875   0.510
 8707SOL    HW127020   4.432   2.909   0.418
 8707SOL    HW227021   4.488   2.814   0.538
 8708SOL     OW27022   3.685   0.664   1.987
 8708SOL    HW127023   3.677   0.570   2.019
 8708SOL    HW227024   3.600   0.691   1.943
 8709SOL     OW27025   6.593   4.801   0.012
 8709SOL    HW127026   6.501   4.767   0.034
 8709SOL    HW227027   6.646   4.727   6.996
 8710SOL     OW27028   1.718   2.888   3.082
 8710SOL    HW127029   1.657   2.833   3.024
 8710SOL    HW227030   1.813   2.866   3.060
 8711SOL     OW27031   7.011   6.487   2.376
 8711SOL    HW127032   6.945   6.474   2.450
 8711SOL    HW227033   6.976   6.552   2.310
 8712SOL     OW27034   3.747   2.065   3.563
 8712SOL    HW127035   3.733   1.967   3.573
 8712SOL    HW227036   3.659   2.111   3.553
 8713SOL     OW27037   6.792   4.171   3.539
 8713SOL    HW127038   6.736   4.105   3.488
 8713SOL    HW227039   6.881   4.180   3.495
 8714SOL     OW27040   0.787   0.975   5.740
 8714SOL    HW127041   0.858   0.989   5.809
 8714SOL    HW227042   0.698   0.962   5.784
 8715SOL     OW27043   5.919   0.901   1.123
 8715SOL    HW127044   5.843   0.958   1.093
 8715SOL    HW227045   5.952   0.933   1.211
 8716SOL     OW27046   1.205   1.792   1.058
 8716SOL    HW127047   1.134   1.799   0.987
 8716SOL    HW227048   1.257   1.877   1.062
 8717SOL     OW27049   4.034   3.566   2.367
 8717SOL    HW127050   3.935   3.562   2.361
 8717SOL    HW227051   4.066   3.495   2.430
 8718SOL     OW27052   0.069   2.265   5.163
 8718SOL    HW127053   0.109   2.349   5.128
 8718SOL    HW227054   0.136   2.191   5.155
 8719SOL     OW27055   1.791   0.567   5.399
 8719SOL    HW127056   1.804   0.612   5.487
 8719SOL    HW227057   1.700   0.589   5.363
 8720SOL     OW27058   6.813   5.104   5.264
 8720SOL    HW127059   6.804   5.202   5.250
 8720SOL    HW227060   6.865   5.087   5.348
 8721SOL     OW27061   5.978   2.182   4.265
 8721SOL    HW127062   5.950   2.270   4.227
 8721SOL    HW227063   6.050   2.142   4.209
 8722SOL     OW27064   3.692   0.797   0.883
 8722SOL    HW127065   3.676   0.892   0.912
 8722SOL    HW227066   3.749   0.796   0.801
 8723SOL     OW27067   6.020   6.058   1.199
 8723SOL    HW127068   5.972   5.970   1.196
 8723SOL    HW227069   6.026   6.096   1.106
 8724SOL     OW27070   6.262   6.859   4.705
 8724SOL    HW127071   6.272   6.790   4.777
 8724SOL    HW227072   6.303   6.945   4.736
 8725SOL     OW27073   1.656   0.929   6.769
 8725SOL    HW127074   1.713   0.862   6.815
 8725SOL    HW227075   1.690   0.945   6.677
 8726SOL     OW27076   6.184   6.959   1.581
 8726SOL    HW127077   6.179   7.025   1.656
 8726SOL    HW227078   6.274   6.964   1.539
 8727SOL     OW27079   6.249   6.608   2.021
 8727SOL    HW127080   6.268   6.510   2.014
 8727SOL    HW227081   6.265   6.651   1.932
 8728SOL     OW27082   4.009   0.077   5.299
 8728SOL    HW127083   4.015   0.168   5.341
 8728SOL    HW227084   3.971   0.085   5.207
 8729SOL     OW27085   4.972   5.392   2.991
 8729SOL    HW127086   5.050   5.337   3.018
 8729SOL    HW227087   4.978   5.482   3.033
 8730SOL     OW27088   6.960   5.374   2.870
 8730SOL    HW127089   6.862   5.393   2.874
 8730SOL    HW227090   7.006   5.418   2.948
 8731SOL     OW27091   1.754   1.827   3.503
 8731SOL    HW127092   1.848   1.819   3.468
 8731SOL    HW227093   1.757   1.845   3.601
 8732SOL     OW27094   5.292   4.339   1.949
 8732SOL    HW127095   5.343   4.338   1.863
 8732SOL    HW227096   5.326   4.413   2.007
 8733SOL     OW27097   1.065   5.959   2.711
 8733SOL    HW127098   0.967   5.978   2.705
 8733SOL    HW227099   1.081   5.862   2.693
 8734SOL     OW27100   0.696   4.694   2.081
 8734SOL    HW127101   0.787   4.713   2.118
 8734SOL    HW227102   0.627   4.733   2.142
 8735SOL     OW27103   0.451   1.851   6.932
 8735SOL    HW127104   0.454   1.840   6.832
 8735SOL    HW227105   0.522   1.915   6.960
 8736SOL     OW27106   0.560   6.376   0.433
 8736SOL    HW127107   0.492   6.440   0.469
 8736SOL    HW227108   0.530   6.341   0.345
 8737SOL     OW27109   4.376   6.742   6.197
 8737SOL    HW127110   4.383   6.658   6.250
 8737SOL    HW227111   4.413   6.818   6.251
 8738SOL     OW27112   1.105   4.086   4.982
 8738SOL    HW127113   1.126   4.005   5.037
 8738SOL    HW227114   1.096   4.059   4.886
 8739SOL     OW27115   6.553   4.630   6.713
 8739SOL    HW127116   6.614   4.589   6.781
 8739SOL    HW227117   6.458   4.616   6.741
 8740SOL     OW27118   4.309   1.039   5.902
 8740SOL    HW127119   4.362   1.004   5.825
 8740SOL    HW227120   4.246   1.109   5.870
 8741SOL     OW27121   1.993   1.802   1.707
 8741SOL    HW127122   1.943   1.834   1.788
 8741SOL    HW227123   1.940   1.732   1.661
 8742SOL     OW27124   4.896   6.129   1.812
 8742SOL    HW127125   4.817   6.154   1.868
 8742SOL    HW227126   4.930   6.210   1.765
 8743SOL     OW27127   2.156   5.914   2.392
 8743SOL    HW127128   2.231   5.936   2.454
 8743SOL    HW227129   2.080   5.978   2.407
 8744SOL     OW27130   4.181   2.491   5.956
 8744SOL    HW127131   4.091   2.515   5.919
 8744SOL    HW227132   4.252   2.525   5.894
 8745SOL     OW27133   5.936   1.934   5.741
 8745SOL    HW127134   5.953   1.996   5.664
 8745SOL    HW227135   5.939   1.839   5.709
 8746SOL     OW27136   4.249   4.300   5.532
 8746SOL    HW127137   4.208   4.322   5.443
 8746SOL    HW227138   4.296   4.381   5.567
 8747SOL     OW27139   0.764   2.477   3.426
 8747SOL    HW127140   0.844   2.436   3.382
 8747SOL    HW227141   0.780   2.575   3.439
 8748SOL     OW27142   0.731   0.419   7.007
 8748SOL    HW127143   0.797   0.426   0.056
 8748SOL    HW227144   0.778   0.395   6.923
 8749SOL     OW27145   3.134   0.532   4.545
 8749SOL    HW127146   3.152   0.456   4.606
 8749SOL    HW227147   3.144   0.502   4.450
 8750SOL     OW27148   2.562   2.826   5.363
 8750SOL    HW127149   2.470   2.793   5.387
 8750SOL    HW227150   2.554   2.917   5.322
 8751SOL     OW27151   6.709   0.411   1.878
 8751SOL    HW127152   6.706   0.511   1.879
 8751SOL    HW227153   6.773   0.380   1.807
 8752SOL     OW27154   2.995   4.433   6.954
 8752SOL    HW127155   3.050   4.350   6.940
 8752SOL    HW227156   2.988   4.482   6.867
 8753SOL     OW27157   5.024   1.402   4.439
 8753SOL    HW127158   5.058   1.314   4.472
 8753SOL    HW227159   5.016   1.399   4.340
 8754SOL     OW27160   0.346   2.012   5.752
 8754SOL    HW127161   0.444   2.006   5.771
 8754SOL    HW227162   0.312   1.924   5.719
 8755SOL     OW27163   2.831   1.466   6.592
 8755SOL    HW127164   2.810   1.563   6.582
 8755SOL    HW227165   2.747   1.412   6.585
 8756SOL     OW27166   2.272   2.899   3.231
 8756SOL    HW127167   2.233   2.982   3.270
 8756SOL    HW227168   2.320   2.848   3.302
 8757SOL     OW27169   5.983   6.430   5.837
 8757SOL    HW127170   6.075   6.460   5.810
 8757SOL    HW227171   5.957   6.351   5.781
 8758SOL     OW27172   5.337   6.188   1.928
 8758SOL    HW127173   5.366   6.158   1.836
 8758SOL    HW227174   5.246   6.228   1.923
 8759SOL     OW27175   4.790   1.522   6.560
 8759SOL    HW127176   4.691   1.524   6.549
 8759SOL    HW227177   4.826   1.615   6.552
 8760SOL     OW27178   1.973   1.633   4.260
 8760SOL    HW127179   1.909   1.710   4.263
 8760SOL    HW227180   2.032   1.643   4.180
 8761SOL     OW27181   5.312   0.691   0.887
 8761SOL    HW127182   5.356   0.781   0.887
 8761SOL    HW227183   5.228   0.695   0.833
 8762SOL     OW27184   1.111   3.235   2.961
 8762SOL    HW127185   1.206   3.209   2.972
 8762SOL    HW227186   1.100   3.333   2.977
 8763SOL     OW27187   6.547   5.804   5.020
 8763SOL    HW127188   6.488   5.724   5.021
 8763SOL    HW227189   6.502   5.880   5.067
 8764SOL     OW27190   5.431   1.913   3.734
 8764SOL    HW127191   5.357   1.846   3.737
 8764SOL    HW227192   5.469   1.926   3.825
 8765SOL     OW27193   5.558   6.573   4.567
 8765SOL    HW127194   5.464   6.576   4.533
 8765SOL    HW227195   5.619   6.616   4.500
 8766SOL     OW27196   3.471   5.028   3.581
 8766SOL    HW127197   3.455   5.100   3.650
 8766SOL    HW227198   3.384   4.998   3.543
 8767SOL     OW27199   4.476   0.523   2.708
 8767SOL    HW127200   4.424   0.485   2.784
 8767SOL    HW227201   4.499   0.449   2.644
 8768SOL     OW27202   1.637   3.056   0.331
 8768SOL    HW127203   1.627   2.977   0.392
 8768SOL    HW227204   1.718   3.044   0.275
 8769SOL     OW27205   0.372   0.294   5.036
 8769SOL    HW127206   0.310   0.306   4.958
 8769SOL    HW227207   0.320   0.304   5.121
 8770SOL     OW27208   4.752   4.125   2.095
 8770SOL    HW127209   4.683   4.197   2.093
 8770SOL    HW227210   4.804   4.131   2.180
 8771SOL     OW27211   1.814   1.757   6.303
 8771SOL    HW127212   1.796   1.832   6.367
 8771SOL    HW227213   1.801   1.788   6.210
 8772SOL     OW27214   6.182   0.793   6.771
 8772SOL    HW127215   6.095   0.819   6.814
 8772SOL    HW227216   6.237   0.742   6.837
 8773SOL     OW27217   4.031   2.077   3.488
 8773SOL    HW127218   3.933   2.097   3.493
 8773SOL    HW227219   4.083   2.158   3.512
 8774SOL     OW27220   1.117   1.522   0.403
 8774SOL    HW127221   1.158   1.478   0.483
 8774SOL    HW227222   1.188   1.567   0.349
 8775SOL     OW27223   5.767   7.005   3.862
 8775SOL    HW127224   5.749   6.942   3.787
 8775SOL    HW227225   5.848   0.035   3.840
 8776SOL     OW27226   3.718   3.191   5.041
 8776SOL    HW127227   3.791   3.123   5.043
 8776SOL    HW227228   3.694   3.211   4.946
 8777SOL     OW27229   0.050   5.060   1.412
 8777SOL    HW127230   7.022   5.128   1.362
 8777SOL    HW227231   0.088   5.101   1.494
 8778SOL     OW27232   6.939   1.679   3.346
 8778SOL    HW127233   6.888   1.727   3.274
 8778SOL    HW227234   6.999   1.743   3.393
 8779SOL     OW27235   1.609   4.734   2.462
 8779SOL    HW127236   1.551   4.658   2.490
 8779SOL    HW227237   1.562   4.788   2.392
 8780SOL     OW27238   1.419   5.969   3.778
 8780SOL    HW127239   1.395   5.969   3.681
 8780SOL    HW227240   1.339   5.998   3.831
 8781SOL     OW27241   0.120   1.073   3.046
 8781SOL    HW127242   0.182   1.064   3.123
 8781SOL    HW227243   0.028   1.046   3.073
 8782SOL     OW27244   5.737   0.936   1.824
 8782SOL    HW127245   5.651   0.967   1.865
 8782SOL    HW227246   5.785   1.015   1.785
 8783SOL     OW27247   6.221   3.880   3.683
 8783SOL    HW127248   6.129   3.881   3.645
 8783SOL    HW227249   6.277   3.949   3.636
 8784SOL     OW27250   5.355   4.956   5.182
 8784SOL    HW127251   5.383   5.013   5.105
 8784SOL    HW227252   5.429   4.950   5.248
 8785SOL     OW27253   5.381   4.043   6.815
 8785SOL    HW127254   5.359   4.109   6.886
 8785SOL    HW227255   5.314   3.969   6.817
 8786SOL     OW27256   1.669   6.250   0.055
 8786SOL    HW127257   1.740   6.295   0.110
 8786SOL    HW227258   1.590   6.229   0.112
 8787SOL     OW27259   1.239   3.340   2.392
 8787SOL    HW127260   1.314   3.280   2.363
 8787SOL    HW227261   1.234   3.343   2.492
 8788SOL     OW27262   6.691   1.633   5.290
 8788SOL    HW127263   6.669   1.727   5.264
 8788SOL    HW227264   6.771   1.602   5.239
 8789SOL     OW27265   6.424   0.562   6.578
 8789SOL    HW127266   6.503   0.621   6.598
 8789SOL    HW227267   6.444   0.469   6.607
 8790SOL     OW27268   6.756   1.389   6.725
 8790SOL    HW127269   6.853   1.368   6.716
 8790SOL    HW227270   6.744   1.463   6.791
 8791SOL     OW27271   5.243   6.733   6.127
 8791SOL    HW127272   5.195   6.726   6.215
 8791SOL    HW227273   5.342   6.725   6.143
 8792SOL     OW27274   4.049   6.946   3.318
 8792SOL    HW127275   4.037   6.980   3.411
 8792SOL    HW227276   3.960   6.940   3.272
 8793SOL     OW27277   2.540   5.736   4.217
 8793SOL    HW127278   2.503   5.655   4.170
 8793SOL    HW227279   2.465   5.785   4.262
 8794SOL     OW27280   3.368   6.770   2.980
 8794SOL    HW127281   3.272   6.756   3.003
 8794SOL    HW227282   3.375   6.815   2.891
 8795SOL     OW27283   1.673   6.557   5.383
 8795SOL    HW127284   1.759   6.527   5.341
 8795SOL    HW227285   1.597   6.512   5.337
 8796SOL     OW27286   4.622   1.680   5.585
 8796SOL    HW127287   4.539   1.714   5.629
 8796SOL    HW227288   4.612   1.582   5.566
 8797SOL     OW27289   1.720   6.590   6.289
 8797SOL    HW127290   1.676   6.502   6.269
 8797SOL    HW227291   1.814   6.588   6.256
 8798SOL     OW27292   5.368   4.035   5.327
 8798SOL    HW127293   5.281   4.025   5.376
 8798SOL    HW227294   5.353   4.090   5.244
 8799SOL     OW27295   2.231   4.343   3.652
 8799SOL    HW127296   2.190   4.414   3.595
 8799SOL    HW227297   2.287   4.283   3.596
 8800SOL     OW27298   4.534   3.920   5.608
 8800SOL    HW127299   4.540   3.892   5.513
 8800SOL    HW227300   4.530   4.020   5.614
 8801SOL     OW27301   2.287   1.346   4.062
 8801SOL    HW127302   2.280   1.432   4.112
 8801SOL    HW227303   2.208   1.288   4.082
 8802SOL     OW27304   1.047   6.778   1.571
 8802SOL    HW127305   1.099   6.860   1.592
 8802SOL    HW227306   1.054   6.757   1.474
 8803SOL     OW27307   1.886   5.311   6.971
 8803SOL    HW127308   1.851   5.236   6.914
 8803SOL    HW227309   1.867   5.292   0.041
 8804SOL     OW27310   3.997   0.836   1.572
 8804SOL    HW127311   3.918   0.830   1.634
 8804SOL    HW227312   4.052   0.916   1.596
 8805SOL     OW27313   1.521   0.775   3.690
 8805SOL    HW127314   1.479   0.754   3.779
 8805SOL    HW227315   1.508   0.697   3.628
 8806SOL     OW27316   1.755   5.464   0.733
 8806SOL    HW127317   1.787   5.552   0.768
 8806SOL    HW227318   1.685   5.479   0.663
 8807SOL     OW27319   6.104   5.548   5.825
 8807SOL    HW127320   6.160   5.481   5.873
 8807SOL    HW227321   6.007   5.524   5.835
 8808SOL     OW27322   5.807   1.456   0.758
 8808SOL    HW127323   5.722   1.403   0.759
 8808SOL    HW227324   5.848   1.450   0.667
 8809SOL     OW27325   5.517   3.418   1.480
 8809SOL    HW127326   5.420   3.400   1.498
 8809SOL    HW227327   5.568   3.417   1.566
 8810SOL     OW27328   5.749   1.612   4.209
 8810SOL    HW127329   5.691   1.680   4.163
 8810SOL    HW227330   5.824   1.659   4.256
 8811SOL     OW27331   2.386   1.758   4.099
 8811SOL    HW127332   2.316   1.823   4.129
 8811SOL    HW227333   2.383   1.676   4.156
 8812SOL     OW27334   1.044   0.965   0.456
 8812SOL    HW127335   1.030   0.935   0.362
 8812SOL    HW227336   1.074   0.887   0.512
 8813SOL     OW27337   0.825   5.545   1.487
 8813SOL    HW127338   0.871   5.612   1.429
 8813SOL    HW227339   0.815   5.582   1.579
 8814SOL     OW27340   0.203   0.495   6.881
 8814SOL    HW127341   0.303   0.492   6.891
 8814SOL    HW227342   0.161   0.516   6.969
 8815SOL     OW27343   6.979   5.574   1.682
 8815SOL    HW127344   6.928   5.653   1.648
 8815SOL    HW227345   0.041   5.567   1.635
 8816SOL     OW27346   1.025   6.320   0.939
 8816SOL    HW127347   1.092   6.246   0.952
 8816SOL    HW227348   0.999   6.357   1.028
 8817SOL     OW27349   0.874   6.278   5.501
 8817SOL    HW127350   0.908   6.317   5.415
 8817SOL    HW227351   0.832   6.189   5.482
 8818SOL     OW27352   0.268   3.832   3.456
 8818SOL    HW127353   0.254   3.874   3.545
 8818SOL    HW227354   0.244   3.897   3.384
 8819SOL     OW27355   4.231   6.096   4.618
 8819SOL    HW127356   4.271   6.114   4.528
 8819SOL    HW227357   4.143   6.050   4.607
 8820SOL     OW27358   1.758   2.623   4.498
 8820SOL    HW127359   1.834   2.649   4.438
 8820SOL    HW227360   1.790   2.558   4.566
 8821SOL     OW27361   1.793   6.986   6.552
 8821SOL    HW127362   1.846   6.935   6.484
 8821SOL    HW227363   1.773   0.052   6.517
 8822SOL     OW27364   0.588   0.500   2.853
 8822SOL    HW127365   0.542   0.441   2.787
 8822SOL    HW227366   0.624   0.445   2.928
 8823SOL     OW27367   2.018   0.347   1.076
 8823SOL    HW127368   2.036   0.408   1.153
 8823SOL    HW227369   2.065   0.260   1.091
 8824SOL     OW27370   2.470   4.001   0.867
 8824SOL    HW127371   2.525   3.918   0.880
 8824SOL    HW227372   2.381   3.976   0.828
 8825SOL     OW27373   1.675   1.267   1.946
 8825SOL    HW127374   1.760   1.287   1.898
 8825SOL    HW227375   1.695   1.217   2.030
 8826SOL     OW27376   6.182   1.911   0.253
 8826SOL    HW127377   6.090   1.945   0.272
 8826SOL    HW227378   6.248   1.986   0.258
 8827SOL     OW27379   2.689   1.096   3.447
 8827SOL    HW127380   2.603   1.118   3.493
 8827SOL    HW227381   2.669   1.060   3.356
 8828SOL     OW27382   3.414   5.720   3.638
 8828SOL    HW127383   3.491   5.672   3.598
 8828SOL    HW227384   3.332   5.662   3.635
 8829SOL     OW27385   0.441   3.333   7.002
 8829SOL    HW127386   0.366   3.271   6.978
 8829SOL    HW227387   0.516   3.281   0.017
 8830SOL     OW27388   6.771   1.220   0.095
 8830SOL    HW127389   6.777   1.183   0.002
 8830SOL    HW227390   6.735   1.313   0.091
 8831SOL     OW27391   5.802   1.068   3.473
 8831SOL    HW127392   5.833   0.982   3.514
 8831SOL    HW227393   5.741   1.115   3.537
 8832SOL     OW27394   0.322   6.929   1.858
 8832SOL    HW127395   0.243   6.980   1.824
 8832SOL    HW227396   0.296   6.833   1.872
 8833SOL     OW27397   1.668   5.713   4.876
 8833SOL    HW127398   1.741   5.724   4.942
 8833SOL    HW227399   1.650   5.616   4.860
 8834SOL     OW27400   5.774   3.356   4.668
 8834SOL    HW127401   5.866   3.349   4.628
 8834SOL    HW227402   5.744   3.451   4.666
 8835SOL     OW27403   6.724   0.217   5.629
 8835SOL    HW127404   6.661   0.215   5.707
 8835SOL    HW227405   6.747   0.311   5.607
 8836SOL     OW27406   4.231   0.684   0.730
 8836SOL    HW127407   4.157   0.617   0.725
 8836SOL    HW227408   4.196   0.775   0.706
 8837SOL     OW27409   1.037   0.475   1.806
 8837SOL    HW127410   1.086   0.413   1.867
 8837SOL    HW227411   1.062   0.570   1.826
 8838SOL     OW27412   2.643   5.203   3.571
 8838SOL    HW127413   2.670   5.146   3.493
 8838SOL    HW227414   2.598   5.146   3.640
 8839SOL     OW27415   6.204   5.986   3.009
 8839SOL    HW127416   6.164   6.056   3.069
 8839SOL    HW227417   6.287   5.949   3.051
 8840SOL     OW27418   5.798   1.991   2.092
 8840SOL    HW127419   5.831   2.062   2.030
 8840SOL    HW227420   5.875   1.939   2.127
 8841SOL     OW27421   1.454   1.194   4.942
 8841SOL    HW127422   1.494   1.187   4.851
 8841SOL    HW227423   1.450   1.103   4.984
 8842SOL     OW27424   3.120   3.354   1.232
 8842SOL    HW127425   3.181   3.321   1.304
 8842SOL    HW227426   3.043   3.290   1.221
 8843SOL     OW27427   1.111   2.829   5.325
 8843SOL    HW127428   1.072   2.870   5.407
 8843SOL    HW227429   1.080   2.879   5.244
 8844SOL     OW27430   5.877   1.207   6.111
 8844SOL    HW127431   5.939   1.224   6.187
 8844SOL    HW227432   5.805   1.143   6.139
 8845SOL     OW27433   3.918   4.309   6.741
 8845SOL    HW127434   3.910   4.209   6.740
 8845SOL    HW227435   3.858   4.348   6.671
 8846SOL     OW27436   2.170   5.289   3.672
 8846SOL    HW127437   2.249   5.339   3.635
 8846SOL    HW227438   2.152   5.319   3.766
 8847SOL     OW27439   2.587   0.484   2.817
 8847SOL    HW127440   2.598   0.420   2.893
 8847SOL    HW227441   2.563   0.434   2.734
 8848SOL     OW27442   2.193   1.163   1.357
 8848SOL    HW127443   2.126   1.229   1.321
 8848SOL    HW227444   2.279   1.171   1.307
 8849SOL     OW27445   1.678   5.938   2.258
 8849SOL    HW127446   1.689   5.899   2.167
 8849SOL    HW227447   1.601   6.002   2.258
 8850SOL     OW27448   2.744   1.983   6.800
 8850SOL    HW127449   2.806   1.952   6.729
 8850SOL    HW227450   2.657   2.011   6.759
 8851SOL     OW27451   1.504   4.978   2.614
 8851SOL    HW127452   1.541   5.071   2.621
 8851SOL    HW227453   1.566   4.923   2.558
 8852SOL     OW27454   1.227   1.965   5.193
 8852SOL    HW127455   1.173   1.881   5.197
 8852SOL    HW227456   1.197   2.028   5.264
 8853SOL     OW27457   2.897   0.431   1.351
 8853SOL    HW127458   2.869   0.358   1.289
 8853SOL    HW227459   2.852   0.516   1.325
 8854SOL     OW27460   1.724   2.430   5.261
 8854SOL    HW127461   1.799   2.496   5.266
 8854SOL    HW227462   1.707   2.407   5.166
 8855SOL     OW27463   6.354   5.419   1.439
 8855SOL    HW127464   6.280   5.452   1.379
 8855SOL    HW227465   6.348   5.320   1.447
 8856SOL     OW27466   6.615   5.743   5.771
 8856SOL    HW127467   6.585   5.807   5.842
 8856SOL    HW227468   6.713   5.750   5.758
 8857SOL     OW27469   6.395   1.431   5.604
 8857SOL    HW127470   6.351   1.401   5.519
 8857SOL    HW227471   6.326   1.442   5.675
 8858SOL     OW27472   0.196   4.895   5.593
 8858SOL    HW127473   0.237   4.984   5.607
 8858SOL    HW227474   0.264   4.832   5.553
 8859SOL     OW27475   0.840   0.718   3.615
 8859SOL    HW127476   0.836   0.785   3.689
 8859SOL    HW227477   0.893   0.638   3.645
 8860SOL     OW27478   0.004   2.447   1.505
 8860SOL    HW127479   7.021   2.473   1.601
 8860SOL    HW227480   0.024   2.529   1.450
 8861SOL     OW27481   4.267   1.324   1.115
 8861SOL    HW127482   4.313   1.336   1.203
 8861SOL    HW227483   4.169   1.344   1.126
 8862SOL     OW27484   4.665   5.857   4.921
 8862SOL    HW127485   4.707   5.778   4.964
 8862SOL    HW227486   4.700   5.867   4.828
 8863SOL     OW27487   2.368   4.709   3.728
 8863SOL    HW127488   2.328   4.785   3.675
 8863SOL    HW227489   2.426   4.654   3.668
 8864SOL     OW27490   5.724   2.839   6.323
 8864SOL    HW127491   5.747   2.803   6.413
 8864SOL    HW227492   5.671   2.923   6.332
 8865SOL     OW27493   3.186   1.808   6.247
 8865SOL    HW127494   3.273   1.791   6.294
 8865SOL    HW227495   3.110   1.776   6.305
 8866SOL     OW27496   5.695   6.282   2.599
 8866SOL    HW127497   5.660   6.226   2.675
 8866SOL    HW227498   5.626   6.350   2.573
 8867SOL     OW27499   6.237   3.676   2.525
 8867SOL    HW127500   6.177   3.674   2.605
 8867SOL    HW227501   6.309   3.744   2.539
 8868SOL     OW27502   0.022   3.526   2.779
 8868SOL    HW127503   6.979   3.465   2.818
 8868SOL    HW227504   0.039   3.602   2.842
 8869SOL     OW27505   3.754   5.589   4.593
 8869SOL    HW127506   3.703   5.530   4.657
 8869SOL    HW227507   3.718   5.577   4.501
 8870SOL     OW27508   1.511   6.746   1.821
 8870SOL    HW127509   1.593   6.693   1.799
 8870SOL    HW227510   1.538   6.835   1.859
 8871SOL     OW27511   1.771   0.338   2.988
 8871SOL    HW127512   1.683   0.344   3.035
 8871SOL    HW227513   1.843   0.322   3.055
 8872SOL     OW27514   0.660   4.301   6.056
 8872SOL    HW127515   0.739   4.313   5.995
 8872SOL    HW227516   0.690   4.315   6.151
 8873SOL     OW27517   1.805   0.454   2.137
 8873SOL    HW127518   1.765   0.396   2.066
 8873SOL    HW227519   1.733   0.502   2.186
 8874SOL     OW27520   1.856   5.218   0.652
 8874SOL    HW127521   1.809   5.298   0.688
 8874SOL    HW227522   1.918   5.246   0.579
 8875SOL     OW27523   0.210   2.812   3.566
 8875SOL    HW127524   0.133   2.761   3.528
 8875SOL    HW227525   0.296   2.774   3.531
 8876SOL     OW27526   3.141   0.413   5.939
 8876SOL    HW127527   3.231   0.442   5.972
 8876SOL    HW227528   3.121   0.322   5.975
 8877SOL     OW27529   0.948   3.650   1.513
 8877SOL    HW127530   1.041   3.685   1.525
 8877SOL    HW227531   0.938   3.612   1.421
 8878SOL     OW27532   4.153   4.603   0.658
 8878SOL    HW127533   4.189   4.512   0.678
 8878SOL    HW227534   4.054   4.598   0.645
 8879SOL     OW27535   6.465   4.756   2.968
 8879SOL    HW127536   6.515   4.688   3.022
 8879SOL    HW227537   6.372   4.724   2.953
 8880SOL     OW27538   4.486   6.516   3.697
 8880SOL    HW127539   4.547   6.554   3.628
 8880SOL    HW227540   4.450   6.428   3.665
 8881SOL     OW27541   4.072   5.575   3.781
 8881SOL    HW127542   4.086   5.543   3.687
 8881SOL    HW227543   4.161   5.589   3.824
 8882SOL     OW27544   4.168   0.932   0.551
 8882SOL    HW127545   4.221   0.899   0.473
 8882SOL    HW227546   4.182   1.030   0.562
 8883SOL     OW27547   0.105   6.663   6.173
 8883SOL    HW127548   0.157   6.599   6.229
 8883SOL    HW227549   0.008   6.658   6.196
 8884SOL     OW27550   5.809   3.828   4.248
 8884SOL    HW127551   5.721   3.780   4.249
 8884SOL    HW227552   5.793   3.927   4.253
 8885SOL     OW27553   5.566   5.423   0.257
 8885SOL    HW127554   5.601   5.332   0.277
 8885SOL    HW227555   5.642   5.484   0.235
 8886SOL     OW27556   3.368   5.250   6.918
 8886SOL    HW127557   3.327   5.208   6.999
 8886SOL    HW227558   3.379   5.181   6.847
 8887SOL     OW27559   4.499   0.597   0.699
 8887SOL    HW127560   4.402   0.620   0.694
 8887SOL    HW227561   4.551   0.676   0.732
 8888SOL     OW27562   2.146   1.674   3.671
 8888SOL    HW127563   2.100   1.593   3.637
 8888SOL    HW227564   2.202   1.650   3.750
 8889SOL     OW27565   6.505   6.574   6.077
 8889SOL    HW127566   6.527   6.555   6.173
 8889SOL    HW227567   6.589   6.579   6.024
 8890SOL     OW27568   6.955   6.767   0.156
 8890SOL    HW127569   6.946   6.859   0.119
 8890SOL    HW227570   6.896   6.757   0.236
 8891SOL     OW27571   5.682   4.623   6.381
 8891SOL    HW127572   5.716   4.558   6.449
 8891SOL    HW227573   5.756   4.647   6.318
 8892SOL     OW27574   3.278   4.927   3.883
 8892SOL    HW127575   3.280   4.841   3.831
 8892SOL    HW227576   3.307   5.002   3.824
 8893SOL     OW27577   1.227   5.264   4.706
 8893SOL    HW127578   1.312   5.272   4.654
 8893SOL    HW227579   1.149   5.283   4.646
 8894SOL     OW27580   4.535   2.641   0.552
 8894SOL    HW127581   4.463   2.576   0.576
 8894SOL    HW227582   4.602   2.596   0.492
 8895SOL     OW27583   0.964   3.577   0.752
 8895SOL    HW127584   1.005   3.660   0.791
 8895SOL    HW227585   0.938   3.515   0.826
 8896SOL     OW27586   0.588   2.383   4.027
 8896SOL    HW127587   0.627   2.294   4.005
 8896SOL    HW227588   0.542   2.379   4.116
 8897SOL     OW27589   1.506   3.697   3.832
 8897SOL    HW127590   1.498   3.673   3.735
 8897SOL    HW227591   1.535   3.792   3.841
 8898SOL     OW27592   4.889   3.445   2.818
 8898SOL    HW127593   4.849   3.391   2.892
 8898SOL    HW227594   4.900   3.387   2.737
 8899SOL     OW27595   0.167   4.414   6.356
 8899SOL    HW127596   0.147   4.358   6.436
 8899SOL    HW227597   0.156   4.359   6.273
 8900SOL     OW27598   5.902   1.978   3.354
 8900SOL    HW127599   5.988   2.030   3.364
 8900SOL    HW227600   5.866   1.957   3.444
 8901SOL     OW27601   0.623   2.256   3.506
 8901SOL    HW127602   0.702   2.196   3.512
 8901SOL    HW227603   0.654   2.351   3.499
 8902SOL     OW27604   1.713   4.464   0.144
 8902SOL    HW127605   1.686   4.524   0.219
 8902SOL    HW227606   1.774   4.393   0.178
 8903SOL     OW27607   1.911   1.364   4.287
 8903SOL    HW127608   1.834   1.364   4.223
 8903SOL    HW227609   1.949   1.457   4.291
 8904SOL     OW27610   0.393   1.313   2.448
 8904SOL    HW127611   0.387   1.398   2.394
 8904SOL    HW227612   0.391   1.235   2.387
 8905SOL     OW27613   1.668   3.336   2.121
 8905SOL    HW127614   1.739   3.281   2.164
 8905SOL    HW227615   1.657   3.422   2.171
 8906SOL     OW27616   0.377   0.086   0.737
 8906SOL    HW127617   0.410   0.178   0.715
 8906SOL    HW227618   0.433   0.047   0.810
 8907SOL     OW27619   3.336   2.483   5.378
 8907SOL    HW127620   3.286   2.436   5.305
 8907SOL    HW227621   3.307   2.578   5.383
 8908SOL     OW27622   1.537   5.465   0.575
 8908SOL    HW127623   1.476   5.401   0.528
 8908SOL    HW227624   1.559   5.541   0.514
 8909SOL     OW27625   2.583   1.363   6.604
 8909SOL    HW127626   2.555   1.426   6.677
 8909SOL    HW227627   2.503   1.336   6.551
 8910SOL     OW27628   0.983   2.722   4.880
 8910SOL    HW127629   1.006   2.819   4.874
 8910SOL    HW227630   0.991   2.692   4.975
 8911SOL     OW27631   5.061   1.902   4.179
 8911SOL    HW127632   5.143   1.901   4.236
 8911SOL    HW227633   5.033   1.996   4.162
 8912SOL     OW27634   3.950   3.829   5.343
 8912SOL    HW127635   4.006   3.771   5.284
 8912SOL    HW227636   4.006   3.863   5.419
 8913SOL     OW27637   5.282   5.150   0.390
 8913SOL    HW127638   5.289   5.173   0.293
 8913SOL    HW227639   5.298   5.232   0.446
 8914SOL     OW27640   5.281   6.528   4.894
 8914SOL    HW127641   5.268   6.432   4.868
 8914SOL    HW227642   5.207   6.582   4.855
 8915SOL     OW27643   0.834   1.352   3.871
 8915SOL    HW127644   0.849   1.396   3.960
 8915SOL    HW227645   0.742   1.314   3.867
 8916SOL     OW27646   5.834   1.382   6.353
 8916SOL    HW127647   5.920   1.348   6.392
 8916SOL    HW227648   5.836   1.482   6.351
 8917SOL     OW27649   6.246   1.754   0.580
 8917SOL    HW127650   6.303   1.767   0.499
 8917SOL    HW227651   6.182   1.831   0.589
 8918SOL     OW27652   1.659   5.332   1.379
 8918SOL    HW127653   1.656   5.252   1.319
 8918SOL    HW227654   1.743   5.330   1.433
 8919SOL     OW27655   5.376   4.384   6.443
 8919SOL    HW127656   5.471   4.385   6.474
 8919SOL    HW227657   5.329   4.465   6.479
 8920SOL     OW27658   0.002   1.024   6.331
 8920SOL    HW127659   0.086   0.995   6.377
 8920SOL    HW227660   6.974   1.082   6.392
 8921SOL     OW27661   1.192   3.285   1.009
 8921SOL    HW127662   1.273   3.331   1.045
 8921SOL    HW227663   1.210   3.253   0.916
 8922SOL     OW27664   3.693   6.468   3.266
 8922SOL    HW127665   3.725   6.459   3.361
 8922SOL    HW227666   3.595   6.485   3.266
 8923SOL     OW27667   1.522   1.898   5.348
 8923SOL    HW127668   1.474   1.812   5.329
 8923SOL    HW227669   1.617   1.891   5.316
 8924SOL     OW27670   5.340   5.394   4.456
 8924SOL    HW127671   5.297   5.393   4.366
 8924SOL    HW227672   5.421   5.452   4.454
 8925SOL     OW27673   1.160   0.909   2.607
 8925SOL    HW127674   1.082   0.898   2.545
 8925SOL    HW227675   1.178   1.006   2.621
 8926SOL     OW27676   6.105   3.265   6.003
 8926SOL    HW127677   6.007   3.279   6.017
 8926SOL    HW227678   6.154   3.350   6.025
 8927SOL     OW27679   6.557   2.320   5.568
 8927SOL    HW127680   6.466   2.308   5.529
 8927SOL    HW227681   6.625   2.320   5.494
 8928SOL     OW27682   2.755   0.128   5.587
 8928SOL    HW127683   2.670   0.089   5.623
 8928SOL    HW227684   2.776   0.087   5.499
 8929SOL     OW27685   6.324   2.716   5.011
 8929SOL    HW127686   6.312   2.815   5.001
 8929SOL    HW227687   6.235   2.673   5.026
 8930SOL     OW27688   1.169   3.766   3.214
 8930SOL    HW127689   1.227   3.781   3.134
 8930SOL    HW227690   1.179   3.671   3.245
 8931SOL     OW27691   3.508   3.090   1.799
 8931SOL    HW127692   3.539   3.038   1.878
 8931SOL    HW227693   3.418   3.131   1.819
 8932SOL     OW27694   0.550   1.983   3.085
 8932SOL    HW127695   0.496   1.925   3.145
 8932SOL    HW227696   0.535   2.079   3.109
 8933SOL     OW27697   3.668   2.568   6.535
 8933SOL    HW127698   3.603   2.586   6.609
 8933SOL    HW227699   3.622   2.581   6.447
 8934SOL     OW27700   3.577   5.826   3.865
 8934SOL    HW127701   3.512   5.800   3.794
 8934SOL    HW227702   3.539   5.901   3.919
 8935SOL     OW27703   6.845   5.503   0.681
 8935SOL    HW127704   6.877   5.525   0.773
 8935SOL    HW227705   6.806   5.585   0.638
 8936SOL     OW27706   1.906   3.283   0.599
 8936SOL    HW127707   1.848   3.304   0.520
 8936SOL    HW227708   1.901   3.358   0.665
 8937SOL     OW27709   0.460   6.764   5.169
 8937SOL    HW127710   0.461   6.798   5.075
 8937SOL    HW227711   0.429   6.669   5.170
 8938SOL     OW27712   6.875   5.249   1.384
 8938SOL    HW127713   6.815   5.170   1.372
 8938SOL    HW227714   6.858   5.290   1.473
 8939SOL     OW27715   5.220   2.033   4.750
 8939SOL    HW127716   5.148   1.964   4.750
 8939SOL    HW227717   5.310   1.989   4.755
 8940SOL     OW27718   6.960   0.466   3.989
 8940SOL    HW127719   6.874   0.441   3.943
 8940SOL    HW227720   6.957   0.562   4.016
 8941SOL     OW27721   5.706   2.124   5.784
 8941SOL    HW127722   5.709   2.131   5.884
 8941SOL    HW227723   5.795   2.096   5.750
 8942SOL     OW27724   0.067   3.024   5.191
 8942SOL    HW127725   0.040   3.115   5.223
 8942SOL    HW227726   0.096   2.969   5.269
 8943SOL     OW27727   5.215   3.954   0.277
 8943SOL    HW127728   5.213   3.919   0.371
 8943SOL    HW227729   5.129   3.999   0.256
 8944SOL     OW27730   5.262   5.623   6.030
 8944SOL    HW127731   5.235   5.614   5.934
 8944SOL    HW227732   5.235   5.712   6.064
 8945SOL     OW27733   2.165   0.345   4.788
 8945SOL    HW127734   2.231   0.342   4.713
 8945SOL    HW227735   2.075   0.367   4.752
 8946SOL     OW27736   3.346   2.111   5.100
 8946SOL    HW127737   3.280   2.185   5.111
 8946SOL    HW227738   3.438   2.144   5.123
 8947SOL     OW27739   2.000   3.694   5.892
 8947SOL    HW127740   1.973   3.633   5.818
 8947SOL    HW227741   2.010   3.640   5.976
 8948SOL     OW27742   5.413   5.204   3.792
 8948SOL    HW127743   5.512   5.191   3.794
 8948SOL    HW227744   5.374   5.153   3.716
 8949SOL     OW27745   1.694   6.962   0.076
 8949SOL    HW127746   1.767   6.991   0.138
 8949SOL    HW227747   1.632   0.013   0.058
 8950SOL     OW27748   4.587   2.926   5.578
 8950SOL    HW127749   4.565   3.005   5.521
 8950SOL    HW227750   4.686   2.917   5.586
 8951SOL     OW27751   1.447   2.431   5.493
 8951SOL    HW127752   1.460   2.356   5.428
 8951SOL    HW227753   1.406   2.396   5.577
 8952SOL     OW27754   1.112   1.302   2.407
 8952SOL    HW127755   1.071   1.393   2.408
 8952SOL    HW227756   1.187   1.300   2.341
 8953SOL     OW27757   1.353   3.549   0.111
 8953SOL    HW127758   1.303   3.552   0.024
 8953SOL    HW227759   1.398   3.637   0.126
 8954SOL     OW27760   0.161   5.901   5.424
 8954SOL    HW127761   0.156   5.913   5.325
 8954SOL    HW227762   0.257   5.895   5.453
 8955SOL     OW27763   6.626   4.210   3.079
 8955SOL    HW127764   6.547   4.192   3.138
 8955SOL    HW227765   6.708   4.171   3.122
 8956SOL     OW27766   0.350   0.834   6.444
 8956SOL    HW127767   0.256   0.817   6.472
 8956SOL    HW227768   0.406   0.851   6.526
 8957SOL     OW27769   2.874   4.622   1.632
 8957SOL    HW127770   2.884   4.567   1.715
 8957SOL    HW227771   2.957   4.675   1.616
 8958SOL     OW27772   0.514   6.949   4.179
 8958SOL    HW127773   0.446   7.001   4.127
 8958SOL    HW227774   0.586   6.917   4.117
 8959SOL     OW27775   1.184   4.856   0.795
 8959SOL    HW127776   1.214   4.859   0.890
 8959SOL    HW227777   1.142   4.943   0.770
 8960SOL     OW27778   4.204   5.407   2.799
 8960SOL    HW127779   4.236   5.485   2.853
 8960SOL    HW227780   4.281   5.367   2.749
 8961SOL     OW27781   1.634   1.791   4.560
 8961SOL    HW127782   1.553   1.737   4.537
 8961SOL    HW227783   1.688   1.742   4.629
 8962SOL     OW27784   5.820   6.822   2.654
 8962SOL    HW127785   5.853   6.913   2.678
 8962SOL    HW227786   5.773   6.826   2.565
 8963SOL     OW27787   4.890   6.354   4.227
 8963SOL    HW127788   4.810   6.413   4.235
 8963SOL    HW227789   4.931   6.340   4.317
 8964SOL     OW27790   5.470   5.005   2.081
 8964SOL    HW127791   5.492   4.964   2.170
 8964SOL    HW227792   5.438   5.098   2.094
 8965SOL     OW27793   1.680   5.050   1.264
 8965SOL    HW127794   1.691   5.001   1.178
 8965SOL    HW227795   1.767   5.053   1.312
 8966SOL     OW27796   1.563   2.777   6.078
 8966SOL    HW127797   1.507   2.696   6.092
 8966SOL    HW227798   1.546   2.843   6.151
 8967SOL     OW27799   3.424   6.675   1.551
 8967SOL    HW127800   3.456   6.767   1.574
 8967SOL    HW227801   3.333   6.682   1.508
 8968SOL     OW27802   4.950   5.700   2.441
 8968SOL    HW127803   4.886   5.759   2.490
 8968SOL    HW227804   4.921   5.605   2.451
 8969SOL     OW27805   6.180   0.879   3.596
 8969SOL    HW127806   6.189   0.779   3.593
 8969SOL    HW227807   6.228   0.919   3.518
 8970SOL     OW27808   3.326   2.695   1.289
 8970SOL    HW127809   3.319   2.629   1.364
 8970SOL    HW227810   3.260   2.768   1.302
 8971SOL     OW27811   3.291   6.399   2.439
 8971SOL    HW127812   3.305   6.328   2.507
 8971SOL    HW227813   3.328   6.486   2.473
 8972SOL     OW27814   4.854   6.037   0.325
 8972SOL    HW127815   4.859   6.016   0.227
 8972SOL    HW227816   4.775   5.992   0.366
 8973SOL     OW27817   1.087   4.071   1.543
 8973SOL    HW127818   1.123   4.032   1.628
 8973SOL    HW227819   1.162   4.092   1.481
 8974SOL     OW27820   0.986   4.327   6.402
 8974SOL    HW127821   1.006   4.382   6.483
 8974SOL    HW227822   0.976   4.231   6.428
 8975SOL     OW27823   2.717   0.592   0.000
 8975SOL    HW127824   2.676   0.615   6.937
 8975SOL    HW227825   2.665   0.638   0.073
 8976SOL     OW27826   1.190   5.485   5.104
 8976SOL    HW127827   1.139   5.401   5.121
 8976SOL    HW227828   1.234   5.480   5.014
 8977SOL     OW27829   6.484   1.292   6.376
 8977SOL    HW127830   6.524   1.215   6.327
 8977SOL    HW227831   6.422   1.259   6.447
 8978SOL     OW27832   5.880   6.237   6.885
 8978SOL    HW127833   5.833   6.153   6.912
 8978SOL    HW227834   5.953   6.257   6.950
 8979SOL     OW27835   1.663   3.757   4.902
 8979SOL    HW127836   1.615   3.692   4.844
 8979SOL    HW227837   1.750   3.783   4.859
 8980SOL     OW27838   2.829   3.603   5.475
 8980SOL    HW127839   2.886   3.524   5.451
 8980SOL    HW227840   2.888   3.682   5.494
 8981SOL     OW27841   4.108   1.622   4.824
 8981SOL    HW127842   4.023   1.570   4.822
 8981SOL    HW227843   4.138   1.635   4.919
 8982SOL     OW27844   1.979   3.560   0.432
 8982SOL    HW127845   1.975   3.645   0.380
 8982SOL    HW227846   1.995   3.483   0.369
 8983SOL     OW27847   3.158   6.425   6.849
 8983SOL    HW127848   3.068   6.384   6.837
 8983SOL    HW227849   3.168   6.504   6.788
 8984SOL     OW27850   1.873   6.508   2.754
 8984SOL    HW127851   1.837   6.540   2.841
 8984SOL    HW227852   1.851   6.573   2.682
 8985SOL     OW27853   3.361   2.426   0.646
 8985SOL    HW127854   3.458   2.447   0.649
 8985SOL    HW227855   3.336   2.368   0.724
 8986SOL     OW27856   3.430   4.992   2.825
 8986SOL    HW127857   3.379   5.001   2.911
 8986SOL    HW227858   3.519   4.949   2.844
 8987SOL     OW27859   4.321   6.634   3.296
 8987SOL    HW127860   4.364   6.596   3.215
 8987SOL    HW227861   4.371   6.715   3.327
 8988SOL     OW27862   0.392   6.002   3.732
 8988SOL    HW127863   0.485   6.033   3.750
 8988SOL    HW227864   0.332   6.081   3.721
 8989SOL     OW27865   4.249   3.347   6.757
 8989SOL    HW127866   4.333   3.338   6.703
 8989SOL    HW227867   4.202   3.432   6.732
 8990SOL     OW27868   0.220   4.561   4.023
 8990SOL    HW127869   0.245   4.538   3.930
 8990SOL    HW227870   0.120   4.564   4.032
 8991SOL     OW27871   1.614   3.268   4.833
 8991SOL    HW127872   1.588   3.264   4.737
 8991SOL    HW227873   1.700   3.218   4.847
 8992SOL     OW27874   4.888   1.359   0.868
 8992SOL    HW127875   4.968   1.359   0.929
 8992SOL    HW227876   4.873   1.452   0.833
 8993SOL     OW27877   3.837   3.253   6.951
 8993SOL    HW127878   3.781   3.265   0.007
 8993SOL    HW227879   3.780   3.219   6.876
 8994SOL     OW27880   1.491   4.676   4.668
 8994SOL    HW127881   1.565   4.712   4.611
 8994SOL    HW227882   1.499   4.577   4.675
 8995SOL     OW27883   6.437   1.610   0.714
 8995SOL    HW127884   6.524   1.621   0.666
 8995SOL    HW227885   6.362   1.634   0.652
 8996SOL     OW27886   5.330   3.986   5.978
 8996SOL    HW127887   5.337   3.906   5.919
 8996SOL    HW227888   5.317   4.068   5.921
 8997SOL     OW27889   4.737   0.869   6.332
 8997SOL    HW127890   4.704   0.838   6.422
 8997SOL    HW227891   4.773   0.791   6.281
 8998SOL     OW27892   6.152   3.281   4.257
 8998SOL    HW127893   6.204   3.366   4.256
 8998SOL    HW227894   6.208   3.208   4.294
 8999SOL     OW27895   4.939   6.393   6.477
 8999SOL    HW127896   4.876   6.407   6.553
 8999SOL    HW227897   5.005   6.321   6.500
 9000SOL     OW27898   1.536   3.174   1.949
 9000SOL    HW127899   1.441   3.183   1.919
 9000SOL    HW227900   1.558   3.248   2.013
 9001SOL     OW27901   0.354   5.584   1.773
 9001SOL    HW127902   0.295   5.614   1.848
 9001SOL    HW227903   0.305   5.593   1.687
 9002SOL     OW27904   1.553   4.479   5.383
 9002SOL    HW127905   1.631   4.535   5.411
 9002SOL    HW227906   1.582   4.417   5.309
 9003SOL     OW27907   5.071   3.571   1.122
 9003SOL    HW127908   5.085   3.646   1.186
 9003SOL    HW227909   5.091   3.484   1.168
 9004SOL     OW27910   4.367   4.995   1.033
 9004SOL    HW127911   4.325   5.002   1.124
 9004SOL    HW227912   4.402   4.902   1.021
 9005SOL     OW27913   5.957   1.687   5.641
 9005SOL    HW127914   5.873   1.639   5.617
 9005SOL    HW227915   6.018   1.626   5.691
 9006SOL     OW27916   2.590   6.459   1.056
 9006SOL    HW127917   2.637   6.377   1.090
 9006SOL    HW227918   2.569   6.520   1.133
 9007SOL     OW27919   2.395   1.659   2.249
 9007SOL    HW127920   2.464   1.632   2.182
 9007SOL    HW227921   2.440   1.697   2.329
 9008SOL     OW27922   7.023   5.104   3.019
 9008SOL    HW127923   6.925   5.116   3.034
 9008SOL    HW227924   0.017   5.107   2.921
 9009SOL     OW27925   2.981   5.270   1.290
 9009SOL    HW127926   2.983   5.231   1.382
 9009SOL    HW227927   2.886   5.277   1.259
 9010SOL     OW27928   2.340   6.064   4.334
 9010SOL    HW127929   2.296   6.092   4.249
 9010SOL    HW227930   2.362   6.145   4.389
 9011SOL     OW27931   4.269   0.700   1.479
 9011SOL    HW127932   4.251   0.604   1.460
 9011SOL    HW227933   4.194   0.739   1.533
 9012SOL     OW27934   2.460   5.499   0.309
 9012SOL    HW127935   2.458   5.590   0.352
 9012SOL    HW227936   2.512   5.505   0.223
 9013SOL     OW27937   0.646   0.575   5.352
 9013SOL    HW127938   0.708   0.642   5.394
 9013SOL    HW227939   0.564   0.566   5.408
 9014SOL     OW27940   6.461   2.695   1.002
 9014SOL    HW127941   6.506   2.775   0.961
 9014SOL    HW227942   6.370   2.722   1.035
 9015SOL     OW27943   4.805   2.015   1.629
 9015SOL    HW127944   4.807   2.066   1.542
 9015SOL    HW227945   4.888   2.036   1.681
 9016SOL     OW27946   5.508   5.325   6.585
 9016SOL    HW127947   5.480   5.403   6.529
 9016SOL    HW227948   5.446   5.248   6.567
 9017SOL     OW27949   4.353   1.126   4.064
 9017SOL    HW127950   4.288   1.068   4.112
 9017SOL    HW227951   4.378   1.203   4.122
 9018SOL     OW27952   3.163   3.884   6.178
 9018SOL    HW127953   3.256   3.921   6.177
 9018SOL    HW227954   3.147   3.830   6.096
 9019SOL     OW27955   0.750   4.175   2.891
 9019SOL    HW127956   0.753   4.164   2.792
 9019SOL    HW227957   0.841   4.195   2.926
 9020SOL     OW27958   0.033   4.785   1.191
 9020SOL    HW127959   6.980   4.804   1.250
 9020SOL    HW227960   0.020   4.697   1.146
 9021SOL     OW27961   6.934   0.715   3.285
 9021SOL    HW127962   6.844   0.685   3.316
 9021SOL    HW227963   6.947   0.811   3.309
 9022SOL     OW27964   3.793   1.360   6.922
 9022SOL    HW127965   3.782   1.457   6.898
 9022SOL    HW227966   3.764   1.346   7.017
 9023SOL     OW27967   4.454   3.484   1.661
 9023SOL    HW127968   4.378   3.447   1.714
 9023SOL    HW227969   4.453   3.584   1.666
 9024SOL     OW27970   1.212   4.311   5.343
 9024SOL    HW127971   1.236   4.306   5.246
 9024SOL    HW227972   1.261   4.240   5.393
 9025SOL     OW27973   6.755   5.731   0.638
 9025SOL    HW127974   6.825   5.781   0.586
 9025SOL    HW227975   6.726   5.788   0.716
 9026SOL     OW27976   3.133   2.061   0.583
 9026SOL    HW127977   3.097   2.104   0.666
 9026SOL    HW227978   3.067   2.072   0.509
 9027SOL     OW27979   0.871   3.419   3.494
 9027SOL    HW127980   0.899   3.415   3.590
 9027SOL    HW227981   0.778   3.458   3.488
 9028SOL     OW27982   3.926   2.986   5.335
 9028SOL    HW127983   3.884   3.030   5.255
 9028SOL    HW227984   3.861   2.920   5.374
 9029SOL     OW27985   4.164   6.960   4.886
 9029SOL    HW127986   4.261   6.938   4.877
 9029SOL    HW227987   4.134   6.938   4.979
 9030SOL     OW27988   2.001   2.498   3.896
 9030SOL    HW127989   2.038   2.413   3.935
 9030SOL    HW227990   1.903   2.505   3.916
 9031SOL     OW27991   4.273   6.917   4.371
 9031SOL    HW127992   4.270   6.866   4.458
 9031SOL    HW227993   4.288   7.014   4.390
 9032SOL     OW27994   4.733   3.743   1.255
 9032SOL    HW127995   4.777   3.712   1.339
 9032SOL    HW227996   4.634   3.750   1.271
 9033SOL     OW27997   0.246   4.693   2.659
 9033SOL    HW127998   0.246   4.722   2.755
 9033SOL    HW227999   0.166   4.636   2.641
 9034SOL     OW28000   3.143   6.142   4.552
 9034SOL    HW128001   3.136   6.043   4.566
 9034SOL    HW228002   3.238   6.167   4.536
 9035SOL     OW28003   2.053   5.995   6.981
 9035SOL    HW128004   1.990   5.922   6.955
 9035SOL    HW228005   2.143   5.956   7.001
 9036SOL     OW28006   1.630   4.027   5.483
 9036SOL    HW128007   1.583   3.976   5.555
 9036SOL    HW228008   1.664   4.114   5.520
 9037SOL     OW28009   1.226   2.954   4.009
 9037SOL    HW128010   1.224   2.857   4.035
 9037SOL    HW228011   1.189   3.009   4.083
 9038SOL     OW28012   4.384   2.909   6.931
 9038SOL    HW128013   4.373   2.969   6.852
 9038SOL    HW228014   4.302   2.855   6.944
 9039SOL     OW28015   3.349   4.850   6.764
 9039SOL    HW128016   3.439   4.884   6.790
 9039SOL    HW228017   3.316   4.901   6.685
 9040SOL     OW28018   2.682   2.228   1.877
 9040SOL    HW128019   2.759   2.282   1.911
 9040SOL    HW228020   2.662   2.155   1.943
 9041SOL     OW28021   1.118   2.485   0.880
 9041SOL    HW128022   1.059   2.449   0.807
 9041SOL    HW228023   1.066   2.490   0.965
 9042SOL     OW28024   3.897   6.766   4.817
 9042SOL    HW128025   3.858   6.840   4.762
 9042SOL    HW228026   3.916   6.688   4.758
 9043SOL     OW28027   2.272   1.729   6.120
 9043SOL    HW128028   2.312   1.644   6.155
 9043SOL    HW228029   2.225   1.711   6.034
 9044SOL     OW28030   0.620   1.338   6.913
 9044SOL    HW128031   0.616   1.285   6.998
 9044SOL    HW228032   0.610   1.276   6.835
 9045SOL     OW28033   3.816   0.372   3.211
 9045SOL    HW128034   3.909   0.340   3.194
 9045SOL    HW228035   3.781   0.330   3.295
 9046SOL     OW28036   4.006   3.609   2.762
 9046SOL    HW128037   3.976   3.704   2.775
 9046SOL    HW228038   4.029   3.569   2.851
 9047SOL     OW28039   0.869   4.186   5.046
 9047SOL    HW128040   0.953   4.144   5.011
 9047SOL    HW228041   0.890   4.236   5.130
 9048SOL     OW28042   6.377   2.513   6.342
 9048SOL    HW128043   6.445   2.585   6.326
 9048SOL    HW228044   6.422   2.435   6.386
 9049SOL     OW28045   3.748   6.303   5.596
 9049SOL    HW128046   3.772   6.208   5.616
 9049SOL    HW228047   3.650   6.310   5.580
 9050SOL     OW28048   0.458   3.196   1.196
 9050SOL    HW128049   0.438   3.146   1.112
 9050SOL    HW228050   0.483   3.290   1.174
 9051SOL     OW28051   2.269   0.214   1.905
 9051SOL    HW128052   2.286   0.224   1.807
 9051SOL    HW228053   2.336   0.269   1.956
 9052SOL     OW28054   2.138   3.302   3.832
 9052SOL    HW128055   2.146   3.215   3.881
 9052SOL    HW228056   2.101   3.372   3.893
 9053SOL     OW28057   2.009   1.304   0.631
 9053SOL    HW128058   2.083   1.292   0.565
 9053SOL    HW228059   1.922   1.282   0.587
 9054SOL     OW28060   2.013   5.900   4.469
 9054SOL    HW128061   1.936   5.931   4.412
 9054SOL    HW228062   2.022   5.801   4.459
 9055SOL     OW28063   6.070   3.773   4.527
 9055SOL    HW128064   6.045   3.732   4.439
 9055SOL    HW228065   6.164   3.806   4.523
 9056SOL     OW28066   6.519   1.699   2.256
 9056SOL    HW128067   6.488   1.644   2.179
 9056SOL    HW228068   6.468   1.672   2.338
 9057SOL     OW28069   4.799   2.230   4.562
 9057SOL    HW128070   4.898   2.243   4.570
 9057SOL    HW228071   4.777   2.194   4.472
 9058SOL     OW28072   1.161   0.644   0.624
 9058SOL    HW128073   1.254   0.629   0.660
 9058SOL    HW228074   1.165   0.656   0.525
 9059SOL     OW28075   1.313   2.557   3.191
 9059SOL    HW128076   1.318   2.654   3.171
 9059SOL    HW228077   1.276   2.508   3.112
 9060SOL     OW28078   5.962   3.073   4.337
 9060SOL    HW128079   5.863   3.087   4.332
 9060SOL    HW228080   6.008   3.151   4.294
 9061SOL     OW28081   3.518   5.549   2.467
 9061SOL    HW128082   3.586   5.558   2.539
 9061SOL    HW228083   3.546   5.477   2.404
 9062SOL     OW28084   1.017   5.623   1.737
 9062SOL    HW128085   1.052   5.577   1.656
 9062SOL    HW228086   1.091   5.675   1.780
 9063SOL     OW28087   2.476   1.144   4.122
 9063SOL    HW128088   2.412   1.212   4.086
 9063SOL    HW228089   2.509   1.086   4.047
 9064SOL     OW28090   6.743   3.655   6.377
 9064SOL    HW128091   6.667   3.591   6.366
 9064SOL    HW228092   6.712   3.736   6.426
 9065SOL     OW28093   3.850   6.867   0.467
 9065SOL    HW128094   3.948   6.868   0.487
 9065SOL    HW228095   3.830   6.931   0.393
 9066SOL     OW28096   5.408   0.364   0.467
 9066SOL    HW128097   5.375   0.301   0.397
 9066SOL    HW228098   5.334   0.386   0.531
 9067SOL     OW28099   1.710   0.323   3.696
 9067SOL    HW128100   1.794   0.280   3.663
 9067SOL    HW228101   1.685   0.399   3.636
 9068SOL     OW28102   0.813   6.705   4.499
 9068SOL    HW128103   0.869   6.651   4.436
 9068SOL    HW228104   0.731   6.653   4.523
 9069SOL     OW28105   1.183   3.408   6.642
 9069SOL    HW128106   1.179   3.429   6.740
 9069SOL    HW228107   1.242   3.328   6.628
 9070SOL     OW28108   2.187   3.925   4.768
 9070SOL    HW128109   2.161   3.829   4.781
 9070SOL    HW228110   2.222   3.962   4.853
 9071SOL     OW28111   6.450   6.242   0.854
 9071SOL    HW128112   6.428   6.152   0.891
 9071SOL    HW228113   6.519   6.286   0.912
 9072SOL     OW28114   6.907   3.642   0.621
 9072SOL    HW128115   6.922   3.741   0.623
 9072SOL    HW228116   6.871   3.616   0.531
 9073SOL     OW28117   1.913   0.449   1.707
 9073SOL    HW128118   1.875   0.528   1.660
 9073SOL    HW228119   1.996   0.476   1.756
 9074SOL     OW28120   1.595   0.309   2.668
 9074SOL    HW128121   1.552   0.220   2.683
 9074SOL    HW228122   1.581   0.366   2.749
 9075SOL     OW28123   6.201   0.389   1.819
 9075SOL    HW128124   6.189   0.436   1.732
 9075SOL    HW228125   6.112   0.374   1.862
 9076SOL     OW28126   0.779   0.968   6.251
 9076SOL    HW128127   0.737   0.877   6.258
 9076SOL    HW228128   0.721   1.027   6.196
 9077SOL     OW28129   4.342   6.680   2.182
 9077SOL    HW128130   4.294   6.759   2.219
 9077SOL    HW228131   4.285   6.637   2.111
 9078SOL     OW28132   4.095   3.387   5.039
 9078SOL    HW128133   4.014   3.446   5.044
 9078SOL    HW228134   4.145   3.407   4.955
 9079SOL     OW28135   3.422   0.007   4.438
 9079SOL    HW128136   3.467   6.946   4.418
 9079SOL    HW228137   3.490   0.076   4.462
 9080SOL     OW28138   5.241   2.323   6.871
 9080SOL    HW128139   5.175   2.397   6.884
 9080SOL    HW228140   5.235   2.288   6.778
 9081SOL     OW28141   5.576   6.312   3.348
 9081SOL    HW128142   5.651   6.322   3.282
 9081SOL    HW228143   5.603   6.247   3.420
 9082SOL     OW28144   2.319   0.581   3.799
 9082SOL    HW128145   2.246   0.648   3.815
 9082SOL    HW228146   2.285   0.490   3.819
 9083SOL     OW28147   5.067   4.635   5.456
 9083SOL    HW128148   5.131   4.614   5.382
 9083SOL    HW228149   5.117   4.678   5.532
 9084SOL     OW28150   3.166   3.604   2.929
 9084SOL    HW128151   3.236   3.673   2.914
 9084SOL    HW228152   3.129   3.574   2.841
 9085SOL     OW28153   2.047   1.467   0.885
 9085SOL    HW128154   2.141   1.501   0.883
 9085SOL    HW228155   2.029   1.412   0.804
 9086SOL     OW28156   0.728   3.670   0.530
 9086SOL    HW128157   0.740   3.703   0.436
 9086SOL    HW228158   0.805   3.701   0.586
 9087SOL     OW28159   4.917   3.252   2.614
 9087SOL    HW128160   4.904   3.162   2.657
 9087SOL    HW228161   4.871   3.253   2.526
 9088SOL     OW28162   6.486   0.341   6.961
 9088SOL    HW128163   6.424   0.284   6.907
 9088SOL    HW228164   6.569   0.359   6.908
 9089SOL     OW28165   5.009   6.559   6.060
 9089SOL    HW128166   5.050   6.634   6.111
 9089SOL    HW228167   5.048   6.472   6.092
 9090SOL     OW28168   6.182   0.516   5.030
 9090SOL    HW128169   6.085   0.536   5.043
 9090SOL    HW228170   6.235   0.600   5.037
 9091SOL     OW28171   2.791   4.171   6.678
 9091SOL    HW128172   2.722   4.222   6.730
 9091SOL    HW228173   2.761   4.160   6.584
 9092SOL     OW28174   0.005   1.952   6.978
 9092SOL    HW128175   6.938   1.973   6.947
 9092SOL    HW228176   0.020   1.854   6.973
 9093SOL     OW28177   1.223   6.531   5.565
 9093SOL    HW128178   1.193   6.449   5.516
 9093SOL    HW228179   1.216   6.610   5.504
 9094SOL     OW28180   0.579   3.266   2.656
 9094SOL    HW128181   0.600   3.343   2.596
 9094SOL    HW228182   0.635   3.187   2.629
 9095SOL     OW28183   4.737   5.070   5.437
 9095SOL    HW128184   4.719   4.973   5.455
 9095SOL    HW228185   4.707   5.092   5.344
 9096SOL     OW28186   6.402   5.365   3.162
 9096SOL    HW128187   6.364   5.275   3.186
 9096SOL    HW228188   6.445   5.406   3.243
 9097SOL     OW28189   0.664   2.661   6.305
 9097SOL    HW128190   0.569   2.692   6.308
 9097SOL    HW228191   0.666   2.562   6.287
 9098SOL     OW28192   2.125   2.216   5.138
 9098SOL    HW128193   2.046   2.203   5.078
 9098SOL    HW228194   2.117   2.153   5.216
 9099SOL     OW28195   2.119   3.487   6.037
 9099SOL    HW128196   2.181   3.562   6.061
 9099SOL    HW228197   2.131   3.463   5.941
 9100SOL     OW28198   1.568   4.188   2.479
 9100SOL    HW128199   1.531   4.206   2.571
 9100SOL    HW228200   1.493   4.181   2.414
 9101SOL     OW28201   2.863   1.098   2.158
 9101SOL    HW128202   2.800   1.110   2.235
 9101SOL    HW228203   2.906   1.185   2.137
 9102SOL     OW28204   4.617   6.725   2.809
 9102SOL    HW128205   4.703   6.679   2.785
 9102SOL    HW228206   4.634   6.822   2.827
 9103SOL     OW28207   6.469   1.994   6.900
 9103SOL    HW128208   6.412   1.920   6.935
 9103SOL    HW228209   6.426   2.034   6.818
 9104SOL     OW28210   0.499   0.761   0.486
 9104SOL    HW128211   0.537   0.839   0.437
 9104SOL    HW228212   0.537   0.758   0.579
 9105SOL     OW28213   2.044   0.166   6.204
 9105SOL    HW128214   2.076   0.225   6.278
 9105SOL    HW228215   1.974   0.214   6.151
 9106SOL     OW28216   0.681   4.472   6.947
 9106SOL    HW128217   0.605   4.407   6.948
 9106SOL    HW228218   0.676   4.531   0.002
 9107SOL     OW28219   2.593   0.729   6.404
 9107SOL    HW128220   2.672   0.669   6.395
 9107SOL    HW228221   2.620   0.824   6.386
 9108SOL     OW28222   5.259   5.567   5.433
 9108SOL    HW128223   5.160   5.568   5.443
 9108SOL    HW228224   5.287   5.484   5.386
 9109SOL     OW28225   5.651   2.708   2.047
 9109SOL    HW128226   5.599   2.763   2.112
 9109SOL    HW228227   5.615   2.723   1.955
 9110SOL     OW28228   1.606   5.536   5.421
 9110SOL    HW128229   1.638   5.605   5.357
 9110SOL    HW228230   1.670   5.530   5.498
 9111SOL     OW28231   4.657   2.709   5.288
 9111SOL    HW128232   4.696   2.673   5.204
 9111SOL    HW228233   4.559   2.688   5.291
 9112SOL     OW28234   2.206   5.171   3.106
 9112SOL    HW128235   2.293   5.158   3.059
 9112SOL    HW228236   2.143   5.221   3.047
 9113SOL     OW28237   5.011   2.241   3.087
 9113SOL    HW128238   5.098   2.205   3.055
 9113SOL    HW228239   4.953   2.166   3.119
 9114SOL     OW28240   1.548   6.024   5.106
 9114SOL    HW128241   1.469   6.086   5.101
 9114SOL    HW228242   1.628   6.075   5.138
 9115SOL     OW28243   5.890   4.686   3.357
 9115SOL    HW128244   5.791   4.699   3.369
 9115SOL    HW228245   5.908   4.589   3.341
 9116SOL     OW28246   1.157   6.788   3.277
 9116SOL    HW128247   1.214   6.833   3.208
 9116SOL    HW228248   1.098   6.856   3.320
 9117SOL     OW28249   4.307   0.515   0.027
 9117SOL    HW128250   4.252   0.474   0.100
 9117SOL    HW228251   4.355   0.596   0.062
 9118SOL     OW28252   5.659   4.181   0.618
 9118SOL    HW128253   5.599   4.116   0.572
 9118SOL    HW228254   5.709   4.134   0.691
 9119SOL     OW28255   3.468   6.646   1.203
 9119SOL    HW128256   3.405   6.570   1.220
 9119SOL    HW228257   3.501   6.641   1.109
 9120SOL     OW28258   5.924   2.997   5.933
 9120SOL    HW128259   6.012   3.008   5.885
 9120SOL    HW228260   5.858   3.062   5.895
 9121SOL     OW28261   3.436   0.124   5.567
 9121SOL    HW128262   3.438   0.034   5.524
 9121SOL    HW228263   3.388   0.189   5.507
 9122SOL     OW28264   2.480   4.422   1.830
 9122SOL    HW128265   2.533   4.355   1.778
 9122SOL    HW228266   2.476   4.508   1.780
 9123SOL     OW28267   1.153   0.676   3.163
 9123SOL    HW128268   1.159   0.741   3.087
 9123SOL    HW228269   1.094   0.714   3.235
 9124SOL     OW28270   3.204   5.119   1.665
 9124SOL    HW128271   3.245   5.156   1.749
 9124SOL    HW228272   3.274   5.072   1.612
 9125SOL     OW28273   3.645   6.774   0.626
 9125SOL    HW128274   3.718   6.801   0.563
 9125SOL    HW228275   3.587   6.705   0.583
 9126SOL     OW28276   4.257   5.195   0.566
 9126SOL    HW128277   4.353   5.222   0.564
 9126SOL    HW228278   4.250   5.095   0.568
 9127SOL     OW28279   6.923   3.646   5.294
 9127SOL    HW128280   6.835   3.607   5.269
 9127SOL    HW228281   6.928   3.741   5.264
 9128SOL     OW28282   6.053   3.105   5.254
 9128SOL    HW128283   6.114   3.026   5.244
 9128SOL    HW228284   6.002   3.096   5.339
 9129SOL     OW28285   2.166   1.680   0.327
 9129SOL    HW128286   2.194   1.763   0.278
 9129SOL    HW228287   2.115   1.707   0.409
 9130SOL     OW28288   2.847   4.111   5.466
 9130SOL    HW128289   2.781   4.054   5.418
 9130SOL    HW228290   2.891   4.173   5.401
 9131SOL     OW28291   6.199   2.779   0.631
 9131SOL    HW128292   6.271   2.823   0.578
 9131SOL    HW228293   6.237   2.699   0.678
 9132SOL     OW28294   1.140   3.860   3.648
 9132SOL    HW128295   1.050   3.837   3.610
 9132SOL    HW228296   1.175   3.782   3.700
 9133SOL     OW28297   4.530   0.912   0.967
 9133SOL    HW128298   4.533   0.828   1.021
 9133SOL    HW228299   4.448   0.964   0.991
 9134SOL     OW28300   4.551   5.345   1.018
 9134SOL    HW128301   4.515   5.439   1.022
 9134SOL    HW228302   4.643   5.344   1.057
 9135SOL     OW28303   0.955   6.153   2.123
 9135SOL    HW128304   1.005   6.067   2.126
 9135SOL    HW228305   0.858   6.135   2.108
 9136SOL     OW28306   6.077   4.591   6.487
 9136SOL    HW128307   6.112   4.613   6.396
 9136SOL    HW228308   6.091   4.669   6.548
 9137SOL     OW28309   4.434   6.071   0.071
 9137SOL    HW128310   4.396   6.128   0.144
 9137SOL    HW228311   4.526   6.103   0.049
 9138SOL     OW28312   3.174   3.108   0.794
 9138SOL    HW128313   3.082   3.137   0.821
 9138SOL    HW228314   3.235   3.114   0.873
 9139SOL     OW28315   6.945   0.431   0.916
 9139SOL    HW128316   6.937   0.332   0.911
 9139SOL    HW228317   0.012   0.456   0.946
 9140SOL     OW28318   0.466   4.391   2.328
 9140SOL    HW128319   0.495   4.416   2.236
 9140SOL    HW228320   0.402   4.314   2.323
 9141SOL     OW28321   6.742   5.633   6.118
 9141SOL    HW128322   6.759   5.553   6.061
 9141SOL    HW228323   6.828   5.664   6.159
 9142SOL     OW28324   1.308   3.851   2.962
 9142SOL    HW128325   1.269   3.940   2.938
 9142SOL    HW228326   1.367   3.820   2.888
 9143SOL     OW28327   0.447   3.030   3.105
 9143SOL    HW128328   0.358   3.062   3.072
 9143SOL    HW228329   0.463   3.067   3.196
 9144SOL     OW28330   2.900   4.861   5.507
 9144SOL    HW128331   2.992   4.897   5.522
 9144SOL    HW228332   2.847   4.869   5.591
 9145SOL     OW28333   1.351   6.704   6.067
 9145SOL    HW128334   1.304   6.740   5.987
 9145SOL    HW228335   1.289   6.705   6.146
 9146SOL     OW28336   5.678   3.446   3.347
 9146SOL    HW128337   5.601   3.509   3.341
 9146SOL    HW228338   5.725   3.459   3.435
 9147SOL     OW28339   4.502   0.463   4.269
 9147SOL    HW128340   4.552   0.467   4.355
 9147SOL    HW228341   4.443   0.382   4.268
 9148SOL     OW28342   6.184   6.690   1.720
 9148SOL    HW128343   6.169   6.782   1.683
 9148SOL    HW228344   6.271   6.654   1.685
 9149SOL     OW28345   6.888   4.282   1.120
 9149SOL    HW128346   6.804   4.298   1.068
 9149SOL    HW228347   6.864   4.248   1.211
 9150SOL     OW28348   2.776   3.297   6.791
 9150SOL    HW128349   2.815   3.373   6.842
 9150SOL    HW228350   2.849   3.250   6.741
 9151SOL     OW28351   1.825   3.713   3.611
 9151SOL    HW128352   1.749   3.710   3.677
 9151SOL    HW228353   1.873   3.801   3.620
 9152SOL     OW28354   1.849   4.256   4.037
 9152SOL    HW128355   1.835   4.158   4.052
 9152SOL    HW228356   1.816   4.307   4.117
 9153SOL     OW28357   6.786   3.292   6.648
 9153SOL    HW128358   6.743   3.374   6.686
 9153SOL    HW228359   6.777   3.292   6.549
 9154SOL     OW28360   6.027   4.947   2.837
 9154SOL    HW128361   5.982   4.905   2.915
 9154SOL    HW228362   5.959   4.992   2.779
 9155SOL     OW28363   0.498   5.819   2.761
 9155SOL    HW128364   0.407   5.852   2.786
 9155SOL    HW228365   0.561   5.896   2.753
 9156SOL     OW28366   6.560   4.019   7.002
 9156SOL    HW128367   6.530   3.925   7.021
 9156SOL    HW228368   6.547   4.075   0.058
 9157SOL     OW28369   2.869   4.998   6.199
 9157SOL    HW128370   2.778   4.969   6.226
 9157SOL    HW228371   2.910   4.928   6.139
 9158SOL     OW28372   7.012   3.270   4.201
 9158SOL    HW128373   6.946   3.198   4.178
 9158SOL    HW228374   0.067   3.261   4.141
 9159SOL     OW28375   3.549   0.918   3.463
 9159SOL    HW128376   3.619   0.846   3.457
 9159SOL    HW228377   3.592   1.007   3.459
 9160SOL     OW28378   0.481   4.629   6.745
 9160SOL    HW128379   0.509   4.722   6.721
 9160SOL    HW228380   0.560   4.578   6.778
 9161SOL     OW28381   5.948   4.054   1.394
 9161SOL    HW128382   5.946   3.954   1.394
 9161SOL    HW228383   5.921   4.088   1.304
 9162SOL     OW28384   4.656   1.810   2.146
 9162SOL    HW128385   4.584   1.747   2.117
 9162SOL    HW228386   4.614   1.899   2.167
 9163SOL     OW28387   1.575   2.819   3.351
 9163SOL    HW128388   1.595   2.849   3.258
 9163SOL    HW228389   1.477   2.826   3.367
 9164SOL     OW28390   2.504   0.671   6.810
 9164SOL    HW128391   2.452   0.604   6.862
 9164SOL    HW228392   2.466   0.678   6.718
 9165SOL     OW28393   5.485   2.041   5.634
 9165SOL    HW128394   5.568   2.078   5.673
 9165SOL    HW228395   5.409   2.103   5.651
 9166SOL     OW28396   5.024   5.236   1.791
 9166SOL    HW128397   4.931   5.270   1.797
 9166SOL    HW228398   5.056   5.208   1.882
 9167SOL     OW28399   1.978   0.951   5.176
 9167SOL    HW128400   2.031   0.876   5.138
 9167SOL    HW228401   1.881   0.926   5.176
 9168SOL     OW28402   6.840   6.235   4.454
 9168SOL    HW128403   6.804   6.181   4.378
 9168SOL    HW228404   6.840   6.180   4.537
 9169SOL     OW28405   6.314   6.301   0.615
 9169SOL    HW128406   6.371   6.277   0.693
 9169SOL    HW228407   6.316   6.226   0.548
 9170SOL     OW28408   1.640   1.285   5.410
 9170SOL    HW128409   1.733   1.267   5.377
 9170SOL    HW228410   1.581   1.304   5.332
 9171SOL     OW28411   3.163   4.596   0.694
 9171SOL    HW128412   3.170   4.605   0.595
 9171SOL    HW228413   3.137   4.685   0.733
 9172SOL     OW28414   5.315   1.466   4.276
 9172SOL    HW128415   5.409   1.493   4.253
 9172SOL    HW228416   5.261   1.548   4.296
 9173SOL     OW28417   6.071   2.667   4.054
 9173SOL    HW128418   6.071   2.571   4.083
 9173SOL    HW228419   6.112   2.675   3.963
 9174SOL     OW28420   6.898   5.256   0.359
 9174SOL    HW128421   6.971   5.314   0.396
 9174SOL    HW228422   6.916   5.236   0.263
 9175SOL     OW28423   1.600   6.754   6.685
 9175SOL    HW128424   1.511   6.791   6.714
 9175SOL    HW228425   1.673   6.801   6.735
 9176SOL     OW28426   1.522   1.226   2.345
 9176SOL    HW128427   1.511   1.164   2.422
 9176SOL    HW228428   1.528   1.320   2.378
 9177SOL     OW28429   0.307   4.386   3.805
 9177SOL    HW128430   0.407   4.382   3.805
 9177SOL    HW228431   0.271   4.305   3.852
 9178SOL     OW28432   1.613   6.402   0.601
 9178SOL    HW128433   1.574   6.355   0.680
 9178SOL    HW228434   1.687   6.462   0.631
 9179SOL     OW28435   4.359   5.665   5.311
 9179SOL    HW128436   4.401   5.642   5.223
 9179SOL    HW228437   4.279   5.723   5.295
 9180SOL     OW28438   0.267   1.131   3.913
 9180SOL    HW128439   0.270   1.052   3.974
 9180SOL    HW228440   0.266   1.215   3.967
 9181SOL     OW28441   3.901   1.720   3.546
 9181SOL    HW128442   3.959   1.711   3.626
 9181SOL    HW228443   3.805   1.712   3.573
 9182SOL     OW28444   1.623   1.099   3.035
 9182SOL    HW128445   1.631   1.104   3.134
 9182SOL    HW228446   1.549   1.036   3.010
 9183SOL     OW28447   6.156   3.255   5.564
 9183SOL    HW128448   6.233   3.198   5.594
 9183SOL    HW228449   6.151   3.337   5.621
 9184SOL     OW28450   3.640   2.930   1.039
 9184SOL    HW128451   3.696   2.932   0.957
 9184SOL    HW228452   3.633   2.836   1.073
 9185SOL     OW28453   0.986   0.292   6.376
 9185SOL    HW128454   1.026   0.376   6.411
 9185SOL    HW228455   1.057   0.222   6.368
 9186SOL     OW28456   5.747   0.991   6.231
 9186SOL    HW128457   5.666   0.937   6.209
 9186SOL    HW228458   5.758   0.996   6.331
 9187SOL     OW28459   5.147   1.770   0.304
 9187SOL    HW128460   5.061   1.810   0.337
 9187SOL    HW228461   5.214   1.769   0.379
 9188SOL     OW28462   1.139   0.281   2.018
 9188SOL    HW128463   1.079   0.218   2.067
 9188SOL    HW228464   1.234   0.248   2.023
 9189SOL     OW28465   3.830   1.607   3.945
 9189SOL    HW128466   3.916   1.577   3.986
 9189SOL    HW228467   3.813   1.553   3.862
 9190SOL     OW28468   6.149   3.890   5.566
 9190SOL    HW128469   6.055   3.909   5.538
 9190SOL    HW228470   6.206   3.876   5.485
 9191SOL     OW28471   5.576   6.369   0.054
 9191SOL    HW128472   5.553   6.404   0.145
 9191SOL    HW228473   5.596   6.271   0.061
 9192SOL     OW28474   6.270   4.536   5.380
 9192SOL    HW128475   6.201   4.466   5.365
 9192SOL    HW228476   6.357   4.492   5.403
 9193SOL     OW28477   3.523   3.222   3.522
 9193SOL    HW128478   3.524   3.199   3.619
 9193SOL    HW228479   3.463   3.159   3.473
 9194SOL     OW28480   2.852   5.279   2.925
 9194SOL    HW128481   2.776   5.315   2.979
 9194SOL    HW228482   2.844   5.311   2.831
 9195SOL     OW28483   0.236   3.241   2.998
 9195SOL    HW128484   0.274   3.242   2.906
 9195SOL    HW228485   0.149   3.192   2.998
 9196SOL     OW28486   4.940   0.457   3.358
 9196SOL    HW128487   5.038   0.437   3.364
 9196SOL    HW228488   4.902   0.467   3.450
 9197SOL     OW28489   3.598   3.329   6.190
 9197SOL    HW128490   3.639   3.242   6.161
 9197SOL    HW228491   3.660   3.404   6.169
 9198SOL     OW28492   6.163   2.900   5.614
 9198SOL    HW128493   6.215   2.822   5.649
 9198SOL    HW228494   6.166   2.974   5.681
 9199SOL     OW28495   1.206   3.808   6.713
 9199SOL    HW128496   1.134   3.748   6.680
 9199SOL    HW228497   1.185   3.902   6.690
 9200SOL     OW28498   6.551   0.507   0.151
 9200SOL    HW128499   6.561   0.605   0.134
 9200SOL    HW228500   6.516   0.462   0.068
 9201SOL     OW28501   0.648   3.479   2.498
 9201SOL    HW128502   0.618   3.444   2.409
 9201SOL    HW228503   0.603   3.566   2.515
 9202SOL     OW28504   3.035   5.658   4.475
 9202SOL    HW128505   3.103   5.588   4.453
 9202SOL    HW228506   2.950   5.613   4.504
 9203SOL     OW28507   5.259   0.929   5.688
 9203SOL    HW128508   5.226   0.980   5.608
 9203SOL    HW228509   5.195   0.943   5.765
 9204SOL     OW28510   4.805   4.293   2.460
 9204SOL    HW128511   4.823   4.201   2.425
 9204SOL    HW228512   4.736   4.337   2.403
 9205SOL     OW28513   5.417   2.799   2.493
 9205SOL    HW128514   5.448   2.715   2.537
 9205SOL    HW228515   5.355   2.848   2.554
 9206SOL     OW28516   0.725   6.627   3.380
 9206SOL    HW128517   0.797   6.661   3.319
 9206SOL    HW228518   0.760   6.551   3.435
 9207SOL     OW28519   4.246   6.463   0.695
 9207SOL    HW128520   4.217   6.464   0.791
 9207SOL    HW228521   4.328   6.518   0.684
 9208SOL     OW28522   5.239   3.990   1.518
 9208SOL    HW128523   5.292   3.906   1.509
 9208SOL    HW228524   5.190   3.990   1.605
 9209SOL     OW28525   4.185   1.037   2.246
 9209SOL    HW128526   4.237   0.960   2.280
 9209SOL    HW228527   4.090   1.009   2.229
 9210SOL     OW28528   1.328   0.139   1.333
 9210SOL    HW128529   1.245   0.183   1.300
 9210SOL    HW228530   1.347   0.058   1.278
 9211SOL     OW28531   5.245   1.550   6.860
 9211SOL    HW128532   5.202   1.572   6.773
 9211SOL    HW228533   5.181   1.567   6.935
 9212SOL     OW28534   5.385   3.618   4.703
 9212SOL    HW128535   5.353   3.632   4.797
 9212SOL    HW228536   5.350   3.531   4.668
 9213SOL     OW28537   6.023   6.766   3.291
 9213SOL    HW128538   5.970   6.746   3.374
 9213SOL    HW228539   6.008   6.694   3.224
 9214SOL     OW28540   2.105   2.169   4.724
 9214SOL    HW128541   2.019   2.184   4.772
 9214SOL    HW228542   2.181   2.172   4.789
 9215SOL     OW28543   0.636   3.360   2.916
 9215SOL    HW128544   0.560   3.425   2.910
 9215SOL    HW228545   0.637   3.302   2.834
 9216SOL     OW28546   2.035   5.566   4.852
 9216SOL    HW128547   2.098   5.489   4.860
 9216SOL    HW228548   1.975   5.553   4.773
 9217SOL     OW28549   4.347   1.020   6.390
 9217SOL    HW128550   4.410   1.092   6.418
 9217SOL    HW228551   4.254   1.055   6.391
 9218SOL     OW28552   5.689   5.679   6.106
 9218SOL    HW128553   5.608   5.641   6.151
 9218SOL    HW228554   5.698   5.775   6.131
 9219SOL     OW28555   3.506   2.753   5.681
 9219SOL    HW128556   3.499   2.799   5.593
 9219SOL    HW228557   3.419   2.706   5.700
 9220SOL     OW28558   1.569   6.211   3.247
 9220SOL    HW128559   1.585   6.184   3.342
 9220SOL    HW228560   1.607   6.141   3.186
 9221SOL     OW28561   2.676   1.063   6.935
 9221SOL    HW128562   2.698   1.048   6.838
 9221SOL    HW228563   2.587   1.024   6.955
 9222SOL     OW28564   1.451   3.629   3.534
 9222SOL    HW128565   1.467   3.691   3.457
 9222SOL    HW228566   1.355   3.602   3.536
 9223SOL     OW28567   0.950   3.499   4.577
 9223SOL    HW128568   0.927   3.574   4.639
 9223SOL    HW228569   0.869   3.444   4.559
 9224SOL     OW28570   2.197   4.097   4.324
 9224SOL    HW128571   2.181   4.152   4.242
 9224SOL    HW228572   2.237   4.155   4.395
 9225SOL     OW28573   4.852   6.964   0.010
 9225SOL    HW128574   4.927   0.004   0.006
 9225SOL    HW228575   4.815   6.950   6.944
 9226SOL     OW28576   0.921   1.167   0.721
 9226SOL    HW128577   0.999   1.220   0.754
 9226SOL    HW228578   0.890   1.204   0.634
 9227SOL     OW28579   2.780   5.567   1.117
 9227SOL    HW128580   2.862   5.614   1.084
 9227SOL    HW228581   2.742   5.617   1.195
 9228SOL     OW28582   3.020   2.783   5.757
 9228SOL    HW128583   2.975   2.873   5.758
 9228SOL    HW228584   2.994   2.732   5.838
 9229SOL     OW28585   0.274   4.728   6.899
 9229SOL    HW128586   0.360   4.715   6.849
 9229SOL    HW228587   0.266   4.658   6.969
 9230SOL     OW28588   4.602   1.689   4.144
 9230SOL    HW128589   4.591   1.655   4.238
 9230SOL    HW228590   4.511   1.705   4.105
 9231SOL     OW28591   0.059   5.866   4.055
 9231SOL    HW128592   7.005   5.851   4.114
 9231SOL    HW228593   0.028   5.896   3.964
 9232SOL     OW28594   1.525   5.340   1.943
 9232SOL    HW128595   1.613   5.359   1.987
 9232SOL    HW228596   1.538   5.271   1.872
 9233SOL     OW28597   1.072   0.134   0.200
 9233SOL    HW128598   1.087   0.177   0.289
 9233SOL    HW228599   0.974   0.132   0.181
 9234SOL     OW28600   2.239   4.689   0.782
 9234SOL    HW128601   2.314   4.632   0.748
 9234SOL    HW228602   2.153   4.657   0.743
 9235SOL     OW28603   2.383   1.976   3.910
 9235SOL    HW128604   2.307   1.942   3.855
 9235SOL    HW228605   2.408   1.909   3.980
 9236SOL     OW28606   2.098   3.731   6.599
 9236SOL    HW128607   2.151   3.811   6.626
 9236SOL    HW228608   2.080   3.735   6.501
 9237SOL     OW28609   6.192   4.867   3.280
 9237SOL    HW128610   6.250   4.948   3.274
 9237SOL    HW228611   6.246   4.786   3.258
 9238SOL     OW28612   1.774   2.944   5.373
 9238SOL    HW128613   1.865   2.969   5.341
 9238SOL    HW228614   1.722   2.903   5.298
 9239SOL     OW28615   0.620   4.674   0.113
 9239SOL    HW128616   0.606   4.651   0.209
 9239SOL    HW228617   0.668   4.761   0.106
 9240SOL     OW28618   4.858   2.355   2.586
 9240SOL    HW128619   4.777   2.407   2.557
 9240SOL    HW228620   4.863   2.355   2.686
 9241SOL     OW28621   5.900   0.056   1.004
 9241SOL    HW128622   5.942   0.067   0.914
 9241SOL    HW228623   5.856   6.992   1.010
 9242SOL     OW28624   1.192   2.810   0.846
 9242SOL    HW128625   1.141   2.729   0.874
 9242SOL    HW228626   1.162   2.839   0.755
 9243SOL     OW28627   1.017   0.656   0.153
 9243SOL    HW128628   0.964   0.584   0.197
 9243SOL    HW228629   0.962   0.701   0.083
 9244SOL     OW28630   4.156   6.320   5.227
 9244SOL    HW128631   4.074   6.318   5.170
 9244SOL    HW228632   4.232   6.279   5.176
 9245SOL     OW28633   1.002   4.174   3.036
 9245SOL    HW128634   1.029   4.212   3.124
 9245SOL    HW228635   0.952   4.088   3.050
 9246SOL     OW28636   6.601   0.764   5.064
 9246SOL    HW128637   6.633   0.670   5.070
 9246SOL    HW228638   6.679   0.826   5.079
 9247SOL     OW28639   3.857   5.837   3.529
 9247SOL    HW128640   3.888   5.831   3.624
 9247SOL    HW228641   3.816   5.750   3.502
 9248SOL     OW28642   2.319   1.196   5.435
 9248SOL    HW128643   2.263   1.219   5.356
 9248SOL    HW228644   2.302   1.100   5.460
 9249SOL     OW28645   4.077   5.356   1.642
 9249SOL    HW128646   3.981   5.383   1.647
 9249SOL    HW228647   4.135   5.437   1.653
 9250SOL     OW28648   0.206   2.687   3.975
 9250SOL    HW128649   0.259   2.603   3.979
 9250SOL    HW228650   0.263   2.763   4.006
 9251SOL     OW28651   3.236   2.810   1.034
 9251SOL    HW128652   3.270   2.746   1.103
 9251SOL    HW228653   3.152   2.853   1.068
 9252SOL     OW28654   5.721   0.762   5.574
 9252SOL    HW128655   5.778   0.809   5.507
 9252SOL    HW228656   5.749   0.788   5.666
 9253SOL     OW28657   0.919   4.750   5.347
 9253SOL    HW128658   0.977   4.832   5.352
 9253SOL    HW228659   0.865   4.742   5.430
 9254SOL     OW28660   6.905   5.011   3.294
 9254SOL    HW128661   6.903   5.008   3.194
 9254SOL    HW228662   6.915   5.106   3.325
 9255SOL     OW28663   6.566   4.615   0.563
 9255SOL    HW128664   6.539   4.552   0.636
 9255SOL    HW228665   6.645   4.668   0.593
 9256SOL     OW28666   1.783   6.496   1.209
 9256SOL    HW128667   1.836   6.418   1.242
 9256SOL    HW228668   1.706   6.512   1.270
 9257SOL     OW28669   6.758   5.850   4.057
 9257SOL    HW128670   6.677   5.899   4.024
 9257SOL    HW228671   6.791   5.892   4.142
 9258SOL     OW28672   3.893   4.589   1.000
 9258SOL    HW128673   3.833   4.511   1.012
 9258SOL    HW228674   3.894   4.616   0.903
 9259SOL     OW28675   2.125   1.713   6.386
 9259SOL    HW128676   2.028   1.698   6.369
 9259SOL    HW228677   2.166   1.761   6.308
 9260SOL     OW28678   5.493   3.250   5.059
 9260SOL    HW128679   5.495   3.333   5.003
 9260SOL    HW228680   5.486   3.275   5.156
 9261SOL     OW28681   3.932   2.288   1.768
 9261SOL    HW128682   3.968   2.200   1.801
 9261SOL    HW228683   3.836   2.296   1.795
 9262SOL     OW28684   6.195   5.950   3.713
 9262SOL    HW128685   6.118   5.894   3.744
 9262SOL    HW228686   6.230   6.004   3.790
 9263SOL     OW28687   2.203   3.982   3.880
 9263SOL    HW128688   2.231   3.938   3.966
 9263SOL    HW228689   2.199   3.913   3.808
 9264SOL     OW28690   4.336   3.921   6.891
 9264SOL    HW128691   4.343   3.822   6.906
 9264SOL    HW228692   4.270   3.960   6.956
 9265SOL     OW28693   5.271   2.279   0.529
 9265SOL    HW128694   5.325   2.211   0.578
 9265SOL    HW228695   5.190   2.302   0.583
 9266SOL     OW28696   0.096   4.106   1.118
 9266SOL    HW128697   0.105   4.068   1.210
 9266SOL    HW228698   0.023   4.174   1.117
 9267SOL     OW28699   0.348   1.068   4.248
 9267SOL    HW128700   0.333   0.992   4.311
 9267SOL    HW228701   0.272   1.133   4.255
 9268SOL     OW28702   0.730   6.770   2.271
 9268SOL    HW128703   0.661   6.840   2.286
 9268SOL    HW228704   0.710   6.690   2.327
 9269SOL     OW28705   3.981   0.650   1.158
 9269SOL    HW128706   4.054   0.624   1.095
 9269SOL    HW228707   3.902   0.591   1.145
 9270SOL     OW28708   1.547   0.714   5.886
 9270SOL    HW128709   1.536   0.774   5.965
 9270SOL    HW228710   1.637   0.672   5.888
 9271SOL     OW28711   1.545   0.416   5.038
 9271SOL    HW128712   1.621   0.427   4.973
 9271SOL    HW228713   1.471   0.366   4.993
 9272SOL     OW28714   6.413   6.319   5.949
 9272SOL    HW128715   6.443   6.408   5.982
 9272SOL    HW228716   6.473   6.248   5.983
 9273SOL     OW28717   4.728   4.979   4.654
 9273SOL    HW128718   4.817   5.000   4.613
 9273SOL    HW228719   4.682   5.063   4.679
 9274SOL     OW28720   0.874   2.953   6.974
 9274SOL    HW128721   0.897   3.002   6.890
 9274SOL    HW228722   0.958   2.922   7.019
 9275SOL     OW28723   0.692   0.284   0.742
 9275SOL    HW128724   0.725   0.328   0.826
 9275SOL    HW228725   0.703   0.185   0.750
 9276SOL     OW28726   3.434   4.978   0.293
 9276SOL    HW128727   3.460   4.999   0.387
 9276SOL    HW228728   3.453   4.882   0.274
 9277SOL     OW28729   5.251   5.446   2.629
 9277SOL    HW128730   5.309   5.527   2.641
 9277SOL    HW228731   5.163   5.461   2.674
 9278SOL     OW28732   0.739   1.141   4.779
 9278SOL    HW128733   0.652   1.103   4.746
 9278SOL    HW228734   0.809   1.070   4.780
 9279SOL     OW28735   4.852   5.955   1.421
 9279SOL    HW128736   4.812   5.935   1.510
 9279SOL    HW228737   4.779   5.976   1.355
 9280SOL     OW28738   1.666   0.700   2.660
 9280SOL    HW128739   1.679   0.706   2.759
 9280SOL    HW228740   1.712   0.778   2.616
 9281SOL     OW28741   3.141   4.825   0.109
 9281SOL    HW128742   3.167   4.801   0.203
 9281SOL    HW228743   3.078   4.756   0.074
 9282SOL     OW28744   3.064   0.083   4.960
 9282SOL    HW128745   2.996   0.025   5.005
 9282SOL    HW228746   3.041   0.094   4.863
 9283SOL     OW28747   4.753   6.573   6.992
 9283SOL    HW128748   4.679   6.641   6.994
 9283SOL    HW228749   4.736   6.503   0.036
 9284SOL     OW28750   3.233   3.913   4.848
 9284SOL    HW128751   3.196   3.942   4.760
 9284SOL    HW228752   3.320   3.959   4.864
 9285SOL     OW28753   6.994   4.062   2.198
 9285SOL    HW128754   7.020   4.031   2.290
 9285SOL    HW228755   0.001   4.155   2.184
 9286SOL     OW28756   4.869   5.684   1.345
 9286SOL    HW128757   4.858   5.782   1.365
 9286SOL    HW228758   4.810   5.631   1.405
 9287SOL     OW28759   3.203   4.630   5.959
 9287SOL    HW128760   3.290   4.606   5.915
 9287SOL    HW228761   3.140   4.553   5.953
 9288SOL     OW28762   4.367   2.098   3.306
 9288SOL    HW128763   4.327   2.147   3.383
 9288SOL    HW228764   4.321   2.010   3.295
 9289SOL     OW28765   4.939   6.275   0.080
 9289SOL    HW128766   4.841   6.259   0.068
 9289SOL    HW228767   4.987   6.187   0.078
 9290SOL     OW28768   5.365   0.541   4.663
 9290SOL    HW128769   5.347   0.466   4.727
 9290SOL    HW228770   5.406   0.504   4.579
 9291SOL     OW28771   1.387   4.638   5.919
 9291SOL    HW128772   1.366   4.718   5.975
 9291SOL    HW228773   1.453   4.664   5.848
 9292SOL     OW28774   1.763   2.025   6.313
 9292SOL    HW128775   1.801   2.070   6.394
 9292SOL    HW228776   1.817   2.051   6.233
 9293SOL     OW28777   5.355   2.988   5.609
 9293SOL    HW128778   5.334   2.924   5.535
 9293SOL    HW228779   5.269   3.021   5.649
 9294SOL     OW28780   4.658   1.097   0.234
 9294SOL    HW128781   4.751   1.130   0.215
 9294SOL    HW228782   4.592   1.162   0.197
 9295SOL     OW28783   0.850   1.482   5.508
 9295SOL    HW128784   0.895   1.569   5.488
 9295SOL    HW228785   0.854   1.422   5.428
 9296SOL     OW28786   2.114   4.471   0.178
 9296SOL    HW128787   2.122   4.407   0.255
 9296SOL    HW228788   2.121   4.565   0.212
 9297SOL     OW28789   5.713   6.601   2.863
 9297SOL    HW128790   5.755   6.588   2.773
 9297SOL    HW228791   5.714   6.699   2.886
 9298SOL     OW28792   1.325   6.219   5.884
 9298SOL    HW128793   1.347   6.276   5.963
 9298SOL    HW228794   1.225   6.206   5.880
 9299SOL     OW28795   2.124   2.717   4.827
 9299SOL    HW128796   2.101   2.760   4.914
 9299SOL    HW228797   2.045   2.667   4.792
 9300SOL     OW28798   1.629   6.340   6.208
 9300SOL    HW128799   1.532   6.358   6.194
 9300SOL    HW228800   1.655   6.256   6.160
 9301SOL     OW28801   0.224   4.121   4.840
 9301SOL    HW128802   0.296   4.075   4.892
 9301SOL    HW228803   0.266   4.183   4.773
 9302SOL     OW28804   1.735   3.336   5.208
 9302SOL    HW128805   1.715   3.427   5.172
 9302SOL    HW228806   1.702   3.329   5.302
 9303SOL     OW28807   2.549   4.742   1.061
 9303SOL    HW128808   2.637   4.788   1.068
 9303SOL    HW228809   2.484   4.785   1.124
 9304SOL     OW28810   4.707   5.446   0.526
 9304SOL    HW128811   4.688   5.365   0.470
 9304SOL    HW228812   4.799   5.439   0.565
 9305SOL     OW28813   2.459   1.429   1.451
 9305SOL    HW128814   2.425   1.468   1.366
 9305SOL    HW228815   2.557   1.444   1.458
 9306SOL     OW28816   0.548   5.526   4.766
 9306SOL    HW128817   0.643   5.555   4.783
 9306SOL    HW228818   0.488   5.606   4.771
 9307SOL     OW28819   2.483   3.156   1.579
 9307SOL    HW128820   2.426   3.120   1.654
 9307SOL    HW228821   2.572   3.112   1.581
 9308SOL     OW28822   2.000   3.669   1.944
 9308SOL    HW128823   2.007   3.756   1.994
 9308SOL    HW228824   2.063   3.602   1.984
 9309SOL     OW28825   5.074   6.051   5.614
 9309SOL    HW128826   5.098   6.141   5.652
 9309SOL    HW228827   5.002   6.010   5.669
 9310SOL     OW28828   5.401   5.962   6.453
 9310SOL    HW128829   5.476   6.022   6.426
 9310SOL    HW228830   5.436   5.890   6.513
 9311SOL     OW28831   4.634   3.454   1.461
 9311SOL    HW128832   4.693   3.534   1.471
 9311SOL    HW228833   4.556   3.462   1.522
 9312SOL     OW28834   0.589   2.506   1.669
 9312SOL    HW128835   0.567   2.513   1.767
 9312SOL    HW228836   0.504   2.508   1.616
 9313SOL     OW28837   0.633   6.423   2.048
 9313SOL    HW128838   0.655   6.328   2.071
 9313SOL    HW228839   0.626   6.477   2.132
 9314SOL     OW28840   4.809   3.381   6.940
 9314SOL    HW128841   4.714   3.371   6.913
 9314SOL    HW228842   4.817   3.374   0.014
 9315SOL     OW28843   5.757   0.987   6.507
 9315SOL    HW128844   5.761   0.894   6.543
 9315SOL    HW228845   5.694   1.042   6.562
 9316SOL     OW28846   4.522   1.073   5.716
 9316SOL    HW128847   4.592   1.056   5.785
 9316SOL    HW228848   4.542   1.020   5.633
 9317SOL     OW28849   4.350   6.061   3.447
 9317SOL    HW128850   4.350   5.963   3.429
 9317SOL    HW228851   4.315   6.110   3.367
 9318SOL     OW28852   5.044   5.965   1.084
 9318SOL    HW128853   5.093   5.915   1.156
 9318SOL    HW228854   5.001   5.899   1.021
 9319SOL     OW28855   2.446   4.164   0.189
 9319SOL    HW128856   2.464   4.091   0.255
 9319SOL    HW228857   2.390   4.128   0.114
 9320SOL     OW28858   6.489   6.722   6.416
 9320SOL    HW128859   6.557   6.785   6.453
 9320SOL    HW228860   6.532   6.633   6.399
 9321SOL     OW28861   0.539   3.746   4.520
 9321SOL    HW128862   0.456   3.693   4.535
 9321SOL    HW228863   0.617   3.698   4.562
 9322SOL     OW28864   5.575   4.121   5.776
 9322SOL    HW128865   5.552   4.040   5.723
 9322SOL    HW228866   5.504   4.138   5.844
 9323SOL     OW28867   1.456   2.815   4.249
 9323SOL    HW128868   1.528   2.787   4.185
 9323SOL    HW228869   1.372   2.763   4.230
 9324SOL     OW28870   0.774   4.322   1.343
 9324SOL    HW128871   0.843   4.393   1.334
 9324SOL    HW228872   0.818   4.232   1.341
 9325SOL     OW28873   1.186   4.682   2.924
 9325SOL    HW128874   1.228   4.750   2.864
 9325SOL    HW228875   1.186   4.717   3.018
 9326SOL     OW28876   4.201   4.366   0.798
 9326SOL    HW128877   4.288   4.368   0.847
 9326SOL    HW228878   4.132   4.319   0.854
 9327SOL     OW28879   4.340   0.283   3.762
 9327SOL    HW128880   4.349   0.308   3.859
 9327SOL    HW228881   4.271   0.211   3.753
 9328SOL     OW28882   2.647   6.267   4.592
 9328SOL    HW128883   2.666   6.267   4.494
 9328SOL    HW228884   2.733   6.266   4.643
 9329SOL     OW28885   6.734   5.473   6.488
 9329SOL    HW128886   6.806   5.542   6.497
 9329SOL    HW228887   6.700   5.447   6.578
 9330SOL     OW28888   5.926   5.864   6.333
 9330SOL    HW128889   6.001   5.800   6.350
 9330SOL    HW228890   5.919   5.882   6.235
 9331SOL     OW28891   1.566   3.215   4.568
 9331SOL    HW128892   1.535   3.141   4.508
 9331SOL    HW228893   1.566   3.301   4.516
 9332SOL     OW28894   4.438   5.590   0.979
 9332SOL    HW128895   4.475   5.656   1.046
 9332SOL    HW228896   4.346   5.618   0.953
 9333SOL     OW28897   3.861   4.700   0.750
 9333SOL    HW128898   3.829   4.780   0.801
 9333SOL    HW228899   3.849   4.717   0.652
 9334SOL     OW28900   5.444   6.341   5.527
 9334SOL    HW128901   5.441   6.387   5.616
 9334SOL    HW228902   5.487   6.401   5.460
 9335SOL     OW28903   2.260   2.909   1.510
 9335SOL    HW128904   2.357   2.887   1.504
 9335SOL    HW228905   2.212   2.871   1.431
 9336SOL     OW28906   6.991   0.440   5.296
 9336SOL    HW128907   6.998   0.539   5.297
 9336SOL    HW228908   0.030   0.401   5.361
 9337SOL     OW28909   2.459   0.538   6.555
 9337SOL    HW128910   2.513   0.489   6.624
 9337SOL    HW228911   2.521   0.592   6.497
 9338SOL     OW28912   6.323   6.230   6.913
 9338SOL    HW128913   6.421   6.227   6.897
 9338SOL    HW228914   6.275   6.226   6.825
 9339SOL     OW28915   6.597   4.517   5.660
 9339SOL    HW128916   6.521   4.454   5.643
 9339SOL    HW228917   6.678   4.464   5.685
 9340SOL     OW28918   4.381   6.220   2.158
 9340SOL    HW128919   4.409   6.149   2.223
 9340SOL    HW228920   4.321   6.180   2.089
 9341SOL     OW28921   5.460   3.584   6.900
 9341SOL    HW128922   5.431   3.574   6.805
 9341SOL    HW228923   5.461   3.681   6.925
 9342SOL     OW28924   2.948   0.248   4.186
 9342SOL    HW128925   3.024   0.254   4.122
 9342SOL    HW228926   2.953   0.162   4.237
 9343SOL     OW28927   4.882   4.224   1.565
 9343SOL    HW128928   4.922   4.310   1.597
 9343SOL    HW228929   4.783   4.225   1.581
 9344SOL     OW28930   5.927   5.517   4.889
 9344SOL    HW128931   5.989   5.452   4.935
 9344SOL    HW228932   5.838   5.516   4.935
 9345SOL     OW28933   0.225   6.727   0.919
 9345SOL    HW128934   0.256   6.786   0.844
 9345SOL    HW228935   0.131   6.750   0.943
 9346SOL     OW28936   5.467   6.341   1.653
 9346SOL    HW128937   5.385   6.293   1.683
 9346SOL    HW228938   5.468   6.433   1.692
 9347SOL     OW28939   3.912   5.432   0.457
 9347SOL    HW128940   3.943   5.518   0.417
 9347SOL    HW228941   3.965   5.356   0.420
 9348SOL     OW28942   1.919   6.138   2.012
 9348SOL    HW128943   1.958   6.200   1.944
 9348SOL    HW228944   1.989   6.074   2.044
 9349SOL     OW28945   6.076   4.988   1.682
 9349SOL    HW128946   6.088   4.939   1.768
 9349SOL    HW228947   6.035   5.077   1.699
 9350SOL     OW28948   0.107   1.009   5.061
 9350SOL    HW128949   0.042   1.040   5.130
 9350SOL    HW228950   0.150   0.924   5.091
 9351SOL     OW28951   3.218   1.508   6.264
 9351SOL    HW128952   3.162   1.430   6.292
 9351SOL    HW228953   3.301   1.475   6.219
 9352SOL     OW28954   3.455   1.806   6.351
 9352SOL    HW128955   3.479   1.902   6.364
 9352SOL    HW228956   3.511   1.749   6.410
 9353SOL     OW28957   1.222   3.602   1.188
 9353SOL    HW128958   1.125   3.588   1.205
 9353SOL    HW228959   1.257   3.676   1.246
 9354SOL     OW28960   5.507   1.725   1.195
 9354SOL    HW128961   5.462   1.677   1.271
 9354SOL    HW228962   5.454   1.806   1.171
 9355SOL     OW28963   6.722   7.023   3.467
 9355SOL    HW128964   6.706   0.018   3.371
 9355SOL    HW228965   6.693   6.929   3.486
 9356SOL     OW28966   4.334   5.021   2.104
 9356SOL    HW128967   4.253   5.014   2.162
 9356SOL    HW228968   4.368   5.115   2.106
 9357SOL     OW28969   2.927   3.131   0.910
 9357SOL    HW128970   2.931   3.090   1.001
 9357SOL    HW228971   2.842   3.103   0.865
 9358SOL     OW28972   6.394   4.266   2.015
 9358SOL    HW128973   6.362   4.259   1.920
 9358SOL    HW228974   6.477   4.211   2.026
 9359SOL     OW28975   6.945   4.110   6.223
 9359SOL    HW128976   6.874   4.082   6.159
 9359SOL    HW228977   6.904   4.149   6.306
 9360SOL     OW28978   2.192   1.066   6.156
 9360SOL    HW128979   2.257   1.060   6.231
 9360SOL    HW228980   2.226   1.015   6.077
 9361SOL     OW28981   3.111   6.525   2.259
 9361SOL    HW128982   3.074   6.457   2.196
 9361SOL    HW228983   3.191   6.488   2.305
 9362SOL     OW28984   2.268   1.391   2.420
 9362SOL    HW128985   2.345   1.347   2.373
 9362SOL    HW228986   2.197   1.414   2.354
 9363SOL     OW28987   3.399   6.156   2.852
 9363SOL    HW128988   3.359   6.146   2.943
 9363SOL    HW228989   3.498   6.143   2.857
 9364SOL     OW28990   4.534   2.850   6.510
 9364SOL    HW128991   4.452   2.812   6.553
 9364SOL    HW228992   4.612   2.791   6.530
 9365SOL     OW28993   2.726   1.789   4.887
 9365SOL    HW128994   2.632   1.823   4.880
 9365SOL    HW228995   2.786   1.843   4.829
 9366SOL     OW28996   3.260   2.008   0.266
 9366SOL    HW128997   3.175   2.029   0.313
 9366SOL    HW228998   3.334   2.065   0.304
 9367SOL     OW28999   6.656   5.359   3.437
 9367SOL    HW129000   6.713   5.375   3.518
 9367SOL    HW229001   6.714   5.326   3.362
 9368SOL     OW29002   3.296   2.395   1.498
 9368SOL    HW129003   3.252   2.358   1.579
 9368SOL    HW229004   3.386   2.352   1.486
 9369SOL     OW29005   0.130   1.987   5.512
 9369SOL    HW129006   0.092   2.040   5.587
 9369SOL    HW229007   0.088   1.897   5.509
 9370SOL     OW29008   6.384   0.836   2.453
 9370SOL    HW129009   6.288   0.826   2.428
 9370SOL    HW229010   6.391   0.871   2.546
 9371SOL     OW29011   1.088   6.107   0.453
 9371SOL    HW129012   0.989   6.105   0.468
 9371SOL    HW229013   1.112   6.192   0.407
 9372SOL     OW29014   5.655   6.550   3.470
 9372SOL    HW129015   5.680   6.644   3.448
 9372SOL    HW229016   5.596   6.513   3.398
 9373SOL     OW29017   4.488   1.585   3.214
 9373SOL    HW129018   4.566   1.526   3.233
 9373SOL    HW229019   4.472   1.645   3.293
 9374SOL     OW29020   5.930   2.716   0.609
 9374SOL    HW129021   5.913   2.706   0.511
 9374SOL    HW229022   6.025   2.745   0.623
 9375SOL     OW29023   0.024   1.150   2.531
 9375SOL    HW129024   0.005   1.122   2.625
 9375SOL    HW229025   0.106   1.104   2.498
 9376SOL     OW29026   2.977   3.602   0.642
 9376SOL    HW129027   3.029   3.678   0.603
 9376SOL    HW229028   2.982   3.607   0.742
 9377SOL     OW29029   6.664   5.384   3.838
 9377SOL    HW129030   6.731   5.333   3.892
 9377SOL    HW229031   6.697   5.393   3.744
 9378SOL     OW29032   2.526   0.328   0.214
 9378SOL    HW129033   2.517   0.237   0.255
 9378SOL    HW229034   2.599   0.378   0.260
 9379SOL     OW29035   4.494   4.844   4.111
 9379SOL    HW129036   4.480   4.919   4.047
 9379SOL    HW229037   4.526   4.880   4.199
 9380SOL     OW29038   6.542   6.902   5.601
 9380SOL    HW129039   6.631   6.875   5.638
 9380SOL    HW229040   6.478   6.826   5.613
 9381SOL     OW29041   2.668   2.526   5.331
 9381SOL    HW129042   2.669   2.587   5.411
 9381SOL    HW229043   2.613   2.567   5.259
 9382SOL     OW29044   4.029   1.014   2.898
 9382SOL    HW129045   3.974   0.940   2.859
 9382SOL    HW229046   3.970   1.077   2.948
 9383SOL     OW29047   3.569   6.688   4.599
 9383SOL    HW129048   3.639   6.747   4.561
 9383SOL    HW229049   3.480   6.713   4.561
 9384SOL     OW29050   4.929   6.132   2.809
 9384SOL    HW129051   4.971   6.049   2.846
 9384SOL    HW229052   4.853   6.107   2.749
 9385SOL     OW29053   3.934   1.389   3.449
 9385SOL    HW129054   3.966   1.295   3.444
 9385SOL    HW229055   3.892   1.405   3.538
 9386SOL     OW29056   3.414   6.404   5.434
 9386SOL    HW129057   3.323   6.386   5.470
 9386SOL    HW229058   3.415   6.388   5.335
 9387SOL     OW29059   3.135   6.753   1.382
 9387SOL    HW129060   3.200   6.829   1.379
 9387SOL    HW229061   3.062   6.769   1.315
 9388SOL     OW29062   0.551   6.523   2.971
 9388SOL    HW129063   0.533   6.501   3.068
 9388SOL    HW229064   0.478   6.484   2.915
 9389SOL     OW29065   2.749   0.499   5.642
 9389SOL    HW129066   2.807   0.501   5.723
 9389SOL    HW229067   2.669   0.442   5.659
 9390SOL     OW29068   3.618   5.602   3.020
 9390SOL    HW129069   3.544   5.630   3.081
 9390SOL    HW229070   3.648   5.681   2.966
 9391SOL     OW29071   1.555   1.151   5.622
 9391SOL    HW129072   1.469   1.120   5.580
 9391SOL    HW229073   1.600   1.216   5.561
 9392SOL     OW29074   1.127   6.661   4.815
 9392SOL    HW129075   1.112   6.654   4.913
 9392SOL    HW229076   1.161   6.574   4.780
 9393SOL     OW29077   4.134   2.041   5.600
 9393SOL    HW129078   4.148   2.021   5.697
 9393SOL    HW229079   4.207   1.999   5.546
 9394SOL     OW29080   6.264   2.768   3.195
 9394SOL    HW129081   6.289   2.777   3.099
 9394SOL    HW229082   6.204   2.688   3.207
 9395SOL     OW29083   2.676   3.057   0.249
 9395SOL    HW129084   2.599   3.013   0.295
 9395SOL    HW229085   2.729   2.987   0.200
 9396SOL     OW29086   6.330   6.703   4.979
 9396SOL    HW129087   6.377   6.782   5.018
 9396SOL    HW229088   6.395   6.629   4.963
 9397SOL     OW29089   1.841   0.750   6.845
 9397SOL    HW129090   1.879   0.718   6.932
 9397SOL    HW229091   1.857   0.680   6.775
 9398SOL     OW29092   2.642   1.603   0.101
 9398SOL    HW129093   2.558   1.606   0.154
 9398SOL    HW229094   2.673   1.509   0.090
 9399SOL     OW29095   6.699   1.991   6.313
 9399SOL    HW129096   6.628   2.035   6.259
 9399SOL    HW229097   6.675   1.896   6.331
 9400SOL     OW29098   5.197   3.436   1.460
 9400SOL    HW129099   5.109   3.411   1.501
 9400SOL    HW229100   5.199   3.405   1.365
 9401SOL     OW29101   2.657   6.467   3.930
 9401SOL    HW129102   2.635   6.468   3.833
 9401SOL    HW229103   2.757   6.462   3.941
 9402SOL     OW29104   3.131   5.533   6.643
 9402SOL    HW129105   3.153   5.630   6.640
 9402SOL    HW229106   3.153   5.491   6.555
 9403SOL     OW29107   5.409   1.292   3.551
 9403SOL    HW129108   5.392   1.240   3.467
 9403SOL    HW229109   5.326   1.340   3.577
 9404SOL     OW29110   0.762   5.027   6.885
 9404SOL    HW129111   0.764   4.935   6.845
 9404SOL    HW229112   0.694   5.083   6.838
 9405SOL     OW29113   5.864   6.328   1.776
 9405SOL    HW129114   5.831   6.372   1.860
 9405SOL    HW229115   5.957   6.358   1.756
 9406SOL     OW29116   6.780   2.291   5.404
 9406SOL    HW129117   6.854   2.356   5.421
 9406SOL    HW229118   6.819   2.204   5.375
 9407SOL     OW29119   2.960   6.589   3.517
 9407SOL    HW129120   2.926   6.568   3.425
 9407SOL    HW229121   2.895   6.649   3.564
 9408SOL     OW29122   3.869   1.494   6.616
 9408SOL    HW129123   3.857   1.396   6.600
 9408SOL    HW229124   3.920   1.534   6.540
 9409SOL     OW29125   5.133   3.843   4.106
 9409SOL    HW129126   5.124   3.940   4.129
 9409SOL    HW229127   5.044   3.806   4.082
 9410SOL     OW29128   3.941   6.198   2.077
 9410SOL    HW129129   3.946   6.287   2.032
 9410SOL    HW229130   3.848   6.182   2.110
 9411SOL     OW29131   4.005   5.520   0.965
 9411SOL    HW129132   3.996   5.536   0.867
 9411SOL    HW229133   4.083   5.572   1.000
 9412SOL     OW29134   0.325   3.054   1.386
 9412SOL    HW129135   0.359   3.101   1.305
 9412SOL    HW229136   0.357   2.959   1.385
 9413SOL     OW29137   4.433   5.390   5.358
 9413SOL    HW129138   4.349   5.444   5.362
 9413SOL    HW229139   4.429   5.315   5.424
 9414SOL     OW29140   3.235   1.381   2.319
 9414SOL    HW129141   3.214   1.283   2.326
 9414SOL    HW229142   3.313   1.402   2.378
 9415SOL     OW29143   1.808   6.665   2.540
 9415SOL    HW129144   1.764   6.640   2.454
 9415SOL    HW229145   1.757   6.740   2.583
 9416SOL     OW29146   1.034   1.803   1.330
 9416SOL    HW129147   1.098   1.838   1.398
 9416SOL    HW229148   1.069   1.718   1.291
 9417SOL     OW29149   2.915   5.842   5.368
 9417SOL    HW129150   2.930   5.885   5.279
 9417SOL    HW229151   2.915   5.913   5.439
 9418SOL     OW29152   2.248   5.642   1.228
 9418SOL    HW129153   2.247   5.560   1.284
 9418SOL    HW229154   2.332   5.647   1.175
 9419SOL     OW29155   2.978   6.562   5.399
 9419SOL    HW129156   2.982   6.660   5.383
 9419SOL    HW229157   2.882   6.533   5.404
 9420SOL     OW29158   6.630   1.395   4.619
 9420SOL    HW129159   6.569   1.369   4.695
 9420SOL    HW229160   6.659   1.312   4.571
 9421SOL     OW29161   2.045   4.739   5.295
 9421SOL    HW129162   2.034   4.717   5.198
 9421SOL    HW229163   2.068   4.657   5.346
 9422SOL     OW29164   5.383   0.013   2.643
 9422SOL    HW129165   5.363   6.977   2.567
 9422SOL    HW229166   5.307   0.078   2.654
 9423SOL     OW29167   4.366   0.895   3.307
 9423SOL    HW129168   4.317   0.901   3.220
 9423SOL    HW229169   4.453   0.848   3.292
 9424SOL     OW29170   4.619   0.125   5.606
 9424SOL    HW129171   4.702   0.072   5.626
 9424SOL    HW229172   4.601   0.188   5.681
 9425SOL     OW29173   0.595   3.439   5.520
 9425SOL    HW129174   0.663   3.366   5.523
 9425SOL    HW229175   0.584   3.478   5.611
 9426SOL     OW29176   3.004   1.155   0.459
 9426SOL    HW129177   3.075   1.165   0.528
 9426SOL    HW229178   3.043   1.117   0.375
 9427SOL     OW29179   2.785   5.161   4.929
 9427SOL    HW129180   2.724   5.237   4.903
 9427SOL    HW229181   2.730   5.079   4.946
 9428SOL     OW29182   6.071   6.980   2.970
 9428SOL    HW129183   5.973   6.993   2.951
 9428SOL    HW229184   6.124   7.007   2.890
 9429SOL     OW29185   1.382   4.198   2.284
 9429SOL    HW129186   1.406   4.129   2.216
 9429SOL    HW229187   1.288   4.229   2.267
 9430SOL     OW29188   6.471   6.905   2.222
 9430SOL    HW129189   6.409   6.833   2.253
 9430SOL    HW229190   6.497   6.961   2.301
 9431SOL     OW29191   6.312   4.053   0.186
 9431SOL    HW129192   6.285   3.981   0.121
 9431SOL    HW229193   6.260   4.041   0.271
 9432SOL     OW29194   5.968   0.035   3.687
 9432SOL    HW129195   5.985   6.963   3.668
 9432SOL    HW229196   6.027   0.091   3.629
 9433SOL     OW29197   3.153   5.075   5.030
 9433SOL    HW129198   3.222   5.036   5.092
 9433SOL    HW229199   3.063   5.073   5.075
 9434SOL     OW29200   5.709   4.621   3.081
 9434SOL    HW129201   5.720   4.617   2.982
 9434SOL    HW229202   5.676   4.712   3.108
 9435SOL     OW29203   1.607   1.524   3.888
 9435SOL    HW129204   1.653   1.447   3.843
 9435SOL    HW229205   1.515   1.535   3.851
 9436SOL     OW29206   1.757   3.950   0.962
 9436SOL    HW129207   1.678   3.913   0.912
 9436SOL    HW229208   1.840   3.937   0.907
 9437SOL     OW29209   1.158   5.395   3.267
 9437SOL    HW129210   1.250   5.426   3.290
 9437SOL    HW229211   1.162   5.301   3.235
 9438SOL     OW29212   0.700   6.474   1.772
 9438SOL    HW129213   0.684   6.474   1.871
 9438SOL    HW229214   0.758   6.552   1.748
 9439SOL     OW29215   6.887   3.021   2.234
 9439SOL    HW129216   6.889   2.996   2.330
 9439SOL    HW229217   6.873   3.120   2.225
 9440SOL     OW29218   4.835   6.403   5.139
 9440SOL    HW129219   4.906   6.338   5.167
 9440SOL    HW229220   4.746   6.356   5.137
 9441SOL     OW29221   1.480   5.300   5.343
 9441SOL    HW129222   1.501   5.397   5.360
 9441SOL    HW229223   1.565   5.250   5.326
 9442SOL     OW29224   6.757   2.000   6.958
 9442SOL    HW129225   6.739   2.051   0.017
 9442SOL    HW229226   6.671   1.982   6.911
 9443SOL     OW29227   1.888   4.785   1.589
 9443SOL    HW129228   1.925   4.812   1.677
 9443SOL    HW229229   1.819   4.714   1.601
 9444SOL     OW29230   0.274   3.130   6.968
 9444SOL    HW129231   0.183   3.131   7.009
 9444SOL    HW229232   0.336   3.079   0.002
 9445SOL     OW29233   4.931   3.719   2.106
 9445SOL    HW129234   4.957   3.749   2.198
 9445SOL    HW229235   5.013   3.695   2.054
 9446SOL     OW29236   6.491   6.579   2.873
 9446SOL    HW129237   6.507   6.672   2.843
 9446SOL    HW229238   6.464   6.579   2.970
 9447SOL     OW29239   5.492   3.449   1.838
 9447SOL    HW129240   5.407   3.466   1.788
 9447SOL    HW229241   5.516   3.530   1.891
 9448SOL     OW29242   5.181   6.201   6.166
 9448SOL    HW129243   5.258   6.257   6.135
 9448SOL    HW229244   5.105   6.211   6.102
 9449SOL     OW29245   6.528   5.194   5.149
 9449SOL    HW129246   6.599   5.236   5.206
 9449SOL    HW229247   6.555   5.101   5.125
 9450SOL     OW29248   2.213   4.952   4.779
 9450SOL    HW129249   2.140   5.013   4.811
 9450SOL    HW229250   2.288   5.005   4.741
 9451SOL     OW29251   4.833   5.564   6.124
 9451SOL    HW129252   4.737   5.536   6.129
 9451SOL    HW229253   4.862   5.566   6.028
 9452SOL     OW29254   2.305   3.541   0.919
 9452SOL    HW129255   2.360   3.606   0.973
 9452SOL    HW229256   2.267   3.589   0.840
 9453SOL     OW29257   1.819   4.786   2.925
 9453SOL    HW129258   1.799   4.782   2.827
 9453SOL    HW229259   1.897   4.846   2.940
 9454SOL     OW29260   1.280   4.250   6.099
 9454SOL    HW129261   1.190   4.292   6.094
 9454SOL    HW229262   1.271   4.153   6.122
 9455SOL     OW29263   3.409   1.711   2.674
 9455SOL    HW129264   3.460   1.755   2.748
 9455SOL    HW229265   3.365   1.781   2.618
 9456SOL     OW29266   0.660   4.220   1.122
 9456SOL    HW129267   0.710   4.246   1.204
 9456SOL    HW229268   0.579   4.167   1.147
 9457SOL     OW29269   2.042   3.879   6.949
 9457SOL    HW129270   2.093   3.903   6.866
 9457SOL    HW229271   2.072   3.789   6.981
 9458SOL     OW29272   0.116   4.879   5.863
 9458SOL    HW129273   0.137   4.854   5.768
 9458SOL    HW229274   0.201   4.900   5.911
 9459SOL     OW29275   6.548   5.228   2.353
 9459SOL    HW129276   6.624   5.173   2.388
 9459SOL    HW229277   6.468   5.216   2.412
 9460SOL     OW29278   0.231   2.340   4.888
 9460SOL    HW129279   0.321   2.302   4.867
 9460SOL    HW229280   0.242   2.420   4.947
 9461SOL     OW29281   0.015   1.352   2.870
 9461SOL    HW129282   6.967   1.285   2.862
 9461SOL    HW229283   0.102   1.310   2.847
 9462SOL     OW29284   1.675   3.416   2.958
 9462SOL    HW129285   1.619   3.390   2.880
 9462SOL    HW229286   1.724   3.336   2.993
 9463SOL     OW29287   0.345   0.753   0.769
 9463SOL    HW129288   0.264   0.756   0.710
 9463SOL    HW229289   0.317   0.767   0.864
 9464SOL     OW29290   5.655   6.570   6.497
 9464SOL    HW129291   5.580   6.545   6.435
 9464SOL    HW229292   5.620   6.629   6.569
 9465SOL     OW29293   6.869   0.522   3.055
 9465SOL    HW129294   6.839   0.523   3.150
 9465SOL    HW229295   6.815   0.588   3.002
 9466SOL     OW29296   2.620   3.174   5.602
 9466SOL    HW129297   2.675   3.092   5.584
 9466SOL    HW229298   2.658   3.251   5.550
 9467SOL     OW29299   1.706   2.620   1.388
 9467SOL    HW129300   1.658   2.629   1.301
 9467SOL    HW229301   1.642   2.634   1.463
 9468SOL     OW29302   5.845   3.310   5.952
 9468SOL    HW129303   5.841   3.273   5.859
 9468SOL    HW229304   5.781   3.387   5.960
 9469SOL     OW29305   6.421   5.465   2.284
 9469SOL    HW129306   6.490   5.393   2.286
 9469SOL    HW229307   6.330   5.424   2.273
 9470SOL     OW29308   5.164   2.693   6.689
 9470SOL    HW129309   5.249   2.705   6.638
 9470SOL    HW229310   5.183   2.645   6.774
 9471SOL     OW29311   6.878   2.737   5.437
 9471SOL    HW129312   6.851   2.655   5.487
 9471SOL    HW229313   6.811   2.756   5.365
 9472SOL     OW29314   6.579   4.257   4.821
 9472SOL    HW129315   6.574   4.178   4.882
 9472SOL    HW229316   6.510   4.248   4.749
 9473SOL     OW29317   3.517   6.634   5.546
 9473SOL    HW129318   3.484   6.653   5.638
 9473SOL    HW229319   3.477   6.547   5.514
 9474SOL     OW29320   5.623   4.252   2.003
 9474SOL    HW129321   5.707   4.235   2.054
 9474SOL    HW229322   5.601   4.174   1.945
 9475SOL     OW29323   3.333   3.432   0.841
 9475SOL    HW129324   3.329   3.362   0.913
 9475SOL    HW229325   3.324   3.522   0.881
 9476SOL     OW29326   3.520   3.559   5.144
 9476SOL    HW129327   3.558   3.536   5.054
 9476SOL    HW229328   3.442   3.499   5.163
 9477SOL     OW29329   0.775   3.257   0.919
 9477SOL    HW129330   0.791   3.184   0.985
 9477SOL    HW229331   0.709   3.227   0.850
 9478SOL     OW29332   5.144   3.979   5.475
 9478SOL    HW129333   5.050   3.969   5.443
 9478SOL    HW229334   5.170   3.898   5.527
 9479SOL     OW29335   5.701   5.384   6.198
 9479SOL    HW129336   5.692   5.300   6.145
 9479SOL    HW229337   5.612   5.409   6.236
 9480SOL     OW29338   4.282   4.395   6.796
 9480SOL    HW129339   4.289   4.386   6.697
 9480SOL    HW229340   4.337   4.323   6.839
 9481SOL     OW29341   6.506   3.784   1.668
 9481SOL    HW129342   6.557   3.864   1.636
 9481SOL    HW229343   6.410   3.809   1.681
 9482SOL     OW29344   6.071   0.598   3.568
 9482SOL    HW129345   6.147   0.577   3.507
 9482SOL    HW229346   5.986   0.604   3.515
 9483SOL     OW29347   1.699   1.850   0.950
 9483SOL    HW129348   1.714   1.948   0.960
 9483SOL    HW229349   1.626   1.821   1.011
 9484SOL     OW29350   6.388   1.343   3.820
 9484SOL    HW129351   6.399   1.263   3.760
 9484SOL    HW229352   6.291   1.366   3.827
 9485SOL     OW29353   1.883   0.715   1.537
 9485SOL    HW129354   1.830   0.683   1.458
 9485SOL    HW229355   1.952   0.780   1.506
 9486SOL     OW29356   2.586   5.304   0.722
 9486SOL    HW129357   2.524   5.383   0.727
 9486SOL    HW229358   2.676   5.332   0.754
 9487SOL     OW29359   3.175   3.862   3.572
 9487SOL    HW129360   3.167   3.926   3.648
 9487SOL    HW229361   3.269   3.862   3.539
 9488SOL     OW29362   1.849   5.977   1.564
 9488SOL    HW129363   1.760   6.006   1.598
 9488SOL    HW229364   1.849   5.878   1.551
 9489SOL     OW29365   4.326   3.982   0.953
 9489SOL    HW129366   4.229   3.964   0.934
 9489SOL    HW229367   4.344   4.080   0.946
 9490SOL     OW29368   5.238   0.437   0.990
 9490SOL    HW129369   5.297   0.511   0.958
 9490SOL    HW229370   5.203   0.460   1.081
 9491SOL     OW29371   0.083   5.320   4.514
 9491SOL    HW129372   0.006   5.261   4.539
 9491SOL    HW229373   0.060   5.415   4.532
 9492SOL     OW29374   3.266   3.801   2.209
 9492SOL    HW129375   3.195   3.787   2.141
 9492SOL    HW229376   3.283   3.899   2.220
 9493SOL     OW29377   4.697   4.972   3.899
 9493SOL    HW129378   4.645   5.050   3.863
 9493SOL    HW229379   4.779   5.006   3.945
 9494SOL     OW29380   5.275   3.448   0.056
 9494SOL    HW129381   5.358   3.458   0.003
 9494SOL    HW229382   5.253   3.534   0.101
 9495SOL     OW29383   6.165   2.082   3.434
 9495SOL    HW129384   6.207   2.161   3.479
 9495SOL    HW229385   6.195   2.078   3.339
 9496SOL     OW29386   5.323   3.893   6.526
 9496SOL    HW129387   5.295   3.856   6.437
 9496SOL    HW229388   5.268   3.973   6.547
 9497SOL     OW29389   4.519   4.371   0.814
 9497SOL    HW129390   4.544   4.294   0.755
 9497SOL    HW229391   4.498   4.337   0.906
 9498SOL     OW29392   4.449   6.502   5.645
 9498SOL    HW129393   4.418   6.450   5.724
 9498SOL    HW229394   4.445   6.600   5.665
 9499SOL     OW29395   2.398   4.122   5.787
 9499SOL    HW129396   2.351   4.144   5.873
 9499SOL    HW229397   2.412   4.023   5.782
 9500SOL     OW29398   4.026   6.635   1.612
 9500SOL    HW129399   3.976   6.622   1.527
 9500SOL    HW229400   4.015   6.729   1.644
 9501SOL     OW29401   3.876   1.918   4.789
 9501SOL    HW129402   3.824   1.984   4.734
 9501SOL    HW229403   3.903   1.961   4.875
 9502SOL     OW29404   6.467   2.026   4.998
 9502SOL    HW129405   6.392   1.959   5.001
 9502SOL    HW229406   6.507   2.025   4.906
 9503SOL     OW29407   0.234   1.005   1.395
 9503SOL    HW129408   0.259   0.912   1.368
 9503SOL    HW229409   0.289   1.071   1.344
 9504SOL     OW29410   6.736   2.690   1.392
 9504SOL    HW129411   6.740   2.786   1.418
 9504SOL    HW229412   6.781   2.677   1.304
 9505SOL     OW29413   6.258   3.493   3.374
 9505SOL    HW129414   6.330   3.435   3.412
 9505SOL    HW229415   6.189   3.434   3.330
 9506SOL     OW29416   0.039   3.215   0.040
 9506SOL    HW129417   0.076   3.280   6.999
 9506SOL    HW229418   6.966   3.230   0.051
 9507SOL     OW29419   2.407   1.326   4.435
 9507SOL    HW129420   2.380   1.233   4.461
 9507SOL    HW229421   2.499   1.345   4.469
 9508SOL     OW29422   5.277   2.353   0.240
 9508SOL    HW129423   5.305   2.309   0.325
 9508SOL    HW229424   5.243   2.446   0.260
 9509SOL     OW29425   1.052   6.804   5.403
 9509SOL    HW129426   1.151   6.814   5.404
 9509SOL    HW229427   1.012   6.873   5.344
 9510SOL     OW29428   7.005   3.605   2.114
 9510SOL    HW129429   6.945   3.674   2.074
 9510SOL    HW229430   7.006   3.523   2.056
 9511SOL     OW29431   0.502   1.984   0.256
 9511SOL    HW129432   0.441   1.911   0.285
 9511SOL    HW229433   0.569   2.004   0.328
 9512SOL     OW29434   6.472   1.821   3.668
 9512SOL    HW129435   6.373   1.815   3.653
 9512SOL    HW229436   6.516   1.737   3.636
 9513SOL     OW29437   1.875   3.884   4.825
 9513SOL    HW129438   1.897   3.957   4.760
 9513SOL    HW229439   1.940   3.809   4.813
 9514SOL     OW29440   1.735   3.867   6.677
 9514SOL    HW129441   1.719   3.916   6.763
 9514SOL    HW229442   1.834   3.856   6.664
 9515SOL     OW29443   1.087   6.051   7.012
 9515SOL    HW129444   1.118   6.146   7.003
 9515SOL    HW229445   0.996   6.049   0.028
 9516SOL     OW29446   4.841   3.241   4.235
 9516SOL    HW129447   4.815   3.178   4.161
 9516SOL    HW229448   4.838   3.192   4.322
 9517SOL     OW29449   0.932   5.006   1.442
 9517SOL    HW129450   0.969   5.001   1.534
 9517SOL    HW229451   0.898   5.099   1.425
 9518SOL     OW29452   1.349   2.656   6.344
 9518SOL    HW129453   1.325   2.632   6.249
 9518SOL    HW229454   1.439   2.619   6.366
 9519SOL     OW29455   3.003   3.551   2.703
 9519SOL    HW129456   2.963   3.472   2.658
 9519SOL    HW229457   3.061   3.601   2.639
 9520SOL     OW29458   6.582   0.954   4.516
 9520SOL    HW129459   6.524   0.888   4.563
 9520SOL    HW229460   6.625   1.015   4.582
 9521SOL     OW29461   2.985   5.190   1.541
 9521SOL    HW129462   2.928   5.109   1.537
 9521SOL    HW229463   3.080   5.164   1.559
 9522SOL     OW29464   4.029   5.478   2.136
 9522SOL    HW129465   4.109   5.462   2.193
 9522SOL    HW229466   3.949   5.495   2.194
 9523SOL     OW29467   2.123   5.115   5.020
 9523SOL    HW129468   2.137   5.167   5.104
 9523SOL    HW229469   2.117   5.178   4.942
 9524SOL     OW29470   1.192   3.480   1.959
 9524SOL    HW129471   1.272   3.540   1.965
 9524SOL    HW229472   1.139   3.486   2.043
 9525SOL     OW29473   1.722   2.329   6.003
 9525SOL    HW129474   1.751   2.234   5.994
 9525SOL    HW229475   1.725   2.373   5.913
 9526SOL     OW29476   5.366   4.689   0.755
 9526SOL    HW129477   5.406   4.714   0.667
 9526SOL    HW229478   5.314   4.767   0.791
 9527SOL     OW29479   2.386   6.656   4.525
 9527SOL    HW129480   2.352   6.724   4.590
 9527SOL    HW229481   2.439   6.701   4.453
 9528SOL     OW29482   5.706   0.983   1.523
 9528SOL    HW129483   5.723   1.048   1.597
 9528SOL    HW229484   5.734   1.024   1.436
 9529SOL     OW29485   6.098   3.500   0.637
 9529SOL    HW129486   6.177   3.479   0.580
 9529SOL    HW229487   6.117   3.474   0.731
 9530SOL     OW29488   1.155   5.617   4.414
 9530SOL    HW129489   1.113   5.530   4.441
 9530SOL    HW229490   1.085   5.678   4.378
 9531SOL     OW29491   4.186   4.731   2.682
 9531SOL    HW129492   4.239   4.810   2.651
 9531SOL    HW229493   4.247   4.655   2.702
 9532SOL     OW29494   6.142   5.040   1.374
 9532SOL    HW129495   6.081   5.117   1.358
 9532SOL    HW229496   6.114   4.991   1.456
 9533SOL     OW29497   0.953   5.751   4.643
 9533SOL    HW129498   1.031   5.786   4.695
 9533SOL    HW229499   0.959   5.783   4.548
 9534SOL     OW29500   5.995   4.536   5.076
 9534SOL    HW129501   5.912   4.490   5.044
 9534SOL    HW229502   6.029   4.596   5.004
 9535SOL     OW29503   1.872   1.898   5.607
 9535SOL    HW129504   1.797   1.859   5.554
 9535SOL    HW229505   1.836   1.952   5.683
 9536SOL     OW29506   3.750   2.934   4.715
 9536SOL    HW129507   3.700   3.005   4.764
 9536SOL    HW229508   3.836   2.915   4.762
 9537SOL     OW29509   3.052   1.565   4.167
 9537SOL    HW129510   3.115   1.609   4.103
 9537SOL    HW229511   3.008   1.634   4.224
 9538SOL     OW29512   4.039   1.124   4.517
 9538SOL    HW129513   4.125   1.100   4.563
 9538SOL    HW229514   4.060   1.163   4.427
 9539SOL     OW29515   3.292   2.901   4.040
 9539SOL    HW129516   3.215   2.965   4.040
 9539SOL    HW229517   3.318   2.881   4.135
 9540SOL     OW29518   4.843   5.186   4.023
 9540SOL    HW129519   4.805   5.158   4.111
 9540SOL    HW229520   4.782   5.252   3.979
 9541SOL     OW29521   1.233   0.924   5.590
 9541SOL    HW129522   1.150   0.966   5.552
 9541SOL    HW229523   1.309   0.939   5.526
 9542SOL     OW29524   5.799   4.740   4.713
 9542SOL    HW129525   5.884   4.722   4.762
 9542SOL    HW229526   5.779   4.838   4.717
 9543SOL     OW29527   2.980   0.216   6.075
 9543SOL    HW129528   2.927   0.141   6.116
 9543SOL    HW229529   2.959   0.221   5.977
 9544SOL     OW29530   4.796   4.001   3.711
 9544SOL    HW129531   4.745   4.054   3.779
 9544SOL    HW229532   4.817   3.910   3.747
 9545SOL     OW29533   0.704   5.545   2.538
 9545SOL    HW129534   0.665   5.472   2.595
 9545SOL    HW229535   0.681   5.528   2.442
 9546SOL     OW29536   3.753   1.955   5.825
 9546SOL    HW129537   3.660   1.923   5.844
 9546SOL    HW229538   3.756   2.055   5.832
 9547SOL     OW29539   2.969   5.894   3.906
 9547SOL    HW129540   3.025   5.821   3.947
 9547SOL    HW229541   2.907   5.930   3.976
 9548SOL     OW29542   0.992   5.280   5.092
 9548SOL    HW129543   1.021   5.248   5.002
 9548SOL    HW229544   0.901   5.321   5.085
 9549SOL     OW29545   3.519   0.501   2.820
 9549SOL    HW129546   3.426   0.532   2.799
 9549SOL    HW229547   3.535   0.507   2.918
 9550SOL     OW29548   6.353   2.523   0.579
 9550SOL    HW129549   6.426   2.546   0.644
 9550SOL    HW229550   6.289   2.459   0.622
 9551SOL     OW29551   6.013   3.152   6.328
 9551SOL    HW129552   6.005   3.085   6.254
 9551SOL    HW229553   5.989   3.109   6.415
 9552SOL     OW29554   2.251   0.506   6.019
 9552SOL    HW129555   2.159   0.513   6.057
 9552SOL    HW229556   2.313   0.470   6.088
 9553SOL     OW29557   5.476   2.114   0.644
 9553SOL    HW129558   5.528   2.060   0.710
 9553SOL    HW229559   5.491   2.079   0.552
 9554SOL     OW29560   2.073   6.815   3.699
 9554SOL    HW129561   2.080   6.876   3.620
 9554SOL    HW229562   1.982   6.825   3.740
 9555SOL     OW29563   0.122   1.461   3.402
 9555SOL    HW129564   0.046   1.521   3.374
 9555SOL    HW229565   0.189   1.514   3.453
 9556SOL     OW29566   1.491   4.782   1.618
 9556SOL    HW129567   1.446   4.702   1.578
 9556SOL    HW229568   1.583   4.757   1.649
 9557SOL     OW29569   4.624   6.891   1.745
 9557SOL    HW129570   4.622   6.972   1.686
 9557SOL    HW229571   4.548   6.831   1.722
 9558SOL     OW29572   5.659   6.358   5.272
 9558SOL    HW129573   5.680   6.260   5.277
 9558SOL    HW229574   5.731   6.404   5.219
 9559SOL     OW29575   1.156   3.954   0.177
 9559SOL    HW129576   1.234   4.016   0.186
 9559SOL    HW229577   1.126   3.925   0.268
 9560SOL     OW29578   2.556   0.939   2.615
 9560SOL    HW129579   2.554   1.011   2.685
 9560SOL    HW229580   2.472   0.942   2.562
 9561SOL     OW29581   0.604   0.922   1.349
 9561SOL    HW129582   0.602   1.016   1.384
 9561SOL    HW229583   0.694   0.882   1.365
 9562SOL     OW29584   3.000   6.548   4.229
 9562SOL    HW129585   3.060   6.622   4.198
 9562SOL    HW229586   3.040   6.502   4.308
 9563SOL     OW29587   0.210   6.660   0.167
 9563SOL    HW129588   0.134   6.719   0.140
 9563SOL    HW229589   0.230   6.675   0.264
 9564SOL     OW29590   2.096   1.528   1.393
 9564SOL    HW129591   2.062   1.459   1.328
 9564SOL    HW229592   2.050   1.615   1.375
 9565SOL     OW29593   3.386   1.415   4.974
 9565SOL    HW129594   3.423   1.471   4.900
 9565SOL    HW229595   3.457   1.397   5.042
 9566SOL     OW29596   2.452   6.005   0.254
 9566SOL    HW129597   2.354   5.991   0.267
 9566SOL    HW229598   2.493   5.923   0.214
 9567SOL     OW29599   5.967   3.983   0.628
 9567SOL    HW129600   6.015   3.912   0.680
 9567SOL    HW229601   5.953   3.953   0.534
 9568SOL     OW29602   4.171   1.117   0.152
 9568SOL    HW129603   4.207   1.032   0.190
 9568SOL    HW229604   4.247   1.172   0.117
 9569SOL     OW29605   0.211   1.033   2.023
 9569SOL    HW129606   0.249   1.073   1.939
 9569SOL    HW229607   0.214   0.933   2.017
 9570SOL     OW29608   0.582   3.121   0.554
 9570SOL    HW129609   0.542   3.182   0.623
 9570SOL    HW229610   0.557   3.027   0.575
 9571SOL     OW29611   2.671   2.832   5.835
 9571SOL    HW129612   2.637   2.770   5.765
 9571SOL    HW229613   2.741   2.892   5.796
 9572SOL     OW29614   2.274   4.982   2.460
 9572SOL    HW129615   2.237   5.016   2.547
 9572SOL    HW229616   2.300   4.886   2.470
 9573SOL     OW29617   6.991   1.637   5.792
 9573SOL    HW129618   6.927   1.572   5.831
 9573SOL    HW229619   0.029   1.669   5.862
 9574SOL     OW29620   3.480   2.785   2.070
 9574SOL    HW129621   3.483   2.698   2.022
 9574SOL    HW229622   3.549   2.846   2.033
 9575SOL     OW29623   6.341   0.684   1.877
 9575SOL    HW129624   6.319   0.642   1.789
 9575SOL    HW229625   6.397   0.766   1.861
 9576SOL     OW29626   1.752   1.939   7.013
 9576SOL    HW129627   1.758   1.923   6.914
 9576SOL    HW229628   1.659   1.967   0.011
 9577SOL     OW29629   0.267   5.872   6.146
 9577SOL    HW129630   0.330   5.859   6.069
 9577SOL    HW229631   0.268   5.968   6.173
 9578SOL     OW29632   1.463   2.829   2.431
 9578SOL    HW129633   1.415   2.911   2.461
 9578SOL    HW229634   1.503   2.783   2.510
 9579SOL     OW29635   0.030   6.219   2.893
 9579SOL    HW129636   0.103   6.154   2.911
 9579SOL    HW229637   0.033   6.247   2.797
 9580SOL     OW29638   5.170   3.743   0.927
 9580SOL    HW129639   5.133   3.681   0.996
 9580SOL    HW229640   5.250   3.790   0.965
 9581SOL     OW29641   0.712   0.206   6.383
 9581SOL    HW129642   0.804   0.243   6.366
 9581SOL    HW229643   0.651   0.281   6.409
 9582SOL     OW29644   3.776   5.819   4.804
 9582SOL    HW129645   3.777   5.755   4.728
 9582SOL    HW229646   3.752   5.771   4.888
 9583SOL     OW29647   2.969   4.285   1.053
 9583SOL    HW129648   2.997   4.202   1.004
 9583SOL    HW229649   3.046   4.349   1.056
 9584SOL     OW29650   1.084   4.970   5.976
 9584SOL    HW129651   1.135   4.919   5.907
 9584SOL    HW229652   1.035   4.906   6.036
 9585SOL     OW29653   5.374   6.438   2.291
 9585SOL    HW129654   5.333   6.496   2.221
 9585SOL    HW229655   5.374   6.487   2.378
 9586SOL     OW29656   4.226   5.399   2.295
 9586SOL    HW129657   4.257   5.452   2.374
 9586SOL    HW229658   4.207   5.305   2.323
 9587SOL     OW29659   0.927   6.727   2.065
 9587SOL    HW129660   0.854   6.706   2.130
 9587SOL    HW229661   1.009   6.757   2.115
 9588SOL     OW29662   5.964   5.952   0.280
 9588SOL    HW129663   5.866   5.938   0.265
 9588SOL    HW229664   5.989   6.044   0.251
 9589SOL     OW29665   1.748   4.145   0.068
 9589SOL    HW129666   1.695   4.166   0.150
 9589SOL    HW229667   1.838   4.112   0.093
 9590SOL     OW29668   6.087   2.627   1.859
 9590SOL    HW129669   6.032   2.625   1.775
 9590SOL    HW229670   6.062   2.549   1.917
 9591SOL     OW29671   3.956   5.876   6.448
 9591SOL    HW129672   3.943   5.927   6.363
 9591SOL    HW229673   3.870   5.832   6.474
 9592SOL     OW29674   3.215   5.223   1.137
 9592SOL    HW129675   3.157   5.272   1.201
 9592SOL    HW229676   3.275   5.289   1.090
 9593SOL     OW29677   0.979   1.631   5.793
 9593SOL    HW129678   0.980   1.647   5.694
 9593SOL    HW229679   0.977   1.718   5.841
 9594SOL     OW29680   2.389   6.245   4.537
 9594SOL    HW129681   2.481   6.240   4.575
 9594SOL    HW229682   2.390   6.301   4.454
 9595SOL     OW29683   0.703   2.633   3.890
 9595SOL    HW129684   0.631   2.699   3.869
 9595SOL    HW229685   0.667   2.540   3.876
 9596SOL     OW29686   0.979   5.157   0.517
 9596SOL    HW129687   0.919   5.081   0.541
 9596SOL    HW229688   0.951   5.195   0.429
 9597SOL     OW29689   0.234   4.123   1.606
 9597SOL    HW129690   0.260   4.029   1.584
 9597SOL    HW229691   0.197   4.127   1.699
 9598SOL     OW29692   2.278   4.092   3.505
 9598SOL    HW129693   2.246   4.103   3.411
 9598SOL    HW229694   2.281   3.995   3.528
 9599SOL     OW29695   3.178   0.301   4.037
 9599SOL    HW129696   3.226   0.282   3.952
 9599SOL    HW229697   3.222   0.377   4.085
 9600SOL     OW29698   2.845   0.305   0.014
 9600SOL    HW129699   2.905   0.326   6.962
 9600SOL    HW229700   2.797   0.387   0.042
 9601SOL     OW29701   5.336   4.338   0.376
 9601SOL    HW129702   5.305   4.428   0.408
 9601SOL    HW229703   5.259   4.274   0.377
 9602SOL     OW29704   4.889   3.942   5.392
 9602SOL    HW129705   4.831   4.024   5.387
 9602SOL    HW229706   4.834   3.865   5.424
 9603SOL     OW29707   5.040   6.723   6.775
 9603SOL    HW129708   5.090   6.798   6.818
 9603SOL    HW229709   5.056   6.639   6.826
 9604SOL     OW29710   4.978   6.936   1.173
 9604SOL    HW129711   4.891   6.987   1.170
 9604SOL    HW229712   4.959   6.840   1.191
 9605SOL     OW29713   1.049   5.094   3.177
 9605SOL    HW129714   0.952   5.112   3.161
 9605SOL    HW229715   1.097   5.089   3.089
 9606SOL     OW29716   1.205   6.736   6.648
 9606SOL    HW129717   1.146   6.672   6.598
 9606SOL    HW229718   1.284   6.686   6.685
 9607SOL     OW29719   2.902   1.041   0.060
 9607SOL    HW129720   2.813   1.010   0.025
 9607SOL    HW229721   2.939   1.111   7.024
 9608SOL     OW29722   0.315   4.634   2.099
 9608SOL    HW129723   0.283   4.679   2.015
 9608SOL    HW229724   0.380   4.562   2.075
 9609SOL     OW29725   3.692   2.950   0.514
 9609SOL    HW129726   3.626   3.023   0.498
 9609SOL    HW229727   3.711   2.942   0.612
 9610SOL     OW29728   1.636   4.519   3.598
 9610SOL    HW129729   1.575   4.464   3.541
 9610SOL    HW229730   1.633   4.486   3.692
 9611SOL     OW29731   1.484   6.320   0.854
 9611SOL    HW129732   1.410   6.268   0.812
 9611SOL    HW229733   1.553   6.258   0.892
 9612SOL     OW29734   0.271   3.098   1.821
 9612SOL    HW129735   0.259   3.197   1.819
 9612SOL    HW229736   0.365   3.075   1.793
 9613SOL     OW29737   4.926   6.416   3.930
 9613SOL    HW129738   4.966   6.340   3.878
 9613SOL    HW229739   4.922   6.392   4.027
 9614SOL     OW29740   3.716   2.042   1.762
 9614SOL    HW129741   3.704   2.038   1.663
 9614SOL    HW229742   3.699   2.136   1.794
 9615SOL     OW29743   1.990   1.307   1.294
 9615SOL    HW129744   1.931   1.257   1.357
 9615SOL    HW229745   1.955   1.297   1.201
 9616SOL     OW29746   3.670   3.821   1.048
 9616SOL    HW129747   3.572   3.840   1.059
 9616SOL    HW229748   3.722   3.874   1.114
 9617SOL     OW29749   1.863   3.270   3.316
 9617SOL    HW129750   1.960   3.256   3.296
 9617SOL    HW229751   1.852   3.347   3.378
 9618SOL     OW29752   2.616   0.045   0.709
 9618SOL    HW129753   2.630   0.038   0.610
 9618SOL    HW229754   2.703   0.066   0.753
 9619SOL     OW29755   1.909   0.305   6.029
 9619SOL    HW129756   1.980   0.305   5.958
 9619SOL    HW229757   1.838   0.238   6.004
 9620SOL     OW29758   4.330   6.793   5.295
 9620SOL    HW129759   4.294   6.701   5.311
 9620SOL    HW229760   4.328   6.845   5.380
 9621SOL     OW29761   1.995   2.951   1.911
 9621SOL    HW129762   2.001   2.885   1.837
 9621SOL    HW229763   1.926   3.021   1.889
 9622SOL     OW29764   6.505   1.603   0.412
 9622SOL    HW129765   6.501   1.696   0.377
 9622SOL    HW229766   6.443   1.545   0.359
 9623SOL     OW29767   2.678   3.374   5.438
 9623SOL    HW129768   2.743   3.319   5.385
 9623SOL    HW229769   2.718   3.464   5.456
 9624SOL     OW29770   6.025   3.949   2.758
 9624SOL    HW129771   6.121   3.973   2.771
 9624SOL    HW229772   6.010   3.924   2.662
 9625SOL     OW29773   5.237   5.249   6.782
 9625SOL    HW129774   5.281   5.181   6.842
 9625SOL    HW229775   5.275   5.339   6.801
 9626SOL     OW29776   4.558   5.097   0.727
 9626SOL    HW129777   4.537   5.125   0.633
 9626SOL    HW229778   4.652   5.063   0.732
 9627SOL     OW29779   0.612   5.929   6.171
 9627SOL    HW129780   0.659   5.935   6.259
 9627SOL    HW229781   0.667   5.875   6.107
 9628SOL     OW29782   5.241   4.877   0.881
 9628SOL    HW129783   5.282   4.845   0.967
 9628SOL    HW229784   5.257   4.975   0.871
 9629SOL     OW29785   1.766   0.356   1.309
 9629SOL    HW129786   1.840   0.345   1.375
 9629SOL    HW229787   1.679   0.363   1.356
 9630SOL     OW29788   6.283   6.748   4.452
 9630SOL    HW129789   6.193   6.708   4.436
 9630SOL    HW229790   6.290   6.778   4.547
 9631SOL     OW29791   6.912   6.467   6.440
 9631SOL    HW129792   6.896   6.376   6.478
 9631SOL    HW229793   6.956   6.458   6.350
 9632SOL     OW29794   1.770   6.728   2.943
 9632SOL    HW129795   1.670   6.733   2.951
 9632SOL    HW229796   1.803   6.808   2.893
 9633SOL     OW29797   5.052   5.019   6.443
 9633SOL    HW129798   5.059   4.922   6.467
 9633SOL    HW229799   5.119   5.040   6.372
 9634SOL     OW29800   1.495   6.254   3.937
 9634SOL    HW129801   1.525   6.222   4.027
 9634SOL    HW229802   1.563   6.231   3.868
 9635SOL     OW29803   2.059   6.168   5.269
 9635SOL    HW129804   2.098   6.195   5.181
 9635SOL    HW229805   2.049   6.069   5.273
 9636SOL     OW29806   4.150   1.696   5.551
 9636SOL    HW129807   4.130   1.599   5.539
 9636SOL    HW229808   4.074   1.739   5.600
 9637SOL     OW29809   2.578   2.649   6.188
 9637SOL    HW129810   2.586   2.743   6.221
 9637SOL    HW229811   2.540   2.649   6.096
 9638SOL     OW29812   0.257   3.758   6.286
 9638SOL    HW129813   0.353   3.778   6.304
 9638SOL    HW229814   0.219   3.706   6.362
 9639SOL     OW29815   3.912   1.853   2.135
 9639SOL    HW129816   3.999   1.804   2.141
 9639SOL    HW229817   3.852   1.807   2.070
 9640SOL     OW29818   2.358   2.733   4.067
 9640SOL    HW129819   2.261   2.748   4.045
 9640SOL    HW229820   2.371   2.638   4.094
 9641SOL     OW29821   4.384   6.951   0.551
 9641SOL    HW129822   4.381   0.015   0.597
 9641SOL    HW229823   4.421   6.883   0.614
 9642SOL     OW29824   2.992   0.094   4.689
 9642SOL    HW129825   2.908   0.148   4.680
 9642SOL    HW229826   3.028   0.074   4.598
 9643SOL     OW29827   5.363   4.374   3.672
 9643SOL    HW129828   5.458   4.378   3.704
 9643SOL    HW229829   5.348   4.288   3.622
 9644SOL     OW29830   1.046   4.015   6.225
 9644SOL    HW129831   1.137   3.973   6.221
 9644SOL    HW229832   1.009   4.007   6.317
 9645SOL     OW29833   2.498   5.153   4.878
 9645SOL    HW129834   2.547   5.073   4.913
 9645SOL    HW229835   2.468   5.136   4.785
 9646SOL     OW29836   3.508   4.911   2.440
 9646SOL    HW129837   3.586   4.921   2.502
 9646SOL    HW229838   3.424   4.936   2.489
 9647SOL     OW29839   6.321   4.547   1.245
 9647SOL    HW129840   6.373   4.632   1.235
 9647SOL    HW229841   6.223   4.567   1.235
 9648SOL     OW29842   4.412   1.399   0.890
 9648SOL    HW129843   4.497   1.350   0.910
 9648SOL    HW229844   4.356   1.403   0.972
 9649SOL     OW29845   2.774   0.038   6.994
 9649SOL    HW129846   2.801   0.132   7.018
 9649SOL    HW229847   2.789   7.004   0.048
 9650SOL     OW29848   6.889   5.109   2.137
 9650SOL    HW129849   6.946   5.076   2.063
 9650SOL    HW229850   6.926   5.078   2.225
 9651SOL     OW29851   0.022   2.104   5.993
 9651SOL    HW129852   6.964   2.146   6.029
 9651SOL    HW229853   0.066   2.051   6.065
 9652SOL     OW29854   1.154   4.715   1.432
 9652SOL    HW129855   1.145   4.757   1.523
 9652SOL    HW229856   1.151   4.786   1.362
 9653SOL     OW29857   4.057   4.849   5.052
 9653SOL    HW129858   3.986   4.919   5.050
 9653SOL    HW229859   4.114   4.858   4.971
 9654SOL     OW29860   2.873   2.176   1.506
 9654SOL    HW129861   2.810   2.195   1.431
 9654SOL    HW229862   2.854   2.237   1.583
 9655SOL     OW29863   0.300   1.427   6.323
 9655SOL    HW129864   0.322   1.506   6.379
 9655SOL    HW229865   0.294   1.346   6.380
 9656SOL     OW29866   2.079   0.668   2.526
 9656SOL    HW129867   2.019   0.634   2.454
 9656SOL    HW229868   2.032   0.664   2.615
 9657SOL     OW29869   5.573   0.869   4.240
 9657SOL    HW129870   5.509   0.864   4.163
 9657SOL    HW229871   5.588   0.778   4.277
 9658SOL     OW29872   0.239   2.049   2.505
 9658SOL    HW129873   0.155   2.003   2.476
 9658SOL    HW229874   0.226   2.087   2.596
 9659SOL     OW29875   6.685   4.342   0.338
 9659SOL    HW129876   6.681   4.434   0.299
 9659SOL    HW229877   6.743   4.343   0.419
 9660SOL     OW29878   0.391   6.225   0.723
 9660SOL    HW129879   0.425   6.217   0.817
 9660SOL    HW229880   0.343   6.312   0.712
 9661SOL     OW29881   4.506   5.860   1.123
 9661SOL    HW129882   4.472   5.924   1.055
 9661SOL    HW229883   4.600   5.833   1.100
 9662SOL     OW29884   6.370   2.937   4.597
 9662SOL    HW129885   6.278   2.967   4.622
 9662SOL    HW229886   6.423   2.919   4.679
 9663SOL     OW29887   1.613   5.562   3.928
 9663SOL    HW129888   1.606   5.472   3.971
 9663SOL    HW229889   1.536   5.619   3.957
 9664SOL     OW29890   4.894   0.007   2.934
 9664SOL    HW129891   4.961   6.977   2.982
 9664SOL    HW229892   4.912   0.005   2.836
 9665SOL     OW29893   6.077   4.969   5.766
 9665SOL    HW129894   5.994   4.921   5.735
 9665SOL    HW229895   6.154   4.905   5.766
 9666SOL     OW29896   5.877   3.997   1.126
 9666SOL    HW129897   5.968   4.029   1.100
 9666SOL    HW229898   5.832   3.958   1.046
 9667SOL     OW29899   4.124   3.358   4.378
 9667SOL    HW129900   4.095   3.288   4.444
 9667SOL    HW229901   4.107   3.325   4.286
 9668SOL     OW29902   6.600   1.386   5.768
 9668SOL    HW129903   6.673   1.347   5.712
 9668SOL    HW229904   6.526   1.418   5.710
 9669SOL     OW29905   0.544   1.296   1.014
 9669SOL    HW129906   0.505   1.266   0.928
 9669SOL    HW229907   0.535   1.396   1.022
 9670SOL     OW29908   4.148   4.692   5.710
 9670SOL    HW129909   4.105   4.782   5.702
 9670SOL    HW229910   4.131   4.654   5.801
 9671SOL     OW29911   6.911   5.017   6.247
 9671SOL    HW129912   6.921   5.030   6.149
 9671SOL    HW229913   6.887   5.104   6.290
 9672SOL     OW29914   1.032   6.728   5.065
 9672SOL    HW129915   0.940   6.717   5.103
 9672SOL    HW229916   1.051   6.825   5.054
 9673SOL     OW29917   3.804   5.015   6.992
 9673SOL    HW129918   3.844   5.102   7.021
 9673SOL    HW229919   3.862   4.971   6.924
 9674SOL     OW29920   2.825   6.508   2.292
 9674SOL    HW129921   2.921   6.530   2.275
 9674SOL    HW229922   2.769   6.587   2.269
 9675SOL     OW29923   6.125   0.771   2.377
 9675SOL    HW129924   6.036   0.818   2.373
 9675SOL    HW229925   6.112   0.674   2.356
 9676SOL     OW29926   1.668   3.751   5.882
 9676SOL    HW129927   1.619   3.740   5.796
 9676SOL    HW229928   1.668   3.665   5.933
 9677SOL     OW29929   2.128   4.116   5.961
 9677SOL    HW129930   2.079   4.148   5.880
 9677SOL    HW229931   2.110   4.178   6.038
 9678SOL     OW29932   3.786   3.831   2.945
 9678SOL    HW129933   3.755   3.740   2.916
 9678SOL    HW229934   3.745   3.900   2.886
 9679SOL     OW29935   0.820   2.512   1.996
 9679SOL    HW129936   0.871   2.584   1.948
 9679SOL    HW229937   0.872   2.426   1.992
 9680SOL     OW29938   5.744   6.825   3.661
 9680SOL    HW129939   5.722   6.857   3.569
 9680SOL    HW229940   5.831   6.776   3.660
 9681SOL     OW29941   2.039   0.919   1.318
 9681SOL    HW129942   1.964   0.983   1.299
 9681SOL    HW229943   2.117   0.969   1.356
 9682SOL     OW29944   4.600   5.067   3.203
 9682SOL    HW129945   4.676   5.004   3.188
 9682SOL    HW229946   4.619   5.123   3.284
 9683SOL     OW29947   4.069   5.332   0.692
 9683SOL    HW129948   3.987   5.282   0.665
 9683SOL    HW229949   4.149   5.292   0.648
 9684SOL     OW29950   0.332   3.703   4.980
 9684SOL    HW129951   0.431   3.718   4.982
 9684SOL    HW229952   0.292   3.738   5.065
 9685SOL     OW29953   2.479   2.800   1.099
 9685SOL    HW129954   2.551   2.784   1.031
 9685SOL    HW229955   2.511   2.771   1.189
 9686SOL     OW29956   6.777   1.256   0.932
 9686SOL    HW129957   6.838   1.334   0.945
 9686SOL    HW229958   6.707   1.279   0.865
 9687SOL     OW29959   2.079   0.699   2.853
 9687SOL    HW129960   2.049   0.791   2.829
 9687SOL    HW229961   2.163   0.705   2.908
 9688SOL     OW29962   7.009   2.387   2.914
 9688SOL    HW129963   6.995   2.333   2.997
 9688SOL    HW229964   0.078   2.419   2.910
 9689SOL     OW29965   1.923   6.937   0.591
 9689SOL    HW129966   1.957   6.930   0.497
 9689SOL    HW229967   1.824   6.924   0.591
 9690SOL     OW29968   5.714   4.509   6.810
 9690SOL    HW129969   5.796   4.565   6.798
 9690SOL    HW229970   5.678   4.483   6.721
 9691SOL     OW29971   2.244   5.211   1.983
 9691SOL    HW129972   2.207   5.285   2.039
 9691SOL    HW229973   2.312   5.160   2.036
 9692SOL     OW29974   2.569   5.314   2.840
 9692SOL    HW129975   2.621   5.275   2.764
 9692SOL    HW229976   2.606   5.403   2.865
 9693SOL     OW29977   0.231   5.670   1.979
 9693SOL    HW129978   0.206   5.763   1.952
 9693SOL    HW229979   0.189   5.649   2.067
 9694SOL     OW29980   2.190   2.043   6.492
 9694SOL    HW129981   2.198   2.121   6.555
 9694SOL    HW229982   2.275   2.034   6.440
 9695SOL     OW29983   6.039   4.215   0.735
 9695SOL    HW129984   6.005   4.133   0.688
 9695SOL    HW229985   6.066   4.284   0.668
 9696SOL     OW29986   4.031   2.512   1.407
 9696SOL    HW129987   4.077   2.550   1.488
 9696SOL    HW229988   3.986   2.586   1.357
 9697SOL     OW29989   0.740   4.947   0.132
 9697SOL    HW129990   0.756   4.996   0.047
 9697SOL    HW229991   0.827   4.935   0.180
 9698SOL     OW29992   5.931   0.550   5.195
 9698SOL    HW129993   5.959   0.463   5.235
 9698SOL    HW229994   5.967   0.625   5.250
 9699SOL     OW29995   0.640   3.916   5.643
 9699SOL    HW129996   0.659   3.883   5.550
 9699SOL    HW229997   0.542   3.922   5.657
 9700SOL     OW29998   3.496   4.762   5.418
 9700SOL    HW129999   3.438   4.820   5.361
 9700SOL    HW230000   3.474   4.666   5.401
 9701SOL     OW30001   3.877   5.730   5.264
 9701SOL    HW130002   3.803   5.711   5.201
 9701SOL    HW230003   3.954   5.770   5.215
 9702SOL     OW30004   5.339   1.091   0.417
 9702SOL    HW130005   5.432   1.053   0.414
 9702SOL    HW230006   5.317   1.133   0.329
 9703SOL     OW30007   2.906   6.237   4.582
 9703SOL    HW130008   2.996   6.195   4.574
 9703SOL    HW230009   2.855   6.224   4.497
 9704SOL     OW30010   3.152   6.989   2.952
 9704SOL    HW130011   3.218   6.966   2.881
 9704SOL    HW230012   3.073   0.009   2.911
 9705SOL     OW30013   4.656   4.913   0.162
 9705SOL    HW130014   4.572   4.873   0.197
 9705SOL    HW230015   4.642   4.942   0.067
 9706SOL     OW30016   6.631   2.310   0.892
 9706SOL    HW130017   6.704   2.255   0.852
 9706SOL    HW230018   6.631   2.300   0.991
 9707SOL     OW30019   0.910   4.240   2.005
 9707SOL    HW130020   0.890   4.145   2.028
 9707SOL    HW230021   0.936   4.246   1.908
 9708SOL     OW30022   2.186   2.873   3.607
 9708SOL    HW130023   2.257   2.814   3.646
 9708SOL    HW230024   2.128   2.820   3.545
 9709SOL     OW30025   0.902   6.053   3.628
 9709SOL    HW130026   0.963   6.051   3.549
 9709SOL    HW230027   0.836   5.978   3.620
 9710SOL     OW30028   0.639   0.760   2.358
 9710SOL    HW130029   0.625   0.662   2.370
 9710SOL    HW230030   0.596   0.790   2.273
 9711SOL     OW30031   1.472   3.244   6.083
 9711SOL    HW130032   1.434   3.197   6.003
 9711SOL    HW230033   1.471   3.183   6.162
 9712SOL     OW30034   5.403   2.810   5.085
 9712SOL    HW130035   5.359   2.729   5.047
 9712SOL    HW230036   5.369   2.892   5.038
 9713SOL     OW30037   0.183   4.549   2.967
 9713SOL    HW130038   0.143   4.521   3.054
 9713SOL    HW230039   0.230   4.470   2.926
 9714SOL     OW30040   1.587   1.860   1.515
 9714SOL    HW130041   1.522   1.873   1.590
 9714SOL    HW230042   1.636   1.945   1.498
 9715SOL     OW30043   6.709   5.637   4.626
 9715SOL    HW130044   6.643   5.594   4.564
 9715SOL    HW230045   6.662   5.708   4.679
 9716SOL     OW30046   3.724   2.038   6.749
 9716SOL    HW130047   3.724   1.952   6.699
 9716SOL    HW230048   3.631   2.062   6.775
 9717SOL     OW30049   5.320   5.994   4.453
 9717SOL    HW130050   5.329   5.896   4.475
 9717SOL    HW230051   5.395   6.044   4.495
 9718SOL     OW30052   4.254   2.775   1.463
 9718SOL    HW130053   4.323   2.809   1.527
 9718SOL    HW230054   4.179   2.841   1.458
 9719SOL     OW30055   0.855   2.288   0.410
 9719SOL    HW130056   0.936   2.240   0.378
 9719SOL    HW230057   0.831   2.361   0.345
 9720SOL     OW30058   0.519   6.304   1.685
 9720SOL    HW130059   0.595   6.357   1.721
 9720SOL    HW230060   0.452   6.288   1.758
 9721SOL     OW30061   0.784   3.022   2.236
 9721SOL    HW130062   0.765   2.972   2.321
 9721SOL    HW230063   0.838   3.103   2.256
 9722SOL     OW30064   0.800   0.433   3.506
 9722SOL    HW130065   0.715   0.482   3.525
 9722SOL    HW230066   0.790   0.380   3.422
 9723SOL     OW30067   0.874   6.618   2.675
 9723SOL    HW130068   0.780   6.649   2.689
 9723SOL    HW230069   0.937   6.676   2.727
 9724SOL     OW30070   2.981   2.867   1.579
 9724SOL    HW130071   2.916   2.797   1.605
 9724SOL    HW230072   3.074   2.831   1.587
 9725SOL     OW30073   4.141   3.415   6.144
 9725SOL    HW130074   4.076   3.373   6.208
 9725SOL    HW230075   4.210   3.466   6.195
 9726SOL     OW30076   5.365   0.332   4.862
 9726SOL    HW130077   5.301   0.262   4.895
 9726SOL    HW230078   5.444   0.336   4.923
 9727SOL     OW30079   1.352   3.936   5.377
 9727SOL    HW130080   1.321   3.998   5.448
 9727SOL    HW230081   1.431   3.975   5.330
 9728SOL     OW30082   1.816   6.427   6.627
 9728SOL    HW130083   1.786   6.435   6.722
 9728SOL    HW230084   1.849   6.516   6.595
 9729SOL     OW30085   1.426   4.751   3.347
 9729SOL    HW130086   1.428   4.655   3.373
 9729SOL    HW230087   1.388   4.806   3.422
 9730SOL     OW30088   0.177   3.447   2.578
 9730SOL    HW130089   0.132   3.474   2.493
 9730SOL    HW230090   0.123   3.480   2.656
 9731SOL     OW30091   4.125   5.075   0.866
 9731SOL    HW130092   4.128   5.037   0.773
 9731SOL    HW230093   4.147   5.003   0.932
 9732SOL     OW30094   6.762   6.500   2.848
 9732SOL    HW130095   6.664   6.519   2.853
 9732SOL    HW230096   6.777   6.402   2.862
 9733SOL     OW30097   6.032   5.052   4.578
 9733SOL    HW130098   6.127   5.079   4.568
 9733SOL    HW230099   5.993   5.096   4.660
 9734SOL     OW30100   5.422   1.544   3.971
 9734SOL    HW130101   5.399   1.539   3.873
 9734SOL    HW230102   5.441   1.452   4.005
 9735SOL     OW30103   2.230   5.066   2.739
 9735SOL    HW130104   2.146   5.121   2.745
 9735SOL    HW230105   2.295   5.097   2.808
 9736SOL     OW30106   5.130   1.023   6.776
 9736SOL    HW130107   5.159   1.060   6.688
 9736SOL    HW230108   5.089   1.096   6.831
 9737SOL     OW30109   4.418   2.356   4.940
 9737SOL    HW130110   4.408   2.411   4.857
 9737SOL    HW230111   4.330   2.314   4.963
 9738SOL     OW30112   1.955   0.485   2.764
 9738SOL    HW130113   2.005   0.561   2.804
 9738SOL    HW230114   1.857   0.499   2.776
 9739SOL     OW30115   0.398   4.981   1.289
 9739SOL    HW130116   0.345   4.951   1.369
 9739SOL    HW230117   0.494   4.994   1.315
 9740SOL     OW30118   5.848   3.523   3.152
 9740SOL    HW130119   5.780   3.501   3.223
 9740SOL    HW230120   5.940   3.520   3.192
 9741SOL     OW30121   4.484   1.280   2.986
 9741SOL    HW130122   4.399   1.243   2.948
 9741SOL    HW230123   4.470   1.299   3.083
 9742SOL     OW30124   5.096   0.129   3.251
 9742SOL    HW130125   5.082   0.121   3.349
 9742SOL    HW230126   5.092   0.225   3.224
 9743SOL     OW30127   1.863   2.665   5.771
 9743SOL    HW130128   1.944   2.665   5.830
 9743SOL    HW230129   1.795   2.728   5.809
 9744SOL     OW30130   1.195   0.591   2.291
 9744SOL    HW130131   1.243   0.530   2.354
 9744SOL    HW230132   1.253   0.670   2.270
 9745SOL     OW30133   0.626   2.394   5.434
 9745SOL    HW130134   0.593   2.317   5.489
 9745SOL    HW230135   0.716   2.371   5.397
 9746SOL     OW30136   5.290   1.091   5.153
 9746SOL    HW130137   5.243   1.005   5.172
 9746SOL    HW230138   5.324   1.130   5.238
 9747SOL     OW30139   1.644   1.308   0.912
 9747SOL    HW130140   1.602   1.295   1.002
 9747SOL    HW230141   1.623   1.230   0.854
 9748SOL     OW30142   1.133   6.481   5.194
 9748SOL    HW130143   1.048   6.468   5.244
 9748SOL    HW230144   1.132   6.570   5.148
 9749SOL     OW30145   1.211   2.771   5.711
 9749SOL    HW130146   1.199   2.735   5.803
 9749SOL    HW230147   1.309   2.785   5.692
 9750SOL     OW30148   5.652   4.815   3.763
 9750SOL    HW130149   5.746   4.781   3.764
 9750SOL    HW230150   5.650   4.909   3.798
 9751SOL     OW30151   2.059   2.106   1.015
 9751SOL    HW130152   2.148   2.085   0.976
 9751SOL    HW230153   2.020   2.024   1.056
 9752SOL     OW30154   4.786   0.615   6.195
 9752SOL    HW130155   4.853   0.567   6.251
 9752SOL    HW230156   4.695   0.577   6.209
 9753SOL     OW30157   6.673   6.271   4.906
 9753SOL    HW130158   6.772   6.288   4.902
 9753SOL    HW230159   6.653   6.184   4.861
 9754SOL     OW30160   1.445   1.825   6.882
 9754SOL    HW130161   1.420   1.757   6.950
 9754SOL    HW230162   1.521   1.791   6.827
 9755SOL     OW30163   4.183   3.660   5.056
 9755SOL    HW130164   4.199   3.691   4.962
 9755SOL    HW230165   4.137   3.571   5.055
 9756SOL     OW30166   5.754   3.090   0.037
 9756SOL    HW130167   5.678   3.138   7.019
 9756SOL    HW230168   5.777   3.009   7.009
 9757SOL     OW30169   5.145   3.219   3.587
 9757SOL    HW130170   5.207   3.145   3.614
 9757SOL    HW230171   5.174   3.256   3.499
 9758SOL     OW30172   2.085   0.247   5.788
 9758SOL    HW130173   2.142   0.316   5.745
 9758SOL    HW230174   2.002   0.233   5.733
 9759SOL     OW30175   2.031   6.719   0.903
 9759SOL    HW130176   1.952   6.770   0.937
 9759SOL    HW230177   2.015   6.693   0.807
 9760SOL     OW30178   5.388   4.507   4.864
 9760SOL    HW130179   5.485   4.499   4.843
 9760SOL    HW230180   5.374   4.583   4.927
 9761SOL     OW30181   6.067   5.287   1.320
 9761SOL    HW130182   6.093   5.380   1.294
 9761SOL    HW230183   5.981   5.290   1.371
 9762SOL     OW30184   2.205   2.068   4.477
 9762SOL    HW130185   2.188   2.141   4.542
 9762SOL    HW230186   2.119   2.037   4.438
 9763SOL     OW30187   4.706   1.234   1.642
 9763SOL    HW130188   4.749   1.239   1.552
 9763SOL    HW230189   4.655   1.149   1.651
 9764SOL     OW30190   1.817   2.459   3.546
 9764SOL    HW130191   1.739   2.471   3.484
 9764SOL    HW230192   1.784   2.427   3.635
 9765SOL     OW30193   6.743   1.953   5.478
 9765SOL    HW130194   6.837   1.917   5.474
 9765SOL    HW230195   6.736   2.017   5.555
 9766SOL     OW30196   2.920   1.040   3.228
 9766SOL    HW130197   2.964   1.001   3.309
 9766SOL    HW230198   2.969   1.122   3.200
 9767SOL     OW30199   5.393   1.829   4.960
 9767SOL    HW130200   5.467   1.817   5.025
 9767SOL    HW230201   5.306   1.805   5.004
 9768SOL     OW30202   4.769   2.098   2.562
 9768SOL    HW130203   4.800   2.192   2.553
 9768SOL    HW230204   4.837   2.036   2.522
 9769SOL     OW30205   1.103   2.820   1.168
 9769SOL    HW130206   1.194   2.810   1.128
 9769SOL    HW230207   1.111   2.862   1.259
 9770SOL     OW30208   6.069   5.406   5.596
 9770SOL    HW130209   6.142   5.338   5.605
 9770SOL    HW230210   6.066   5.462   5.679
 9771SOL     OW30211   4.451   4.518   1.113
 9771SOL    HW130212   4.460   4.568   1.199
 9771SOL    HW230213   4.403   4.574   1.046
 9772SOL     OW30214   7.004   6.798   1.676
 9772SOL    HW130215   6.973   6.716   1.724
 9772SOL    HW230216   0.054   6.774   1.615
 9773SOL     OW30217   5.611   5.589   3.802
 9773SOL    HW130218   5.652   5.535   3.875
 9773SOL    HW230219   5.521   5.551   3.780
 9774SOL     OW30220   5.930   4.809   3.753
 9774SOL    HW130221   5.995   4.827   3.827
 9774SOL    HW230222   5.962   4.852   3.669
 9775SOL     OW30223   1.888   2.600   4.801
 9775SOL    HW130224   1.893   2.509   4.759
 9775SOL    HW230225   1.795   2.618   4.832
 9776SOL     OW30226   6.991   5.550   4.166
 9776SOL    HW130227   6.959   5.466   4.210
 9776SOL    HW230228   6.966   5.629   4.222
 9777SOL     OW30229   6.198   4.608   6.259
 9777SOL    HW130230   6.205   4.510   6.242
 9777SOL    HW230231   6.214   4.658   6.173
 9778SOL     OW30232   4.700   0.120   3.455
 9778SOL    HW130233   4.606   0.140   3.480
 9778SOL    HW230234   4.761   0.145   3.530
 9779SOL     OW30235   2.598   1.442   4.704
 9779SOL    HW130236   2.687   1.482   4.728
 9779SOL    HW230237   2.540   1.511   4.661
 9780SOL     OW30238   2.128   2.921   0.248
 9780SOL    HW130239   2.158   2.893   0.339
 9780SOL    HW230240   2.040   2.878   0.228
 9781SOL     OW30241   1.569   4.408   4.586
 9781SOL    HW130242   1.580   4.411   4.486
 9781SOL    HW230243   1.505   4.335   4.610
 9782SOL     OW30244   6.645   0.349   1.106
 9782SOL    HW130245   6.687   0.259   1.120
 9782SOL    HW230246   6.716   0.419   1.103
 9783SOL     OW30247   5.793   0.696   1.348
 9783SOL    HW130248   5.863   0.725   1.283
 9783SOL    HW230249   5.710   0.749   1.333
 9784SOL     OW30250   4.442   1.147   3.513
 9784SOL    HW130251   4.495   1.217   3.560
 9784SOL    HW230252   4.348   1.180   3.500
 9785SOL     OW30253   0.187   2.793   2.718
 9785SOL    HW130254   0.133   2.793   2.802
 9785SOL    HW230255   0.141   2.738   2.648
 9786SOL     OW30256   2.226   5.136   5.985
 9786SOL    HW130257   2.309   5.180   6.017
 9786SOL    HW230258   2.248   5.044   5.950
 9787SOL     OW30259   5.119   3.933   1.767
 9787SOL    HW130260   5.171   3.925   1.852
 9787SOL    HW230261   5.022   3.915   1.785
 9788SOL     OW30262   0.122   6.839   4.115
 9788SOL    HW130263   0.177   6.905   4.166
 9788SOL    HW230264   0.182   6.770   4.074
 9789SOL     OW30265   2.305   5.603   5.778
 9789SOL    HW130266   2.297   5.638   5.685
 9789SOL    HW230267   2.286   5.677   5.843
 9790SOL     OW30268   5.517   1.945   4.327
 9790SOL    HW130269   5.525   1.890   4.243
 9790SOL    HW230270   5.550   2.038   4.309
 9791SOL     OW30271   1.563   1.226   1.150
 9791SOL    HW130272   1.572   1.293   1.223
 9791SOL    HW230273   1.578   1.134   1.187
 9792SOL     OW30274   4.810   4.712   1.351
 9792SOL    HW130275   4.778   4.755   1.267
 9792SOL    HW230276   4.816   4.613   1.337
 9793SOL     OW30277   5.498   6.351   2.970
 9793SOL    HW130278   5.589   6.378   2.999
 9793SOL    HW230279   5.432   6.422   2.995
 9794SOL     OW30280   5.184   3.066   6.057
 9794SOL    HW130281   5.111   3.001   6.038
 9794SOL    HW230282   5.159   3.122   6.136
 9795SOL     OW30283   1.348   3.164   4.739
 9795SOL    HW130284   1.333   3.248   4.686
 9795SOL    HW230285   1.446   3.149   4.752
 9796SOL     OW30286   2.928   5.170   0.935
 9796SOL    HW130287   3.004   5.156   0.872
 9796SOL    HW230288   2.938   5.110   1.015
 9797SOL     OW30289   4.140   3.591   6.705
 9797SOL    HW130290   4.140   3.653   6.784
 9797SOL    HW230291   4.173   3.639   6.624
 9798SOL     OW30292   2.724   0.443   0.715
 9798SOL    HW130293   2.715   0.364   0.776
 9798SOL    HW230294   2.641   0.499   0.720
 9799SOL     OW30295   3.129   3.041   2.472
 9799SOL    HW130296   3.178   3.054   2.386
 9799SOL    HW230297   3.135   2.945   2.499
 9800SOL     OW30298   4.300   5.839   6.694
 9800SOL    HW130299   4.357   5.904   6.744
 9800SOL    HW230300   4.324   5.746   6.721
 9801SOL     OW30301   5.070   5.692   0.713
 9801SOL    HW130302   5.037   5.748   0.636
 9801SOL    HW230303   5.120   5.613   0.678
 9802SOL     OW30304   0.663   3.533   1.128
 9802SOL    HW130305   0.665   3.541   1.228
 9802SOL    HW230306   0.755   3.514   1.094
 9803SOL     OW30307   5.973   6.892   6.912
 9803SOL    HW130308   6.002   6.810   6.961
 9803SOL    HW230309   6.032   6.968   6.937
 9804SOL     OW30310   0.110   5.479   3.561
 9804SOL    HW130311   0.165   5.513   3.485
 9804SOL    HW230312   0.170   5.454   3.637
 9805SOL     OW30313   1.280   5.329   6.887
 9805SOL    HW130314   1.255   5.424   6.905
 9805SOL    HW230315   1.352   5.301   6.951
 9806SOL     OW30316   0.630   2.789   1.657
 9806SOL    HW130317   0.725   2.815   1.639
 9806SOL    HW230318   0.626   2.691   1.674
 9807SOL     OW30319   4.406   1.793   0.231
 9807SOL    HW130320   4.455   1.833   0.154
 9807SOL    HW230321   4.403   1.859   0.306
 9808SOL     OW30322   5.906   1.663   5.225
 9808SOL    HW130323   5.962   1.688   5.146
 9808SOL    HW230324   5.819   1.626   5.194
 9809SOL     OW30325   0.775   1.722   4.802
 9809SOL    HW130326   0.777   1.822   4.798
 9809SOL    HW230327   0.868   1.686   4.787
 9810SOL     OW30328   2.764   1.465   2.923
 9810SOL    HW130329   2.829   1.519   2.976
 9810SOL    HW230330   2.745   1.511   2.837
 9811SOL     OW30331   6.943   6.322   3.130
 9811SOL    HW130332   6.884   6.400   3.109
 9811SOL    HW230333   6.982   6.286   3.045
 9812SOL     OW30334   4.679   2.446   5.898
 9812SOL    HW130335   4.593   2.410   5.934
 9812SOL    HW230336   4.696   2.406   5.807
 9813SOL     OW30337   6.369   5.227   0.024
 9813SOL    HW130338   6.362   5.144   0.078
 9813SOL    HW230339   6.350   5.206   6.953
 9814SOL     OW30340   6.742   6.689   5.663
 9814SOL    HW130341   6.819   6.649   5.613
 9814SOL    HW230342   6.657   6.665   5.617
 9815SOL     OW30343   6.406   3.498   1.480
 9815SOL    HW130344   6.464   3.573   1.450
 9815SOL    HW230345   6.399   3.499   1.580
 9816SOL     OW30346   6.164   0.459   0.057
 9816SOL    HW130347   6.092   0.522   0.028
 9816SOL    HW230348   6.121   0.380   0.102
 9817SOL     OW30349   2.718   6.278   1.581
 9817SOL    HW130350   2.624   6.297   1.608
 9817SOL    HW230351   2.773   6.258   1.662
 9818SOL     OW30352   2.039   0.852   3.509
 9818SOL    HW130353   2.099   0.912   3.562
 9818SOL    HW230354   1.963   0.821   3.567
 9819SOL     OW30355   5.829   3.693   4.880
 9819SOL    HW130356   5.842   3.652   4.971
 9819SOL    HW230357   5.787   3.625   4.819
 9820SOL     OW30358   2.691   2.321   6.011
 9820SOL    HW130359   2.744   2.387   6.064
 9820SOL    HW230360   2.659   2.363   5.927
 9821SOL     OW30361   4.445   2.008   2.049
 9821SOL    HW130362   4.422   2.101   2.019
 9821SOL    HW230363   4.470   2.011   2.146
 9822SOL     OW30364   4.270   5.679   4.546
 9822SOL    HW130365   4.199   5.749   4.535
 9822SOL    HW230366   4.271   5.648   4.641
 9823SOL     OW30367   1.391   0.798   2.706
 9823SOL    HW130368   1.328   0.837   2.639
 9823SOL    HW230369   1.458   0.741   2.658
 9824SOL     OW30370   1.340   5.926   5.896
 9824SOL    HW130371   1.351   5.871   5.813
 9824SOL    HW230372   1.353   6.023   5.873
 9825SOL     OW30373   5.162   6.063   6.417
 9825SOL    HW130374   5.252   6.031   6.445
 9825SOL    HW230375   5.168   6.109   6.328
 9826SOL     OW30376   2.722   6.489   5.397
 9826SOL    HW130377   2.758   6.407   5.441
 9826SOL    HW230378   2.624   6.497   5.418
 9827SOL     OW30379   1.902   5.588   2.487
 9827SOL    HW130380   1.812   5.631   2.482
 9827SOL    HW230381   1.894   5.496   2.526
 9828SOL     OW30382   4.245   1.660   5.080
 9828SOL    HW130383   4.186   1.697   5.152
 9828SOL    HW230384   4.319   1.724   5.062
 9829SOL     OW30385   4.541   5.633   6.066
 9829SOL    HW130386   4.558   5.728   6.092
 9829SOL    HW230387   4.504   5.629   5.974
 9830SOL     OW30388   5.678   1.939   2.734
 9830SOL    HW130389   5.615   1.867   2.706
 9830SOL    HW230390   5.766   1.925   2.688
 9831SOL     OW30391   0.719   4.177   2.272
 9831SOL    HW130392   0.670   4.224   2.198
 9831SOL    HW230393   0.755   4.090   2.239
 9832SOL     OW30394   4.976   4.510   4.780
 9832SOL    HW130395   5.063   4.515   4.731
 9832SOL    HW230396   4.909   4.569   4.736
 9833SOL     OW30397   3.035   4.014   4.345
 9833SOL    HW130398   2.995   4.078   4.410
 9833SOL    HW230399   3.045   4.058   4.256
 9834SOL     OW30400   2.482   5.610   5.437
 9834SOL    HW130401   2.559   5.597   5.375
 9834SOL    HW230402   2.506   5.678   5.507
 9835SOL     OW30403   3.814   4.175   4.930
 9835SOL    HW130404   3.871   4.093   4.937
 9835SOL    HW230405   3.862   4.244   4.875
 9836SOL     OW30406   0.657   3.574   5.746
 9836SOL    HW130407   0.712   3.510   5.800
 9836SOL    HW230408   0.625   3.649   5.803
 9837SOL     OW30409   5.440   2.065   1.826
 9837SOL    HW130410   5.372   1.993   1.815
 9837SOL    HW230411   5.439   2.123   1.744
 9838SOL     OW30412   0.920   6.107   1.313
 9838SOL    HW130413   0.885   6.110   1.220
 9838SOL    HW230414   0.844   6.095   1.377
 9839SOL     OW30415   4.343   0.835   2.355
 9839SOL    HW130416   4.357   0.739   2.378
 9839SOL    HW230417   4.427   0.886   2.372
 9840SOL     OW30418   6.136   1.882   6.598
 9840SOL    HW130419   6.046   1.881   6.641
 9840SOL    HW230420   6.172   1.789   6.592
 9841SOL     OW30421   0.312   6.141   3.304
 9841SOL    HW130422   0.355   6.180   3.385
 9841SOL    HW230423   0.240   6.202   3.272
 9842SOL     OW30424   2.890   2.067   0.127
 9842SOL    HW130425   2.830   1.990   0.106
 9842SOL    HW230426   2.941   2.092   0.045
 9843SOL     OW30427   6.931   6.334   0.934
 9843SOL    HW130428   6.975   6.246   0.916
 9843SOL    HW230429   6.999   6.397   0.972
 9844SOL     OW30430   4.895   6.974   4.428
 9844SOL    HW130431   4.873   0.046   4.416
 9844SOL    HW230432   4.993   6.960   4.412
 9845SOL     OW30433   1.670   2.816   1.726
 9845SOL    HW130434   1.625   2.748   1.667
 9845SOL    HW230435   1.677   2.902   1.677
 9846SOL     OW30436   5.125   1.215   1.389
 9846SOL    HW130437   5.139   1.117   1.400
 9846SOL    HW230438   5.100   1.234   1.294
 9847SOL     OW30439   3.879   3.348   0.424
 9847SOL    HW130440   3.892   3.284   0.500
 9847SOL    HW230441   3.836   3.432   0.458
 9848SOL     OW30442   3.683   3.442   5.411
 9848SOL    HW130443   3.623   3.409   5.338
 9848SOL    HW230444   3.757   3.376   5.425
 9849SOL     OW30445   0.793   1.401   5.769
 9849SOL    HW130446   0.851   1.461   5.824
 9849SOL    HW230447   0.828   1.398   5.675
 9850SOL     OW30448   0.616   0.389   4.200
 9850SOL    HW130449   0.595   0.305   4.250
 9850SOL    HW230450   0.699   0.430   4.237
 9851SOL     OW30451   3.631   4.926   4.342
 9851SOL    HW130452   3.602   4.884   4.256
 9851SOL    HW230453   3.715   4.882   4.374
 9852SOL     OW30454   1.991   1.419   6.553
 9852SOL    HW130455   2.023   1.510   6.577
 9852SOL    HW230456   1.895   1.424   6.523
 9853SOL     OW30457   0.074   4.276   4.022
 9853SOL    HW130458   0.141   4.322   4.081
 9853SOL    HW230459   7.009   4.284   4.063
 9854SOL     OW30460   0.933   5.153   6.206
 9854SOL    HW130461   0.850   5.158   6.260
 9854SOL    HW230462   0.977   5.064   6.220
 9855SOL     OW30463   1.636   3.568   1.226
 9855SOL    HW130464   1.618   3.496   1.293
 9855SOL    HW230465   1.639   3.656   1.272
 9856SOL     OW30466   5.727   4.288   3.031
 9856SOL    HW130467   5.770   4.199   3.050
 9856SOL    HW230468   5.649   4.274   2.971
 9857SOL     OW30469   4.620   2.278   3.956
 9857SOL    HW130470   4.528   2.293   3.922
 9857SOL    HW230471   4.628   2.316   4.048
 9858SOL     OW30472   6.778   6.535   2.536
 9858SOL    HW130473   6.762   6.437   2.548
 9858SOL    HW230474   6.742   6.585   2.615
 9859SOL     OW30475   0.089   6.028   4.385
 9859SOL    HW130476   0.162   6.016   4.318
 9859SOL    HW230477   0.111   6.104   4.446
 9860SOL     OW30478   1.596   2.671   5.452
 9860SOL    HW130479   1.565   2.576   5.459
 9860SOL    HW230480   1.564   2.711   5.367
 9861SOL     OW30481   3.745   1.339   4.202
 9861SOL    HW130482   3.809   1.410   4.230
 9861SOL    HW230483   3.706   1.295   4.284
 9862SOL     OW30484   1.494   5.052   1.038
 9862SOL    HW130485   1.496   5.113   0.958
 9862SOL    HW230486   1.528   5.101   1.118
 9863SOL     OW30487   3.801   6.195   0.878
 9863SOL    HW130488   3.873   6.182   0.810
 9863SOL    HW230489   3.801   6.119   0.942
 9864SOL     OW30490   3.057   6.084   5.044
 9864SOL    HW130491   3.059   6.176   5.083
 9864SOL    HW230492   2.966   6.044   5.056
 9865SOL     OW30493   0.754   6.245   5.807
 9865SOL    HW130494   0.724   6.240   5.903
 9865SOL    HW230495   0.756   6.153   5.768
 9866SOL     OW30496   6.410   4.589   4.460
 9866SOL    HW130497   6.477   4.601   4.533
 9866SOL    HW230498   6.332   4.650   4.475
 9867SOL     OW30499   4.799   1.767   1.753
 9867SOL    HW130500   4.789   1.846   1.692
 9867SOL    HW230501   4.795   1.799   1.848
 9868SOL     OW30502   1.412   4.469   3.340
 9868SOL    HW130503   1.461   4.396   3.388
 9868SOL    HW230504   1.339   4.428   3.285
 9869SOL     OW30505   7.019   2.893   1.289
 9869SOL    HW130506   7.016   2.966   1.357
 9869SOL    HW230507   6.938   2.898   1.231
 9870SOL     OW30508   3.255   1.299   2.017
 9870SOL    HW130509   3.243   1.340   2.107
 9870SOL    HW230510   3.183   1.332   1.956
 9871SOL     OW30511   6.959   3.766   4.870
 9871SOL    HW130512   6.987   3.805   4.782
 9871SOL    HW230513   0.015   3.741   4.923
 9872SOL     OW30514   1.756   4.885   5.340
 9872SOL    HW130515   1.745   4.878   5.240
 9872SOL    HW230516   1.797   4.800   5.375
 9873SOL     OW30517   2.276   1.841   5.396
 9873SOL    HW130518   2.282   1.777   5.320
 9873SOL    HW230519   2.277   1.791   5.482
 9874SOL     OW30520   7.006   2.632   4.598
 9874SOL    HW130521   6.975   2.595   4.686
 9874SOL    HW230522   6.928   2.638   4.536
 9875SOL     OW30523   6.955   5.952   0.539
 9875SOL    HW130524   0.011   6.001   0.570
 9875SOL    HW230525   6.934   5.977   0.444
 9876SOL     OW30526   2.369   6.652   3.432
 9876SOL    HW130527   2.298   6.581   3.436
 9876SOL    HW230528   2.329   6.740   3.459
 9877SOL     OW30529   0.711   5.023   4.941
 9877SOL    HW130530   0.800   4.992   4.976
 9877SOL    HW230531   0.716   5.033   4.842
 9878SOL     OW30532   2.115   3.158   0.133
 9878SOL    HW130533   2.129   3.077   0.189
 9878SOL    HW230534   2.051   3.138   0.059
 9879SOL     OW30535   0.235   4.876   6.229
 9879SOL    HW130536   0.311   4.814   6.245
 9879SOL    HW230537   0.155   4.845   6.282
 9880SOL     OW30538   3.245   1.708   0.259
 9880SOL    HW130539   3.329   1.657   0.240
 9880SOL    HW230540   3.261   1.805   0.243
 9881SOL     OW30541   5.624   0.236   4.504
 9881SOL    HW130542   5.614   0.175   4.426
 9881SOL    HW230543   5.685   0.195   4.571
 9882SOL     OW30544   4.071   3.621   4.390
 9882SOL    HW130545   3.972   3.609   4.383
 9882SOL    HW230546   4.115   3.531   4.387
 9883SOL     OW30547   2.141   0.129   1.182
 9883SOL    HW130548   2.169   0.189   1.257
 9883SOL    HW230549   2.217   0.119   1.117
 9884SOL     OW30550   1.562   3.975   6.318
 9884SOL    HW130551   1.590   3.906   6.384
 9884SOL    HW230552   1.612   3.961   6.232
 9885SOL     OW30553   6.365   3.583   4.331
 9885SOL    HW130554   6.286   3.623   4.286
 9885SOL    HW230555   6.448   3.603   4.278
 9886SOL     OW30556   5.044   6.154   1.437
 9886SOL    HW130557   5.131   6.118   1.405
 9886SOL    HW230558   4.979   6.079   1.448
 9887SOL     OW30559   3.910   0.219   0.421
 9887SOL    HW130560   3.859   0.295   0.462
 9887SOL    HW230561   3.942   0.157   0.492
 9888SOL     OW30562   6.122   5.413   2.320
 9888SOL    HW130563   6.040   5.440   2.269
 9888SOL    HW230564   6.097   5.392   2.414
 9889SOL     OW30565   0.314   5.098   3.518
 9889SOL    HW130566   0.223   5.058   3.508
 9889SOL    HW230567   0.368   5.042   3.582
 9890SOL     OW30568   6.845   4.080   1.678
 9890SOL    HW130569   6.872   4.172   1.706
 9890SOL    HW230570   6.926   4.022   1.672
 9891SOL     OW30571   5.364   4.209   0.749
 9891SOL    HW130572   5.282   4.198   0.806
 9891SOL    HW230573   5.401   4.119   0.726
 9892SOL     OW30574   1.973   5.393   4.213
 9892SOL    HW130575   2.039   5.320   4.230
 9892SOL    HW230576   1.967   5.412   4.115
 9893SOL     OW30577   6.279   5.006   2.983
 9893SOL    HW130578   6.217   4.940   2.940
 9893SOL    HW230579   6.365   4.961   3.007
 9894SOL     OW30580   3.540   2.641   5.981
 9894SOL    HW130581   3.592   2.722   6.008
 9894SOL    HW230582   3.456   2.669   5.936
 9895SOL     OW30583   5.141   2.443   6.457
 9895SOL    HW130584   5.097   2.431   6.368
 9895SOL    HW230585   5.158   2.541   6.473
 9896SOL     OW30586   3.912   3.887   0.363
 9896SOL    HW130587   3.980   3.948   0.404
 9896SOL    HW230588   3.847   3.941   0.310
 9897SOL     OW30589   5.825   2.188   2.899
 9897SOL    HW130590   5.883   2.161   2.976
 9897SOL    HW230591   5.786   2.107   2.856
 9898SOL     OW30592   1.361   5.341   5.872
 9898SOL    HW130593   1.305   5.288   5.935
 9898SOL    HW230594   1.386   5.285   5.793
 9899SOL     OW30595   5.142   4.945   2.567
 9899SOL    HW130596   5.141   5.042   2.543
 9899SOL    HW230597   5.184   4.893   2.493
 9900SOL     OW30598   1.353   2.461   4.299
 9900SOL    HW130599   1.296   2.538   4.328
 9900SOL    HW230600   1.315   2.422   4.215
 9901SOL     OW30601   2.982   2.610   5.957
 9901SOL    HW130602   3.069   2.573   5.989
 9901SOL    HW230603   2.913   2.598   6.029
 9902SOL     OW30604   3.709   3.312   0.177
 9902SOL    HW130605   3.620   3.342   0.212
 9902SOL    HW230606   3.778   3.321   0.249
 9903SOL     OW30607   4.263   1.658   1.848
 9903SOL    HW130608   4.229   1.735   1.794
 9903SOL    HW230609   4.327   1.604   1.792
 9904SOL     OW30610   6.588   1.960   0.957
 9904SOL    HW130611   6.581   1.911   1.044
 9904SOL    HW230612   6.502   2.006   0.937
 9905SOL     OW30613   1.355   6.889   5.803
 9905SOL    HW130614   1.259   6.908   5.824
 9905SOL    HW230615   1.373   6.791   5.816
 9906SOL     OW30616   2.618   3.929   6.401
 9906SOL    HW130617   2.635   3.889   6.491
 9906SOL    HW230618   2.687   3.896   6.337
 9907SOL     OW30619   2.614   6.207   2.927
 9907SOL    HW130620   2.584   6.281   2.987
 9907SOL    HW230621   2.676   6.243   2.858
 9908SOL     OW30622   0.971   3.726   5.801
 9908SOL    HW130623   0.944   3.704   5.895
 9908SOL    HW230624   0.891   3.718   5.741
 9909SOL     OW30625   3.254   1.033   3.145
 9909SOL    HW130626   3.221   0.940   3.159
 9909SOL    HW230627   3.354   1.033   3.137
 9910SOL     OW30628   6.437   4.237   0.483
 9910SOL    HW130629   6.536   4.251   0.479
 9910SOL    HW230630   6.390   4.315   0.440
 9911SOL     OW30631   3.518   4.955   3.307
 9911SOL    HW130632   3.455   4.877   3.311
 9911SOL    HW230633   3.538   4.987   3.400
 9912SOL     OW30634   5.174   0.163   1.452
 9912SOL    HW130635   5.233   0.240   1.477
 9912SOL    HW230636   5.128   0.128   1.534
 9913SOL     OW30637   5.386   2.616   2.792
 9913SOL    HW130638   5.308   2.554   2.798
 9913SOL    HW230639   5.462   2.570   2.747
 9914SOL     OW30640   0.931   0.466   4.807
 9914SOL    HW130641   0.841   0.430   4.831
 9914SOL    HW230642   0.988   0.471   4.889
 9915SOL     OW30643   4.828   3.174   3.804
 9915SOL    HW130644   4.854   3.260   3.849
 9915SOL    HW230645   4.804   3.192   3.709
 9916SOL     OW30646   2.249   2.991   2.472
 9916SOL    HW130647   2.248   2.957   2.566
 9916SOL    HW230648   2.290   2.922   2.412
 9917SOL     OW30649   3.401   3.824   5.615
 9917SOL    HW130650   3.302   3.833   5.608
 9917SOL    HW230651   3.437   3.781   5.532
 9918SOL     OW30652   2.353   2.100   5.542
 9918SOL    HW130653   2.347   2.018   5.485
 9918SOL    HW230654   2.449   2.123   5.556
 9919SOL     OW30655   0.309   5.572   2.928
 9919SOL    HW130656   0.310   5.523   3.016
 9919SOL    HW230657   0.230   5.632   2.924
 9920SOL     OW30658   3.632   6.497   1.461
 9920SOL    HW130659   3.552   6.550   1.488
 9920SOL    HW230660   3.714   6.555   1.466
 9921SOL     OW30661   6.006   0.691   2.986
 9921SOL    HW130662   6.043   0.682   2.893
 9921SOL    HW230663   5.954   0.775   2.993
 9922SOL     OW30664   4.404   4.849   0.756
 9922SOL    HW130665   4.474   4.920   0.759
 9922SOL    HW230666   4.438   4.766   0.799
 9923SOL     OW30667   6.755   2.526   5.921
 9923SOL    HW130668   6.672   2.582   5.922
 9923SOL    HW230669   6.835   2.586   5.926
 9924SOL     OW30670   6.705   0.712   2.893
 9924SOL    HW130671   6.607   0.724   2.881
 9924SOL    HW230672   6.742   0.789   2.946
 9925SOL     OW30673   2.775   2.919   5.495
 9925SOL    HW130674   2.848   2.860   5.459
 9925SOL    HW230675   2.687   2.888   5.459
 9926SOL     OW30676   0.991   1.260   0.239
 9926SOL    HW130677   1.064   1.318   0.277
 9926SOL    HW230678   0.916   1.253   0.305
 9927SOL     OW30679   0.178   2.134   2.159
 9927SOL    HW130680   0.203   2.192   2.237
 9927SOL    HW230681   0.201   2.039   2.180
 9928SOL     OW30682   0.250   3.807   2.132
 9928SOL    HW130683   0.236   3.787   2.229
 9928SOL    HW230684   0.166   3.846   2.093
 9929SOL     OW30685   2.700   4.518   0.273
 9929SOL    HW130686   2.605   4.494   0.295
 9929SOL    HW230687   2.732   4.461   0.197
 9930SOL     OW30688   0.159   6.969   6.075
 9930SOL    HW130689   0.256   6.953   6.095
 9930SOL    HW230690   0.115   6.882   6.053
 9931SOL     OW30691   1.625   5.847   5.784
 9931SOL    HW130692   1.717   5.819   5.758
 9931SOL    HW230693   1.575   5.769   5.820
 9932SOL     OW30694   1.319   1.688   0.311
 9932SOL    HW130695   1.311   1.780   0.273
 9932SOL    HW230696   1.415   1.670   0.333
 9933SOL     OW30697   2.229   1.501   3.192
 9933SOL    HW130698   2.130   1.510   3.205
 9933SOL    HW230699   2.261   1.570   3.127
 9934SOL     OW30700   5.385   1.326   5.806
 9934SOL    HW130701   5.436   1.251   5.849
 9934SOL    HW230702   5.287   1.305   5.810
 9935SOL     OW30703   2.995   2.137   0.798
 9935SOL    HW130704   2.995   2.068   0.871
 9935SOL    HW230705   2.920   2.117   0.734
 9936SOL     OW30706   5.922   5.661   5.277
 9936SOL    HW130707   5.859   5.732   5.305
 9936SOL    HW230708   5.955   5.678   5.184
 9937SOL     OW30709   0.714   6.935   3.037
 9937SOL    HW130710   0.636   6.947   3.099
 9937SOL    HW230711   0.747   6.841   3.043
 9938SOL     OW30712   6.937   0.677   4.175
 9938SOL    HW130713   6.871   0.750   4.196
 9938SOL    HW230714   6.929   0.605   4.244
 9939SOL     OW30715   2.223   4.578   1.454
 9939SOL    HW130716   2.243   4.484   1.482
 9939SOL    HW230717   2.225   4.638   1.534
 9940SOL     OW30718   0.908   0.109   3.058
 9940SOL    HW130719   0.961   0.146   3.134
 9940SOL    HW230720   0.836   0.050   3.093
 9941SOL     OW30721   4.603   4.986   6.304
 9941SOL    HW130722   4.555   4.913   6.255
 9941SOL    HW230723   4.701   4.977   6.289
 9942SOL     OW30724   4.372   4.772   3.751
 9942SOL    HW130725   4.425   4.787   3.667
 9942SOL    HW230726   4.370   4.857   3.803
 9943SOL     OW30727   2.706   4.081   0.162
 9943SOL    HW130728   2.633   4.148   0.175
 9943SOL    HW230729   2.708   4.019   0.241
 9944SOL     OW30730   1.622   4.689   0.327
 9944SOL    HW130731   1.581   4.720   0.241
 9944SOL    HW230732   1.603   4.756   0.399
 9945SOL     OW30733   5.737   4.001   6.742
 9945SOL    HW130734   5.715   3.996   6.839
 9945SOL    HW230735   5.832   4.032   6.731
 9946SOL     OW30736   5.325   1.443   2.460
 9946SOL    HW130737   5.391   1.439   2.385
 9946SOL    HW230738   5.345   1.371   2.526
 9947SOL     OW30739   1.946   1.523   3.875
 9947SOL    HW130740   2.003   1.450   3.838
 9947SOL    HW230741   1.856   1.521   3.831
 9948SOL     OW30742   6.295   0.434   4.461
 9948SOL    HW130743   6.207   0.475   4.489
 9948SOL    HW230744   6.294   0.336   4.482
 9949SOL     OW30745   6.396   4.286   4.598
 9949SOL    HW130746   6.350   4.363   4.642
 9949SOL    HW230747   6.328   4.222   4.562
 9950SOL     OW30748   6.421   4.988   5.953
 9950SOL    HW130749   6.372   5.067   5.989
 9950SOL    HW230750   6.461   5.011   5.864
 9951SOL     OW30751   0.512   2.323   2.365
 9951SOL    HW130752   0.569   2.251   2.325
 9951SOL    HW230753   0.540   2.412   2.328
 9952SOL     OW30754   0.357   3.988   1.927
 9952SOL    HW130755   0.354   3.945   1.837
 9952SOL    HW230756   0.382   3.919   1.995
 9953SOL     OW30757   5.885   2.364   3.314
 9953SOL    HW130758   5.908   2.279   3.266
 9953SOL    HW230759   5.819   2.416   3.261
 9954SOL     OW30760   2.816   2.099   5.892
 9954SOL    HW130761   2.755   2.034   5.849
 9954SOL    HW230762   2.764   2.181   5.919
 9955SOL     OW30763   5.179   3.223   0.665
 9955SOL    HW130764   5.092   3.240   0.711
 9955SOL    HW230765   5.162   3.193   0.571
 9956SOL     OW30766   1.966   3.948   3.598
 9956SOL    HW130767   1.994   3.989   3.685
 9956SOL    HW230768   1.888   3.998   3.561
 9957SOL     OW30769   5.627   6.562   1.384
 9957SOL    HW130770   5.680   6.492   1.430
 9957SOL    HW230771   5.554   6.520   1.331
 9958SOL     OW30772   4.696   4.754   6.906
 9958SOL    HW130773   4.766   4.684   6.910
 9958SOL    HW230774   4.725   4.833   6.961
 9959SOL     OW30775   4.365   4.258   1.056
 9959SOL    HW130776   4.293   4.207   1.104
 9959SOL    HW230777   4.381   4.344   1.103
 9960SOL     OW30778   6.606   6.938   6.559
 9960SOL    HW130779   6.706   6.936   6.556
 9960SOL    HW230780   6.571   6.991   6.482
 9961SOL     OW30781   2.522   4.920   2.300
 9961SOL    HW130782   2.469   4.860   2.360
 9961SOL    HW230783   2.587   4.865   2.247
 9962SOL     OW30784   2.969   6.042   2.277
 9962SOL    HW130785   2.949   6.079   2.368
 9962SOL    HW230786   3.068   6.034   2.266
 9963SOL     OW30787   1.716   1.523   6.445
 9963SOL    HW130788   1.737   1.620   6.431
 9963SOL    HW230789   1.703   1.478   6.357
 9964SOL     OW30790   4.635   4.054   5.243
 9964SOL    HW130791   4.565   4.118   5.274
 9964SOL    HW230792   4.683   4.092   5.164
 9965SOL     OW30793   2.687   5.327   4.608
 9965SOL    HW130794   2.752   5.252   4.597
 9965SOL    HW230795   2.701   5.371   4.697
 9966SOL     OW30796   3.555   5.037   2.213
 9966SOL    HW130797   3.613   4.969   2.168
 9966SOL    HW230798   3.530   5.004   2.304
 9967SOL     OW30799   6.822   6.789   3.239
 9967SOL    HW130800   6.764   6.870   3.241
 9967SOL    HW230801   6.912   6.811   3.278
 9968SOL     OW30802   3.741   6.490   0.965
 9968SOL    HW130803   3.688   6.446   1.036
 9968SOL    HW230804   3.707   6.462   0.875
 9969SOL     OW30805   1.458   5.222   3.824
 9969SOL    HW130806   1.367   5.248   3.859
 9969SOL    HW230807   1.527   5.245   3.892
 9970SOL     OW30808   6.492   4.353   1.323
 9970SOL    HW130809   6.428   4.425   1.295
 9970SOL    HW230810   6.479   4.331   1.419
 9971SOL     OW30811   1.322   3.873   2.273
 9971SOL    HW130812   1.314   3.774   2.287
 9971SOL    HW230813   1.261   3.921   2.336
 9972SOL     OW30814   3.365   3.808   0.226
 9972SOL    HW130815   3.431   3.739   0.197
 9972SOL    HW230816   3.320   3.847   0.145
 9973SOL     OW30817   3.803   1.795   3.310
 9973SOL    HW130818   3.833   1.788   3.405
 9973SOL    HW230819   3.850   1.728   3.254
 9974SOL     OW30820   0.173   2.210   3.626
 9974SOL    HW130821   0.089   2.211   3.572
 9974SOL    HW230822   0.177   2.291   3.685
 9975SOL     OW30823   1.290   5.043   6.823
 9975SOL    HW130824   1.266   4.947   6.830
 9975SOL    HW230825   1.265   5.090   6.908
 9976SOL     OW30826   2.782   4.486   6.166
 9976SOL    HW130827   2.808   4.390   6.153
 9976SOL    HW230828   2.834   4.524   6.242
 9977SOL     OW30829   5.553   5.886   5.249
 9977SOL    HW130830   5.486   5.959   5.264
 9977SOL    HW230831   5.641   5.927   5.223
 9978SOL     OW30832   0.596   2.412   6.250
 9978SOL    HW130833   0.568   2.363   6.167
 9978SOL    HW230834   0.515   2.438   6.302
 9979SOL     OW30835   4.843   3.262   5.281
 9979SOL    HW130836   4.780   3.185   5.290
 9979SOL    HW230837   4.870   3.272   5.185
 9980SOL     OW30838   1.016   0.603   6.796
 9980SOL    HW130839   0.925   0.585   6.759
 9980SOL    HW230840   1.009   0.658   6.879
 9981SOL     OW30841   0.438   2.448   1.094
 9981SOL    HW130842   0.449   2.477   1.000
 9981SOL    HW230843   0.412   2.526   1.151
 9982SOL     OW30844   2.239   1.880   4.720
 9982SOL    HW130845   2.169   1.814   4.693
 9982SOL    HW230846   2.195   1.965   4.749
 9983SOL     OW30847   0.159   3.166   2.127
 9983SOL    HW130848   0.064   3.190   2.146
 9983SOL    HW230849   0.188   3.210   2.042
 9984SOL     OW30850   6.998   6.049   1.540
 9984SOL    HW130851   6.938   6.103   1.482
 9984SOL    HW230852   6.964   5.955   1.546
 9985SOL     OW30853   4.330   5.397   0.775
 9985SOL    HW130854   4.241   5.412   0.731
 9985SOL    HW230855   4.387   5.478   0.764
 9986SOL     OW30856   4.816   4.347   0.074
 9986SOL    HW130857   4.884   4.356   0.147
 9986SOL    HW230858   4.816   4.253   0.039
 9987SOL     OW30859   5.406   2.901   1.470
 9987SOL    HW130860   5.482   2.954   1.506
 9987SOL    HW230861   5.442   2.829   1.410
 9988SOL     OW30862   5.508   6.129   4.613
 9988SOL    HW130863   5.529   6.211   4.666
 9988SOL    HW230864   5.579   6.061   4.629
 9989SOL     OW30865   6.709   5.038   2.459
 9989SOL    HW130866   6.797   4.990   2.468
 9989SOL    HW230867   6.634   4.973   2.469
 9990SOL     OW30868   0.482   6.945   3.207
 9990SOL    HW130869   0.397   6.933   3.155
 9990SOL    HW230870   0.471   6.908   3.299
 9991SOL     OW30871   1.776   3.967   4.135
 9991SOL    HW130872   1.848   3.971   4.066
 9991SOL    HW230873   1.793   3.890   4.197
 9992SOL     OW30874   3.553   4.719   1.097
 9992SOL    HW130875   3.512   4.732   1.007
 9992SOL    HW230876   3.512   4.783   1.161
 9993SOL     OW30877   3.957   6.922   3.905
 9993SOL    HW130878   3.893   6.997   3.889
 9993SOL    HW230879   3.922   6.865   3.979
 9994SOL     OW30880   0.210   4.195   4.332
 9994SOL    HW130881   0.240   4.288   4.312
 9994SOL    HW230882   0.113   4.196   4.358
 9995SOL     OW30883   2.735   0.391   4.986
 9995SOL    HW130884   2.749   0.451   4.908
 9995SOL    HW230885   2.709   0.300   4.954
 9996SOL     OW30886   2.234   4.228   1.297
 9996SOL    HW130887   2.178   4.307   1.271
 9996SOL    HW230888   2.297   4.206   1.222
 9997SOL     OW30889   6.139   1.921   4.418
 9997SOL    HW130890   6.207   1.980   4.375
 9997SOL    HW230891   6.178   1.881   4.501
 9998SOL     OW30892   4.869   3.603   3.094
 9998SOL    HW130893   4.799   3.643   3.035
 9998SOL    HW230894   4.840   3.512   3.125
 9999SOL     OW30895   6.984   6.709   3.795
 9999SOL    HW130896   6.924   6.630   3.780
 9999SOL    HW230897   7.020   6.705   3.888
10000SOL     OW30898   5.057   1.687   1.750
10000SOL    HW130899   5.093   1.596   1.728
10000SOL    HW230900   4.957   1.683   1.753
10001SOL     OW30901   2.921   6.146   2.537
10001SOL    HW130902   2.926   6.065   2.595
10001SOL    HW230903   2.916   6.228   2.594
10002SOL     OW30904   2.566   0.974   0.864
10002SOL    HW130905   2.517   0.975   0.777
10002SOL    HW230906   2.653   0.926   0.852
10003SOL     OW30907   2.261   1.728   3.031
10003SOL    HW130908   2.293   1.715   2.938
10003SOL    HW230909   2.252   1.826   3.050
10004SOL     OW30910   5.642   4.384   4.519
10004SOL    HW130911   5.618   4.402   4.424
10004SOL    HW230912   5.673   4.289   4.528
10005SOL     OW30913   2.971   5.781   3.645
10005SOL    HW130914   2.972   5.802   3.743
10005SOL    HW230915   3.046   5.720   3.623
10006SOL     OW30916   5.428   0.628   5.150
10006SOL    HW130917   5.511   0.682   5.166
10006SOL    HW230918   5.452   0.537   5.117
10007SOL     OW30919   0.945   4.404   4.480
10007SOL    HW130920   0.907   4.425   4.390
10007SOL    HW230921   1.032   4.452   4.491
10008SOL     OW30922   3.568   1.707   4.247
10008SOL    HW130923   3.549   1.742   4.156
10008SOL    HW230924   3.505   1.749   4.313
10009SOL     OW30925   2.052   4.158   1.875
10009SOL    HW130926   2.125   4.182   1.938
10009SOL    HW230927   1.983   4.230   1.873
10010SOL     OW30928   3.061   4.883   6.822
10010SOL    HW130929   3.030   4.977   6.836
10010SOL    HW230930   3.161   4.879   6.827
10011SOL     OW30931   0.459   3.741   0.258
10011SOL    HW130932   0.502   3.780   0.340
10011SOL    HW230933   0.369   3.782   0.245
10012SOL     OW30934   5.191   0.479   2.528
10012SOL    HW130935   5.250   0.539   2.473
10012SOL    HW230936   5.132   0.535   2.586
10013SOL     OW30937   1.404   5.076   4.880
10013SOL    HW130938   1.503   5.085   4.871
10013SOL    HW230939   1.358   5.148   4.827
10014SOL     OW30940   0.488   6.500   3.224
10014SOL    HW130941   0.416   6.535   3.285
10014SOL    HW230942   0.574   6.495   3.274
10015SOL     OW30943   3.695   5.581   6.607
10015SOL    HW130944   3.690   5.663   6.550
10015SOL    HW230945   3.672   5.500   6.553
10016SOL     OW30946   1.734   0.355   4.473
10016SOL    HW130947   1.660   0.303   4.430
10016SOL    HW230948   1.797   0.387   4.402
10017SOL     OW30949   2.748   1.756   3.222
10017SOL    HW130950   2.728   1.836   3.165
10017SOL    HW230951   2.806   1.693   3.171
10018SOL     OW30952   6.776   3.947   6.050
10018SOL    HW130953   6.790   3.953   5.951
10018SOL    HW230954   6.862   3.922   6.094
10019SOL     OW30955   0.335   1.121   2.653
10019SOL    HW130956   0.290   1.158   2.735
10019SOL    HW230957   0.338   1.191   2.582
10020SOL     OW30958   6.671   0.643   1.750
10020SOL    HW130959   6.715   0.698   1.679
10020SOL    HW230960   6.586   0.605   1.715
10021SOL     OW30961   1.603   3.412   1.439
10021SOL    HW130962   1.536   3.353   1.485
10021SOL    HW230963   1.679   3.432   1.501
10022SOL     OW30964   2.254   6.305   0.170
10022SOL    HW130965   2.346   6.287   0.136
10022SOL    HW230966   2.247   6.275   0.265
10023SOL     OW30967   2.571   6.700   5.932
10023SOL    HW130968   2.599   6.796   5.937
10023SOL    HW230969   2.531   6.672   6.020
10024SOL     OW30970   1.483   4.872   3.111
10024SOL    HW130971   1.574   4.909   3.094
10024SOL    HW230972   1.483   4.822   3.198
10025SOL     OW30973   1.558   3.780   1.821
10025SOL    HW130974   1.613   3.810   1.743
10025SOL    HW230975   1.618   3.755   1.897
10026SOL     OW30976   5.033   1.043   2.438
10026SOL    HW130977   4.946   0.995   2.436
10026SOL    HW230978   5.031   1.118   2.372
10027SOL     OW30979   1.509   2.624   5.153
10027SOL    HW130980   1.413   2.611   5.127
10027SOL    HW230981   1.545   2.538   5.190
10028SOL     OW30982   2.828   0.850   1.663
10028SOL    HW130983   2.820   0.863   1.564
10028SOL    HW230984   2.875   0.764   1.682
10029SOL     OW30985   6.935   2.773   4.145
10029SOL    HW130986   6.955   2.709   4.071
10029SOL    HW230987   6.836   2.774   4.162
10030SOL     OW30988   2.674   6.730   5.093
10030SOL    HW130989   2.640   6.639   5.113
10030SOL    HW230990   2.686   6.741   4.994
10031SOL     OW30991   3.887   5.072   5.076
10031SOL    HW130992   3.885   5.133   4.997
10031SOL    HW230993   3.794   5.055   5.109
10032SOL     OW30994   3.211   6.432   5.667
10032SOL    HW130995   3.243   6.344   5.702
10032SOL    HW230996   3.111   6.436   5.673
10033SOL     OW30997   4.959   1.677   3.766
10033SOL    HW130998   5.000   1.664   3.856
10033SOL    HW230999   5.029   1.662   3.696
10034SOL     OW31000   1.809   0.731   3.637
10034SOL    HW131001   1.869   0.680   3.698
10034SOL    HW231002   1.716   0.732   3.674
10035SOL     OW31003   6.140   3.693   0.244
10035SOL    HW131004   6.082   3.662   0.168
10035SOL    HW231005   6.235   3.698   0.212
10036SOL     OW31006   6.643   0.711   6.607
10036SOL    HW131007   6.723   0.682   6.660
10036SOL    HW231008   6.652   0.678   6.513
10037SOL     OW31009   6.354   0.057   5.939
10037SOL    HW131010   6.294   0.041   6.018
10037SOL    HW231011   6.390   6.995   5.907
10038SOL     OW31012   4.766   6.884   0.255
10038SOL    HW131013   4.799   6.898   0.162
10038SOL    HW231014   4.680   6.933   0.268
10039SOL     OW31015   4.974   5.556   4.525
10039SOL    HW131016   4.933   5.468   4.550
10039SOL    HW231017   5.058   5.570   4.577
10040SOL     OW31018   4.520   6.763   0.708
10040SOL    HW131019   4.509   6.681   0.652
10040SOL    HW231020   4.476   6.748   0.797
10041SOL     OW31021   6.906   4.830   5.632
10041SOL    HW131022   6.813   4.865   5.641
10041SOL    HW231023   6.957   4.848   5.716
10042SOL     OW31024   0.795   1.157   5.440
10042SOL    HW131025   0.758   1.146   5.348
10042SOL    HW231026   0.721   1.154   5.506
10043SOL     OW31027   0.854   0.785   2.537
10043SOL    HW131028   0.797   0.825   2.609
10043SOL    HW231029   0.807   0.794   2.449
10044SOL     OW31030   2.836   1.601   4.671
10044SOL    HW131031   2.837   1.693   4.710
10044SOL    HW231032   2.801   1.605   4.577
10045SOL     OW31033   4.505   0.166   4.301
10045SOL    HW131034   4.529   0.074   4.269
10045SOL    HW231035   4.579   0.229   4.279
10046SOL     OW31036   6.959   1.853   1.760
10046SOL    HW131037   6.899   1.932   1.745
10046SOL    HW231038   7.002   1.860   1.850
10047SOL     OW31039   6.070   2.696   5.357
10047SOL    HW131040   6.106   2.619   5.411
10047SOL    HW231041   6.003   2.746   5.411
10048SOL     OW31042   3.131   1.382   1.791
10048SOL    HW131043   3.147   1.479   1.772
10048SOL    HW231044   3.126   1.331   1.705
10049SOL     OW31045   1.215   0.634   7.017
10049SOL    HW131046   1.144   0.651   0.060
10049SOL    HW231047   1.209   0.540   6.986
10050SOL     OW31048   5.621   3.059   4.856
10050SOL    HW131049   5.624   3.131   4.925
10050SOL    HW231050   5.622   2.970   4.901
10051SOL     OW31051   6.734   3.060   4.678
10051SOL    HW131052   6.799   2.985   4.691
10051SOL    HW231053   6.647   3.037   4.722
10052SOL     OW31054   2.010   3.179   1.322
10052SOL    HW131055   2.094   3.212   1.366
10052SOL    HW231056   1.965   3.256   1.276
10053SOL     OW31057   3.719   4.943   2.609
10053SOL    HW131058   3.815   4.921   2.592
10053SOL    HW231059   3.693   4.911   2.700
10054SOL     OW31060   4.630   5.890   6.485
10054SOL    HW131061   4.590   5.974   6.520
10054SOL    HW231062   4.558   5.831   6.448
10055SOL     OW31063   6.359   2.322   4.709
10055SOL    HW131064   6.271   2.307   4.755
10055SOL    HW231065   6.390   2.415   4.727
10056SOL     OW31066   6.020   5.140   0.795
10056SOL    HW131067   6.067   5.163   0.879
10056SOL    HW231068   6.085   5.102   0.729
10057SOL     OW31069   3.838   1.620   4.260
10057SOL    HW131070   3.872   1.651   4.349
10057SOL    HW231071   3.738   1.620   4.262
10058SOL     OW31072   6.767   4.396   4.374
10058SOL    HW131073   6.817   4.360   4.454
10058SOL    HW231074   6.772   4.330   4.300
10059SOL     OW31075   5.473   6.412   1.029
10059SOL    HW131076   5.558   6.360   1.024
10059SOL    HW231077   5.396   6.350   1.045
10060SOL     OW31078   2.285   2.378   2.056
10060SOL    HW131079   2.236   2.309   2.110
10060SOL    HW231080   2.298   2.344   1.963
10061SOL     OW31081   5.496   1.297   4.050
10061SOL    HW131082   5.527   1.235   4.122
10061SOL    HW231083   5.406   1.270   4.018
10062SOL     OW31084   5.900   6.515   4.613
10062SOL    HW131085   5.950   6.568   4.681
10062SOL    HW231086   5.936   6.421   4.612
10063SOL     OW31087   1.647   2.210   3.309
10063SOL    HW131088   1.660   2.307   3.326
10063SOL    HW231089   1.626   2.195   3.213
10064SOL     OW31090   5.879   5.401   5.350
10064SOL    HW131091   5.885   5.491   5.308
10064SOL    HW231092   5.967   5.377   5.391
10065SOL     OW31093   1.671   0.646   1.754
10065SOL    HW131094   1.708   0.652   1.662
10065SOL    HW231095   1.683   0.733   1.801
10066SOL     OW31096   1.205   0.895   3.850
10066SOL    HW131097   1.237   0.943   3.768
10066SOL    HW231098   1.141   0.953   3.900
10067SOL     OW31099   5.586   4.697   4.494
10067SOL    HW131100   5.667   4.743   4.531
10067SOL    HW231101   5.601   4.598   4.493
10068SOL     OW31102   5.301   2.820   4.244
10068SOL    HW131103   5.351   2.777   4.169
10068SOL    HW231104   5.205   2.832   4.219
10069SOL     OW31105   2.224   6.428   3.880
10069SOL    HW131106   2.307   6.396   3.926
10069SOL    HW231107   2.245   6.509   3.826
10070SOL     OW31108   0.554   6.650   4.673
10070SOL    HW131109   0.580   6.697   4.757
10070SOL    HW231110   0.454   6.643   4.668
10071SOL     OW31111   4.606   4.946   4.331
10071SOL    HW131112   4.687   4.888   4.321
10071SOL    HW231113   4.537   4.899   4.385
10072SOL     OW31114   0.713   6.524   3.844
10072SOL    HW131115   0.721   6.553   3.940
10072SOL    HW231116   0.789   6.563   3.792
10073SOL     OW31117   6.273   4.453   5.022
10073SOL    HW131118   6.193   4.449   5.082
10073SOL    HW231119   6.354   4.426   5.073
10074SOL     OW31120   0.635   0.441   5.719
10074SOL    HW131121   0.655   0.366   5.781
10074SOL    HW231122   0.624   0.406   5.626
10075SOL     OW31123   1.323   2.373   2.632
10075SOL    HW131124   1.330   2.421   2.720
10075SOL    HW231125   1.248   2.412   2.579
10076SOL     OW31126   5.465   0.448   4.423
10076SOL    HW131127   5.505   0.362   4.455
10076SOL    HW231128   5.432   0.437   4.329
10077SOL     OW31129   3.651   2.354   6.883
10077SOL    HW131130   3.584   2.294   6.840
10077SOL    HW231131   3.739   2.344   6.837
10078SOL     OW31132   6.043   6.395   4.320
10078SOL    HW131133   6.051   6.472   4.256
10078SOL    HW231134   6.018   6.429   4.410
10079SOL     OW31135   1.774   2.974   2.103
10079SOL    HW131136   1.691   2.921   2.082
10079SOL    HW231137   1.798   3.030   2.023
10080SOL     OW31138   3.268   2.087   6.544
10080SOL    HW131139   3.332   2.146   6.495
10080SOL    HW231140   3.181   2.084   6.493
10081SOL     OW31141   0.404   6.919   6.543
10081SOL    HW131142   0.490   6.969   6.549
10081SOL    HW231143   0.370   6.923   6.449
10082SOL     OW31144   6.764   2.600   2.629
10082SOL    HW131145   6.789   2.602   2.726
10082SOL    HW231146   6.846   2.583   2.575
10083SOL     OW31147   5.023   1.059   3.316
10083SOL    HW131148   4.950   1.111   3.361
10083SOL    HW231149   5.033   1.091   3.222
10084SOL     OW31150   3.445   0.252   5.928
10084SOL    HW131151   3.458   0.159   5.893
10084SOL    HW231152   3.366   0.254   5.989
10085SOL     OW31153   0.527   4.985   2.993
10085SOL    HW131154   0.451   4.920   3.006
10085SOL    HW231155   0.493   5.065   2.945
10086SOL     OW31156   5.836   5.333   2.593
10086SOL    HW131157   5.839   5.326   2.493
10086SOL    HW231158   5.800   5.423   2.619
10087SOL     OW31159   0.862   0.906   3.782
10087SOL    HW131160   0.915   0.987   3.759
10087SOL    HW231161   0.766   0.931   3.794
10088SOL     OW31162   0.245   6.575   5.957
10088SOL    HW131163   0.201   6.599   6.043
10088SOL    HW231164   0.180   6.528   5.898
10089SOL     OW31165   2.522   1.631   3.218
10089SOL    HW131166   2.442   1.686   3.193
10089SOL    HW231167   2.604   1.688   3.212
10090SOL     OW31168   0.503   4.457   1.160
10090SOL    HW131169   0.536   4.534   1.214
10090SOL    HW231170   0.578   4.392   1.145
10091SOL     OW31171   1.066   3.235   4.815
10091SOL    HW131172   1.104   3.326   4.832
10091SOL    HW231173   1.139   3.175   4.781
10092SOL     OW31174   1.464   3.890   5.020
10092SOL    HW131175   1.543   3.851   4.973
10092SOL    HW231176   1.495   3.951   5.093
10093SOL     OW31177   1.048   4.824   4.397
10093SOL    HW131178   1.117   4.835   4.326
10093SOL    HW231179   1.081   4.759   4.466
10094SOL     OW31180   2.568   6.549   2.036
10094SOL    HW131181   2.556   6.469   2.093
10094SOL    HW231182   2.492   6.555   1.971
10095SOL     OW31183   6.363   1.307   5.374
10095SOL    HW131184   6.375   1.213   5.341
10095SOL    HW231185   6.452   1.350   5.385
10096SOL     OW31186   6.648   4.953   2.851
10096SOL    HW131187   6.609   4.878   2.904
10096SOL    HW231188   6.710   4.916   2.781
10097SOL     OW31189   0.889   1.108   6.839
10097SOL    HW131190   0.801   1.150   6.864
10097SOL    HW231191   0.915   1.139   6.747
10098SOL     OW31192   1.957   0.019   5.848
10098SOL    HW131193   2.028   0.089   5.840
10098SOL    HW231194   1.951   7.013   5.942
10099SOL     OW31195   6.957   4.326   6.606
10099SOL    HW131196   6.894   4.403   6.594
10099SOL    HW231197   0.012   4.356   6.657
10100SOL     OW31198   5.453   0.081   5.029
10100SOL    HW131199   5.363   0.110   4.996
10100SOL    HW231200   5.459   7.007   5.027
10101SOL     OW31201   5.871   4.511   1.634
10101SOL    HW131202   5.876   4.431   1.694
10101SOL    HW231203   5.950   4.511   1.572
10102SOL     OW31204   2.303   0.750   2.995
10102SOL    HW131205   2.279   0.841   3.029
10102SOL    HW231206   2.391   0.755   2.946
10103SOL     OW31207   2.941   1.147   4.745
10103SOL    HW131208   2.969   1.235   4.707
10103SOL    HW231209   2.996   1.074   4.706
10104SOL     OW31210   1.200   3.183   5.157
10104SOL    HW131211   1.215   3.271   5.113
10104SOL    HW231212   1.173   3.197   5.252
10105SOL     OW31213   1.281   1.333   6.284
10105SOL    HW131214   1.307   1.406   6.347
10105SOL    HW231215   1.221   1.370   6.213
10106SOL     OW31216   5.297   4.891   1.149
10106SOL    HW131217   5.389   4.924   1.129
10106SOL    HW231218   5.284   4.884   1.248
10107SOL     OW31219   6.973   1.563   6.439
10107SOL    HW131220   6.959   1.464   6.446
10107SOL    HW231221   6.977   1.602   6.531
10108SOL     OW31222   6.420   6.534   7.009
10108SOL    HW131223   6.454   6.566   0.071
10108SOL    HW231224   6.327   6.498   7.020
10109SOL     OW31225   3.807   6.192   2.578
10109SOL    HW131226   3.862   6.238   2.508
10109SOL    HW231227   3.866   6.131   2.632
10110SOL     OW31228   4.149   6.651   5.703
10110SOL    HW131229   4.075   6.595   5.665
10110SOL    HW231230   4.141   6.653   5.803
10111SOL     OW31231   6.448   3.355   3.510
10111SOL    HW131232   6.431   3.272   3.457
10111SOL    HW231233   6.408   3.345   3.601
10112SOL     OW31234   5.692   3.883   4.626
10112SOL    HW131235   5.748   3.842   4.699
10112SOL    HW231236   5.623   3.817   4.596
10113SOL     OW31237   3.711   1.059   6.734
10113SOL    HW131238   3.682   0.989   6.668
10113SOL    HW231239   3.771   1.125   6.688
10114SOL     OW31240   5.551   0.876   1.266
10114SOL    HW131241   5.543   0.976   1.262
10114SOL    HW231242   5.594   0.842   1.183
10115SOL     OW31243   2.922   1.645   3.052
10115SOL    HW131244   3.013   1.663   3.091
10115SOL    HW231245   2.908   1.705   2.973
10116SOL     OW31246   0.781   6.421   0.594
10116SOL    HW131247   0.706   6.405   0.530
10116SOL    HW231248   0.743   6.450   0.683
10117SOL     OW31249   6.368   0.107   4.769
10117SOL    HW131250   6.296   0.177   4.769
10117SOL    HW231251   6.435   0.128   4.699
10118SOL     OW31252   6.747   4.464   2.880
10118SOL    HW131253   6.769   4.369   2.903
10118SOL    HW231254   6.832   4.518   2.881
10119SOL     OW31255   1.526   6.761   4.674
10119SOL    HW131256   1.429   6.740   4.673
10119SOL    HW231257   1.558   6.778   4.581
10120SOL     OW31258   0.541   3.033   4.215
10120SOL    HW131259   0.639   3.014   4.218
10120SOL    HW231260   0.506   3.042   4.308
10121SOL     OW31261   6.968   5.068   5.488
10121SOL    HW131262   0.039   5.083   5.467
10121SOL    HW231263   6.956   4.979   5.531
10122SOL     OW31264   5.582   3.067   0.698
10122SOL    HW131265   5.581   3.159   0.658
10122SOL    HW231266   5.517   3.010   0.649
10123SOL     OW31267   6.558   5.895   0.335
10123SOL    HW131268   6.482   5.835   0.358
10123SOL    HW231269   6.595   5.869   0.245
10124SOL     OW31270   2.304   4.064   6.993
10124SOL    HW131271   2.327   3.993   6.927
10124SOL    HW231272   2.251   4.136   6.947
10125SOL     OW31273   2.042   0.964   2.337
10125SOL    HW131274   2.106   1.015   2.280
10125SOL    HW231275   1.997   0.894   2.282
10126SOL     OW31276   6.591   6.193   6.346
10126SOL    HW131277   6.560   6.217   6.438
10126SOL    HW231278   6.587   6.094   6.334
10127SOL     OW31279   2.509   5.438   5.795
10127SOL    HW131280   2.426   5.492   5.782
10127SOL    HW231281   2.513   5.366   5.727
10128SOL     OW31282   1.080   2.066   1.194
10128SOL    HW131283   1.125   2.032   1.111
10128SOL    HW231284   1.044   1.989   1.246
10129SOL     OW31285   4.705   2.824   4.006
10129SOL    HW131286   4.673   2.742   3.960
10129SOL    HW231287   4.794   2.806   4.048
10130SOL     OW31288   2.438   4.373   2.914
10130SOL    HW131289   2.466   4.413   3.001
10130SOL    HW231290   2.477   4.427   2.839
10131SOL     OW31291   0.503   1.266   3.367
10131SOL    HW131292   0.412   1.285   3.330
10131SOL    HW231293   0.554   1.352   3.375
10132SOL     OW31294   2.823   6.597   3.297
10132SOL    HW131295   2.797   6.672   3.236
10132SOL    HW231296   2.761   6.520   3.283
10133SOL     OW31297   4.524   6.468   2.122
10133SOL    HW131298   4.467   6.539   2.163
10133SOL    HW231299   4.469   6.384   2.112
10134SOL     OW31300   0.046   0.207   3.676
10134SOL    HW131301   0.102   0.154   3.612
10134SOL    HW231302   0.016   0.148   3.751
10135SOL     OW31303   5.148   3.493   3.444
10135SOL    HW131304   5.210   3.554   3.495
10135SOL    HW231305   5.057   3.497   3.485
10136SOL     OW31306   5.797   6.995   2.903
10136SOL    HW131307   5.757   6.920   2.957
10136SOL    HW231308   5.744   7.008   2.820
10137SOL     OW31309   6.866   5.241   3.956
10137SOL    HW131310   6.891   5.235   4.053
10137SOL    HW231311   6.947   5.223   3.900
10138SOL     OW31312   4.141   2.177   1.120
10138SOL    HW131313   4.056   2.223   1.096
10138SOL    HW231314   4.183   2.223   1.198
10139SOL     OW31315   4.126   3.416   3.345
10139SOL    HW131316   4.087   3.382   3.259
10139SOL    HW231317   4.096   3.358   3.420
10140SOL     OW31318   6.013   5.805   5.768
10140SOL    HW131319   6.051   5.860   5.841
10140SOL    HW231320   6.030   5.708   5.787
10141SOL     OW31321   3.628   1.569   4.531
10141SOL    HW131322   3.568   1.526   4.464
10141SOL    HW231323   3.647   1.663   4.503
10142SOL     OW31324   5.608   6.326   4.752
10142SOL    HW131325   5.692   6.328   4.807
10142SOL    HW231326   5.587   6.418   4.719
10143SOL     OW31327   4.792   0.292   1.114
10143SOL    HW131328   4.806   0.388   1.139
10143SOL    HW231329   4.864   0.264   1.049
10144SOL     OW31330   4.778   6.476   6.689
10144SOL    HW131331   4.781   6.576   6.685
10144SOL    HW231332   4.790   6.447   6.784
10145SOL     OW31333   3.908   6.003   6.201
10145SOL    HW131334   3.822   6.025   6.154
10145SOL    HW231335   3.973   6.079   6.190
10146SOL     OW31336   3.537   5.330   5.250
10146SOL    HW131337   3.548   5.239   5.209
10146SOL    HW231338   3.441   5.347   5.269
10147SOL     OW31339   5.220   4.502   4.650
10147SOL    HW131340   5.256   4.544   4.567
10147SOL    HW231341   5.285   4.512   4.725
10148SOL     OW31342   5.552   5.091   6.803
10148SOL    HW131343   5.546   5.166   6.737
10148SOL    HW231344   5.635   5.038   6.785
10149SOL     OW31345   5.599   1.997   0.838
10149SOL    HW131346   5.661   1.924   0.807
10149SOL    HW231347   5.618   2.018   0.934
10150SOL     OW31348   4.252   3.855   0.290
10150SOL    HW131349   4.275   3.758   0.287
10150SOL    HW231350   4.326   3.908   0.247
10151SOL     OW31351   0.630   0.024   6.554
10151SOL    HW131352   0.697   0.077   6.502
10151SOL    HW231353   0.669   7.023   6.642
10152SOL     OW31354   1.598   6.145   4.167
10152SOL    HW131355   1.530   6.164   4.237
10152SOL    HW231356   1.666   6.219   4.165
10153SOL     OW31357   5.073   5.603   4.265
10153SOL    HW131358   5.042   5.605   4.360
10153SOL    HW231359   5.105   5.512   4.241
10154SOL     OW31360   5.531   6.849   4.465
10154SOL    HW131361   5.481   6.798   4.395
10154SOL    HW231362   5.597   6.910   4.421
10155SOL     OW31363   4.176   1.774   5.867
10155SOL    HW131364   4.100   1.788   5.804
10155SOL    HW231365   4.198   1.677   5.872
10156SOL     OW31366   6.146   0.104   2.355
10156SOL    HW131367   6.069   0.119   2.417
10156SOL    HW231368   6.231   0.132   2.400
10157SOL     OW31369   5.972   2.635   6.310
10157SOL    HW131370   5.887   2.598   6.272
10157SOL    HW231371   5.977   2.733   6.291
10158SOL     OW31372   4.556   3.570   0.219
10158SOL    HW131373   4.621   3.547   0.292
10158SOL    HW231374   4.465   3.580   0.258
10159SOL     OW31375   2.909   3.485   6.312
10159SOL    HW131376   2.880   3.563   6.256
10159SOL    HW231377   2.842   3.412   6.304
10160SOL     OW31378   1.407   3.620   2.052
10160SOL    HW131379   1.457   3.698   2.016
10160SOL    HW231380   1.421   3.615   2.151
10161SOL     OW31381   3.538   3.828   6.904
10161SOL    HW131382   3.592   3.804   6.823
10161SOL    HW231383   3.480   3.751   6.930
10162SOL     OW31384   2.696   4.534   0.567
10162SOL    HW131385   2.712   4.555   0.471
10162SOL    HW231386   2.753   4.457   0.594
10163SOL     OW31387   5.335   5.129   6.549
10163SOL    HW131388   5.272   5.181   6.606
10163SOL    HW231389   5.303   5.129   6.455
10164SOL     OW31390   6.256   3.504   4.830
10164SOL    HW131391   6.297   3.493   4.740
10164SOL    HW231392   6.179   3.567   4.823
10165SOL     OW31393   0.874   2.166   3.574
10165SOL    HW131394   0.951   2.228   3.561
10165SOL    HW231395   0.860   2.151   3.672
10166SOL     OW31396   3.539   1.325   2.025
10166SOL    HW131397   3.440   1.336   2.021
10166SOL    HW231398   3.561   1.238   2.069
10167SOL     OW31399   4.097   2.050   6.398
10167SOL    HW131400   4.123   2.020   6.306
10167SOL    HW231401   4.177   2.046   6.458
10168SOL     OW31402   6.473   4.080   5.528
10168SOL    HW131403   6.395   4.139   5.509
10168SOL    HW231404   6.455   3.989   5.490
10169SOL     OW31405   5.842   4.048   3.048
10169SOL    HW131406   5.788   3.976   3.004
10169SOL    HW231407   5.908   4.007   3.111
10170SOL     OW31408   1.152   4.224   5.784
10170SOL    HW131409   1.063   4.259   5.813
10170SOL    HW231410   1.160   4.128   5.809
10171SOL     OW31411   6.557   3.907   5.860
10171SOL    HW131412   6.585   3.851   5.782
10171SOL    HW231413   6.566   3.854   5.944
10172SOL     OW31414   6.177   0.039   3.993
10172SOL    HW131415   6.110   0.079   3.931
10172SOL    HW231416   6.267   0.079   3.975
10173SOL     OW31417   1.059   3.355   0.617
10173SOL    HW131418   0.984   3.290   0.625
10173SOL    HW231419   1.027   3.446   0.642
10174SOL     OW31420   5.448   5.237   2.666
10174SOL    HW131421   5.390   5.306   2.623
10174SOL    HW231422   5.515   5.205   2.600
10175SOL     OW31423   6.678   1.982   3.525
10175SOL    HW131424   6.691   1.948   3.432
10175SOL    HW231425   6.626   1.915   3.578
10176SOL     OW31426   1.620   3.499   5.968
10176SOL    HW131427   1.547   3.454   6.020
10176SOL    HW231428   1.614   3.472   5.872
10177SOL     OW31429   2.223   1.300   0.412
10177SOL    HW131430   2.170   1.350   0.343
10177SOL    HW231431   2.252   1.212   0.374
10178SOL     OW31432   6.582   2.410   5.196
10178SOL    HW131433   6.511   2.353   5.156
10178SOL    HW231434   6.637   2.355   5.259
10179SOL     OW31435   1.185   1.426   5.780
10179SOL    HW131436   1.144   1.338   5.758
10179SOL    HW231437   1.114   1.490   5.808
10180SOL     OW31438   4.112   6.923   7.022
10180SOL    HW131439   4.100   6.825   7.008
10180SOL    HW231440   4.031   6.961   0.041
10181SOL     OW31441   5.099   3.338   2.335
10181SOL    HW131442   5.017   3.283   2.353
10181SOL    HW231443   5.156   3.290   2.268
10182SOL     OW31444   5.526   1.031   1.972
10182SOL    HW131445   5.473   1.092   1.913
10182SOL    HW231446   5.563   1.084   2.049
10183SOL     OW31447   0.548   1.863   6.658
10183SOL    HW131448   0.500   1.951   6.659
10183SOL    HW231449   0.596   1.851   6.571
10184SOL     OW31450   4.138   0.998   6.156
10184SOL    HW131451   4.218   0.938   6.160
10184SOL    HW231452   4.075   0.965   6.085
10185SOL     OW31453   5.393   5.593   1.881
10185SOL    HW131454   5.375   5.687   1.910
10185SOL    HW231455   5.491   5.580   1.869
10186SOL     OW31456   5.884   3.388   2.906
10186SOL    HW131457   5.820   3.311   2.896
10186SOL    HW231458   5.861   3.439   2.989
10187SOL     OW31459   0.530   2.871   0.925
10187SOL    HW131460   0.459   2.823   0.977
10187SOL    HW231461   0.613   2.815   0.923
10188SOL     OW31462   3.373   6.324   0.927
10188SOL    HW131463   3.341   6.231   0.940
10188SOL    HW231464   3.457   6.323   0.872
10189SOL     OW31465   1.333   0.620   5.587
10189SOL    HW131466   1.326   0.596   5.683
10189SOL    HW231467   1.374   0.712   5.579
10190SOL     OW31468   4.681   3.172   1.549
10190SOL    HW131469   4.652   3.257   1.506
10190SOL    HW231470   4.614   3.100   1.529
10191SOL     OW31471   5.092   4.257   6.341
10191SOL    HW131472   5.147   4.221   6.416
10191SOL    HW231473   5.103   4.357   6.337
10192SOL     OW31474   4.698   1.046   5.939
10192SOL    HW131475   4.730   1.140   5.947
10192SOL    HW231476   4.625   1.029   6.006
10193SOL     OW31477   4.141   3.606   1.892
10193SOL    HW131478   4.185   3.519   1.913
10193SOL    HW231479   4.144   3.665   1.972
10194SOL     OW31480   5.807   4.359   4.974
10194SOL    HW131481   5.740   4.304   5.025
10194SOL    HW231482   5.759   4.411   4.903
10195SOL     OW31483   5.955   4.859   1.148
10195SOL    HW131484   5.887   4.887   1.080
10195SOL    HW231485   5.912   4.858   1.238
10196SOL     OW31486   4.489   1.762   4.418
10196SOL    HW131487   4.393   1.766   4.445
10196SOL    HW231488   4.510   1.837   4.356
10197SOL     OW31489   6.829   1.775   5.035
10197SOL    HW131490   6.772   1.828   5.098
10197SOL    HW231491   6.851   1.831   4.954
10198SOL     OW31492   3.118   0.594   1.847
10198SOL    HW131493   3.126   0.537   1.929
10198SOL    HW231494   3.205   0.595   1.798
10199SOL     OW31495   2.225   2.981   5.878
10199SOL    HW131496   2.171   3.048   5.929
10199SOL    HW231497   2.300   3.027   5.832
10200SOL     OW31498   4.636   2.013   1.215
10200SOL    HW131499   4.647   1.944   1.144
10200SOL    HW231500   4.624   2.103   1.173
10201SOL     OW31501   1.071   4.563   0.880
10201SOL    HW131502   1.012   4.612   0.816
10201SOL    HW231503   1.091   4.621   0.958
10202SOL     OW31504   3.917   2.425   6.474
10202SOL    HW131505   3.833   2.459   6.516
10202SOL    HW231506   3.963   2.499   6.425
10203SOL     OW31507   6.026   2.682   3.765
10203SOL    HW131508   5.964   2.629   3.707
10203SOL    HW231509   5.995   2.777   3.768
10204SOL     OW31510   5.428   6.959   6.633
10204SOL    HW131511   5.329   6.968   6.649
10204SOL    HW231512   5.462   6.877   6.678
10205SOL     OW31513   1.241   1.129   0.565
10205SOL    HW131514   1.155   1.088   0.536
10205SOL    HW231515   1.224   1.220   0.602
10206SOL     OW31516   0.435   0.667   6.149
10206SOL    HW131517   0.347   0.674   6.197
10206SOL    HW231518   0.422   0.616   6.064
10207SOL     OW31519   1.286   1.999   6.188
10207SOL    HW131520   1.251   1.922   6.135
10207SOL    HW231521   1.380   1.980   6.217
10208SOL     OW31522   5.839   4.755   4.129
10208SOL    HW131523   5.922   4.809   4.115
10208SOL    HW231524   5.859   4.658   4.112
10209SOL     OW31525   6.568   0.079   6.152
10209SOL    HW131526   6.636   0.097   6.080
10209SOL    HW231527   6.485   0.131   6.132
10210SOL     OW31528   4.593   6.392   1.347
10210SOL    HW131529   4.573   6.407   1.444
10210SOL    HW231530   4.516   6.345   1.304
10211SOL     OW31531   3.915   6.723   4.080
10211SOL    HW131532   3.998   6.727   4.136
10211SOL    HW231533   3.904   6.630   4.045
10212SOL     OW31534   0.987   0.575   5.259
10212SOL    HW131535   0.922   0.499   5.246
10212SOL    HW231536   0.983   0.607   5.353
10213SOL     OW31537   4.288   3.070   1.447
10213SOL    HW131538   4.192   3.043   1.459
10213SOL    HW231539   4.298   3.119   1.360
10214SOL     OW31540   1.014   2.577   1.548
10214SOL    HW131541   0.986   2.488   1.584
10214SOL    HW231542   0.981   2.587   1.455
10215SOL     OW31543   4.064   3.178   3.054
10215SOL    HW131544   4.056   3.111   2.980
10215SOL    HW231545   3.985   3.170   3.115
10216SOL     OW31546   0.021   0.929   1.000
10216SOL    HW131547   0.015   0.924   0.900
10216SOL    HW231548   6.989   1.004   1.033
10217SOL     OW31549   2.772   1.347   3.366
10217SOL    HW131550   2.682   1.389   3.350
10217SOL    HW231551   2.759   1.249   3.383
10218SOL     OW31552   1.511   2.903   1.952
10218SOL    HW131553   1.564   2.862   1.878
10218SOL    HW231554   1.510   3.002   1.941
10219SOL     OW31555   0.368   1.942   2.822
10219SOL    HW131556   0.445   1.884   2.849
10219SOL    HW231557   0.291   1.926   2.884
10220SOL     OW31558   3.887   2.733   1.355
10220SOL    HW131559   3.863   2.829   1.369
10220SOL    HW231560   3.804   2.678   1.350
10221SOL     OW31561   0.483   5.728   3.201
10221SOL    HW131562   0.513   5.709   3.108
10221SOL    HW231563   0.563   5.741   3.260
10222SOL     OW31564   2.981   3.430   5.297
10222SOL    HW131565   2.942   3.347   5.259
10222SOL    HW231566   3.038   3.408   5.376
10223SOL     OW31567   0.860   4.713   1.390
10223SOL    HW131568   0.882   4.809   1.407
10223SOL    HW231569   0.841   4.700   1.292
10224SOL     OW31570   6.298   2.893   3.910
10224SOL    HW131571   6.265   2.897   4.004
10224SOL    HW231572   6.387   2.848   3.907
10225SOL     OW31573   2.126   4.425   5.815
10225SOL    HW131574   2.085   4.357   5.755
10225SOL    HW231575   2.113   4.516   5.777
10226SOL     OW31576   3.593   0.751   6.682
10226SOL    HW131577   3.570   0.770   6.778
10226SOL    HW231578   3.523   0.792   6.623
10227SOL     OW31579   4.547   4.364   0.409
10227SOL    HW131580   4.470   4.371   0.472
10227SOL    HW231581   4.557   4.450   0.359
10228SOL     OW31582   6.806   0.119   1.108
10228SOL    HW131583   6.814   0.055   1.184
10228SOL    HW231584   6.771   0.071   1.027
10229SOL     OW31585   1.013   2.988   5.141
10229SOL    HW131586   0.978   2.977   5.048
10229SOL    HW231587   1.091   3.050   5.140
10230SOL     OW31588   6.444   5.474   2.733
10230SOL    HW131589   6.388   5.533   2.676
10230SOL    HW231590   6.395   5.453   2.818
10231SOL     OW31591   1.471   5.894   4.887
10231SOL    HW131592   1.535   5.818   4.888
10231SOL    HW231593   1.466   5.935   4.978
10232SOL     OW31594   2.645   1.010   3.207
10232SOL    HW131595   2.608   0.998   3.115
10232SOL    HW231596   2.745   1.011   3.202
10233SOL     OW31597   3.699   3.952   5.317
10233SOL    HW131598   3.649   3.993   5.392
10233SOL    HW231599   3.791   3.928   5.347
10234SOL     OW31600   6.164   6.808   1.210
10234SOL    HW131601   6.121   6.723   1.238
10234SOL    HW231602   6.110   6.885   1.242
10235SOL     OW31603   1.609   1.787   1.950
10235SOL    HW131604   1.688   1.848   1.950
10235SOL    HW231605   1.582   1.767   2.044
10236SOL     OW31606   2.200   6.718   0.559
10236SOL    HW131607   2.221   6.790   0.625
10236SOL    HW231608   2.284   6.667   0.539
10237SOL     OW31609   0.247   3.652   0.069
10237SOL    HW131610   0.341   3.633   0.099
10237SOL    HW231611   0.185   3.645   0.148
10238SOL     OW31612   4.176   4.743   1.309
10238SOL    HW131613   4.083   4.767   1.281
10238SOL    HW231614   4.174   4.700   1.399
10239SOL     OW31615   1.439   2.777   4.859
10239SOL    HW131616   1.451   2.686   4.901
10239SOL    HW231617   1.486   2.779   4.771
10240SOL     OW31618   2.827   6.146   2.061
10240SOL    HW131619   2.749   6.198   2.096
10240SOL    HW231620   2.888   6.123   2.137
10241SOL     OW31621   5.271   1.856   1.846
10241SOL    HW131622   5.192   1.801   1.817
10241SOL    HW231623   5.245   1.914   1.923
10242SOL     OW31624   0.226   1.910   0.376
10242SOL    HW131625   0.156   1.981   0.368
10242SOL    HW231626   0.294   1.938   0.444
10243SOL     OW31627   2.527   4.732   1.393
10243SOL    HW131628   2.441   4.783   1.388
10243SOL    HW231629   2.518   4.647   1.342
10244SOL     OW31630   2.345   4.167   1.029
10244SOL    HW131631   2.249   4.193   1.015
10244SOL    HW231632   2.380   4.124   0.946
10245SOL     OW31633   3.481   4.308   1.273
10245SOL    HW131634   3.449   4.222   1.314
10245SOL    HW231635   3.408   4.348   1.218
10246SOL     OW31636   3.347   3.549   4.310
10246SOL    HW131637   3.282   3.596   4.370
10246SOL    HW231638   3.299   3.478   4.258
10247SOL     OW31639   0.871   4.340   5.875
10247SOL    HW131640   0.839   4.258   5.829
10247SOL    HW231641   0.904   4.406   5.808
10248SOL     OW31642   0.965   0.366   2.797
10248SOL    HW131643   0.975   0.407   2.888
10248SOL    HW231644   0.906   0.285   2.804
10249SOL     OW31645   2.079   4.814   0.167
10249SOL    HW131646   2.085   4.889   0.101
10249SOL    HW231647   2.009   4.836   0.235
10250SOL     OW31648   6.355   3.481   0.452
10250SOL    HW131649   6.451   3.462   0.470
10250SOL    HW231650   6.344   3.513   0.358
10251SOL     OW31651   2.075   1.094   4.474
10251SOL    HW131652   2.114   1.118   4.562
10251SOL    HW231653   2.076   1.175   4.414
10252SOL     OW31654   4.287   3.531   5.690
10252SOL    HW131655   4.289   3.628   5.715
10252SOL    HW231656   4.226   3.519   5.612
10253SOL     OW31657   3.610   6.345   0.764
10253SOL    HW131658   3.670   6.271   0.797
10253SOL    HW231659   3.564   6.315   0.680
10254SOL     OW31660   4.839   1.332   5.734
10254SOL    HW131661   4.876   1.254   5.684
10254SOL    HW231662   4.740   1.334   5.724
10255SOL     OW31663   2.214   6.739   1.107
10255SOL    HW131664   2.176   6.668   1.167
10255SOL    HW231665   2.159   6.743   1.023
10256SOL     OW31666   4.716   0.571   2.103
10256SOL    HW131667   4.803   0.549   2.147
10256SOL    HW231668   4.725   0.658   2.054
10257SOL     OW31669   2.467   4.795   3.961
10257SOL    HW131670   2.403   4.864   3.995
10257SOL    HW231671   2.446   4.774   3.866
10258SOL     OW31672   3.697   2.010   3.174
10258SOL    HW131673   3.605   2.032   3.208
10258SOL    HW231674   3.733   1.931   3.224
10259SOL     OW31675   0.764   3.967   3.613
10259SOL    HW131676   0.699   3.995   3.684
10259SOL    HW231677   0.825   3.896   3.649
10260SOL     OW31678   0.910   1.481   3.371
10260SOL    HW131679   0.882   1.404   3.429
10260SOL    HW231680   1.004   1.508   3.393
10261SOL     OW31681   0.162   4.433   0.677
10261SOL    HW131682   0.098   4.415   0.751
10261SOL    HW231683   0.113   4.467   0.597
10262SOL     OW31684   3.329   6.790   6.396
10262SOL    HW131685   3.345   6.874   6.345
10262SOL    HW231686   3.363   6.712   6.343
10263SOL     OW31687   5.764   0.634   0.636
10263SOL    HW131688   5.793   0.563   0.700
10263SOL    HW231689   5.666   0.622   0.616
10264SOL     OW31690   5.821   5.161   6.597
10264SOL    HW131691   5.793   5.071   6.632
10264SOL    HW231692   5.741   5.217   6.581
10265SOL     OW31693   3.007   2.626   0.413
10265SOL    HW131694   3.039   2.671   0.329
10265SOL    HW231695   3.075   2.640   0.485
10266SOL     OW31696   3.343   2.895   2.799
10266SOL    HW131697   3.317   2.952   2.878
10266SOL    HW231698   3.305   2.803   2.811
10267SOL     OW31699   5.341   1.009   0.973
10267SOL    HW131700   5.376   0.989   0.881
10267SOL    HW231701   5.411   1.058   1.025
10268SOL     OW31702   5.616   6.392   2.016
10268SOL    HW131703   5.551   6.468   2.009
10268SOL    HW231704   5.698   6.423   2.063
10269SOL     OW31705   0.858   2.754   6.712
10269SOL    HW131706   0.761   2.775   6.702
10269SOL    HW231707   0.869   2.668   6.762
10270SOL     OW31708   3.262   5.948   2.450
10270SOL    HW131709   3.291   5.990   2.364
10270SOL    HW231710   3.268   6.015   2.524
10271SOL     OW31711   2.922   2.885   0.129
10271SOL    HW131712   2.990   2.812   0.125
10271SOL    HW231713   2.841   2.858   0.077
10272SOL     OW31714   0.824   0.826   4.145
10272SOL    HW131715   0.830   0.729   4.170
10272SOL    HW231716   0.731   0.848   4.115
10273SOL     OW31717   3.030   4.824   4.682
10273SOL    HW131718   3.116   4.849   4.727
10273SOL    HW231719   2.955   4.830   4.749
10274SOL     OW31720   0.464   4.714   6.225
10274SOL    HW131721   0.533   4.669   6.169
10274SOL    HW231722   0.436   4.653   6.299
10275SOL     OW31723   0.142   0.534   2.161
10275SOL    HW131724   0.157   0.455   2.102
10275SOL    HW231725   0.206   0.531   2.237
10276SOL     OW31726   4.447   5.695   5.799
10276SOL    HW131727   4.447   5.795   5.804
10276SOL    HW231728   4.383   5.665   5.728
10277SOL     OW31729   1.309   6.919   4.276
10277SOL    HW131730   1.313   6.856   4.198
10277SOL    HW231731   1.215   6.949   4.290
10278SOL     OW31732   0.500   0.817   4.107
10278SOL    HW131733   0.461   0.855   4.191
10278SOL    HW231734   0.460   0.727   4.089
10279SOL     OW31735   2.740   5.662   3.900
10279SOL    HW131736   2.687   5.676   3.816
10279SOL    HW231737   2.753   5.565   3.916
10280SOL     OW31738   5.618   3.415   7.004
10280SOL    HW131739   5.556   3.491   6.985
10280SOL    HW231740   5.592   3.335   6.949
10281SOL     OW31741   0.027   2.840   2.922
10281SOL    HW131742   0.076   2.824   3.008
10281SOL    HW231743   6.966   2.789   2.923
10282SOL     OW31744   5.342   3.257   3.366
10282SOL    HW131745   5.324   3.355   3.357
10282SOL    HW231746   5.430   3.236   3.325
10283SOL     OW31747   0.916   3.092   0.638
10283SOL    HW131748   0.896   3.102   0.735
10283SOL    HW231749   0.833   3.111   0.585
10284SOL     OW31750   6.326   1.998   4.211
10284SOL    HW131751   6.397   1.955   4.156
10284SOL    HW231752   6.239   1.997   4.161
10285SOL     OW31753   4.128   6.480   2.949
10285SOL    HW131754   4.083   6.532   3.021
10285SOL    HW231755   4.206   6.531   2.914
10286SOL     OW31756   3.412   0.490   4.010
10286SOL    HW131757   3.495   0.532   4.048
10286SOL    HW231758   3.389   0.534   3.923
10287SOL     OW31759   1.717   5.865   1.998
10287SOL    HW131760   1.688   5.770   1.989
10287SOL    HW231761   1.817   5.870   1.992
10288SOL     OW31762   3.983   0.157   4.243
10288SOL    HW131763   3.940   0.240   4.206
10288SOL    HW231764   3.915   0.101   4.290
10289SOL     OW31765   3.020   6.190   1.009
10289SOL    HW131766   3.038   6.096   0.978
10289SOL    HW231767   3.019   6.192   1.109
10290SOL     OW31768   3.051   3.313   2.571
10290SOL    HW131769   3.139   3.317   2.618
10290SOL    HW231770   3.041   3.224   2.527
10291SOL     OW31771   3.873   1.605   3.110
10291SOL    HW131772   3.818   1.646   3.038
10291SOL    HW231773   3.944   1.548   3.069
10292SOL     OW31774   0.604   1.212   5.811
10292SOL    HW131775   0.601   1.153   5.731
10292SOL    HW231776   0.679   1.277   5.802
10293SOL     OW31777   0.636   2.903   3.496
10293SOL    HW131778   0.732   2.927   3.509
10293SOL    HW231779   0.580   2.949   3.565
10294SOL     OW31780   4.281   1.810   3.160
10294SOL    HW131781   4.229   1.816   3.075
10294SOL    HW231782   4.260   1.723   3.205
10295SOL     OW31783   1.157   2.476   5.797
10295SOL    HW131784   1.120   2.418   5.870
10295SOL    HW231785   1.249   2.444   5.773
10296SOL     OW31786   6.051   1.177   5.880
10296SOL    HW131787   5.979   1.163   5.947
10296SOL    HW231788   6.012   1.173   5.788
10297SOL     OW31789   2.188   1.299   6.727
10297SOL    HW131790   2.122   1.348   6.670
10297SOL    HW231791   2.237   1.364   6.784
10298SOL     OW31792   1.160   4.557   2.147
10298SOL    HW131793   1.138   4.528   2.054
10298SOL    HW231794   1.079   4.548   2.205
10299SOL     OW31795   4.194   6.396   2.315
10299SOL    HW131796   4.237   6.317   2.270
10299SOL    HW231797   4.232   6.480   2.277
10300SOL     OW31798   1.730   4.097   1.893
10300SOL    HW131799   1.634   4.119   1.877
10300SOL    HW231800   1.743   4.072   1.989
10301SOL     OW31801   4.781   1.634   5.106
10301SOL    HW131802   4.740   1.558   5.056
10301SOL    HW231803   4.830   1.599   5.186
10302SOL     OW31804   2.497   6.163   3.841
10302SOL    HW131805   2.528   6.122   3.755
10302SOL    HW231806   2.511   6.098   3.916
10303SOL     OW31807   0.950   5.608   3.629
10303SOL    HW131808   0.988   5.695   3.661
10303SOL    HW231809   0.888   5.571   3.699
10304SOL     OW31810   6.002   0.544   0.882
10304SOL    HW131811   6.074   0.474   0.888
10304SOL    HW231812   5.915   0.501   0.858
10305SOL     OW31813   2.725   4.441   5.838
10305SOL    HW131814   2.688   4.445   5.930
10305SOL    HW231815   2.670   4.499   5.777
10306SOL     OW31816   5.417   5.836   0.245
10306SOL    HW131817   5.398   5.881   0.158
10306SOL    HW231818   5.376   5.888   0.320
10307SOL     OW31819   3.271   1.382   4.644
10307SOL    HW131820   3.330   1.326   4.586
10307SOL    HW231821   3.237   1.327   4.720
10308SOL     OW31822   2.413   4.498   2.326
10308SOL    HW131823   2.466   4.510   2.242
10308SOL    HW231824   2.424   4.404   2.359
10309SOL     OW31825   6.899   1.312   6.437
10309SOL    HW131826   6.903   1.272   6.346
10309SOL    HW231827   6.831   1.264   6.493
10310SOL     OW31828   3.087   3.729   0.256
10310SOL    HW131829   3.173   3.677   0.257
10310SOL    HW231830   3.060   3.751   0.350
10311SOL     OW31831   6.667   5.442   0.054
10311SOL    HW131832   6.629   5.438   0.146
10311SOL    HW231833   6.599   5.479   7.016
10312SOL     OW31834   4.449   6.739   2.544
10312SOL    HW131835   4.501   6.734   2.459
10312SOL    HW231836   4.513   6.755   2.620
10313SOL     OW31837   3.782   5.875   2.274
10313SOL    HW131838   3.840   5.839   2.347
10313SOL    HW231839   3.708   5.928   2.314
10314SOL     OW31840   6.807   0.376   7.022
10314SOL    HW131841   6.790   0.305   6.954
10314SOL    HW231842   6.766   0.351   0.084
10315SOL     OW31843   5.866   6.003   4.016
10315SOL    HW131844   5.778   5.960   4.036
10315SOL    HW231845   5.901   6.047   4.098
10316SOL     OW31846   6.738   2.801   6.194
10316SOL    HW131847   6.645   2.774   6.217
10316SOL    HW231848   6.802   2.758   6.258
10317SOL     OW31849   4.087   6.210   6.294
10317SOL    HW131850   4.176   6.256   6.291
10317SOL    HW231851   4.057   6.202   6.389
10318SOL     OW31852   4.768   1.131   6.439
10318SOL    HW131853   4.769   1.047   6.385
10318SOL    HW231854   4.739   1.109   6.533
10319SOL     OW31855   1.000   4.023   5.485
10319SOL    HW131856   0.943   4.020   5.567
10319SOL    HW231857   0.995   4.114   5.444
10320SOL     OW31858   0.537   6.073   2.603
10320SOL    HW131859   0.519   6.100   2.508
10320SOL    HW231860   0.451   6.071   2.654
10321SOL     OW31861   5.620   1.862   1.891
10321SOL    HW131862   5.688   1.911   1.946
10321SOL    HW231863   5.549   1.926   1.861
10322SOL     OW31864   4.328   4.855   4.899
10322SOL    HW131865   4.359   4.919   4.969
10322SOL    HW231866   4.323   4.763   4.937
10323SOL     OW31867   6.299   4.919   5.361
10323SOL    HW131868   6.301   4.858   5.441
10323SOL    HW231869   6.344   4.873   5.284
10324SOL     OW31870   3.481   3.171   2.938
10324SOL    HW131871   3.558   3.211   2.988
10324SOL    HW231872   3.514   3.099   2.878
10325SOL     OW31873   0.267   4.989   2.254
10325SOL    HW131874   0.168   4.976   2.245
10325SOL    HW231875   0.285   5.078   2.297
10326SOL     OW31876   6.154   3.753   6.680
10326SOL    HW131877   6.076   3.777   6.623
10326SOL    HW231878   6.193   3.835   6.721
10327SOL     OW31879   2.317   3.042   1.746
10327SOL    HW131880   2.266   3.118   1.785
10327SOL    HW231881   2.264   3.001   1.671
10328SOL     OW31882   6.066   2.708   1.176
10328SOL    HW131883   6.025   2.798   1.162
10328SOL    HW231884   6.160   2.719   1.208
10329SOL     OW31885   2.524   1.190   2.737
10329SOL    HW131886   2.433   1.230   2.749
10329SOL    HW231887   2.592   1.262   2.735
10330SOL     OW31888   4.000   0.343   1.888
10330SOL    HW131889   4.007   0.433   1.845
10330SOL    HW231890   3.973   0.353   1.984
10331SOL     OW31891   6.725   6.306   6.137
10331SOL    HW131892   6.752   6.215   6.107
10331SOL    HW231893   6.662   6.299   6.215
10332SOL     OW31894   6.523   0.077   6.811
10332SOL    HW131895   6.518   7.009   6.845
10332SOL    HW231896   6.553   0.076   6.716
10333SOL     OW31897   0.726   5.378   5.057
10333SOL    HW131898   0.660   5.325   5.004
10333SOL    HW231899   0.742   5.466   5.013
10334SOL     OW31900   3.273   0.691   4.691
10334SOL    HW131901   3.318   0.631   4.758
10334SOL    HW231902   3.237   0.637   4.616
10335SOL     OW31903   1.562   4.369   6.951
10335SOL    HW131904   1.615   4.384   0.009
10335SOL    HW231905   1.624   4.367   6.872
10336SOL     OW31906   6.220   0.086   1.825
10336SOL    HW131907   6.234   0.026   1.904
10336SOL    HW231908   6.204   0.180   1.857
10337SOL     OW31909   0.580   5.808   6.679
10337SOL    HW131910   0.513   5.854   6.619
10337SOL    HW231911   0.610   5.872   6.749
10338SOL     OW31912   1.762   6.260   2.194
10338SOL    HW131913   1.845   6.221   2.154
10338SOL    HW231914   1.681   6.216   2.154
10339SOL     OW31915   6.209   3.510   6.097
10339SOL    HW131916   6.128   3.569   6.091
10339SOL    HW231917   6.284   3.549   6.045
10340SOL     OW31918   1.505   3.178   0.129
10340SOL    HW131919   1.534   3.106   0.192
10340SOL    HW231920   1.575   3.191   0.059
10341SOL     OW31921   2.115   3.611   2.254
10341SOL    HW131922   2.160   3.588   2.168
10341SOL    HW231923   2.053   3.537   2.281
10342SOL     OW31924   1.838   0.332   4.097
10342SOL    HW131925   1.898   0.411   4.088
10342SOL    HW231926   1.750   0.362   4.135
10343SOL     OW31927   3.049   5.256   0.202
10343SOL    HW131928   3.109   5.196   0.149
10343SOL    HW231929   3.023   5.211   0.288
10344SOL     OW31930   4.143   4.006   0.054
10344SOL    HW131931   4.045   4.017   0.039
10344SOL    HW231932   4.160   3.986   0.151
10345SOL     OW31933   1.744   2.430   5.743
10345SOL    HW131934   1.777   2.522   5.723
10345SOL    HW231935   1.769   2.368   5.668
10346SOL     OW31936   7.005   5.644   1.387
10346SOL    HW131937   0.022   5.691   1.310
10346SOL    HW231938   6.910   5.672   1.395
10347SOL     OW31939   5.005   1.520   3.404
10347SOL    HW131940   4.906   1.515   3.391
10347SOL    HW231941   5.034   1.616   3.398
10348SOL     OW31942   6.251   2.632   0.348
10348SOL    HW131943   6.195   2.713   0.367
10348SOL    HW231944   6.297   2.603   0.431
10349SOL     OW31945   1.077   0.746   6.587
10349SOL    HW131946   1.062   0.691   6.669
10349SOL    HW231947   1.152   0.811   6.603
10350SOL     OW31948   2.639   5.437   5.184
10350SOL    HW131949   2.729   5.394   5.180
10350SOL    HW231950   2.568   5.366   5.192
10351SOL     OW31951   4.711   5.220   0.038
10351SOL    HW131952   4.647   5.264   6.999
10351SOL    HW231953   4.743   5.134   7.024
10352SOL     OW31954   3.267   0.628   6.344
10352SOL    HW131955   3.308   0.539   6.326
10352SOL    HW231956   3.202   0.651   6.271
10353SOL     OW31957   6.927   2.859   4.775
10353SOL    HW131958   7.003   2.860   4.840
10353SOL    HW231959   6.962   2.879   4.683
10354SOL     OW31960   5.836   1.593   1.860
10354SOL    HW131961   5.775   1.671   1.850
10354SOL    HW231962   5.906   1.614   1.928
10355SOL     OW31963   2.498   6.382   1.679
10355SOL    HW131964   2.504   6.344   1.771
10355SOL    HW231965   2.469   6.477   1.684
10356SOL     OW31966   6.786   4.619   6.146
10356SOL    HW131967   6.783   4.702   6.090
10356SOL    HW231968   6.757   4.640   6.239
10357SOL     OW31969   1.649   2.998   6.254
10357SOL    HW131970   1.574   3.057   6.285
10357SOL    HW231971   1.676   2.937   6.329
10358SOL     OW31972   0.256   2.418   2.933
10358SOL    HW131973   0.293   2.511   2.921
10358SOL    HW231974   0.323   2.351   2.902
10359SOL     OW31975   0.694   1.597   0.918
10359SOL    HW131976   0.768   1.575   0.982
10359SOL    HW231977   0.652   1.684   0.945
10360SOL     OW31978   4.505   4.815   3.008
10360SOL    HW131979   4.456   4.733   2.980
10360SOL    HW231980   4.441   4.892   3.014
10361SOL     OW31981   2.593   6.656   2.565
10361SOL    HW131982   2.687   6.631   2.539
10361SOL    HW231983   2.571   6.746   2.526
10362SOL     OW31984   2.000   4.555   4.700
10362SOL    HW131985   2.061   4.624   4.739
10362SOL    HW231986   1.927   4.534   4.765
10363SOL     OW31987   5.043   0.874   2.842
10363SOL    HW131988   4.985   0.955   2.828
10363SOL    HW231989   5.031   0.841   2.936
10364SOL     OW31990   3.111   3.634   1.675
10364SOL    HW131991   3.088   3.725   1.640
10364SOL    HW231992   3.066   3.620   1.763
10365SOL     OW31993   3.660   5.964   0.434
10365SOL    HW131994   3.615   5.914   0.508
10365SOL    HW231995   3.651   5.912   0.349
10366SOL     OW31996   2.221   0.090   4.439
10366SOL    HW131997   2.265   0.159   4.496
10366SOL    HW231998   2.214   0.125   4.345
10367SOL     OW31999   5.466   2.502   2.521
10367SOL    HW132000   5.547   2.526   2.468
10367SOL    HW232001   5.489   2.430   2.587
10368SOL     OW32002   2.371   0.940   1.062
10368SOL    HW132003   2.290   0.981   1.020
10368SOL    HW232004   2.450   0.954   1.003
10369SOL     OW32005   4.069   1.002   6.909
10369SOL    HW132006   3.979   1.000   6.952
10369SOL    HW232007   4.130   0.940   6.958
10370SOL     OW32008   4.572   0.855   4.794
10370SOL    HW132009   4.525   0.904   4.867
10370SOL    HW232010   4.648   0.802   4.832
10371SOL     OW32011   3.266   5.436   5.581
10371SOL    HW132012   3.296   5.515   5.634
10371SOL    HW232013   3.168   5.443   5.562
10372SOL     OW32014   2.456   0.948   5.526
10372SOL    HW132015   2.466   1.011   5.603
10372SOL    HW232016   2.539   0.951   5.469
10373SOL     OW32017   1.488   6.428   4.702
10373SOL    HW132018   1.579   6.407   4.739
10373SOL    HW232019   1.497   6.460   4.608
10374SOL     OW32020   2.781   1.404   3.649
10374SOL    HW132021   2.779   1.412   3.550
10374SOL    HW232022   2.713   1.466   3.689
10375SOL     OW32023   4.896   2.197   0.409
10375SOL    HW132024   4.827   2.191   0.337
10375SOL    HW232025   4.969   2.258   0.380
10376SOL     OW32026   1.120   0.184   3.811
10376SOL    HW132027   1.108   0.161   3.908
10376SOL    HW232028   1.050   0.251   3.784
10377SOL     OW32029   0.354   0.671   3.461
10377SOL    HW132030   0.343   0.761   3.503
10377SOL    HW232031   0.277   0.613   3.488
10378SOL     OW32032   0.384   1.010   6.222
10378SOL    HW132033   0.416   1.001   6.316
10378SOL    HW232034   0.393   0.922   6.175
10379SOL     OW32035   5.258   0.332   5.205
10379SOL    HW132036   5.344   0.289   5.179
10379SOL    HW232037   5.182   0.270   5.186
10380SOL     OW32038   5.631   0.761   2.853
10380SOL    HW132039   5.566   0.826   2.813
10380SOL    HW232040   5.685   0.719   2.780
10381SOL     OW32041   4.768   5.317   5.925
10381SOL    HW132042   4.795   5.253   5.853
10381SOL    HW232043   4.721   5.395   5.884
10382SOL     OW32044   2.493   5.259   6.023
10382SOL    HW132045   2.527   5.338   5.972
10382SOL    HW232046   2.516   5.269   6.120
10383SOL     OW32047   1.403   3.552   0.785
10383SOL    HW132048   1.422   3.480   0.851
10383SOL    HW232049   1.391   3.512   0.694
10384SOL     OW32050   7.016   7.018   0.908
10384SOL    HW132051   6.988   6.941   0.965
10384SOL    HW232052   6.984   7.004   0.815
10385SOL     OW32053   5.598   6.943   6.100
10385SOL    HW132054   5.596   6.985   6.009
10385SOL    HW232055   5.575   7.012   6.169
10386SOL     OW32056   6.424   3.585   5.094
10386SOL    HW132057   6.356   3.552   5.159
10386SOL    HW232058   6.401   3.552   5.002
10387SOL     OW32059   2.836   2.228   3.054
10387SOL    HW132060   2.752   2.279   3.071
10387SOL    HW232061   2.902   2.247   3.126
10388SOL     OW32062   1.272   5.333   3.965
10388SOL    HW132063   1.209   5.407   3.988
10388SOL    HW232064   1.276   5.268   4.041
10389SOL     OW32065   0.620   4.756   3.126
10389SOL    HW132066   0.603   4.843   3.080
10389SOL    HW232067   0.605   4.767   3.225
10390SOL     OW32068   1.831   4.202   3.103
10390SOL    HW132069   1.892   4.185   3.025
10390SOL    HW232070   1.745   4.152   3.090
10391SOL     OW32071   1.475   6.054   6.532
10391SOL    HW132072   1.433   6.052   6.623
10391SOL    HW232073   1.528   6.138   6.521
10392SOL     OW32074   5.987   4.430   0.307
10392SOL    HW132075   5.993   4.333   0.282
10392SOL    HW232076   5.997   4.486   0.225
10393SOL     OW32077   0.930   1.480   4.164
10393SOL    HW132078   0.881   1.531   4.234
10393SOL    HW232079   0.985   1.408   4.208
10394SOL     OW32080   1.889   6.667   6.959
10394SOL    HW132081   1.856   6.738   6.896
10394SOL    HW232082   1.965   6.704   7.013
10395SOL     OW32083   0.225   0.653   3.783
10395SOL    HW132084   0.131   0.661   3.814
10395SOL    HW232085   0.256   0.740   3.743
10396SOL     OW32086   1.025   0.218   3.302
10396SOL    HW132087   1.050   0.315   3.302
10396SOL    HW232088   0.952   0.202   3.368
10397SOL     OW32089   4.173   0.590   3.116
10397SOL    HW132090   4.197   0.678   3.074
10397SOL    HW232091   4.075   0.575   3.107
10398SOL     OW32092   6.502   2.934   1.368
10398SOL    HW132093   6.467   3.025   1.390
10398SOL    HW232094   6.515   2.882   1.453
10399SOL     OW32095   4.875   2.120   5.531
10399SOL    HW132096   4.966   2.092   5.499
10399SOL    HW232097   4.816   2.136   5.451
10400SOL     OW32098   2.235   5.683   3.014
10400SOL    HW132099   2.185   5.754   3.063
10400SOL    HW232100   2.193   5.594   3.033
10401SOL     OW32101   6.884   5.846   2.237
10401SOL    HW132102   6.811   5.903   2.275
10401SOL    HW232103   6.876   5.844   2.137
10402SOL     OW32104   0.840   3.370   5.110
10402SOL    HW132105   0.847   3.290   5.170
10402SOL    HW232106   0.823   3.340   5.016
10403SOL     OW32107   5.115   1.190   2.142
10403SOL    HW132108   5.089   1.267   2.084
10403SOL    HW232109   5.036   1.163   2.199
10404SOL     OW32110   0.692   6.613   4.109
10404SOL    HW132111   0.755   6.591   4.184
10404SOL    HW232112   0.598   6.593   4.137
10405SOL     OW32113   1.609   6.056   5.609
10405SOL    HW132114   1.553   6.130   5.647
10405SOL    HW232115   1.623   5.986   5.679
10406SOL     OW32116   2.340   4.875   6.138
10406SOL    HW132117   2.348   4.778   6.162
10406SOL    HW232118   2.313   4.883   6.042
10407SOL     OW32119   1.173   1.779   6.015
10407SOL    HW132120   1.249   1.794   5.952
10407SOL    HW232121   1.176   1.685   6.050
10408SOL     OW32122   4.563   4.397   3.415
10408SOL    HW132123   4.520   4.485   3.435
10408SOL    HW232124   4.586   4.351   3.500
10409SOL     OW32125   0.323   3.613   1.929
10409SOL    HW132126   0.287   3.637   2.019
10409SOL    HW232127   0.401   3.672   1.908
10410SOL     OW32128   4.289   1.066   1.052
10410SOL    HW132129   4.283   1.165   1.069
10410SOL    HW232130   4.252   1.017   1.131
10411SOL     OW32131   2.265   4.854   2.930
10411SOL    HW132132   2.304   4.919   2.864
10411SOL    HW232133   2.265   4.762   2.890
10412SOL     OW32134   1.273   2.461   0.191
10412SOL    HW132135   1.367   2.429   0.199
10412SOL    HW232136   1.270   2.538   0.128
10413SOL     OW32137   0.249   2.096   6.951
10413SOL    HW132138   0.153   2.075   6.932
10413SOL    HW232139   0.291   2.021   7.001
10414SOL     OW32140   5.516   6.632   6.957
10414SOL    HW132141   5.437   6.612   7.015
10414SOL    HW232142   5.579   6.555   6.960
10415SOL     OW32143   0.543   5.899   3.432
10415SOL    HW132144   0.582   5.949   3.354
10415SOL    HW232145   0.475   5.957   3.477
10416SOL     OW32146   6.095   2.278   5.112
10416SOL    HW132147   6.057   2.185   5.108
10416SOL    HW232148   6.039   2.339   5.057
10417SOL     OW32149   3.988   5.031   2.817
10417SOL    HW132150   3.917   5.068   2.876
10417SOL    HW232151   4.077   5.042   2.860
10418SOL     OW32152   6.717   4.233   6.072
10418SOL    HW132153   6.789   4.299   6.050
10418SOL    HW232154   6.702   4.173   5.993
10419SOL     OW32155   2.899   1.121   5.644
10419SOL    HW132156   2.884   1.095   5.740
10419SOL    HW232157   2.821   1.175   5.612
10420SOL     OW32158   6.371   3.163   3.337
10420SOL    HW132159   6.305   3.089   3.326
10420SOL    HW232160   6.462   3.131   3.307
10421SOL     OW32161   1.190   4.625   3.876
10421SOL    HW132162   1.120   4.567   3.919
10421SOL    HW232163   1.236   4.573   3.804
10422SOL     OW32164   6.819   3.573   4.584
10422SOL    HW132165   6.903   3.566   4.637
10422SOL    HW232166   6.815   3.499   4.517
10423SOL     OW32167   3.078   4.975   4.101
10423SOL    HW132168   3.018   4.901   4.130
10423SOL    HW232169   3.133   4.945   4.023
10424SOL     OW32170   3.774   0.895   6.404
10424SOL    HW132171   3.801   0.956   6.329
10424SOL    HW232172   3.852   0.837   6.429
10425SOL     OW32173   2.451   0.786   0.393
10425SOL    HW132174   2.459   0.756   0.298
10425SOL    HW232175   2.396   0.870   0.396
10426SOL     OW32176   5.429   2.901   6.064
10426SOL    HW132177   5.335   2.935   6.059
10426SOL    HW232178   5.493   2.978   6.061
10427SOL     OW32179   5.887   6.218   4.899
10427SOL    HW132180   5.976   6.178   4.923
10427SOL    HW232181   5.876   6.305   4.946
10428SOL     OW32182   2.026   1.018   3.304
10428SOL    HW132183   2.034   0.954   3.380
10428SOL    HW232184   1.932   1.018   3.270
10429SOL     OW32185   0.937   3.358   2.755
10429SOL    HW132186   0.853   3.396   2.793
10429SOL    HW232187   0.986   3.308   2.826
10430SOL     OW32188   3.337   0.546   3.741
10430SOL    HW132189   3.436   0.559   3.736
10430SOL    HW232190   3.293   0.598   3.668
10431SOL     OW32191   2.954   2.155   3.939
10431SOL    HW132192   2.975   2.063   3.907
10431SOL    HW232193   2.938   2.153   4.038
10432SOL     OW32194   6.852   6.669   5.899
10432SOL    HW132195   6.789   6.667   5.821
10432SOL    HW232196   6.825   6.743   5.962
10433SOL     OW32197   1.798   6.727   2.047
10433SOL    HW132198   1.784   6.725   1.948
10433SOL    HW232199   1.806   6.634   2.082
10434SOL     OW32200   4.742   6.342   5.638
10434SOL    HW132201   4.653   6.381   5.614
10434SOL    HW232202   4.772   6.380   5.726
10435SOL     OW32203   0.833   2.449   6.468
10435SOL    HW132204   0.795   2.410   6.384
10435SOL    HW232205   0.765   2.509   6.511
10436SOL     OW32206   0.371   4.398   5.322
10436SOL    HW132207   0.452   4.343   5.302
10436SOL    HW232208   0.299   4.340   5.358
10437SOL     OW32209   5.967   5.002   5.010
10437SOL    HW132210   5.885   4.944   5.003
10437SOL    HW232211   6.000   4.999   5.104
10438SOL     OW32212   6.997   6.417   6.185
10438SOL    HW132213   6.908   6.384   6.154
10438SOL    HW232214   0.037   6.414   6.110
10439SOL     OW32215   6.886   0.248   4.117
10439SOL    HW132216   6.825   0.279   4.191
10439SOL    HW232217   6.962   0.312   4.108
10440SOL     OW32218   0.041   2.025   6.534
10440SOL    HW132219   0.140   2.008   6.526
10440SOL    HW232220   0.008   1.987   6.620
10441SOL     OW32221   3.446   2.129   0.688
10441SOL    HW132222   3.403   2.043   0.712
10441SOL    HW232223   3.425   2.151   0.593
10442SOL     OW32224   2.505   1.889   5.231
10442SOL    HW132225   2.539   1.981   5.211
10442SOL    HW232226   2.468   1.887   5.324
10443SOL     OW32227   0.262   1.265   2.891
10443SOL    HW132228   0.221   1.202   2.957
10443SOL    HW232229   0.288   1.350   2.938
10444SOL     OW32230   4.083   5.318   4.678
10444SOL    HW132231   4.037   5.329   4.589
10444SOL    HW232232   4.138   5.399   4.697
10445SOL     OW32233   1.934   4.538   2.659
10445SOL    HW132234   1.895   4.493   2.578
10445SOL    HW232235   1.888   4.504   2.741
10446SOL     OW32236   1.818   4.033   5.065
10446SOL    HW132237   1.836   3.980   4.982
10446SOL    HW232238   1.904   4.063   5.105
10447SOL     OW32239   0.128   1.638   2.998
10447SOL    HW132240   0.058   1.575   2.964
10447SOL    HW232241   0.218   1.596   2.988
10448SOL     OW32242   2.524   6.758   2.838
10448SOL    HW132243   2.522   6.714   2.749
10448SOL    HW232244   2.437   6.806   2.853
10449SOL     OW32245   3.449   6.097   6.652
10449SOL    HW132246   3.535   6.147   6.640
10449SOL    HW232247   3.455   6.009   6.605
10450SOL     OW32248   6.543   0.386   6.153
10450SOL    HW132249   6.483   0.403   6.074
10450SOL    HW232250   6.528   0.456   6.222
10451SOL     OW32251   2.158   0.793   3.920
10451SOL    HW132252   2.159   0.835   4.010
10451SOL    HW232253   2.227   0.837   3.862
10452SOL     OW32254   6.860   3.517   4.124
10452SOL    HW132255   6.925   3.471   4.185
10452SOL    HW232256   6.892   3.511   4.030
10453SOL     OW32257   4.272   5.523   3.572
10453SOL    HW132258   4.312   5.573   3.496
10453SOL    HW232259   4.273   5.581   3.654
10454SOL     OW32260   6.757   0.953   5.962
10454SOL    HW132261   6.710   1.039   5.943
10454SOL    HW232262   6.852   0.959   5.931
10455SOL     OW32263   6.039   6.651   4.215
10455SOL    HW132264   6.010   6.646   4.119
10455SOL    HW232265   6.080   6.740   4.234
10456SOL     OW32266   0.281   5.139   0.075
10456SOL    HW132267   0.281   5.218   0.137
10456SOL    HW232268   0.187   5.113   0.054
10457SOL     OW32269   4.025   2.526   0.020
10457SOL    HW132270   3.947   2.583   0.046
10457SOL    HW232271   4.028   2.517   6.946
10458SOL     OW32272   6.490   6.276   6.586
10458SOL    HW132273   6.528   6.328   6.662
10458SOL    HW232274   6.390   6.276   6.592
10459SOL     OW32275   0.070   5.712   0.581
10459SOL    HW132276   0.137   5.710   0.654
10459SOL    HW232277   0.023   5.800   0.581
10460SOL     OW32278   0.407   3.422   0.268
10460SOL    HW132279   0.435   3.389   0.177
10460SOL    HW232280   0.329   3.368   0.300
10461SOL     OW32281   0.412   5.622   5.341
10461SOL    HW132282   0.348   5.601   5.266
10461SOL    HW232283   0.400   5.718   5.368
10462SOL     OW32284   4.467   1.638   0.741
10462SOL    HW132285   4.470   1.567   0.811
10462SOL    HW232286   4.480   1.728   0.783
10463SOL     OW32287   4.963   2.974   5.871
10463SOL    HW132288   5.018   2.975   5.788
10463SOL    HW232289   4.907   3.056   5.875
10464SOL     OW32290   6.088   5.591   2.797
10464SOL    HW132291   6.161   5.564   2.859
10464SOL    HW232292   6.001   5.590   2.846
10465SOL     OW32293   5.743   3.784   1.972
10465SOL    HW132294   5.676   3.730   2.023
10465SOL    HW232295   5.697   3.834   1.899
10466SOL     OW32296   5.511   4.955   6.433
10466SOL    HW132297   5.449   5.022   6.472
10466SOL    HW232298   5.542   4.892   6.504
10467SOL     OW32299   1.857   2.908   6.758
10467SOL    HW132300   1.806   2.982   6.714
10467SOL    HW232301   1.803   2.824   6.757
10468SOL     OW32302   2.694   4.602   3.811
10468SOL    HW132303   2.757   4.527   3.828
10468SOL    HW232304   2.690   4.662   3.891
10469SOL     OW32305   5.854   1.400   5.339
10469SOL    HW132306   5.892   1.491   5.323
10469SOL    HW232307   5.785   1.381   5.269
10470SOL     OW32308   2.461   2.224   4.016
10470SOL    HW132309   2.421   2.144   3.973
10470SOL    HW232310   2.530   2.264   3.955
10471SOL     OW32311   2.785   0.700   0.388
10471SOL    HW132312   2.836   0.780   0.417
10471SOL    HW232313   2.706   0.687   0.447
10472SOL     OW32314   3.663   5.361   0.558
10472SOL    HW132315   3.758   5.380   0.533
10472SOL    HW232316   3.604   5.382   0.481
10473SOL     OW32317   5.277   4.618   6.552
10473SOL    HW132318   5.248   4.629   6.647
10473SOL    HW232319   5.209   4.659   6.492
10474SOL     OW32320   5.412   0.847   4.014
10474SOL    HW132321   5.464   0.771   3.975
10474SOL    HW232322   5.393   0.914   3.943
10475SOL     OW32323   1.437   6.333   1.810
10475SOL    HW132324   1.348   6.320   1.852
10475SOL    HW232325   1.502   6.267   1.848
10476SOL     OW32326   3.775   6.515   0.463
10476SOL    HW132327   3.696   6.576   0.471
10476SOL    HW232328   3.772   6.448   0.538
10477SOL     OW32329   6.346   6.506   4.006
10477SOL    HW132330   6.363   6.479   4.101
10477SOL    HW232331   6.318   6.602   4.003
10478SOL     OW32332   6.198   6.890   0.424
10478SOL    HW132333   6.140   6.969   0.402
10478SOL    HW232334   6.294   6.915   0.415
10479SOL     OW32335   7.010   1.929   2.456
10479SOL    HW132336   6.971   1.964   2.541
10479SOL    HW232337   6.939   1.883   2.403
10480SOL     OW32338   1.396   0.036   2.140
10480SOL    HW132339   1.358   0.096   2.211
10480SOL    HW232340   1.421   0.090   2.060
10481SOL     OW32341   0.670   0.126   3.247
10481SOL    HW132342   0.686   0.116   3.345
10481SOL    HW232343   0.584   0.082   3.223
10482SOL     OW32344   5.489   3.690   3.481
10482SOL    HW132345   5.544   3.769   3.510
10482SOL    HW232346   5.484   3.688   3.381
10483SOL     OW32347   5.648   5.161   0.131
10483SOL    HW132348   5.653   5.069   0.094
10483SOL    HW232349   5.696   5.164   0.219
10484SOL     OW32350   6.446   1.159   1.393
10484SOL    HW132351   6.410   1.251   1.408
10484SOL    HW232352   6.370   1.095   1.380
10485SOL     OW32353   4.361   3.779   6.005
10485SOL    HW132354   4.448   3.731   5.994
10485SOL    HW232355   4.331   3.815   5.917
10486SOL     OW32356   6.272   3.006   0.814
10486SOL    HW132357   6.364   3.000   0.853
10486SOL    HW232358   6.266   2.946   0.734
10487SOL     OW32359   6.055   6.255   1.392
10487SOL    HW132360   6.046   6.224   1.297
10487SOL    HW232361   6.044   6.177   1.454
10488SOL     OW32362   2.596   2.903   6.280
10488SOL    HW132363   2.649   2.936   6.202
10488SOL    HW232364   2.627   2.950   6.363
10489SOL     OW32365   6.996   5.744   6.183
10489SOL    HW132366   0.070   5.750   6.192
10489SOL    HW232367   6.954   5.815   6.238
10490SOL     OW32368   6.948   0.987   3.341
10490SOL    HW132369   6.995   1.071   3.366
10490SOL    HW232370   6.853   1.007   3.319
10491SOL     OW32371   2.100   3.802   6.320
10491SOL    HW132372   2.041   3.860   6.264
10491SOL    HW232373   2.189   3.793   6.276
10492SOL     OW32374   4.845   3.529   5.370
10492SOL    HW132375   4.792   3.565   5.293
10492SOL    HW232376   4.836   3.430   5.373
10493SOL     OW32377   3.386   0.634   1.426
10493SOL    HW132378   3.302   0.682   1.450
10493SOL    HW232379   3.436   0.686   1.357
10494SOL     OW32380   5.601   2.193   4.320
10494SOL    HW132381   5.517   2.244   4.303
10494SOL    HW232382   5.636   2.215   4.410
10495SOL     OW32383   1.941   0.230   0.533
10495SOL    HW132384   1.922   0.260   0.627
10495SOL    HW232385   1.862   0.179   0.498
10496SOL     OW32386   6.921   0.026   0.085
10496SOL    HW132387   6.921   0.060   0.179
10496SOL    HW232388   6.963   0.095   0.025
10497SOL     OW32389   1.466   0.412   0.695
10497SOL    HW132390   1.447   0.506   0.726
10497SOL    HW232391   1.557   0.385   0.728
10498SOL     OW32392   1.811   6.867   6.799
10498SOL    HW132393   1.773   6.935   6.863
10498SOL    HW232394   1.813   6.905   6.707
10499SOL     OW32395   2.866   6.273   3.156
10499SOL    HW132396   2.947   6.304   3.205
10499SOL    HW232397   2.834   6.187   3.196
10500SOL     OW32398   0.830   2.419   5.789
10500SOL    HW132399   0.775   2.492   5.750
10500SOL    HW232400   0.866   2.447   5.878
10501SOL     OW32401   2.186   4.474   2.592
10501SOL    HW132402   2.166   4.416   2.513
10501SOL    HW232403   2.101   4.497   2.639
10502SOL     OW32404   3.294   6.879   0.305
10502SOL    HW132405   3.227   6.806   0.292
10502SOL    HW232406   3.335   6.904   0.217
10503SOL     OW32407   4.061   2.883   0.288
10503SOL    HW132408   4.139   2.915   0.233
10503SOL    HW232409   3.978   2.931   0.259
10504SOL     OW32410   2.393   2.992   0.224
10504SOL    HW132411   2.406   3.091   0.229
10504SOL    HW232412   2.302   2.968   0.256
10505SOL     OW32413   6.324   5.806   0.649
10505SOL    HW132414   6.238   5.826   0.603
10505SOL    HW232415   6.333   5.864   0.730
10506SOL     OW32416   0.384   4.566   6.474
10506SOL    HW132417   0.373   4.558   6.573
10506SOL    HW232418   0.307   4.521   6.429
10507SOL     OW32419   1.591   0.534   6.142
10507SOL    HW132420   1.581   0.438   6.166
10507SOL    HW232421   1.679   0.548   6.096
10508SOL     OW32422   5.650   5.266   3.428
10508SOL    HW132423   5.561   5.224   3.410
10508SOL    HW232424   5.640   5.365   3.432
10509SOL     OW32425   1.183   6.792   6.996
10509SOL    HW132426   1.180   6.867   6.929
10509SOL    HW232427   1.142   6.824   0.057
10510SOL     OW32428   5.687   5.092   6.093
10510SOL    HW132429   5.589   5.077   6.080
10510SOL    HW232430   5.730   5.109   6.005
10511SOL     OW32431   4.180   3.009   0.645
10511SOL    HW132432   4.143   2.923   0.679
10511SOL    HW232433   4.246   2.991   0.572
10512SOL     OW32434   4.792   0.626   6.676
10512SOL    HW132435   4.766   0.533   6.650
10512SOL    HW232436   4.782   0.637   6.775
10513SOL     OW32437   0.535   2.056   6.280
10513SOL    HW132438   0.447   2.068   6.326
10513SOL    HW232439   0.522   2.067   6.181
10514SOL     OW32440   6.256   3.992   0.443
10514SOL    HW132441   6.285   4.087   0.450
10514SOL    HW232442   6.229   3.959   0.533
10515SOL     OW32443   6.717   1.539   2.746
10515SOL    HW132444   6.725   1.467   2.676
10515SOL    HW232445   6.782   1.612   2.725
10516SOL     OW32446   4.357   0.856   6.628
10516SOL    HW132447   4.257   0.853   6.621
10516SOL    HW232448   4.389   0.947   6.604
10517SOL     OW32449   6.702   1.836   2.518
10517SOL    HW132450   6.742   1.791   2.438
10517SOL    HW232451   6.759   1.819   2.598
10518SOL     OW32452   1.253   5.622   0.455
10518SOL    HW132453   1.222   5.545   0.400
10518SOL    HW232454   1.350   5.639   0.437
10519SOL     OW32455   3.295   2.765   5.890
10519SOL    HW132456   3.273   2.723   5.802
10519SOL    HW232457   3.256   2.857   5.894
10520SOL     OW32458   2.970   2.839   6.526
10520SOL    HW132459   3.059   2.835   6.572
10520SOL    HW232460   2.908   2.895   6.581
10521SOL     OW32461   6.451   6.543   0.903
10521SOL    HW132462   6.449   6.596   0.988
10521SOL    HW232463   6.358   6.525   0.873
10522SOL     OW32464   6.523   1.195   0.343
10522SOL    HW132465   6.613   1.197   0.388
10522SOL    HW232466   6.521   1.118   0.278
10523SOL     OW32467   0.281   5.417   6.069
10523SOL    HW132468   0.349   5.483   6.103
10523SOL    HW232469   0.286   5.333   6.123
10524SOL     OW32470   1.792   6.856   4.279
10524SOL    HW132471   1.759   6.870   4.185
10524SOL    HW232472   1.833   6.942   4.312
10525SOL     OW32473   1.941   6.533   5.545
10525SOL    HW132474   1.980   6.573   5.462
10525SOL    HW232475   2.007   6.540   5.619
10526SOL     OW32476   0.694   1.067   2.396
10526SOL    HW132477   0.681   1.116   2.311
10526SOL    HW232478   0.639   0.983   2.395
10527SOL     OW32479   0.992   2.538   4.663
10527SOL    HW132480   1.078   2.491   4.681
10527SOL    HW232481   0.989   2.624   4.714
10528SOL     OW32482   0.796   4.585   5.163
10528SOL    HW132483   0.852   4.626   5.235
10528SOL    HW232484   0.719   4.645   5.143
10529SOL     OW32485   0.509   6.206   3.492
10529SOL    HW132486   0.556   6.239   3.574
10529SOL    HW232487   0.576   6.192   3.419
10530SOL     OW32488   2.518   1.789   6.001
10530SOL    HW132489   2.527   1.873   5.948
10530SOL    HW232490   2.436   1.793   6.057
10531SOL     OW32491   1.858   3.571   4.710
10531SOL    HW132492   1.934   3.540   4.654
10531SOL    HW232493   1.865   3.531   4.801
10532SOL     OW32494   2.843   2.677   6.766
10532SOL    HW132495   2.881   2.769   6.776
10532SOL    HW232496   2.808   2.645   6.854
10533SOL     OW32497   3.162   1.295   4.881
10533SOL    HW132498   3.154   1.199   4.909
10533SOL    HW232499   3.231   1.340   4.938
10534SOL     OW32500   6.933   6.086   1.136
10534SOL    HW132501   6.961   6.090   1.040
10534SOL    HW232502   7.006   6.046   1.190
10535SOL     OW32503   0.070   1.422   2.340
10535SOL    HW132504   0.068   1.330   2.302
10535SOL    HW232505   0.136   1.425   2.416
10536SOL     OW32506   4.836   0.629   3.176
10536SOL    HW132507   4.769   0.680   3.229
10536SOL    HW232508   4.880   0.560   3.234
10537SOL     OW32509   2.737   5.466   3.112
10537SOL    HW132510   2.657   5.503   3.064
10537SOL    HW232511   2.794   5.542   3.143
10538SOL     OW32512   4.290   3.924   6.613
10538SOL    HW132513   4.297   3.933   6.713
10538SOL    HW232514   4.315   3.831   6.587
10539SOL     OW32515   0.822   4.000   6.060
10539SOL    HW132516   0.903   3.991   6.118
10539SOL    HW232517   0.741   3.970   6.111
10540SOL     OW32518   1.711   0.942   5.399
10540SOL    HW132519   1.659   0.883   5.460
10540SOL    HW232520   1.753   1.016   5.451
10541SOL     OW32521   3.939   3.459   0.990
10541SOL    HW132522   3.843   3.451   0.964
10541SOL    HW232523   3.946   3.484   1.086
10542SOL     OW32524   0.126   1.683   0.292
10542SOL    HW132525   0.149   1.607   0.353
10542SOL    HW232526   0.174   1.766   0.323
10543SOL     OW32527   0.326   1.728   5.642
10543SOL    HW132528   0.240   1.749   5.595
10543SOL    HW232529   0.318   1.640   5.689
10544SOL     OW32530   2.662   2.065   2.580
10544SOL    HW132531   2.756   2.084   2.552
10544SOL    HW232532   2.598   2.096   2.509
10545SOL     OW32533   6.973   0.108   2.158
10545SOL    HW132534   6.982   0.069   2.249
10545SOL    HW232535   6.876   0.126   2.139
10546SOL     OW32536   1.470   7.016   5.013
10546SOL    HW132537   1.471   6.933   5.068
10546SOL    HW232538   1.504   0.068   5.067
10547SOL     OW32539   4.384   1.008   1.855
10547SOL    HW132540   4.360   0.926   1.907
10547SOL    HW232541   4.360   1.089   1.907
10548SOL     OW32542   5.173   3.753   4.603
10548SOL    HW132543   5.096   3.716   4.656
10548SOL    HW232544   5.259   3.720   4.643
10549SOL     OW32545   0.338   0.484   2.345
10549SOL    HW132546   0.438   0.485   2.333
10549SOL    HW232547   0.316   0.497   2.442
10550SOL     OW32548   5.067   6.609   4.334
10550SOL    HW132549   5.067   6.682   4.403
10550SOL    HW232550   5.015   6.531   4.368
10551SOL     OW32551   1.335   2.259   5.156
10551SOL    HW132552   1.369   2.205   5.233
10551SOL    HW232553   1.243   2.228   5.131
10552SOL     OW32554   4.401   1.787   5.665
10552SOL    HW132555   4.322   1.741   5.626
10552SOL    HW232556   4.391   1.793   5.764
10553SOL     OW32557   0.717   5.327   0.864
10553SOL    HW132558   0.689   5.268   0.940
10553SOL    HW232559   0.686   5.287   0.778
10554SOL     OW32560   6.120   4.968   6.862
10554SOL    HW132561   6.093   5.063   6.873
10554SOL    HW232562   6.206   4.964   6.811
10555SOL     OW32563   3.026   1.917   1.859
10555SOL    HW132564   3.111   1.948   1.817
10555SOL    HW232565   3.016   1.960   1.949
10556SOL     OW32566   2.156   3.280   5.129
10556SOL    HW132567   2.144   3.189   5.090
10556SOL    HW232568   2.216   3.274   5.209
10557SOL     OW32569   0.254   2.303   3.196
10557SOL    HW132570   0.349   2.287   3.223
10557SOL    HW232571   0.252   2.358   3.112
10558SOL     OW32572   4.723   6.683   5.308
10558SOL    HW132573   4.676   6.769   5.326
10558SOL    HW232574   4.772   6.689   5.221
10559SOL     OW32575   4.029   1.729   0.943
10559SOL    HW132576   4.046   1.697   0.851
10559SOL    HW232577   4.116   1.749   0.989
10560SOL     OW32578   1.667   4.868   5.063
10560SOL    HW132579   1.741   4.918   5.019
10560SOL    HW232580   1.637   4.794   5.002
10561SOL     OW32581   1.831   5.121   0.249
10561SOL    HW132582   1.734   5.097   0.244
10561SOL    HW232583   1.883   5.059   0.191
10562SOL     OW32584   4.627   6.970   0.878
10562SOL    HW132585   4.700   6.997   0.816
10562SOL    HW232586   4.571   6.899   0.835
10563SOL     OW32587   1.959   1.378   4.609
10563SOL    HW132588   2.055   1.352   4.619
10563SOL    HW232589   1.927   1.353   4.517
10564SOL     OW32590   5.878   0.408   1.370
10564SOL    HW132591   5.788   0.443   1.397
10564SOL    HW232592   5.945   0.482   1.376
10565SOL     OW32593   6.743   1.002   5.603
10565SOL    HW132594   6.687   0.989   5.521
10565SOL    HW232595   6.756   1.100   5.620
10566SOL     OW32596   3.967   3.879   6.236
10566SOL    HW132597   4.008   3.810   6.176
10566SOL    HW232598   3.904   3.936   6.183
10567SOL     OW32599   1.851   3.361   4.345
10567SOL    HW132600   1.792   3.398   4.416
10567SOL    HW232601   1.944   3.395   4.358
10568SOL     OW32602   5.607   1.122   2.204
10568SOL    HW132603   5.693   1.171   2.216
10568SOL    HW232604   5.591   1.063   2.283
10569SOL     OW32605   6.448   3.421   2.569
10569SOL    HW132606   6.471   3.505   2.521
10569SOL    HW232607   6.448   3.438   2.668
10570SOL     OW32608   1.797   4.800   2.653
10570SOL    HW132609   1.726   4.788   2.584
10570SOL    HW232610   1.861   4.723   2.650
10571SOL     OW32611   6.369   5.334   3.523
10571SOL    HW132612   6.318   5.399   3.467
10571SOL    HW232613   6.467   5.344   3.505
10572SOL     OW32614   5.820   3.530   2.629
10572SOL    HW132615   5.830   3.462   2.556
10572SOL    HW232616   5.801   3.483   2.715
10573SOL     OW32617   5.730   6.117   3.490
10573SOL    HW132618   5.688   6.049   3.430
10573SOL    HW232619   5.822   6.087   3.516
10574SOL     OW32620   1.629   2.106   3.828
10574SOL    HW132621   1.592   2.103   3.922
10574SOL    HW232622   1.555   2.131   3.765
10575SOL     OW32623   0.434   0.432   3.988
10575SOL    HW132624   0.351   0.388   4.022
10575SOL    HW232625   0.511   0.408   4.047
10576SOL     OW32626   1.405   5.901   5.338
10576SOL    HW132627   1.488   5.934   5.293
10576SOL    HW232628   1.376   5.815   5.296
10577SOL     OW32629   2.046   3.259   6.562
10577SOL    HW132630   1.948   3.238   6.565
10577SOL    HW232631   2.096   3.181   6.524
10578SOL     OW32632   5.911   0.768   5.026
10578SOL    HW132633   5.939   0.675   5.047
10578SOL    HW232634   5.822   0.767   4.980
10579SOL     OW32635   3.928   1.088   0.598
10579SOL    HW132636   3.942   1.094   0.499
10579SOL    HW232637   3.940   0.993   0.628
10580SOL     OW32638   6.618   6.488   6.344
10580SOL    HW132639   6.599   6.411   6.405
10580SOL    HW232640   6.714   6.485   6.315
10581SOL     OW32641   6.122   0.400   3.133
10581SOL    HW132642   6.024   0.397   3.153
10581SOL    HW232643   6.173   0.349   3.202
10582SOL     OW32644   3.502   4.731   0.209
10582SOL    HW132645   3.587   4.783   0.208
10582SOL    HW232646   3.472   4.712   0.115
10583SOL     OW32647   3.986   0.745   6.466
10583SOL    HW132648   4.036   0.725   6.382
10583SOL    HW232649   4.039   0.809   6.521
10584SOL     OW32650   5.446   5.844   1.431
10584SOL    HW132651   5.514   5.899   1.480
10584SOL    HW232652   5.420   5.766   1.487
10585SOL     OW32653   1.249   3.094   5.902
10585SOL    HW132654   1.160   3.111   5.861
10585SOL    HW232655   1.240   3.023   5.972
10586SOL     OW32656   2.414   6.011   5.776
10586SOL    HW132657   2.487   6.079   5.784
10586SOL    HW232658   2.335   6.051   5.731
10587SOL     OW32659   6.001   3.404   0.348
10587SOL    HW132660   5.952   3.343   0.410
10587SOL    HW232661   6.022   3.489   0.395
10588SOL     OW32662   0.722   4.598   2.385
10588SOL    HW132663   0.751   4.520   2.330
10588SOL    HW232664   0.640   4.638   2.345
10589SOL     OW32665   5.749   2.491   4.211
10589SOL    HW132666   5.733   2.549   4.130
10589SOL    HW232667   5.662   2.476   4.258
10590SOL     OW32668   1.125   6.742   2.761
10590SOL    HW132669   1.097   6.821   2.815
10590SOL    HW232670   1.175   6.771   2.680
10591SOL     OW32671   1.671   1.732   5.529
10591SOL    HW132672   1.714   1.648   5.563
10591SOL    HW232673   1.572   1.728   5.542
10592SOL     OW32674   6.447   1.406   6.895
10592SOL    HW132675   6.387   1.337   6.935
10592SOL    HW232676   6.515   1.435   6.962
10593SOL     OW32677   2.470   6.143   1.132
10593SOL    HW132678   2.388   6.178   1.086
10593SOL    HW232679   2.443   6.094   1.215
10594SOL     OW32680   6.637   1.598   3.610
10594SOL    HW132681   6.668   1.542   3.533
10594SOL    HW232682   6.613   1.539   3.687
10595SOL     OW32683   3.117   0.017   5.799
10595SOL    HW132684   3.165   6.998   5.875
10595SOL    HW232685   3.112   6.980   5.721
10596SOL     OW32686   3.930   6.697   2.072
10596SOL    HW132687   3.929   6.745   2.160
10596SOL    HW232688   3.837   6.671   2.047
10597SOL     OW32689   2.592   0.903   4.903
10597SOL    HW132690   2.535   0.918   4.984
10597SOL    HW232691   2.647   0.985   4.886
10598SOL     OW32692   1.982   2.610   6.908
10598SOL    HW132693   2.080   2.595   6.916
10598SOL    HW232694   1.965   2.695   6.858
10599SOL     OW32695   6.247   1.669   6.914
10599SOL    HW132696   6.317   1.687   6.845
10599SOL    HW232697   6.222   1.754   6.959
10600SOL     OW32698   2.728   3.261   6.292
10600SOL    HW132699   2.707   3.202   6.371
10600SOL    HW232700   2.652   3.256   6.227
10601SOL     OW32701   2.880   6.376   6.176
10601SOL    HW132702   2.875   6.344   6.270
10601SOL    HW232703   2.885   6.476   6.174
10602SOL     OW32704   4.594   1.000   1.286
10602SOL    HW132705   4.549   1.071   1.232
10602SOL    HW232706   4.684   0.981   1.247
10603SOL     OW32707   1.299   6.165   3.575
10603SOL    HW132708   1.231   6.202   3.638
10603SOL    HW232709   1.256   6.100   3.512
10604SOL     OW32710   6.250   4.112   4.981
10604SOL    HW132711   6.175   4.052   5.007
10604SOL    HW232712   6.213   4.195   4.939
10605SOL     OW32713   1.220   5.146   0.635
10605SOL    HW132714   1.127   5.165   0.603
10605SOL    HW232715   1.223   5.155   0.734
10606SOL     OW32716   0.081   0.708   1.465
10606SOL    HW132717   0.029   0.789   1.437
10606SOL    HW232718   0.139   0.679   1.389
10607SOL     OW32719   4.307   4.697   6.248
10607SOL    HW132720   4.265   4.624   6.302
10607SOL    HW232721   4.279   4.786   6.286
10608SOL     OW32722   5.964   1.552   4.503
10608SOL    HW132723   5.968   1.621   4.431
10608SOL    HW232724   5.874   1.509   4.503
10609SOL     OW32725   3.876   6.190   1.242
10609SOL    HW132726   3.800   6.250   1.220
10609SOL    HW232727   3.841   6.107   1.287
10610SOL     OW32728   1.208   3.833   6.413
10610SOL    HW132729   1.244   3.920   6.446
10610SOL    HW232730   1.278   3.762   6.426
10611SOL     OW32731   5.463   2.968   6.420
10611SOL    HW132732   5.374   2.978   6.464
10611SOL    HW232733   5.514   3.054   6.427
10612SOL     OW32734   2.089   0.378   6.421
10612SOL    HW132735   2.077   0.390   6.519
10612SOL    HW232736   2.184   0.352   6.402
10613SOL     OW32737   0.226   0.053   5.379
10613SOL    HW132738   0.278   6.993   5.386
10613SOL    HW232739   0.138   0.035   5.335
10614SOL     OW32740   6.660   0.633   4.441
10614SOL    HW132741   6.688   0.594   4.353
10614SOL    HW232742   6.577   0.688   4.428
10615SOL     OW32743   4.673   5.538   5.422
10615SOL    HW132744   4.594   5.481   5.397
10615SOL    HW232745   4.664   5.628   5.379
10616SOL     OW32746   2.560   6.197   0.431
10616SOL    HW132747   2.583   6.159   0.521
10616SOL    HW232748   2.514   6.127   0.377
10617SOL     OW32749   2.484   2.646   0.156
10617SOL    HW132750   2.386   2.628   0.154
10617SOL    HW232751   2.509   2.690   0.242
10618SOL     OW32752   6.192   2.231   0.603
10618SOL    HW132753   6.284   2.192   0.609
10618SOL    HW232754   6.153   2.212   0.513
10619SOL     OW32755   0.866   3.978   3.135
10619SOL    HW132756   0.875   3.924   3.219
10619SOL    HW232757   0.819   3.924   3.066
10620SOL     OW32758   1.070   6.166   5.676
10620SOL    HW132759   1.004   6.201   5.609
10620SOL    HW232760   1.150   6.129   5.629
10621SOL     OW32761   1.209   5.913   6.816
10621SOL    HW132762   1.271   5.988   6.791
10621SOL    HW232763   1.152   5.941   6.894
10622SOL     OW32764   4.059   0.898   1.925
10622SOL    HW132765   3.987   0.856   1.870
10622SOL    HW232766   4.060   0.997   1.908
10623SOL     OW32767   5.579   2.613   3.719
10623SOL    HW132768   5.548   2.518   3.708
10623SOL    HW232769   5.676   2.619   3.695
10624SOL     OW32770   1.987   0.837   4.412
10624SOL    HW132771   2.029   0.927   4.424
10624SOL    HW232772   1.902   0.846   4.360
10625SOL     OW32773   0.846   3.985   6.793
10625SOL    HW132774   0.876   4.078   6.813
10625SOL    HW232775   0.829   3.936   6.878
10626SOL     OW32776   0.827   2.536   1.327
10626SOL    HW132777   0.784   2.446   1.320
10626SOL    HW232778   0.832   2.578   1.237
10627SOL     OW32779   6.731   6.279   2.549
10627SOL    HW132780   6.634   6.259   2.559
10627SOL    HW232781   6.782   6.193   2.542
10628SOL     OW32782   6.339   5.167   5.343
10628SOL    HW132783   6.315   5.071   5.359
10628SOL    HW232784   6.409   5.173   5.272
10629SOL     OW32785   2.295   4.898   5.877
10629SOL    HW132786   2.382   4.860   5.846
10629SOL    HW232787   2.221   4.866   5.818
10630SOL     OW32788   6.310   0.569   3.004
10630SOL    HW132789   6.235   0.527   3.056
10630SOL    HW232790   6.375   0.610   3.068
10631SOL     OW32791   0.572   0.047   3.812
10631SOL    HW132792   0.488   0.013   3.853
10631SOL    HW232793   0.645   0.045   3.881
10632SOL     OW32794   6.451   2.333   4.442
10632SOL    HW132795   6.375   2.293   4.392
10632SOL    HW232796   6.433   2.328   4.540
10633SOL     OW32797   2.499   5.048   1.518
10633SOL    HW132798   2.516   5.025   1.613
10633SOL    HW232799   2.439   5.128   1.513
10634SOL     OW32800   3.034   5.922   0.895
10634SOL    HW132801   3.016   5.906   0.798
10634SOL    HW232802   3.019   5.838   0.946
10635SOL     OW32803   3.275   0.858   0.843
10635SOL    HW132804   3.344   0.804   0.891
10635SOL    HW232805   3.296   0.955   0.855
10636SOL     OW32806   0.285   1.760   1.326
10636SOL    HW132807   0.358   1.697   1.354
10636SOL    HW232808   0.295   1.781   1.229
10637SOL     OW32809   3.378   4.060   5.019
10637SOL    HW132810   3.345   3.994   5.086
10637SOL    HW232811   3.454   4.112   5.058
10638SOL     OW32812   0.160   6.560   4.302
10638SOL    HW132813   0.195   6.498   4.233
10638SOL    HW232814   0.179   6.524   4.393
10639SOL     OW32815   1.097   1.353   4.817
10639SOL    HW132816   1.003   1.381   4.838
10639SOL    HW232817   1.095   1.267   4.767
10640SOL     OW32818   5.077   0.704   0.116
10640SOL    HW132819   5.093   0.605   0.112
10640SOL    HW232820   5.102   0.745   0.028
10641SOL     OW32821   5.298   1.936   0.153
10641SOL    HW132822   5.262   2.011   0.099
10641SOL    HW232823   5.222   1.888   0.198
10642SOL     OW32824   0.262   2.039   1.448
10642SOL    HW132825   0.167   2.066   1.462
10642SOL    HW232826   0.266   1.960   1.387
10643SOL     OW32827   2.216   3.868   5.312
10643SOL    HW132828   2.291   3.904   5.256
10643SOL    HW232829   2.158   3.809   5.255
10644SOL     OW32830   4.784   1.435   3.940
10644SOL    HW132831   4.710   1.381   3.979
10644SOL    HW232832   4.803   1.514   3.998
10645SOL     OW32833   1.203   0.831   4.644
10645SOL    HW132834   1.260   0.868   4.571
10645SOL    HW232835   1.243   0.746   4.678
10646SOL     OW32836   0.488   2.774   5.859
10646SOL    HW132837   0.548   2.710   5.811
10646SOL    HW232838   0.482   2.747   5.956
10647SOL     OW32839   6.386   4.879   0.512
10647SOL    HW132840   6.471   4.859   0.559
10647SOL    HW232841   6.317   4.811   0.536
10648SOL     OW32842   4.883   3.091   6.394
10648SOL    HW132843   4.919   2.998   6.403
10648SOL    HW232844   4.792   3.095   6.435
10649SOL     OW32845   0.368   5.129   5.631
10649SOL    HW132846   0.357   5.214   5.580
10649SOL    HW232847   0.348   5.144   5.727
10650SOL     OW32848   2.195   6.206   4.139
10650SOL    HW132849   2.236   6.276   4.081
10650SOL    HW232850   2.110   6.241   4.178
10651SOL     OW32851   4.386   6.441   5.953
10651SOL    HW132852   4.405   6.537   5.931
10651SOL    HW232853   4.454   6.408   6.018
10652SOL     OW32854   3.245   0.217   6.159
10652SOL    HW132855   3.146   0.221   6.150
10652SOL    HW232856   3.273   0.266   6.241
10653SOL     OW32857   4.961   4.263   4.350
10653SOL    HW132858   4.873   4.244   4.394
10653SOL    HW232859   4.977   4.361   4.349
10654SOL     OW32860   2.833   0.679   1.286
10654SOL    HW132861   2.735   0.691   1.272
10654SOL    HW232862   2.880   0.767   1.278
10655SOL     OW32863   2.990   5.795   1.982
10655SOL    HW132864   2.918   5.754   1.925
10655SOL    HW232865   2.948   5.851   2.054
10656SOL     OW32866   6.074   2.187   0.357
10656SOL    HW132867   6.058   2.273   0.310
10656SOL    HW232868   5.999   2.124   0.338
10657SOL     OW32869   5.653   6.922   1.019
10657SOL    HW132870   5.642   6.916   0.919
10657SOL    HW232871   5.628   6.835   1.061
10658SOL     OW32872   1.187   4.849   4.172
10658SOL    HW132873   1.285   4.856   4.155
10658SOL    HW232874   1.139   4.915   4.113
10659SOL     OW32875   5.660   6.916   0.762
10659SOL    HW132876   5.604   6.990   0.724
10659SOL    HW232877   5.756   6.942   0.757
10660SOL     OW32878   4.143   3.943   5.544
10660SOL    HW132879   4.101   4.016   5.597
10660SOL    HW232880   4.207   3.983   5.478
10661SOL     OW32881   0.412   6.579   1.739
10661SOL    HW132882   0.351   6.566   1.817
10661SOL    HW232883   0.499   6.532   1.758
10662SOL     OW32884   6.707   1.446   0.563
10662SOL    HW132885   6.626   1.486   0.520
10662SOL    HW232886   6.754   1.516   0.618
10663SOL     OW32887   0.611   0.548   1.213
10663SOL    HW132888   0.661   0.521   1.295
10663SOL    HW232889   0.656   0.626   1.170
10664SOL     OW32890   2.177   4.912   0.612
10664SOL    HW132891   2.203   4.872   0.524
10664SOL    HW232892   2.198   4.847   0.685
10665SOL     OW32893   0.052   2.168   0.466
10665SOL    HW132894   7.012   2.118   0.409
10665SOL    HW232895   0.003   2.230   0.527
10666SOL     OW32896   2.799   5.929   6.966
10666SOL    HW132897   2.818   5.999   6.897
10666SOL    HW232898   2.842   5.843   6.940
10667SOL     OW32899   3.914   1.771   5.703
10667SOL    HW132900   3.856   1.842   5.743
10667SOL    HW232901   3.862   1.686   5.695
10668SOL     OW32902   1.523   1.894   6.320
10668SOL    HW132903   1.599   1.956   6.341
10668SOL    HW232904   1.547   1.839   6.240
10669SOL     OW32905   1.498   0.240   0.262
10669SOL    HW132906   1.542   0.209   0.177
10669SOL    HW232907   1.413   0.287   0.239
10670SOL     OW32908   5.631   4.778   5.753
10670SOL    HW132909   5.531   4.777   5.751
10670SOL    HW232910   5.663   4.743   5.842
10671SOL     OW32911   2.351   2.740   2.730
10671SOL    HW132912   2.356   2.719   2.828
10671SOL    HW232913   2.308   2.830   2.718
10672SOL     OW32914   0.405   2.574   0.573
10672SOL    HW132915   0.407   2.614   0.482
10672SOL    HW232916   0.316   2.529   0.588
10673SOL     OW32917   2.829   3.220   5.252
10673SOL    HW132918   2.902   3.151   5.252
10673SOL    HW232919   2.746   3.180   5.215
10674SOL     OW32920   4.076   3.653   1.629
10674SOL    HW132921   4.069   3.568   1.576
10674SOL    HW232922   4.085   3.631   1.726
10675SOL     OW32923   0.325   6.669   5.711
10675SOL    HW132924   0.348   6.593   5.650
10675SOL    HW232925   0.328   6.637   5.806
10676SOL     OW32926   5.808   0.265   6.539
10676SOL    HW132927   5.853   0.192   6.590
10676SOL    HW232928   5.877   0.317   6.489
10677SOL     OW32929   0.374   0.775   1.366
10677SOL    HW132930   0.381   0.702   1.299
10677SOL    HW232931   0.464   0.819   1.376
10678SOL     OW32932   2.319   5.675   2.293
10678SOL    HW132933   2.249   5.734   2.332
10678SOL    HW232934   2.337   5.599   2.355
10679SOL     OW32935   5.886   5.201   4.046
10679SOL    HW132936   5.932   5.177   4.131
10679SOL    HW232937   5.940   5.270   3.997
10680SOL     OW32938   0.947   3.219   2.304
10680SOL    HW132939   0.974   3.314   2.291
10680SOL    HW232940   0.977   3.187   2.394
10681SOL     OW32941   6.592   2.720   5.664
10681SOL    HW132942   6.607   2.778   5.744
10681SOL    HW232943   6.497   2.688   5.662
10682SOL     OW32944   0.232   1.921   1.809
10682SOL    HW132945   0.217   2.018   1.828
10682SOL    HW232946   0.153   1.884   1.761
10683SOL     OW32947   1.800   2.112   4.537
10683SOL    HW132948   1.778   2.028   4.585
10683SOL    HW232949   1.814   2.092   4.440
10684SOL     OW32950   5.852   4.260   6.931
10684SOL    HW132951   5.807   4.321   6.866
10684SOL    HW232952   5.784   4.199   6.972
10685SOL     OW32953   0.594   3.465   3.475
10685SOL    HW132954   0.531   3.432   3.545
10685SOL    HW232955   0.570   3.426   3.386
10686SOL     OW32956   2.741   5.812   0.390
10686SOL    HW132957   2.761   5.892   0.447
10686SOL    HW232958   2.795   5.817   0.306
10687SOL     OW32959   7.000   5.088   2.725
10687SOL    HW132960   6.939   5.011   2.742
10687SOL    HW232961   6.950   5.162   2.680
10688SOL     OW32962   6.867   5.118   1.727
10688SOL    HW132963   6.791   5.055   1.741
10688SOL    HW232964   6.832   5.211   1.715
10689SOL     OW32965   0.089   0.452   2.563
10689SOL    HW132966   0.093   0.420   2.657
10689SOL    HW232967   0.025   0.529   2.556
10690SOL     OW32968   4.672   5.139   2.175
10690SOL    HW132969   4.663   5.238   2.184
10690SOL    HW232970   4.635   5.094   2.256
10691SOL     OW32971   6.807   1.288   1.431
10691SOL    HW132972   6.858   1.260   1.350
10691SOL    HW232973   6.769   1.207   1.476
10692SOL     OW32974   3.841   5.881   4.000
10692SOL    HW132975   3.911   5.874   3.929
10692SOL    HW232976   3.757   5.836   3.969
10693SOL     OW32977   6.891   1.509   1.550
10693SOL    HW132978   6.844   1.521   1.637
10693SOL    HW232979   6.858   1.426   1.505
10694SOL     OW32980   4.332   6.227   0.985
10694SOL    HW132981   4.330   6.326   0.977
10694SOL    HW232982   4.352   6.202   1.080
10695SOL     OW32983   6.975   2.402   4.231
10695SOL    HW132984   6.961   2.404   4.132
10695SOL    HW232985   6.895   2.360   4.275
10696SOL     OW32986   6.868   6.222   1.401
10696SOL    HW132987   6.859   6.317   1.430
10696SOL    HW232988   6.887   6.219   1.302
10697SOL     OW32989   1.178   6.235   4.524
10697SOL    HW132990   1.081   6.255   4.531
10697SOL    HW232991   1.196   6.143   4.556
10698SOL     OW32992   2.829   0.231   3.743
10698SOL    HW132993   2.814   0.325   3.712
10698SOL    HW232994   2.765   0.170   3.697
10699SOL     OW32995   3.649   1.880   2.762
10699SOL    HW132996   3.654   1.921   2.671
10699SOL    HW232997   3.637   1.951   2.831
10700SOL     OW32998   6.791   6.553   1.248
10700SOL    HW132999   6.774   6.607   1.165
10700SOL    HW233000   6.889   6.557   1.271
10701SOL     OW33001   3.265   6.421   0.305
10701SOL    HW133002   3.349   6.430   0.253
10701SOL    HW233003   3.213   6.341   0.273
10702SOL     OW33004   5.894   2.723   0.354
10702SOL    HW133005   5.880   2.692   0.259
10702SOL    HW233006   5.964   2.795   0.355
10703SOL     OW33007   3.749   4.009   3.936
10703SOL    HW133008   3.826   3.945   3.930
10703SOL    HW233009   3.769   4.079   4.004
10704SOL     OW33010   5.171   0.139   2.260
10704SOL    HW133011   5.193   0.042   2.262
10704SOL    HW233012   5.253   0.192   2.279
10705SOL     OW33013   0.360   2.936   6.123
10705SOL    HW133014   0.300   2.857   6.132
10705SOL    HW233015   0.334   2.988   6.041
10706SOL     OW33016   3.424   0.794   1.923
10706SOL    HW133017   3.392   0.874   1.872
10706SOL    HW233018   3.389   0.798   2.016
10707SOL     OW33019   5.859   7.024   5.730
10707SOL    HW133020   5.836   6.935   5.691
10707SOL    HW233021   5.886   7.013   5.825
10708SOL     OW33022   4.491   0.952   0.445
10708SOL    HW133023   4.561   0.995   0.388
10708SOL    HW233024   4.418   0.916   0.387
10709SOL     OW33025   6.254   6.699   5.277
10709SOL    HW133026   6.248   6.790   5.319
10709SOL    HW233027   6.248   6.707   5.178
10710SOL     OW33028   6.038   4.951   3.974
10710SOL    HW133029   6.127   4.992   3.952
10710SOL    HW233030   5.972   5.023   3.996
10711SOL     OW33031   1.432   6.946   3.895
10711SOL    HW133032   1.385   7.025   3.935
10711SOL    HW233033   1.375   6.864   3.905
10712SOL     OW33034   3.782   1.426   5.355
10712SOL    HW133035   3.808   1.505   5.411
10712SOL    HW233036   3.864   1.374   5.330
10713SOL     OW33037   1.261   5.844   1.292
10713SOL    HW133038   1.310   5.808   1.213
10713SOL    HW233039   1.246   5.942   1.280
10714SOL     OW33040   0.628   5.248   5.774
10714SOL    HW133041   0.613   5.178   5.704
10714SOL    HW233042   0.670   5.206   5.854
10715SOL     OW33043   4.730   2.120   4.301
10715SOL    HW133044   4.735   2.196   4.235
10715SOL    HW233045   4.655   2.059   4.276
10716SOL     OW33046   6.565   0.561   4.145
10716SOL    HW133047   6.585   0.623   4.069
10716SOL    HW233048   6.468   0.534   4.141
10717SOL     OW33049   6.973   0.564   1.665
10717SOL    HW133050   6.977   0.604   1.574
10717SOL    HW233051   6.888   0.593   1.710
10718SOL     OW33052   6.263   5.204   6.429
10718SOL    HW133053   6.186   5.141   6.438
10718SOL    HW233054   6.323   5.174   6.354
10719SOL     OW33055   5.864   0.698   1.639
10719SOL    HW133056   5.835   0.782   1.683
10719SOL    HW233057   5.843   0.702   1.541
10720SOL     OW33058   0.584   3.895   6.188
10720SOL    HW133059   0.573   3.827   6.261
10720SOL    HW233060   0.517   3.968   6.200
10721SOL     OW33061   5.013   2.842   4.779
10721SOL    HW133062   5.097   2.827   4.727
10721SOL    HW233063   5.016   2.789   4.864
10722SOL     OW33064   6.860   3.728   0.085
10722SOL    HW133065   6.769   3.769   0.075
10722SOL    HW233066   6.895   3.704   7.020
10723SOL     OW33067   5.552   3.844   6.919
10723SOL    HW133068   5.510   3.891   6.841
10723SOL    HW233069   5.515   3.881   7.004
10724SOL     OW33070   4.062   6.504   6.534
10724SOL    HW133071   3.979   6.455   6.506
10724SOL    HW233072   4.119   6.521   6.454
10725SOL     OW33073   0.511   5.992   5.242
10725SOL    HW133074   0.484   5.990   5.339
10725SOL    HW233075   0.434   5.964   5.185
10726SOL     OW33076   5.182   0.746   4.113
10726SOL    HW133077   5.264   0.798   4.090
10726SOL    HW233078   5.131   0.725   4.029
10727SOL     OW33079   2.584   6.168   6.037
10727SOL    HW133080   2.527   6.088   6.054
10727SOL    HW233081   2.674   6.154   6.079
10728SOL     OW33082   4.908   6.712   3.551
10728SOL    HW133083   4.891   6.805   3.518
10728SOL    HW233084   4.913   6.712   3.651
10729SOL     OW33085   6.055   2.585   2.988
10729SOL    HW133086   6.032   2.616   3.080
10729SOL    HW233087   6.047   2.662   2.924
10730SOL     OW33088   2.048   6.743   3.040
10730SOL    HW133089   2.070   6.743   2.942
10730SOL    HW233090   1.950   6.730   3.052
10731SOL     OW33091   3.373   0.020   6.717
10731SOL    HW133092   3.299   7.001   6.768
10731SOL    HW233093   3.438   0.060   6.782
10732SOL     OW33094   6.070   5.868   3.269
10732SOL    HW133095   6.060   5.891   3.366
10732SOL    HW233096   5.999   5.804   3.243
10733SOL     OW33097   6.961   0.318   5.947
10733SOL    HW133098   6.918   0.403   5.976
10733SOL    HW233099   0.033   0.320   5.972
10734SOL     OW33100   1.803   1.051   5.688
10734SOL    HW133101   1.718   1.103   5.676
10734SOL    HW233102   1.827   1.050   5.785
10735SOL     OW33103   1.385   5.604   1.837
10735SOL    HW133104   1.328   5.646   1.767
10735SOL    HW233105   1.355   5.510   1.852
10736SOL     OW33106   6.434   0.080   3.929
10736SOL    HW133107   6.477   0.014   3.990
10736SOL    HW233108   6.498   0.106   3.857
10737SOL     OW33109   6.844   1.432   1.973
10737SOL    HW133110   6.849   1.348   1.919
10737SOL    HW233111   6.825   1.510   1.913
10738SOL     OW33112   2.704   0.712   1.991
10738SOL    HW133113   2.702   0.806   1.956
10738SOL    HW233114   2.708   0.714   2.091
10739SOL     OW33115   5.912   1.944   2.622
10739SOL    HW133116   5.993   1.986   2.665
10739SOL    HW233117   5.907   1.973   2.527
10740SOL     OW33118   1.175   6.706   6.332
10740SOL    HW133119   1.206   6.770   6.403
10740SOL    HW233120   1.222   6.619   6.344
10741SOL     OW33121   2.371   2.701   3.438
10741SOL    HW133122   2.358   2.602   3.444
10741SOL    HW233123   2.414   2.734   3.522
10742SOL     OW33124   6.155   5.996   2.734
10742SOL    HW133125   6.164   6.095   2.731
10742SOL    HW233126   6.161   5.965   2.829
10743SOL     OW33127   3.880   1.105   5.667
10743SOL    HW133128   3.875   1.015   5.710
10743SOL    HW233129   3.802   1.160   5.695
10744SOL     OW33130   1.665   0.425   0.476
10744SOL    HW133131   1.665   0.330   0.507
10744SOL    HW233132   1.757   0.462   0.480
10745SOL     OW33133   2.145   5.006   1.369
10745SOL    HW133134   2.174   4.914   1.343
10745SOL    HW233135   2.187   5.032   1.456
10746SOL     OW33136   1.625   6.265   6.481
10746SOL    HW133137   1.638   6.299   6.387
10746SOL    HW233138   1.664   6.331   6.545
10747SOL     OW33139   6.341   1.652   3.953
10747SOL    HW133140   6.421   1.625   3.899
10747SOL    HW233141   6.343   1.604   4.041
10748SOL     OW33142   4.024   6.365   1.001
10748SOL    HW133143   3.929   6.373   0.972
10748SOL    HW233144   4.031   6.297   1.074
10749SOL     OW33145   5.954   5.249   2.876
10749SOL    HW133146   6.026   5.222   2.940
10749SOL    HW233147   5.928   5.344   2.892
10750SOL     OW33148   4.912   2.571   4.268
10750SOL    HW133149   4.962   2.598   4.186
10750SOL    HW233150   4.864   2.650   4.307
10751SOL     OW33151   0.938   4.314   5.278
10751SOL    HW133152   0.882   4.363   5.345
10751SOL    HW233153   1.035   4.328   5.298
10752SOL     OW33154   6.317   6.015   0.942
10752SOL    HW133155   6.230   6.065   0.941
10752SOL    HW233156   6.336   5.986   1.036
10753SOL     OW33157   4.940   6.072   4.190
10753SOL    HW133158   4.940   6.040   4.096
10753SOL    HW233159   4.902   6.165   4.194
10754SOL     OW33160   1.458   3.306   1.666
10754SOL    HW133161   1.497   3.360   1.741
10754SOL    HW233162   1.359   3.301   1.677
10755SOL     OW33163   6.213   3.167   1.214
10755SOL    HW133164   6.284   3.182   1.145
10755SOL    HW233165   6.254   3.161   1.305
10756SOL     OW33166   0.183   2.786   0.792
10756SOL    HW133167   0.223   2.839   0.866
10756SOL    HW233168   0.153   2.697   0.826
10757SOL     OW33169   6.954   4.431   1.446
10757SOL    HW133170   0.010   4.488   1.461
10757SOL    HW233171   6.873   4.489   1.441
10758SOL     OW33172   0.740   0.006   6.797
10758SOL    HW133173   0.693   0.085   6.837
10758SOL    HW233174   0.836   0.029   6.781
10759SOL     OW33175   2.257   2.234   6.189
10759SOL    HW133176   2.341   2.234   6.245
10759SOL    HW233177   2.216   2.325   6.191
10760SOL     OW33178   0.289   5.376   0.198
10760SOL    HW133179   0.340   5.458   0.224
10760SOL    HW233180   0.193   5.400   0.185
10761SOL     OW33181   0.958   1.882   6.291
10761SOL    HW133182   0.988   1.972   6.321
10761SOL    HW233183   0.952   1.880   6.192
10762SOL     OW33184   3.723   6.561   5.815
10762SOL    HW133185   3.728   6.643   5.872
10762SOL    HW233186   3.744   6.585   5.720
10763SOL     OW33187   5.596   0.509   3.019
10763SOL    HW133188   5.655   0.525   2.941
10763SOL    HW233189   5.514   0.460   2.990
10764SOL     OW33190   4.222   0.812   5.020
10764SOL    HW133191   4.237   0.747   5.094
10764SOL    HW233192   4.146   0.873   5.043
10765SOL     OW33193   6.898   1.756   2.687
10765SOL    HW133194   6.949   1.824   2.740
10765SOL    HW233195   6.963   1.697   2.639
10766SOL     OW33196   1.925   5.146   6.235
10766SOL    HW133197   1.989   5.070   6.222
10766SOL    HW233198   1.882   5.168   6.147
10767SOL     OW33199   1.537   5.717   0.913
10767SOL    HW133200   1.633   5.707   0.886
10767SOL    HW233201   1.486   5.760   0.839
10768SOL     OW33202   6.066   5.846   0.545
10768SOL    HW133203   6.047   5.935   0.587
10768SOL    HW233204   6.023   5.842   0.455
10769SOL     OW33205   3.108   3.121   4.683
10769SOL    HW133206   3.156   3.208   4.693
10769SOL    HW233207   3.053   3.122   4.599
10770SOL     OW33208   5.089   0.006   3.943
10770SOL    HW133209   5.162   0.030   3.880
10770SOL    HW233210   5.079   0.077   4.012
10771SOL     OW33211   4.763   6.147   5.984
10771SOL    HW133212   4.682   6.200   6.008
10771SOL    HW233213   4.822   6.139   6.065
10772SOL     OW33214   5.976   4.710   2.700
10772SOL    HW133215   5.957   4.792   2.755
10772SOL    HW233216   6.038   4.734   2.624
10773SOL     OW33217   6.474   4.772   1.163
10773SOL    HW133218   6.482   4.849   1.227
10773SOL    HW233219   6.556   4.715   1.171
10774SOL     OW33220   1.530   3.256   0.641
10774SOL    HW133221   1.547   3.157   0.644
10774SOL    HW233222   1.592   3.299   0.575
10775SOL     OW33223   1.099   4.239   1.258
10775SOL    HW133224   1.135   4.269   1.170
10775SOL    HW233225   1.098   4.316   1.322
10776SOL     OW33226   0.869   2.205   3.143
10776SOL    HW133227   0.810   2.170   3.070
10776SOL    HW233228   0.964   2.204   3.112
10777SOL     OW33229   3.670   1.073   2.173
10777SOL    HW133230   3.717   0.989   2.148
10777SOL    HW233231   3.599   1.053   2.240
10778SOL     OW33232   6.174   6.327   3.868
10778SOL    HW133233   6.169   6.227   3.875
10778SOL    HW233234   6.263   6.359   3.902
10779SOL     OW33235   5.575   3.719   4.299
10779SOL    HW133236   5.476   3.731   4.295
10779SOL    HW233237   5.596   3.636   4.351
10780SOL     OW33238   1.208   5.804   4.798
10780SOL    HW133239   1.292   5.851   4.824
10780SOL    HW233240   1.229   5.711   4.769
10781SOL     OW33241   5.864   2.321   5.343
10781SOL    HW133242   5.848   2.396   5.406
10781SOL    HW233243   5.942   2.343   5.284
10782SOL     OW33244   1.363   2.940   5.078
10782SOL    HW133245   1.391   2.896   4.993
10782SOL    HW233246   1.322   3.029   5.057
10783SOL     OW33247   1.229   2.664   2.669
10783SOL    HW133248   1.276   2.709   2.745
10783SOL    HW233249   1.130   2.673   2.682
10784SOL     OW33250   3.661   6.181   2.122
10784SOL    HW133251   3.620   6.221   2.040
10784SOL    HW233252   3.630   6.230   2.203
10785SOL     OW33253   1.774   6.305   2.453
10785SOL    HW133254   1.784   6.306   2.353
10785SOL    HW233255   1.826   6.380   2.492
10786SOL     OW33256   4.258   1.187   2.013
10786SOL    HW133257   4.180   1.214   1.956
10786SOL    HW233258   4.225   1.133   2.090
10787SOL     OW33259   3.699   1.164   3.424
10787SOL    HW133260   3.692   1.228   3.500
10787SOL    HW233261   3.730   1.214   3.342
10788SOL     OW33262   0.675   4.767   0.823
10788SOL    HW133263   0.761   4.718   0.809
10788SOL    HW233264   0.599   4.711   0.791
10789SOL     OW33265   6.319   1.343   0.467
10789SOL    HW133266   6.361   1.307   0.384
10789SOL    HW233267   6.360   1.431   0.490
10790SOL     OW33268   6.976   2.417   4.793
10790SOL    HW133269   0.047   2.395   4.806
10790SOL    HW233270   6.928   2.405   4.880
10791SOL     OW33271   1.929   1.443   3.271
10791SOL    HW133272   1.859   1.479   3.334
10791SOL    HW233273   1.896   1.358   3.230
10792SOL     OW33274   3.602   2.357   1.224
10792SOL    HW133275   3.537   2.355   1.148
10792SOL    HW233276   3.572   2.293   1.295
10793SOL     OW33277   5.052   1.237   5.151
10793SOL    HW133278   5.026   1.318   5.205
10793SOL    HW233279   5.146   1.246   5.121
10794SOL     OW33280   4.551   3.291   0.584
10794SOL    HW133281   4.596   3.373   0.549
10794SOL    HW233282   4.491   3.317   0.660
10795SOL     OW33283   6.874   3.342   3.492
10795SOL    HW133284   6.931   3.414   3.530
10795SOL    HW233285   6.925   3.291   3.422
10796SOL     OW33286   6.807   6.538   0.059
10796SOL    HW133287   6.719   6.574   0.027
10796SOL    HW233288   6.871   6.614   0.071
10797SOL     OW33289   4.112   3.399   0.317
10797SOL    HW133290   4.025   3.370   0.357
10797SOL    HW233291   4.101   3.410   0.218
10798SOL     OW33292   2.337   0.019   6.470
10798SOL    HW133293   2.306   7.007   6.383
10798SOL    HW233294   2.376   0.110   6.456
10799SOL     OW33295   3.025   1.886   2.434
10799SOL    HW133296   3.068   1.889   2.344
10799SOL    HW233297   2.971   1.968   2.448
10800SOL     OW33298   1.378   0.084   5.524
10800SOL    HW133299   1.343   0.105   5.615
10800SOL    HW233300   1.449   0.150   5.500
10801SOL     OW33301   2.841   6.635   6.172
10801SOL    HW133302   2.745   6.632   6.199
10801SOL    HW233303   2.853   6.704   6.100
10802SOL     OW33304   0.441   4.029   4.982
10802SOL    HW133305   0.436   3.978   5.068
10802SOL    HW233306   0.523   4.001   4.931
10803SOL     OW33307   6.534   4.762   5.359
10803SOL    HW133308   6.474   4.734   5.285
10803SOL    HW233309   6.628   4.734   5.338
10804SOL     OW33310   5.325   4.809   2.006
10804SOL    HW133311   5.370   4.891   2.043
10804SOL    HW233312   5.367   4.786   1.918
10805SOL     OW33313   4.511   6.508   0.606
10805SOL    HW133314   4.504   6.517   0.507
10805SOL    HW233315   4.593   6.454   0.629
10806SOL     OW33316   4.923   4.062   0.030
10806SOL    HW133317   4.986   4.070   6.979
10806SOL    HW233318   4.890   3.967   0.037
10807SOL     OW33319   4.171   5.995   3.653
10807SOL    HW133320   4.172   6.066   3.723
10807SOL    HW233321   4.241   6.015   3.584
10808SOL     OW33322   0.089   2.960   6.489
10808SOL    HW133323   0.084   3.060   6.490
10808SOL    HW233324   0.122   2.929   6.400
10809SOL     OW33325   2.047   0.626   3.357
10809SOL    HW133326   2.053   0.700   3.424
10809SOL    HW233327   1.983   0.652   3.285
10810SOL     OW33328   6.705   1.183   5.137
10810SOL    HW133329   6.722   1.088   5.163
10810SOL    HW233330   6.772   1.210   5.067
10811SOL     OW33331   4.706   4.469   5.349
10811SOL    HW133332   4.707   4.482   5.448
10811SOL    HW233333   4.781   4.407   5.323
10812SOL     OW33334   6.511   2.410   2.872
10812SOL    HW133335   6.597   2.452   2.900
10812SOL    HW233336   6.511   2.394   2.774
10813SOL     OW33337   3.079   6.170   1.674
10813SOL    HW133338   3.003   6.128   1.724
10813SOL    HW233339   3.125   6.101   1.619
10814SOL     OW33340   1.643   0.195   4.859
10814SOL    HW133341   1.582   0.126   4.898
10814SOL    HW233342   1.737   0.177   4.888
10815SOL     OW33343   5.111   3.210   3.245
10815SOL    HW133344   5.197   3.219   3.295
10815SOL    HW233345   5.110   3.122   3.196
10816SOL     OW33346   1.682   1.591   2.259
10816SOL    HW133347   1.631   1.562   2.340
10816SOL    HW233348   1.735   1.673   2.280
10817SOL     OW33349   4.418   0.016   2.051
10817SOL    HW133350   4.462   6.971   2.106
10817SOL    HW233351   4.425   0.104   2.097
10818SOL     OW33352   4.364   3.060   6.674
10818SOL    HW133353   4.367   3.128   6.601
10818SOL    HW233354   4.328   2.974   6.638
10819SOL     OW33355   7.003   4.066   6.724
10819SOL    HW133356   6.983   4.164   6.720
10819SOL    HW233357   0.023   4.038   6.640
10820SOL     OW33358   0.280   6.619   4.663
10820SOL    HW133359   0.224   6.679   4.606
10820SOL    HW233360   0.227   6.587   4.742
10821SOL     OW33361   6.903   0.667   0.802
10821SOL    HW133362   6.879   0.660   0.705
10821SOL    HW233363   6.897   0.577   0.845
10822SOL     OW33364   0.910   3.963   2.083
10822SOL    HW133365   0.842   3.894   2.109
10822SOL    HW233366   0.999   3.918   2.068
10823SOL     OW33367   1.543   0.153   1.112
10823SOL    HW133368   1.496   0.090   1.174
10823SOL    HW233369   1.608   0.208   1.164
10824SOL     OW33370   5.354   0.526   2.791
10824SOL    HW133371   5.331   0.565   2.702
10824SOL    HW233372   5.280   0.466   2.822
10825SOL     OW33373   3.655   1.543   1.054
10825SOL    HW133374   3.742   1.588   1.076
10825SOL    HW233375   3.582   1.611   1.056
10826SOL     OW33376   6.769   3.099   2.555
10826SOL    HW133377   6.864   3.071   2.564
10826SOL    HW233378   6.709   3.026   2.588
10827SOL     OW33379   6.685   2.807   4.144
10827SOL    HW133380   6.635   2.814   4.057
10827SOL    HW233381   6.620   2.814   4.219
10828SOL     OW33382   1.039   5.507   0.673
10828SOL    HW133383   1.120   5.549   0.633
10828SOL    HW233384   1.045   5.509   0.772
10829SOL     OW33385   2.964   3.533   1.433
10829SOL    HW133386   3.003   3.505   1.345
10829SOL    HW233387   3.037   3.566   1.493
10830SOL     OW33388   4.654   2.743   4.365
10830SOL    HW133389   4.659   2.819   4.300
10830SOL    HW233390   4.676   2.776   4.457
10831SOL     OW33391   5.277   1.595   3.048
10831SOL    HW133392   5.217   1.614   2.970
10831SOL    HW233393   5.361   1.649   3.039
10832SOL     OW33394   0.420   1.932   0.571
10832SOL    HW133395   0.419   1.835   0.597
10832SOL    HW233396   0.510   1.956   0.536
10833SOL     OW33397   3.567   0.226   4.645
10833SOL    HW133398   3.656   0.199   4.684
10833SOL    HW233399   3.494   0.192   4.705
10834SOL     OW33400   0.866   1.841   5.070
10834SOL    HW133401   0.817   1.783   5.005
10834SOL    HW233402   0.925   1.905   5.021
10835SOL     OW33403   6.254   1.406   1.916
10835SOL    HW133404   6.213   1.390   2.005
10835SOL    HW233405   6.240   1.325   1.858
10836SOL     OW33406   1.949   2.350   6.658
10836SOL    HW133407   1.916   2.337   6.751
10836SOL    HW233408   1.998   2.437   6.652
10837SOL     OW33409   0.244   4.862   1.058
10837SOL    HW133410   0.311   4.895   1.124
10837SOL    HW233411   0.164   4.827   1.106
10838SOL     OW33412   5.780   6.831   6.740
10838SOL    HW133413   5.807   6.822   6.644
10838SOL    HW233414   5.860   6.857   6.794
10839SOL     OW33415   1.852   2.255   0.131
10839SOL    HW133416   1.912   2.300   0.197
10839SOL    HW233417   1.827   2.164   0.166
10840SOL     OW33418   4.251   5.594   1.585
10840SOL    HW133419   4.241   5.653   1.505
10840SOL    HW233420   4.304   5.643   1.655
10841SOL     OW33421   3.869   4.734   6.514
10841SOL    HW133422   3.789   4.777   6.557
10841SOL    HW233423   3.847   4.712   6.419
10842SOL     OW33424   6.392   2.767   1.591
10842SOL    HW133425   6.453   2.832   1.636
10842SOL    HW233426   6.444   2.686   1.563
10843SOL     OW33427   0.617   1.711   1.795
10843SOL    HW133428   0.666   1.641   1.744
10843SOL    HW233429   0.546   1.752   1.737
10844SOL     OW33430   4.764   0.082   3.879
10844SOL    HW133431   4.775   0.030   3.963
10844SOL    HW233432   4.670   0.074   3.846
10845SOL     OW33433   1.513   2.206   0.760
10845SOL    HW133434   1.447   2.281   0.761
10845SOL    HW233435   1.580   2.219   0.832
10846SOL     OW33436   3.718   1.582   1.397
10846SOL    HW133437   3.780   1.608   1.322
10846SOL    HW233438   3.771   1.572   1.481
10847SOL     OW33439   4.006   2.681   6.382
10847SOL    HW133440   4.028   2.774   6.414
10847SOL    HW233441   4.068   2.656   6.308
10848SOL     OW33442   1.082   0.544   6.409
10848SOL    HW133443   1.164   0.566   6.356
10848SOL    HW233444   1.067   0.614   6.479
10849SOL     OW33445   3.014   4.898   4.422
10849SOL    HW133446   3.110   4.898   4.393
10849SOL    HW233447   3.008   4.858   4.514
10850SOL     OW33448   5.199   6.707   0.673
10850SOL    HW133449   5.239   6.788   0.631
10850SOL    HW233450   5.271   6.651   0.712
10851SOL     OW33451   4.055   1.760   6.559
10851SOL    HW133452   4.064   1.764   6.659
10851SOL    HW233453   4.144   1.777   6.517
10852SOL     OW33454   0.590   0.401   6.166
10852SOL    HW133455   0.561   0.364   6.254
10852SOL    HW233456   0.665   0.466   6.180
10853SOL     OW33457   2.401   1.618   4.613
10853SOL    HW133458   2.427   1.709   4.579
10853SOL    HW233459   2.328   1.581   4.556
10854SOL     OW33460   6.855   6.275   6.967
10854SOL    HW133461   6.835   6.373   6.955
10854SOL    HW233462   6.937   6.265   7.023
10855SOL     OW33463   1.493   6.273   1.241
10855SOL    HW133464   1.531   6.255   1.151
10855SOL    HW233465   1.488   6.372   1.256
10856SOL     OW33466   6.561   6.723   6.713
10856SOL    HW133467   6.467   6.693   6.699
10856SOL    HW233468   6.583   6.796   6.648
10857SOL     OW33469   5.720   1.796   3.884
10857SOL    HW133470   5.654   1.768   3.814
10857SOL    HW233471   5.812   1.795   3.844
10858SOL     OW33472   2.336   2.371   6.890
10858SOL    HW133473   2.307   2.467   6.888
10858SOL    HW233474   2.429   2.364   6.926
10859SOL     OW33475   0.673   4.286   2.543
10859SOL    HW133476   0.599   4.352   2.555
10859SOL    HW233477   0.693   4.275   2.445
10860SOL     OW33478   6.411   2.094   0.255
10860SOL    HW133479   6.387   2.168   0.318
10860SOL    HW233480   6.456   2.132   0.174
10861SOL     OW33481   3.218   2.841   2.021
10861SOL    HW133482   3.170   2.881   2.099
10861SOL    HW233483   3.314   2.823   2.045
10862SOL     OW33484   3.525   2.992   5.856
10862SOL    HW133485   3.545   2.899   5.823
10862SOL    HW233486   3.530   3.056   5.779
10863SOL     OW33487   2.089   1.710   2.675
10863SOL    HW133488   2.174   1.712   2.727
10863SOL    HW233489   2.074   1.799   2.632
10864SOL     OW33490   3.050   4.767   2.077
10864SOL    HW133491   2.991   4.700   2.032
10864SOL    HW233492   3.120   4.719   2.130
10865SOL     OW33493   4.210   1.319   3.437
10865SOL    HW133494   4.170   1.324   3.346
10865SOL    HW233495   4.165   1.384   3.498
10866SOL     OW33496   0.030   3.692   3.079
10866SOL    HW133497   6.975   3.651   3.036
10866SOL    HW233498   0.063   3.632   3.152
10867SOL     OW33499   4.346   3.218   0.365
10867SOL    HW133500   4.430   3.233   0.417
10867SOL    HW233501   4.280   3.289   0.388
10868SOL     OW33502   1.473   1.426   4.297
10868SOL    HW133503   1.566   1.425   4.260
10868SOL    HW233504   1.407   1.435   4.223
10869NA      NA33505   0.052   2.394   5.694
10870NA      NA33506   4.234   4.705   5.201
10871NA      NA33507   0.983   4.649   2.781
10872NA      NA33508   5.625   4.438   3.189
10873NA      NA33509   4.332   2.193   5.274
10874NA      NA33510   2.567   5.102   0.598
10875NA      NA33511   1.111   5.242   6.713
10876NA      NA33512   3.591   4.504   1.194
10877NA      NA33513   4.389   5.186   0.905
10878NA      NA33514   3.375   0.815   6.395
10879NA      NA33515   5.493   6.222   2.128
10880NA      NA33516   1.766   6.726   5.544
10881NA      NA33517   4.225   5.043   1.883
10882NA      NA33518   3.422   3.306   6.761
   7.02545   7.02545   7.02545
