Generated by trjconv : CNT in water t= 116.00000
33518
    1C        C    1   2.839   2.766   4.743
    1C        C    2   2.895   2.719   4.863
    1C        C    3   2.833   2.762   4.981
    1C        C    4   2.845   2.770   4.258
    1C        C    5   2.894   2.721   4.381
    1C        C    6   2.833   2.766   4.501
    1C        C    7   3.005   2.636   4.621
    1C        C    8   2.890   2.717   4.621
    1C        C    9   3.076   2.604   4.740
    1C        C   10   3.009   2.635   4.860
    1C        C   11   3.182   2.492   4.972
    1C        C   12   3.059   2.559   4.967
    1C        C   13   2.842   2.765   3.769
    1C        C   14   2.895   2.719   3.892
    1C        C   15   2.845   2.769   4.014
    1C        C   16   3.018   2.646   4.138
    1C        C   17   2.902   2.726   4.136
    1C        C   18   3.080   2.614   4.260
    1C        C   19   3.012   2.644   4.380
    1C        C   20   3.204   2.554   4.501
    1C        C   21   3.071   2.602   4.501
    1C        C   22   3.279   2.539   4.619
    1C        C   23   3.209   2.555   4.741
    1C        C   24   3.411   2.483   4.861
    1C        C   25   3.269   2.502   4.858
    1C        C   26   3.488   2.479   4.978
    1C        C   27   2.842   2.764   3.279
    1C        C   28   2.902   2.725   3.401
    1C        C   29   2.848   2.770   3.523
    1C        C   30   3.012   2.640   3.648
    1C        C   31   2.897   2.722   3.647
    1C        C   32   3.074   2.605   3.770
    1C        C   33   3.013   2.641   3.892
    1C        C   34   3.205   2.552   4.012
    1C        C   35   3.076   2.609   4.014
    1C        C   36   3.276   2.538   4.134
    1C        C   37   3.212   2.563   4.257
    1C        C   38   3.416   2.513   4.376
    1C        C   39   3.277   2.538   4.380
    1C        C   40   3.486   2.501   4.498
    1C        C   41   3.416   2.503   4.621
    1C        C   42   3.629   2.475   4.742
    1C        C   43   3.487   2.483   4.741
    1C        C   44   3.704   2.484   4.861
    1C        C   45   3.627   2.481   4.979
    1C        C   46   2.837   2.755   2.794
    1C        C   47   2.891   2.708   2.916
    1C        C   48   2.839   2.759   3.037
    1C        C   49   3.011   2.635   3.160
    1C        C   50   2.894   2.713   3.158
    1C        C   51   3.075   2.605   3.282
    1C        C   52   3.017   2.643   3.405
    1C        C   53   3.205   2.545   3.526
    1C        C   54   3.076   2.602   3.527
    1C        C   55   3.275   2.531   3.648
    1C        C   56   3.207   2.555   3.769
    1C        C   57   3.415   2.518   3.892
    1C        C   58   3.275   2.534   3.891
    1C        C   59   3.486   2.504   4.013
    1C        C   60   3.413   2.504   4.134
    1C        C   61   3.628   2.498   4.257
    1C        C   62   3.487   2.502   4.255
    1C        C   63   3.698   2.507   4.379
    1C        C   64   3.628   2.504   4.502
    1C        C   65   3.834   2.543   4.620
    1C        C   66   3.700   2.496   4.622
    1C        C   67   3.901   2.567   4.742
    1C        C   68   3.838   2.526   4.862
    1C        C   69   4.047   2.589   4.979
    1C        C   70   3.921   2.529   4.975
    1C        C   71   2.820   2.729   2.306
    1C        C   72   2.877   2.686   2.427
    1C        C   73   2.831   2.743   2.548
    1C        C   74   3.000   2.621   2.671
    1C        C   75   2.883   2.699   2.672
    1C        C   76   3.071   2.601   2.792
    1C        C   77   3.011   2.634   2.916
    1C        C   78   3.204   2.544   3.034
    1C        C   79   3.073   2.598   3.038
    1C        C   80   3.270   2.527   3.158
    1C        C   81   3.204   2.548   3.281
    1C        C   82   3.412   2.506   3.401
    1C        C   83   3.272   2.525   3.403
    1C        C   84   3.482   2.498   3.523
    1C        C   85   3.414   2.505   3.647
    1C        C   86   3.625   2.501   3.769
    1C        C   87   3.484   2.503   3.769
    1C        C   88   3.697   2.507   3.890
    1C        C   89   3.627   2.505   4.013
    1C        C   90   3.834   2.546   4.133
    1C        C   91   3.698   2.509   4.135
    1C        C   92   3.902   2.565   4.256
    1C        C   93   3.835   2.542   4.378
    1C        C   94   4.030   2.628   4.497
    1C        C   95   3.904   2.564   4.500
    1C        C   96   4.091   2.666   4.618
    1C        C   97   4.033   2.620   4.738
    1C        C   98   4.187   2.764   4.861
    1C        C   99   4.095   2.654   4.861
    1C        C  100   4.207   2.843   4.975
    1C        C  101   2.818   2.727   2.066
    1C        C  102   2.989   2.593   2.187
    1C        C  103   2.872   2.675   2.185
    1C        C  104   3.059   2.570   2.309
    1C        C  105   2.997   2.611   2.429
    1C        C  106   3.199   2.542   2.546
    1C        C  107   3.066   2.587   2.550
    1C        C  108   3.268   2.525   2.669
    1C        C  109   3.201   2.547   2.791
    1C        C  110   3.411   2.500   2.913
    1C        C  111   3.271   2.523   2.912
    1C        C  112   3.481   2.495   3.035
    1C        C  113   3.410   2.508   3.156
    1C        C  114   3.623   2.506   3.278
    1C        C  115   3.481   2.501   3.278
    1C        C  116   3.691   2.514   3.402
    1C        C  117   3.623   2.502   3.525
    1C        C  118   3.833   2.543   3.643
    1C        C  119   3.695   2.511   3.646
    1C        C  120   3.896   2.575   3.765
    1C        C  121   3.833   2.547   3.888
    1C        C  122   4.027   2.631   4.012
    1C        C  123   3.902   2.566   4.010
    1C        C  124   4.086   2.670   4.134
    1C        C  125   4.027   2.631   4.256
    1C        C  126   4.196   2.764   4.374
    1C        C  127   4.091   2.669   4.376
    1C        C  128   4.244   2.814   4.497
    1C        C  129   4.197   2.760   4.619
    1C        C  130   4.323   2.933   4.741
    1C        C  131   4.241   2.816   4.740
    1C        C  132   4.354   3.002   4.860
    1C        C  133   4.279   2.962   4.972
    1C        C  134   3.169   2.466   2.082
    1C        C  135   3.035   2.507   2.082
    1C        C  136   3.258   2.476   2.190
    1C        C  137   3.192   2.521   2.307
    1C        C  138   3.404   2.478   2.428
    1C        C  139   3.267   2.509   2.426
    1C        C  140   3.477   2.486   2.548
    1C        C  141   3.405   2.493   2.670
    1C        C  142   3.621   2.496   2.791
    1C        C  143   3.480   2.490   2.790
    1C        C  144   3.692   2.501   2.913
    1C        C  145   3.623   2.497   3.036
    1C        C  146   3.832   2.538   3.155
    1C        C  147   3.695   2.504   3.157
    1C        C  148   3.899   2.562   3.277
    1C        C  149   3.829   2.543   3.398
    1C        C  150   4.027   2.622   3.519
    1C        C  151   3.899   2.564   3.519
    1C        C  152   4.087   2.662   3.640
    1C        C  153   4.024   2.633   3.763
    1C        C  154   4.196   2.752   3.886
    1C        C  155   4.083   2.668   3.887
    1C        C  156   4.247   2.804   4.007
    1C        C  157   4.196   2.758   4.130
    1C        C  158   4.339   2.918   4.251
    1C        C  159   4.250   2.808   4.251
    1C        C  160   4.375   2.979   4.373
    1C        C  161   4.333   2.923   4.496
    1C        C  162   4.433   3.111   4.613
    1C        C  163   4.367   2.987   4.618
    1C        C  164   4.464   3.183   4.731
    1C        C  165   4.433   3.118   4.853
    1C        C  166   4.512   3.319   4.969
    1C        C  167   4.479   3.184   4.968
    1C        C  168   3.474   2.433   2.072
    1C        C  169   3.397   2.454   2.187
    1C        C  170   3.615   2.471   2.306
    1C        C  171   3.474   2.459   2.306
    1C        C  172   3.690   2.493   2.425
    1C        C  173   3.618   2.490   2.546
    1C        C  174   3.827   2.538   2.663
    1C        C  175   3.689   2.507   2.667
    1C        C  176   3.893   2.559   2.786
    1C        C  177   3.829   2.535   2.910
    1C        C  178   4.026   2.617   3.028
    1C        C  179   3.897   2.560   3.031
    1C        C  180   4.089   2.653   3.149
    1C        C  181   4.028   2.620   3.272
    1C        C  182   4.197   2.745   3.395
    1C        C  183   4.087   2.657   3.395
    1C        C  184   4.246   2.797   3.517
    1C        C  185   4.197   2.750   3.641
    1C        C  186   4.336   2.911   3.763
    1C        C  187   4.249   2.799   3.763
    1C        C  188   4.375   2.972   3.885
    1C        C  189   4.337   2.913   4.007
    1C        C  190   4.443   3.101   4.128
    1C        C  191   4.375   2.977   4.127
    1C        C  192   4.467   3.169   4.250
    1C        C  193   4.438   3.105   4.372
    1C        C  194   4.496   3.314   4.488
    1C        C  195   4.462   3.177   4.491
    1C        C  196   4.516   3.386   4.608
    1C        C  197   4.502   3.320   4.732
    1C        C  198   4.555   3.532   4.848
    1C        C  199   4.531   3.391   4.851
    1C        C  200   4.581   3.618   4.960
    1C        C  201   3.614   2.417   2.072
    1C        C  202   3.826   2.501   2.181
    1C        C  203   3.690   2.458   2.186
    1C        C  204   3.898   2.531   2.300
    1C        C  205   3.829   2.518   2.422
    1C        C  206   4.022   2.616   2.538
    1C        C  207   3.897   2.550   2.541
    1C        C  208   4.082   2.653   2.660
    1C        C  209   4.022   2.617   2.783
    1C        C  210   4.198   2.737   2.902
    1C        C  211   4.085   2.652   2.904
    1C        C  212   4.251   2.786   3.024
    1C        C  213   4.199   2.741   3.147
    1C        C  214   4.328   2.907   3.271
    1C        C  215   4.246   2.792   3.271
    1C        C  216   4.367   2.966   3.394
    1C        C  217   4.332   2.909   3.518
    1C        C  218   4.427   3.099   3.635
    1C        C  219   4.373   2.968   3.640
    1C        C  220   4.453   3.165   3.757
    1C        C  221   4.432   3.101   3.881
    1C        C  222   4.493   3.302   3.999
    1C        C  223   4.465   3.164   4.004
    1C        C  224   4.501   3.375   4.120
    1C        C  225   4.497   3.307   4.244
    1C        C  226   4.513   3.522   4.362
    1C        C  227   4.508   3.381   4.364
    1C        C  228   4.515   3.595   4.483
    1C        C  229   4.526   3.527   4.606
    1C        C  230   4.504   3.740   4.721
    1C        C  231   4.538   3.602   4.725
    1C        C  232   4.494   3.817   4.839
    1C        C  233   4.545   3.753   4.953
    1C        C  234   4.014   2.610   2.062
    1C        C  235   3.893   2.542   2.064
    1C        C  236   4.085   2.641   2.179
    1C        C  237   4.022   2.601   2.299
    1C        C  238   4.202   2.729   2.417
    1C        C  239   4.088   2.644   2.416
    1C        C  240   4.253   2.779   2.539
    1C        C  241   4.198   2.734   2.661
    1C        C  242   4.337   2.898   2.780
    1C        C  243   4.249   2.788   2.781
    1C        C  244   4.377   2.956   2.903
    1C        C  245   4.339   2.897   3.025
    1C        C  246   4.432   3.087   3.146
    1C        C  247   4.371   2.960   3.148
    1C        C  248   4.453   3.158   3.266
    1C        C  249   4.427   3.094   3.390
    1C        C  250   4.482   3.300   3.512
    1C        C  251   4.448   3.163   3.511
    1C        C  252   4.496   3.371   3.633
    1C        C  253   4.490   3.301   3.756
    1C        C  254   4.512   3.513   3.874
    1C        C  255   4.506   3.372   3.877
    1C        C  256   4.509   3.584   3.996
    1C        C  257   4.510   3.516   4.120
    1C        C  258   4.491   3.731   4.235
    1C        C  259   4.513   3.592   4.239
    1C        C  260   4.471   3.801   4.356
    1C        C  261   4.492   3.734   4.479
    1C        C  262   4.424   3.938   4.600
    1C        C  263   4.477   3.807   4.600
    1C        C  264   4.394   4.008   4.718
    1C        C  265   4.430   3.943   4.838
    1C        C  266   4.318   4.127   4.957
    1C        C  267   4.390   4.008   4.956
    1C        C  268   4.259   2.775   2.057
    1C        C  269   4.195   2.729   2.174
    1C        C  270   4.348   2.881   2.297
    1C        C  271   4.254   2.775   2.294
    1C        C  272   4.384   2.948   2.416
    1C        C  273   4.339   2.892   2.537
    1C        C  274   4.446   3.078   2.658
    1C        C  275   4.379   2.954   2.657
    1C        C  276   4.472   3.146   2.779
    1C        C  277   4.439   3.083   2.901
    1C        C  278   4.495   3.288   3.020
    1C        C  279   4.463   3.150   3.023
    1C        C  280   4.501   3.359   3.142
    1C        C  281   4.489   3.295   3.267
    1C        C  282   4.511   3.507   3.387
    1C        C  283   4.502   3.366   3.388
    1C        C  284   4.507   3.580   3.508
    1C        C  285   4.504   3.512   3.631
    1C        C  286   4.491   3.725   3.748
    1C        C  287   4.508   3.585   3.753
    1C        C  288   4.475   3.794   3.871
    1C        C  289   4.492   3.724   3.992
    1C        C  290   4.421   3.929   4.113
    1C        C  291   4.469   3.796   4.112
    1C        C  292   4.392   3.997   4.233
    1C        C  293   4.419   3.932   4.356
    1C        C  294   4.322   4.122   4.475
    1C        C  295   4.394   4.000   4.477
    1C        C  296   4.285   4.187   4.595
    1C        C  297   4.326   4.133   4.719
    1C        C  298   4.196   4.309   4.835
    1C        C  299   4.282   4.195   4.840
    1C        C  300   4.169   4.396   4.945
    1C        C  301   4.348   2.881   2.060
    1C        C  302   4.464   3.067   2.175
    1C        C  303   4.396   2.941   2.177
    1C        C  304   4.476   3.142   2.295
    1C        C  305   4.444   3.076   2.416
    1C        C  306   4.497   3.283   2.536
    1C        C  307   4.472   3.144   2.536
    1C        C  308   4.508   3.356   2.657
    1C        C  309   4.495   3.286   2.778
    1C        C  310   4.517   3.500   2.896
    1C        C  311   4.505   3.359   2.898
    1C        C  312   4.515   3.571   3.018
    1C        C  313   4.512   3.500   3.140
    1C        C  314   4.482   3.711   3.261
    1C        C  315   4.505   3.572   3.262
    1C        C  316   4.470   3.786   3.380
    1C        C  317   4.490   3.720   3.504
    1C        C  318   4.423   3.924   3.626
    1C        C  319   4.474   3.792   3.625
    1C        C  320   4.391   3.989   3.747
    1C        C  321   4.419   3.923   3.869
    1C        C  322   4.314   4.111   3.988
    1C        C  323   4.386   3.989   3.990
    1C        C  324   4.274   4.172   4.109
    1C        C  325   4.313   4.115   4.232
    1C        C  326   4.189   4.287   4.352
    1C        C  327   4.276   4.176   4.353
    1C        C  328   4.135   4.337   4.473
    1C        C  329   4.189   4.291   4.594
    1C        C  330   4.021   4.431   4.712
    1C        C  331   4.135   4.346   4.712
    1C        C  332   3.967   4.483   4.831
    1C        C  333   4.051   4.471   4.942
    1C        C  334   4.551   3.266   2.062
    1C        C  335   4.523   3.129   2.060
    1C        C  336   4.537   3.349   2.173
    1C        C  337   4.511   3.280   2.294
    1C        C  338   4.516   3.494   2.411
    1C        C  339   4.515   3.353   2.414
    1C        C  340   4.520   3.568   2.531
    1C        C  341   4.526   3.496   2.652
    1C        C  342   4.495   3.709   2.774
    1C        C  343   4.516   3.569   2.773
    1C        C  344   4.479   3.780   2.895
    1C        C  345   4.496   3.711   3.017
    1C        C  346   4.424   3.914   3.135
    1C        C  347   4.471   3.781   3.138
    1C        C  348   4.393   3.979   3.256
    1C        C  349   4.426   3.920   3.380
    1C        C  350   4.320   4.104   3.501
    1C        C  351   4.394   3.984   3.501
    1C        C  352   4.276   4.167   3.620
    1C        C  353   4.319   4.111   3.742
    1C        C  354   4.176   4.267   3.865
    1C        C  355   4.275   4.166   3.864
    1C        C  356   4.123   4.320   3.984
    1C        C  357   4.177   4.275   4.107
    1C        C  358   4.009   4.400   4.228
    1C        C  359   4.129   4.325   4.230
    1C        C  360   3.951   4.444   4.349
    1C        C  361   4.019   4.418   4.470
    1C        C  362   3.827   4.514   4.591
    1C        C  363   3.960   4.465   4.589
    1C        C  364   3.760   4.546   4.711
    1C        C  365   3.836   4.537   4.830
    1C        C  366   3.630   4.587   4.949
    1C        C  367   3.768   4.570   4.947
    1C        C  368   4.499   3.560   2.050
    1C        C  369   4.522   3.489   2.168
    1C        C  370   4.508   3.705   2.285
    1C        C  371   4.519   3.564   2.288
    1C        C  372   4.488   3.776   2.405
    1C        C  373   4.501   3.708   2.528
    1C        C  374   4.428   3.905   2.646
    1C        C  375   4.486   3.777   2.651
    1C        C  376   4.393   3.970   2.767
    1C        C  377   4.428   3.912   2.891
    1C        C  378   4.321   4.097   3.008
    1C        C  379   4.399   3.979   3.012
    1C        C  380   4.274   4.151   3.130
    1C        C  381   4.309   4.093   3.254
    1C        C  382   4.174   4.254   3.374
    1C        C  383   4.273   4.153   3.377
    1C        C  384   4.118   4.304   3.494
    1C        C  385   4.176   4.266   3.617
    1C        C  386   4.005   4.388   3.739
    1C        C  387   4.124   4.311   3.741
    1C        C  388   3.944   4.431   3.859
    1C        C  389   4.006   4.398   3.982
    1C        C  390   3.815   4.483   4.104
    1C        C  391   3.947   4.433   4.105
    1C        C  392   3.749   4.509   4.226
    1C        C  393   3.821   4.498   4.348
    1C        C  394   3.615   4.548   4.472
    1C        C  395   3.755   4.526   4.470
    1C        C  396   3.545   4.564   4.594
    1C        C  397   3.620   4.560   4.713
    1C        C  398   3.411   4.545   4.837
    1C        C  399   3.549   4.573   4.835
    1C        C  400   3.343   4.506   4.953
    1C        C  401   4.493   3.699   2.050
    1C        C  402   4.452   3.914   2.165
    1C        C  403   4.495   3.779   2.165
    1C        C  404   4.411   3.976   2.284
    1C        C  405   4.437   3.907   2.405
    1C        C  406   4.325   4.091   2.521
    1C        C  407   4.401   3.972   2.525
    1C        C  408   4.274   4.144   2.642
    1C        C  409   4.313   4.085   2.764
    1C        C  410   4.173   4.246   2.886
    1C        C  411   4.274   4.147   2.885
    1C        C  412   4.120   4.295   3.007
    1C        C  413   4.174   4.251   3.130
    1C        C  414   4.002   4.376   3.246
    1C        C  415   4.119   4.297   3.252
    1C        C  416   3.942   4.413   3.368
    1C        C  417   4.002   4.384   3.493
    1C        C  418   3.813   4.475   3.617
    1C        C  419   3.942   4.419   3.616
    1C        C  420   3.744   4.502   3.737
    1C        C  421   3.811   4.479   3.859
    1C        C  422   3.608   4.533   3.985
    1C        C  423   3.746   4.502   3.982
    1C        C  424   3.538   4.540   4.107
    1C        C  425   3.612   4.539   4.228
    1C        C  426   3.402   4.543   4.355
    1C        C  427   3.543   4.546   4.351
    1C        C  428   3.332   4.541   4.477
    1C        C  429   3.404   4.556   4.598
    1C        C  430   3.194   4.513   4.720
    1C        C  431   3.333   4.540   4.719
    1C        C  432   3.124   4.491   4.842
    1C        C  433   3.205   4.490   4.956
    1C        C  434   4.378   4.115   2.045
    1C        C  435   4.450   3.995   2.051
    1C        C  436   4.302   4.158   2.158
    1C        C  437   4.334   4.096   2.281
    1C        C  438   4.183   4.251   2.397
    1C        C  439   4.281   4.151   2.400
    1C        C  440   4.123   4.292   2.519
    1C        C  441   4.175   4.245   2.641
    1C        C  442   4.005   4.373   2.762
    1C        C  443   4.119   4.291   2.763
    1C        C  444   3.943   4.413   2.883
    1C        C  445   4.003   4.373   3.005
    1C        C  446   3.809   4.468   3.127
    1C        C  447   3.937   4.407   3.125
    1C        C  448   3.744   4.491   3.250
    1C        C  449   3.811   4.468   3.372
    1C        C  450   3.608   4.525   3.495
    1C        C  451   3.745   4.493   3.494
    1C        C  452   3.538   4.535   3.618
    1C        C  453   3.607   4.536   3.741
    1C        C  454   3.396   4.534   3.863
    1C        C  455   3.537   4.541   3.864
    1C        C  456   3.326   4.530   3.986
    1C        C  457   3.396   4.542   4.109
    1C        C  458   3.193   4.498   4.237
    1C        C  459   3.331   4.530   4.233
    1C        C  460   3.123   4.482   4.358
    1C        C  461   3.195   4.506   4.478
    1C        C  462   2.998   4.424   4.602
    1C        C  463   3.127   4.483   4.599
    1C        C  464   2.930   4.396   4.723
    1C        C  465   2.989   4.442   4.844
    1C        C  466   2.802   4.334   4.958
    1C        C  467   2.902   4.432   4.957
    1C        C  468   4.121   4.279   2.037
    1C        C  469   4.187   4.244   2.155
    1C        C  470   4.007   4.369   2.276
    1C        C  471   4.128   4.294   2.274
    1C        C  472   3.940   4.399   2.396
    1C        C  473   4.005   4.370   2.518
    1C        C  474   3.811   4.459   2.640
    1C        C  475   3.941   4.402   2.640
    1C        C  476   3.744   4.487   2.760
    1C        C  477   3.812   4.465   2.882
    1C        C  478   3.605   4.513   3.007
    1C        C  479   3.745   4.490   3.004
    1C        C  480   3.535   4.518   3.129
    1C        C  481   3.605   4.514   3.252
    1C        C  482   3.394   4.532   3.375
    1C        C  483   3.535   4.530   3.374
    1C        C  484   3.323   4.530   3.497
    1C        C  485   3.397   4.534   3.617
    1C        C  486   3.189   4.496   3.744
    1C        C  487   3.327   4.528   3.740
    1C        C  488   3.123   4.476   3.867
    1C        C  489   3.189   4.496   3.989
    1C        C  490   3.002   4.409   4.114
    1C        C  491   3.127   4.474   4.114
    1C        C  492   2.936   4.381   4.237
    1C        C  493   2.996   4.420   4.359
    1C        C  494   2.821   4.303   4.483
    1C        C  495   2.938   4.382   4.482
    1C        C  496   2.768   4.252   4.603
    1C        C  497   2.818   4.308   4.723
    1C        C  498   2.659   4.165   4.843
    1C        C  499   2.754   4.270   4.843
    1C        C  500   2.586   4.117   4.952
    1C        C  501   4.000   4.347   2.039
    1C        C  502   3.815   4.463   2.152
    1C        C  503   3.942   4.401   2.154
    1C        C  504   3.745   4.480   2.274
    1C        C  505   3.808   4.450   2.396
    1C        C  506   3.603   4.506   2.518
    1C        C  507   3.740   4.471   2.518
    1C        C  508   3.532   4.517   2.639
    1C        C  509   3.604   4.507   2.761
    1C        C  510   3.395   4.518   2.883
    1C        C  511   3.536   4.517   2.884
    1C        C  512   3.324   4.514   3.005
    1C        C  513   3.393   4.524   3.128
    1C        C  514   3.189   4.486   3.253
    1C        C  515   3.325   4.525   3.252
    1C        C  516   3.122   4.463   3.376
    1C        C  517   3.186   4.495   3.498
    1C        C  518   2.997   4.408   3.622
    1C        C  519   3.122   4.473   3.622
    1C        C  520   2.942   4.366   3.746
    1C        C  521   3.001   4.403   3.869
    1C        C  522   2.833   4.279   3.994
    1C        C  523   2.944   4.367   3.993
    1C        C  524   2.785   4.231   4.118
    1C        C  525   2.831   4.287   4.239
    1C        C  526   2.693   4.131   4.360
    1C        C  527   2.775   4.246   4.362
    1C        C  528   2.651   4.075   4.483
    1C        C  529   2.682   4.140   4.604
    1C        C  530   2.579   3.958   4.725
    1C        C  531   2.633   4.089   4.727
    1C        C  532   2.537   3.901   4.849
    1C        C  533   2.521   3.993   4.958
    1C        C  534   3.616   4.548   2.036
    1C        C  535   3.750   4.506   2.036
    1C        C  536   3.535   4.529   2.153
    1C        C  537   3.605   4.505   2.274
    1C        C  538   3.392   4.510   2.397
    1C        C  539   3.533   4.512   2.396
    1C        C  540   3.320   4.509   2.519
    1C        C  541   3.391   4.517   2.641
    1C        C  542   3.183   4.481   2.763
    1C        C  543   3.321   4.509   2.763
    1C        C  544   3.117   4.462   2.887
    1C        C  545   3.187   4.480   3.009
    1C        C  546   2.994   4.399   3.132
    1C        C  547   3.122   4.458   3.132
    1C        C  548   2.933   4.368   3.256
    1C        C  549   2.995   4.402   3.379
    1C        C  550   2.830   4.273   3.502
    1C        C  551   2.936   4.366   3.502
    1C        C  552   2.778   4.228   3.626
    1C        C  553   2.829   4.281   3.747
    1C        C  554   2.698   4.118   3.871
    1C        C  555   2.784   4.230   3.871
    1C        C  556   2.655   4.063   3.993
    1C        C  557   2.699   4.119   4.116
    1C        C  558   2.595   3.940   4.245
    1C        C  559   2.661   4.065   4.240
    1C        C  560   2.562   3.879   4.368
    1C        C  561   2.587   3.949   4.488
    1C        C  562   2.519   3.745   4.612
    1C        C  563   2.559   3.880   4.609
    1C        C  564   2.508   3.679   4.736
    1C        C  565   2.518   3.759   4.853
    1C        C  566   2.529   3.546   4.974
    1C        C  567   2.528   3.685   4.971
    1C        C  568   3.328   4.465   2.037
    1C        C  569   3.395   4.505   2.154
    1C        C  570   3.182   4.472   2.277
    1C        C  571   3.321   4.501   2.275
    1C        C  572   3.113   4.455   2.399
    1C        C  573   3.182   4.479   2.520
    1C        C  574   2.984   4.402   2.643
    1C        C  575   3.113   4.460   2.642
    1C        C  576   2.931   4.358   2.767
    1C        C  577   2.993   4.395   2.888
    1C        C  578   2.823   4.271   3.010
    1C        C  579   2.933   4.361   3.011
    1C        C  580   2.776   4.222   3.134
    1C        C  581   2.825   4.277   3.255
    1C        C  582   2.695   4.113   3.384
    1C        C  583   2.786   4.221   3.379
    1C        C  584   2.658   4.052   3.506
    1C        C  585   2.691   4.117   3.627
    1C        C  586   2.591   3.933   3.756
    1C        C  587   2.655   4.059   3.750
    1C        C  588   2.567   3.868   3.879
    1C        C  589   2.594   3.936   4.000
    1C        C  590   2.535   3.735   4.124
    1C        C  591   2.568   3.872   4.124
    1C        C  592   2.522   3.669   4.248
    1C        C  593   2.526   3.742   4.368
    1C        C  594   2.510   3.531   4.496
    1C        C  595   2.513   3.673   4.490
    1C        C  596   2.514   3.461   4.618
    1C        C  597   2.512   3.537   4.738
    1C        C  598   2.530   3.325   4.859
    1C        C  599   2.523   3.466   4.860
    1C        C  600   2.526   3.245   4.974
    1C        C  601   3.193   4.434   2.041
    1C        C  602   2.980   4.390   2.157
    1C        C  603   3.114   4.440   2.156
    1C        C  604   2.922   4.355   2.282
    1C        C  605   2.985   4.395   2.402
    1C        C  606   2.815   4.268   2.525
    1C        C  607   2.923   4.359   2.524
    1C        C  608   2.767   4.219   2.648
    1C        C  609   2.823   4.267   2.769
    1C        C  610   2.682   4.109   2.895
    1C        C  611   2.769   4.220   2.891
    1C        C  612   2.649   4.049   3.019
    1C        C  613   2.690   4.110   3.139
    1C        C  614   2.590   3.928   3.266
    1C        C  615   2.651   4.055   3.263
    1C        C  616   2.571   3.860   3.388
    1C        C  617   2.596   3.925   3.512
    1C        C  618   2.529   3.727   3.638
    1C        C  619   2.564   3.864   3.635
    1C        C  620   2.513   3.658   3.760
    1C        C  621   2.528   3.732   3.879
    1C        C  622   2.510   3.523   4.008
    1C        C  623   2.520   3.664   4.003
    1C        C  624   2.508   3.453   4.131
    1C        C  625   2.515   3.528   4.250
    1C        C  626   2.535   3.320   4.378
    1C        C  627   2.517   3.460   4.374
    1C        C  628   2.555   3.251   4.500
    1C        C  629   2.529   3.321   4.620
    1C        C  630   2.591   3.115   4.743
    1C        C  631   2.540   3.248   4.741
    1C        C  632   2.611   3.045   4.865
    1C        C  633   2.560   3.109   4.982
    1C        C  634   2.776   4.302   2.052
    1C        C  635   2.891   4.382   2.045
    1C        C  636   2.745   4.229   2.167
    1C        C  637   2.809   4.269   2.286
    1C        C  638   2.670   4.105   2.407
    1C        C  639   2.758   4.216   2.407
    1C        C  640   2.637   4.047   2.531
    1C        C  641   2.683   4.105   2.651
    1C        C  642   2.583   3.919   2.777
    1C        C  643   2.646   4.045   2.774
    1C        C  644   2.562   3.854   2.900
    1C        C  645   2.586   3.922   3.022
    1C        C  646   2.530   3.721   3.149
    1C        C  647   2.562   3.859   3.146
    1C        C  648   2.516   3.651   3.271
    1C        C  649   2.534   3.724   3.391
    1C        C  650   2.515   3.517   3.517
    1C        C  651   2.519   3.658   3.515
    1C        C  652   2.515   3.446   3.639
    1C        C  653   2.508   3.517   3.761
    1C        C  654   2.534   3.311   3.888
    1C        C  655   2.513   3.451   3.886
    1C        C  656   2.550   3.245   4.012
    1C        C  657   2.531   3.314   4.134
    1C        C  658   2.600   3.116   4.256
    1C        C  659   2.547   3.247   4.258
    1C        C  660   2.627   3.049   4.378
    1C        C  661   2.604   3.119   4.499
    1C        C  662   2.707   2.936   4.624
    1C        C  663   2.630   3.055   4.622
    1C        C  664   2.751   2.878   4.745
    1C        C  665   2.699   2.932   4.866
    1C        C  666   2.740   2.865   4.982
    1C        C  667   2.680   4.024   2.055
    1C        C  668   2.673   4.108   2.167
    1C        C  669   2.581   3.911   2.288
    1C        C  670   2.634   4.043   2.286
    1C        C  671   2.557   3.848   2.412
    1C        C  672   2.582   3.917   2.533
    1C        C  673   2.519   3.716   2.659
    1C        C  674   2.552   3.853   2.655
    1C        C  675   2.510   3.646   2.781
    1C        C  676   2.524   3.718   2.901
    1C        C  677   2.503   3.512   3.029
    1C        C  678   2.512   3.653   3.026
    1C        C  679   2.503   3.440   3.150
    1C        C  680   2.508   3.510   3.273
    1C        C  681   2.532   3.303   3.400
    1C        C  682   2.512   3.442   3.397
    1C        C  683   2.546   3.233   3.522
    1C        C  684   2.531   3.306   3.643
    1C        C  685   2.594   3.107   3.770
    1C        C  686   2.546   3.240   3.767
    1C        C  687   2.627   3.046   3.893
    1C        C  688   2.594   3.111   4.014
    1C        C  689   2.704   2.930   4.136
    1C        C  690   2.625   3.047   4.135
    1C        C  691   2.752   2.876   4.258
    1C        C  692   2.707   2.933   4.379
    1C        C  693   2.744   2.875   4.502
    1C        C  694   2.622   3.897   2.055
    1C        C  695   2.522   3.703   2.176
    1C        C  696   2.568   3.836   2.169
    1C        C  697   2.498   3.637   2.298
    1C        C  698   2.515   3.713   2.416
    1C        C  699   2.488   3.503   2.539
    1C        C  700   2.502   3.644   2.538
    1C        C  701   2.499   3.434   2.662
    1C        C  702   2.503   3.505   2.784
    1C        C  703   2.520   3.298   2.909
    1C        C  704   2.504   3.438   2.909
    1C        C  705   2.537   3.232   3.033
    1C        C  706   2.524   3.301   3.155
    1C        C  707   2.592   3.100   3.276
    1C        C  708   2.548   3.234   3.277
    1C        C  709   2.624   3.039   3.400
    1C        C  710   2.594   3.101   3.524
    1C        C  711   2.706   2.926   3.647
    1C        C  712   2.625   3.042   3.648
    1C        C  713   2.749   2.871   3.770
    1C        C  714   2.704   2.927   3.892
    1C        C  715   2.750   2.874   4.014
    1C        C  716   2.450   3.496   2.059
    1C        C  717   2.503   3.625   2.061
    1C        C  718   2.462   3.418   2.179
    1C        C  719   2.479   3.496   2.297
    1C        C  720   2.507   3.288   2.421
    1C        C  721   2.482   3.427   2.421
    1C        C  722   2.534   3.221   2.543
    1C        C  723   2.527   3.295   2.662
    1C        C  724   2.584   3.095   2.786
    1C        C  725   2.538   3.229   2.787
    1C        C  726   2.615   3.031   2.909
    1C        C  727   2.588   3.100   3.029
    1C        C  728   2.700   2.921   3.155
    1C        C  729   2.621   3.039   3.152
    1C        C  730   2.746   2.868   3.277
    1C        C  731   2.705   2.923   3.401
    1C        C  732   2.749   2.871   3.524
    1C        C  733   2.487   3.193   2.071
    1C        C  734   2.487   3.278   2.183
    1C        C  735   2.584   3.083   2.304
    1C        C  736   2.521   3.211   2.304
    1C        C  737   2.618   3.019   2.425
    1C        C  738   2.583   3.088   2.543
    1C        C  739   2.694   2.910   2.668
    1C        C  740   2.615   3.027   2.667
    1C        C  741   2.742   2.859   2.790
    1C        C  742   2.699   2.918   2.911
    1C        C  743   2.742   2.862   3.033
    1C        C  744   2.539   3.064   2.071
    1C        C  745   2.685   2.897   2.184
    1C        C  746   2.609   3.016   2.182
    1C        C  747   2.725   2.835   2.304
    1C        C  748   2.686   2.895   2.426
    1C        C  749   2.736   2.847   2.549
    1C        C  750   2.736   2.839   2.067
    1C        C  751   3.659   2.298   1.997
    1C        O  752   3.710   2.198   2.055
    1C        O  753   3.698   2.290   1.863
    1C        C  754   4.603   3.058   1.957
    1C        O  755   4.555   3.054   1.841
    1C        O  756   4.738   3.026   1.976
    1C        C  757   4.403   4.197   1.924
    1C        O  758   4.452   4.313   1.931
    1C        O  759   4.394   4.144   1.794
    1C        C  760   3.589   4.656   1.939
    1C        O  761   3.563   4.776   1.968
    1C        O  762   3.542   4.625   1.811
    1C        C  763   2.894   4.476   1.931
    1C        O  764   2.904   4.436   1.812
    1C        O  765   2.878   4.615   1.926
    1C        C  766   2.324   3.490   1.981
    1C        O  767   2.321   3.466   1.858
    1C        O  768   2.204   3.539   2.032
    1C        C  769   4.683   3.591   5.064
    1C        O  770   4.649   3.587   5.186
    1C        O  771   4.813   3.639   5.045
    1C        C  772   4.268   4.441   5.046
    1C        O  773   4.239   4.424   5.168
    1C        O  774   4.372   4.533   5.026
    1C        C  775   4.147   2.516   5.061
    1C        O  776   4.165   2.395   5.031
    1C        O  777   4.143   2.538   5.200
    1C        C  778   2.874   4.549   5.043
    1C        O  779   2.845   4.664   4.999
    1C        O  780   2.849   4.529   5.179
    1C        C  781   2.470   3.034   5.073
    1C        O  782   2.354   2.994   5.047
    1C        O  783   2.485   3.074   5.205
    1C        C  784   2.408   3.986   5.054
    1C        O  785   2.303   3.926   5.022
    1C        O  786   2.433   3.981   5.192
    1C        C  787   2.944   2.414   2.012
    1C        O  788   2.915   2.415   1.889
    1C        O  789   2.953   2.282   2.054
    1C        C  790   3.174   2.362   5.041
    1C        O  791   3.136   2.254   4.989
    1C        O  792   3.231   2.345   5.168
    1C        H  793   4.266   3.039   5.045
    1C        H  794   4.130   2.835   5.049
    1C        H  795   4.516   3.126   5.051
    1C        H  796   4.513   3.367   5.065
    1C        H  797   4.553   3.817   5.039
    1C        H  798   4.382   3.948   5.044
    1C        H  799   4.253   4.141   5.040
    1C        H  800   4.044   4.545   5.020
    1C        H  801   3.808   4.552   5.045
    1C        H  802   3.584   4.623   5.038
    1C        H  803   3.398   4.472   5.038
    1C        H  804   3.170   4.425   5.033
    1C        H  805   3.897   2.455   5.049
    1C        H  806   3.658   2.409   5.053
    1C        H  807   2.990   2.531   5.044
    1C        H  808   3.440   2.469   5.074
    1C        H  809   2.825   2.697   5.066
    1C        H  810   2.689   2.885   5.074
    1C        H  811   2.468   3.278   5.058
    1C        H  812   2.536   3.498   5.070
    1C        H  813   2.518   3.742   5.061
    1C        H  814   2.572   4.181   5.037
    1C        H  815   2.781   4.287   5.051
    1C        H  816   2.714   2.877   1.969
    1C        H  817   2.798   2.663   1.983
    1C        H  818   3.187   2.378   2.024
    1C        H  819   3.423   2.414   1.980
    1C        H  820   3.858   2.509   1.969
    1C        H  821   4.022   2.676   1.978
    1C        H  822   4.254   2.715   1.969
    1C        H  823   4.359   2.936   1.969
    1C        H  824   4.588   3.304   1.969
    1C        H  825   4.504   3.505   1.958
    1C        H  826   4.527   3.750   1.962
    1C        H  827   3.802   4.522   1.944
    1C        H  828   3.938   4.335   1.953
    1C        H  829   4.175   4.284   1.944
    1C        H  830   4.525   3.979   1.976
    1C        H  831   2.662   3.827   1.984
    1C        H  832   2.743   4.053   1.973
    1C        H  833   2.690   4.328   1.994
    1C        H  834   3.358   4.508   1.944
    1C        H  835   3.167   4.357   1.971
    1C        H  836   2.478   2.989   2.025
    1C        H  837   2.403   3.208   2.007
    1C        H  838   2.569   3.651   1.980
    2V3OU   H29  839   2.799   3.553   1.606
    2V3OU   C27  840   2.782   3.500   1.703
    2V3OU   H27  841   2.726   3.565   1.775
    2V3OU   H28  842   2.732   3.401   1.686
    2V3OU   O11  843   2.909   3.474   1.762
    2V3OU   C15  844   2.922   3.394   1.873
    2V3OU   C13  845   3.048   3.377   1.934
    2V3OU   C14  846   3.070   3.268   2.019
    2V3OU   C16  847   2.968   3.184   2.060
    2V3OU    H6  848   2.988   3.101   2.129
    2V3OU   C12  849   3.211   3.225   2.034
    2V3OU    O2  850   3.232   3.126   2.107
    2V3OU   C10  851   3.324   3.308   1.989
    2V3OU    C8  852   3.455   3.268   2.011
    2V3OU   O10  853   3.487   3.152   2.074
    2V3OU   H26  854   3.407   3.114   2.113
    2V3OU    C6  855   3.562   3.345   1.954
    2V3OU    C5  856   3.536   3.459   1.879
    2V3OU    C4  857   3.699   3.288   1.955
    2V3OU    H4  858   3.719   3.218   2.042
    2V3OU    H5  859   3.704   3.227   1.860
    2V3OU    C2  860   3.810   3.393   1.961
    2V3OU    O6  861   3.807   3.473   2.079
    2V3OU   H21  862   3.758   3.555   2.059
    2V3OU    C3  863   3.778   3.492   1.848
    2V3OU    H2  864   3.859   3.569   1.837
    2V3OU    H3  865   3.774   3.432   1.753
    2V3OU   C25  866   3.947   3.328   1.940
    2V3OU    O7  867   3.999   3.293   1.835
    2V3OU   C26  868   4.024   3.287   2.065
    2V3OU   H22  869   4.055   3.378   2.122
    2V3OU   H23  870   4.112   3.224   2.038
    2V3OU    O8  871   3.957   3.206   2.159
    2V3OU   H24  872   3.929   3.265   2.231
    2V3OU    C1  873   3.645   3.561   1.869
    2V3OU    H1  874   3.622   3.619   1.775
    2V3OU    O3  875   3.655   3.655   1.977
    2V3OU   C19  876   3.615   3.789   1.949
    2V3OU    H9  877   3.518   3.807   1.894
    2V3OU    O4  878   3.711   3.841   1.861
    2V3OU   C20  879   3.840   3.872   1.915
    2V3OU   H10  880   3.886   3.771   1.933
    2V3OU   C24  881   3.609   3.857   2.086
    2V3OU   H16  882   3.539   3.798   2.151
    2V3OU   H17  883   3.563   3.958   2.070
    2V3OU   C23  884   3.748   3.878   2.146
    2V3OU   H15  885   3.792   3.774   2.162
    2V3OU    N1  886   3.730   3.949   2.271
    2V3OU   H19  887   3.800   3.928   2.340
    2V3OU   H20  888   3.640   3.923   2.306
    2V3OU   C21  889   3.846   3.949   2.047
    2V3OU   H11  890   3.949   3.927   2.087
    2V3OU    O5  891   3.819   4.088   2.050
    2V3OU   H18  892   3.778   4.100   2.137
    2V3OU   C22  893   3.912   3.948   1.804
    2V3OU   H12  894   3.857   4.042   1.779
    2V3OU   H13  895   3.905   3.890   1.709
    2V3OU   H14  896   4.019   3.969   1.833
    2V3OU   C11  897   3.156   3.467   1.891
    2V3OU    O1  898   3.134   3.587   1.864
    2V3OU    C9  899   3.297   3.425   1.913
    2V3OU    C7  900   3.400   3.499   1.857
    2V3OU    O9  901   3.379   3.619   1.792
    2V3OU   H25  902   3.282   3.629   1.796
    2V3OU   C17  903   2.817   3.311   1.919
    2V3OU    H7  904   2.713   3.340   1.903
    2V3OU   C18  905   2.841   3.206   2.007
    2V3OU    H8  906   2.754   3.139   2.009
    3SOL     OW  907   2.127   4.132   1.401
    3SOL    HW1  908   2.128   4.032   1.395
    3SOL    HW2  909   2.192   4.170   1.336
    4SOL     OW  910   5.954   0.164   1.622
    4SOL    HW1  911   6.049   0.137   1.633
    4SOL    HW2  912   5.898   0.083   1.604
    5SOL     OW  913   4.317   1.208   1.237
    5SOL    HW1  914   4.339   1.151   1.158
    5SOL    HW2  915   4.241   1.167   1.288
    6SOL     OW  916   3.356   1.992   1.975
    6SOL    HW1  917   3.352   2.061   1.904
    6SOL    HW2  918   3.286   1.922   1.959
    7SOL     OW  919   6.042   2.270   1.988
    7SOL    HW1  920   5.977   2.264   2.063
    7SOL    HW2  921   5.993   2.291   1.903
    8SOL     OW  922   2.440   6.370   4.161
    8SOL    HW1  923   2.464   6.467   4.166
    8SOL    HW2  924   2.358   6.358   4.106
    9SOL     OW  925   1.689   5.582   5.877
    9SOL    HW1  926   1.761   5.526   5.917
    9SOL    HW2  927   1.600   5.553   5.913
   10SOL     OW  928   0.381   4.453   6.137
   10SOL    HW1  929   0.479   4.445   6.120
   10SOL    HW2  930   0.360   4.543   6.174
   11SOL     OW  931   3.912   6.722   0.268
   11SOL    HW1  932   3.910   6.642   0.208
   11SOL    HW2  933   3.831   6.723   0.326
   12SOL     OW  934   5.044   5.718   3.265
   12SOL    HW1  935   5.034   5.760   3.175
   12SOL    HW2  936   4.955   5.719   3.312
   13SOL     OW  937   2.904   6.556   4.291
   13SOL    HW1  938   2.816   6.585   4.330
   13SOL    HW2  939   2.912   6.590   4.197
   14SOL     OW  940   3.567   5.731   6.859
   14SOL    HW1  941   3.617   5.680   6.788
   14SOL    HW2  942   3.599   5.825   6.861
   15SOL     OW  943   1.023   6.309   0.265
   15SOL    HW1  944   0.992   6.216   0.246
   15SOL    HW2  945   0.999   6.334   0.359
   16SOL     OW  946   6.574   1.945   5.945
   16SOL    HW1  947   6.547   2.037   5.917
   16SOL    HW2  948   6.672   1.945   5.967
   17SOL     OW  949   5.279   6.488   4.177
   17SOL    HW1  950   5.348   6.532   4.119
   17SOL    HW2  951   5.236   6.558   4.235
   18SOL     OW  952   2.411   1.828   5.934
   18SOL    HW1  953   2.467   1.823   6.017
   18SOL    HW2  954   2.461   1.878   5.863
   19SOL     OW  955   0.173   0.091   3.106
   19SOL    HW1  956   0.230   0.169   3.129
   19SOL    HW2  957   0.129   0.106   3.018
   20SOL     OW  958   3.684   1.305   4.329
   20SOL    HW1  959   3.735   1.251   4.396
   20SOL    HW2  960   3.621   1.245   4.279
   21SOL     OW  961   3.279   1.695   1.950
   21SOL    HW1  962   3.322   1.613   1.987
   21SOL    HW2  963   3.216   1.732   2.018
   22SOL     OW  964   2.178   6.630   6.228
   22SOL    HW1  965   2.112   6.644   6.154
   22SOL    HW2  966   2.155   6.546   6.278
   23SOL     OW  967   4.232   6.432   3.811
   23SOL    HW1  968   4.283   6.458   3.729
   23SOL    HW2  969   4.295   6.394   3.879
   24SOL     OW  970   5.315   1.067   4.312
   24SOL    HW1  971   5.235   1.035   4.260
   24SOL    HW2  972   5.398   1.025   4.276
   25SOL     OW  973   3.038   5.539   0.201
   25SOL    HW1  974   2.985   5.558   0.118
   25SOL    HW2  975   3.132   5.516   0.176
   26SOL     OW  976   6.397   1.408   1.919
   26SOL    HW1  977   6.351   1.344   1.857
   26SOL    HW2  978   6.370   1.387   2.013
   27SOL     OW  979   6.528   0.508   2.560
   27SOL    HW1  980   6.445   0.467   2.599
   27SOL    HW2  981   6.563   0.448   2.488
   28SOL     OW  982   4.210   0.511   6.038
   28SOL    HW1  983   4.193   0.471   5.948
   28SOL    HW2  984   4.291   0.570   6.034
   29SOL     OW  985   5.364   2.501   2.148
   29SOL    HW1  986   5.351   2.425   2.211
   29SOL    HW2  987   5.366   2.466   2.054
   30SOL     OW  988   2.741   6.963   5.318
   30SOL    HW1  989   2.679   6.956   5.241
   30SOL    HW2  990   2.758   0.041   5.339
   31SOL     OW  991   0.843   0.985   5.269
   31SOL    HW1  992   0.932   0.996   5.226
   31SOL    HW2  993   0.838   0.895   5.313
   32SOL     OW  994   0.698   2.073   2.874
   32SOL    HW1  995   0.704   2.055   2.972
   32SOL    HW2  996   0.787   2.059   2.831
   33SOL     OW  997   1.649   2.860   5.814
   33SOL    HW1  998   1.699   2.828   5.733
   33SOL    HW2  999   1.680   2.952   5.838
   34SOL     OW 1000   2.142   0.173   4.836
   34SOL    HW1 1001   2.067   0.125   4.791
   34SOL    HW2 1002   2.183   0.238   4.772
   35SOL     OW 1003   4.110   1.847   6.559
   35SOL    HW1 1004   4.031   1.860   6.499
   35SOL    HW2 1005   4.153   1.759   6.539
   36SOL     OW 1006   1.128   0.532   6.182
   36SOL    HW1 1007   1.076   0.446   6.181
   36SOL    HW2 1008   1.170   0.543   6.272
   37SOL     OW 1009   2.485   6.535   1.193
   37SOL    HW1 1010   2.525   6.575   1.111
   37SOL    HW2 1011   2.460   6.607   1.257
   38SOL     OW 1012   0.007   5.963   2.622
   38SOL    HW1 1013   0.042   5.970   2.529
   38SOL    HW2 1014   6.999   6.054   2.655
   39SOL     OW 1015   6.377   3.971   5.951
   39SOL    HW1 1016   6.310   4.043   5.970
   39SOL    HW2 1017   6.409   3.980   5.856
   40SOL     OW 1018   6.410   1.522   2.783
   40SOL    HW1 1019   6.421   1.621   2.786
   40SOL    HW2 1020   6.420   1.490   2.689
   41SOL     OW 1021   1.842   6.974   4.087
   41SOL    HW1 1022   1.760   6.918   4.101
   41SOL    HW2 1023   1.878   7.003   4.176
   42SOL     OW 1024   3.175   6.896   6.320
   42SOL    HW1 1025   3.110   6.928   6.389
   42SOL    HW2 1026   3.213   6.808   6.349
   43SOL     OW 1027   5.627   6.373   5.761
   43SOL    HW1 1028   5.533   6.408   5.754
   43SOL    HW2 1029   5.674   6.418   5.836
   44SOL     OW 1030   0.215   2.950   6.369
   44SOL    HW1 1031   0.129   2.993   6.395
   44SOL    HW2 1032   0.203   2.898   6.284
   45SOL     OW 1033   2.861   0.499   2.606
   45SOL    HW1 1034   2.771   0.500   2.650
   45SOL    HW2 1035   2.883   0.592   2.575
   46SOL     OW 1036   1.134   3.700   4.523
   46SOL    HW1 1037   1.063   3.630   4.522
   46SOL    HW2 1038   1.141   3.742   4.432
   47SOL     OW 1039   6.169   4.065   3.517
   47SOL    HW1 1040   6.146   4.083   3.613
   47SOL    HW2 1041   6.087   4.037   3.468
   48SOL     OW 1042   0.399   2.627   4.637
   48SOL    HW1 1043   0.494   2.610   4.610
   48SOL    HW2 1044   0.340   2.555   4.600
   49SOL     OW 1045   4.786   4.326   1.045
   49SOL    HW1 1046   4.816   4.355   1.136
   49SOL    HW2 1047   4.711   4.261   1.052
   50SOL     OW 1048   6.829   3.325   4.766
   50SOL    HW1 1049   6.862   3.363   4.679
   50SOL    HW2 1050   6.746   3.373   4.793
   51SOL     OW 1051   3.564   4.908   2.726
   51SOL    HW1 1052   3.493   4.859   2.776
   51SOL    HW2 1053   3.524   4.955   2.648
   52SOL     OW 1054   3.100   1.636   2.580
   52SOL    HW1 1055   3.060   1.557   2.626
   52SOL    HW2 1056   3.078   1.719   2.631
   53SOL     OW 1057   4.642   6.874   3.855
   53SOL    HW1 1058   4.605   6.789   3.892
   53SOL    HW2 1059   4.687   6.856   3.768
   54SOL     OW 1060   2.948   5.224   5.916
   54SOL    HW1 1061   2.896   5.159   5.860
   54SOL    HW2 1062   3.035   5.182   5.942
   55SOL     OW 1063   3.586   0.933   5.897
   55SOL    HW1 1064   3.526   0.870   5.847
   55SOL    HW2 1065   3.674   0.888   5.914
   56SOL     OW 1066   1.969   0.582   2.301
   56SOL    HW1 1067   2.002   0.638   2.377
   56SOL    HW2 1068   1.933   0.496   2.337
   57SOL     OW 1069   5.124   0.668   0.299
   57SOL    HW1 1070   5.042   0.636   0.251
   57SOL    HW2 1071   5.205   0.629   0.255
   58SOL     OW 1072   0.167   6.014   0.100
   58SOL    HW1 1073   0.116   6.071   0.035
   58SOL    HW2 1074   0.114   6.003   0.183
   59SOL     OW 1075   1.545   0.339   5.883
   59SOL    HW1 1076   1.570   0.325   5.979
   59SOL    HW2 1077   1.549   0.437   5.862
   60SOL     OW 1078   4.344   0.056   5.671
   60SOL    HW1 1079   4.246   0.042   5.685
   60SOL    HW2 1080   4.394   0.020   5.750
   61SOL     OW 1081   4.995   0.027   4.102
   61SOL    HW1 1082   4.953   6.961   4.068
   61SOL    HW2 1083   4.978   0.035   4.200
   62SOL     OW 1084   1.200   0.453   3.672
   62SOL    HW1 1085   1.285   0.472   3.721
   62SOL    HW2 1086   1.137   0.530   3.684
   63SOL     OW 1087   6.236   2.160   3.229
   63SOL    HW1 1088   6.170   2.086   3.216
   63SOL    HW2 1089   6.326   2.122   3.250
   64SOL     OW 1090   6.333   3.794   6.248
   64SOL    HW1 1091   6.401   3.866   6.238
   64SOL    HW2 1092   6.281   3.785   6.163
   65SOL     OW 1093   6.686   4.636   5.270
   65SOL    HW1 1094   6.784   4.642   5.290
   65SOL    HW2 1095   6.654   4.543   5.289
   66SOL     OW 1096   3.554   0.931   6.714
   66SOL    HW1 1097   3.636   0.908   6.662
   66SOL    HW2 1098   3.575   1.001   6.781
   67SOL     OW 1099   5.868   6.617   5.254
   67SOL    HW1 1100   5.947   6.592   5.310
   67SOL    HW2 1101   5.895   6.617   5.158
   68SOL     OW 1102   6.239   1.661   6.884
   68SOL    HW1 1103   6.209   1.609   6.963
   68SOL    HW2 1104   6.260   1.599   6.809
   69SOL     OW 1105   2.031   4.298   6.426
   69SOL    HW1 1106   2.075   4.306   6.515
   69SOL    HW2 1107   1.949   4.240   6.435
   70SOL     OW 1108   6.545   5.625   2.836
   70SOL    HW1 1109   6.492   5.547   2.870
   70SOL    HW2 1110   6.490   5.708   2.843
   71SOL     OW 1111   2.897   2.079   3.923
   71SOL    HW1 1112   2.947   1.997   3.948
   71SOL    HW2 1113   2.925   2.155   3.982
   72SOL     OW 1114   3.249   5.995   3.689
   72SOL    HW1 1115   3.168   5.967   3.637
   72SOL    HW2 1116   3.240   5.964   3.784
   73SOL     OW 1117   3.145   2.602   0.116
   73SOL    HW1 1118   3.086   2.620   0.195
   73SOL    HW2 1119   3.193   2.516   0.130
   74SOL     OW 1120   5.200   6.870   0.319
   74SOL    HW1 1121   5.245   6.781   0.323
   74SOL    HW2 1122   5.199   6.903   0.225
   75SOL     OW 1123   3.503   5.467   4.986
   75SOL    HW1 1124   3.474   5.492   5.079
   75SOL    HW2 1125   3.486   5.370   4.971
   76SOL     OW 1126   2.149   2.213   1.343
   76SOL    HW1 1127   2.248   2.220   1.349
   76SOL    HW2 1128   2.116   2.279   1.275
   77SOL     OW 1129   5.400   5.605   4.904
   77SOL    HW1 1130   5.323   5.541   4.906
   77SOL    HW2 1131   5.485   5.557   4.926
   78SOL     OW 1132   6.627   6.523   6.135
   78SOL    HW1 1133   6.637   6.606   6.081
   78SOL    HW2 1134   6.653   6.444   6.079
   79SOL     OW 1135   3.298   0.192   0.824
   79SOL    HW1 1136   3.208   0.223   0.854
   79SOL    HW2 1137   3.296   0.177   0.725
   80SOL     OW 1138   6.492   0.726   5.262
   80SOL    HW1 1139   6.550   0.798   5.301
   80SOL    HW2 1140   6.471   0.658   5.333
   81SOL     OW 1141   2.159   0.841   2.784
   81SOL    HW1 1142   2.063   0.839   2.755
   81SOL    HW2 1143   2.165   0.875   2.877
   82SOL     OW 1144   6.998   5.057   6.924
   82SOL    HW1 1145   7.018   5.109   6.841
   82SOL    HW2 1146   6.985   5.119   7.001
   83SOL     OW 1147   6.962   6.880   0.575
   83SOL    HW1 1148   0.026   6.898   0.630
   83SOL    HW2 1149   6.884   6.925   0.616
   84SOL     OW 1150   5.319   3.656   2.562
   84SOL    HW1 1151   5.389   3.612   2.507
   84SOL    HW2 1152   5.228   3.627   2.530
   85SOL     OW 1153   0.681   1.138   5.038
   85SOL    HW1 1154   0.757   1.103   5.093
   85SOL    HW2 1155   0.623   1.197   5.095
   86SOL     OW 1156   0.205   0.531   5.706
   86SOL    HW1 1157   0.168   0.621   5.684
   86SOL    HW2 1158   0.139   0.480   5.761
   87SOL     OW 1159   4.682   2.553   0.175
   87SOL    HW1 1160   4.648   2.643   0.146
   87SOL    HW2 1161   4.782   2.550   0.162
   88SOL     OW 1162   4.866   1.552   0.139
   88SOL    HW1 1163   4.854   1.576   0.236
   88SOL    HW2 1164   4.868   1.453   0.129
   89SOL     OW 1165   1.774   2.747   6.786
   89SOL    HW1 1166   1.710   2.813   6.746
   89SOL    HW2 1167   1.823   2.791   6.862
   90SOL     OW 1168   5.186   6.506   3.820
   90SOL    HW1 1169   5.169   6.409   3.838
   90SOL    HW2 1170   5.119   6.562   3.870
   91SOL     OW 1171   4.581   4.405   3.646
   91SOL    HW1 1172   4.576   4.458   3.731
   91SOL    HW2 1173   4.625   4.460   3.575
   92SOL     OW 1174   2.903   5.464   0.403
   92SOL    HW1 1175   2.947   5.508   0.325
   92SOL    HW2 1176   2.950   5.378   0.425
   93SOL     OW 1177   2.969   4.401   5.925
   93SOL    HW1 1178   2.947   4.453   5.843
   93SOL    HW2 1179   2.934   4.307   5.916
   94SOL     OW 1180   3.365   5.481   6.719
   94SOL    HW1 1181   3.334   5.392   6.753
   94SOL    HW2 1182   3.315   5.504   6.636
   95SOL     OW 1183   0.629   1.334   3.288
   95SOL    HW1 1184   0.629   1.297   3.195
   95SOL    HW2 1185   0.681   1.419   3.290
   96SOL     OW 1186   2.411   6.827   5.369
   96SOL    HW1 1187   2.503   6.789   5.369
   96SOL    HW2 1188   2.414   6.924   5.392
   97SOL     OW 1189   6.624   4.080   5.060
   97SOL    HW1 1190   6.559   4.101   4.986
   97SOL    HW2 1191   6.636   3.981   5.066
   98SOL     OW 1192   5.812   3.086   6.121
   98SOL    HW1 1193   5.875   3.024   6.167
   98SOL    HW2 1194   5.845   3.180   6.131
   99SOL     OW 1195   4.293   2.772   1.280
   99SOL    HW1 1196   4.304   2.677   1.250
   99SOL    HW2 1197   4.365   2.828   1.239
  100SOL     OW 1198   0.264   6.728   6.764
  100SOL    HW1 1199   0.320   6.811   6.760
  100SOL    HW2 1200   0.321   6.649   6.739
  101SOL     OW 1201   0.872   5.594   3.337
  101SOL    HW1 1202   0.926   5.656   3.280
  101SOL    HW2 1203   0.894   5.608   3.433
  102SOL     OW 1204   4.419   0.318   3.181
  102SOL    HW1 1205   4.375   0.401   3.149
  102SOL    HW2 1206   4.491   0.291   3.116
  103SOL     OW 1207   4.355   1.311   1.859
  103SOL    HW1 1208   4.353   1.393   1.916
  103SOL    HW2 1209   4.310   1.236   1.907
  104SOL     OW 1210   6.366   5.405   2.852
  104SOL    HW1 1211   6.436   5.335   2.862
  104SOL    HW2 1212   6.276   5.365   2.867
  105SOL     OW 1213   6.781   0.836   6.860
  105SOL    HW1 1214   6.784   0.909   6.928
  105SOL    HW2 1215   6.689   0.796   6.858
  106SOL     OW 1216   2.522   6.491   6.512
  106SOL    HW1 1217   2.428   6.526   6.519
  106SOL    HW2 1218   2.559   6.476   6.603
  107SOL     OW 1219   1.729   1.985   1.457
  107SOL    HW1 1220   1.743   2.033   1.544
  107SOL    HW2 1221   1.818   1.961   1.417
  108SOL     OW 1222   4.516   4.005   0.297
  108SOL    HW1 1223   4.495   3.948   0.377
  108SOL    HW2 1224   4.602   3.975   0.256
  109SOL     OW 1225   0.690   0.298   1.418
  109SOL    HW1 1226   0.775   0.271   1.463
  109SOL    HW2 1227   0.703   0.385   1.371
  110SOL     OW 1228   3.974   5.471   5.419
  110SOL    HW1 1229   3.985   5.567   5.396
  110SOL    HW2 1230   3.910   5.462   5.497
  111SOL     OW 1231   3.973   0.698   3.912
  111SOL    HW1 1232   3.975   0.761   3.834
  111SOL    HW2 1233   3.998   0.606   3.881
  112SOL     OW 1234   5.687   5.940   5.536
  112SOL    HW1 1235   5.704   5.993   5.619
  112SOL    HW2 1236   5.772   5.931   5.484
  113SOL     OW 1237   6.296   4.899   3.522
  113SOL    HW1 1238   6.228   4.889   3.595
  113SOL    HW2 1239   6.357   4.976   3.544
  114SOL     OW 1240   0.599   6.903   0.626
  114SOL    HW1 1241   0.692   6.928   0.599
  114SOL    HW2 1242   0.568   6.826   0.571
  115SOL     OW 1243   4.932   0.866   4.089
  115SOL    HW1 1244   4.884   0.925   4.023
  115SOL    HW2 1245   4.867   0.801   4.129
  116SOL     OW 1246   6.272   5.054   2.430
  116SOL    HW1 1247   6.365   5.048   2.468
  116SOL    HW2 1248   6.277   5.084   2.335
  117SOL     OW 1249   0.769   1.013   6.386
  117SOL    HW1 1250   0.733   0.970   6.303
  117SOL    HW2 1251   0.706   1.086   6.415
  118SOL     OW 1252   0.308   0.990   1.338
  118SOL    HW1 1253   0.369   0.961   1.411
  118SOL    HW2 1254   0.355   1.054   1.278
  119SOL     OW 1255   0.083   1.864   6.589
  119SOL    HW1 1256   7.006   1.880   6.562
  119SOL    HW2 1257   0.087   1.846   6.687
  120SOL     OW 1258   6.408   0.159   0.864
  120SOL    HW1 1259   6.352   0.156   0.781
  120SOL    HW2 1260   6.372   0.228   0.926
  121SOL     OW 1261   2.504   3.701   0.002
  121SOL    HW1 1262   2.432   3.749   6.970
  121SOL    HW2 1263   2.477   3.692   0.098
  122SOL     OW 1264   1.480   4.143   5.366
  122SOL    HW1 1265   1.480   4.239   5.396
  122SOL    HW2 1266   1.433   4.136   5.278
  123SOL     OW 1267   0.289   2.100   0.933
  123SOL    HW1 1268   0.233   2.163   0.878
  123SOL    HW2 1269   0.376   2.144   0.955
  124SOL     OW 1270   5.094   3.294   0.718
  124SOL    HW1 1271   5.150   3.277   0.637
  124SOL    HW2 1272   5.052   3.208   0.748
  125SOL     OW 1273   2.107   2.049   2.674
  125SOL    HW1 1274   2.075   2.111   2.746
  125SOL    HW2 1275   2.191   2.004   2.703
  126SOL     OW 1276   3.351   4.541   0.756
  126SOL    HW1 1277   3.423   4.480   0.788
  126SOL    HW2 1278   3.293   4.567   0.834
  127SOL     OW 1279   6.986   4.908   6.029
  127SOL    HW1 1280   6.966   4.957   6.114
  127SOL    HW2 1281   0.005   4.972   5.962
  128SOL     OW 1282   4.709   2.604   1.890
  128SOL    HW1 1283   4.734   2.696   1.918
  128SOL    HW2 1284   4.787   2.561   1.844
  129SOL     OW 1285   3.910   3.206   6.207
  129SOL    HW1 1286   3.830   3.212   6.267
  129SOL    HW2 1287   3.902   3.126   6.148
  130SOL     OW 1288   0.765   0.725   4.545
  130SOL    HW1 1289   0.694   0.784   4.505
  130SOL    HW2 1290   0.824   0.691   4.473
  131SOL     OW 1291   4.499   1.400   3.427
  131SOL    HW1 1292   4.566   1.403   3.353
  131SOL    HW2 1293   4.524   1.466   3.498
  132SOL     OW 1294   1.572   2.578   0.863
  132SOL    HW1 1295   1.633   2.535   0.929
  132SOL    HW2 1296   1.491   2.521   0.850
  133SOL     OW 1297   5.575   6.710   3.023
  133SOL    HW1 1298   5.602   6.623   2.982
  133SOL    HW2 1299   5.559   6.778   2.951
  134SOL     OW 1300   5.675   2.495   2.823
  134SOL    HW1 1301   5.763   2.483   2.869
  134SOL    HW2 1302   5.655   2.593   2.814
  135SOL     OW 1303   5.243   1.575   3.030
  135SOL    HW1 1304   5.215   1.635   3.105
  135SOL    HW2 1305   5.178   1.500   3.021
  136SOL     OW 1306   4.921   4.347   5.864
  136SOL    HW1 1307   4.829   4.332   5.901
  136SOL    HW2 1308   4.927   4.311   5.771
  137SOL     OW 1309   4.552   6.900   5.411
  137SOL    HW1 1310   4.518   6.993   5.423
  137SOL    HW2 1311   4.591   6.890   5.320
  138SOL     OW 1312   0.232   5.215   4.475
  138SOL    HW1 1313   0.137   5.188   4.460
  138SOL    HW2 1314   0.263   5.272   4.399
  139SOL     OW 1315   2.530   5.795   5.534
  139SOL    HW1 1316   2.597   5.804   5.461
  139SOL    HW2 1317   2.488   5.884   5.552
  140SOL     OW 1318   6.210   5.079   4.455
  140SOL    HW1 1319   6.251   5.068   4.364
  140SOL    HW2 1320   6.165   4.994   4.482
  141SOL     OW 1321   0.906   2.007   5.608
  141SOL    HW1 1322   0.959   2.091   5.600
  141SOL    HW2 1323   0.808   2.028   5.603
  142SOL     OW 1324   1.782   6.227   1.535
  142SOL    HW1 1325   1.855   6.294   1.544
  142SOL    HW2 1326   1.697   6.273   1.509
  143SOL     OW 1327   5.585   4.311   2.102
  143SOL    HW1 1328   5.658   4.293   2.167
  143SOL    HW2 1329   5.531   4.389   2.133
  144SOL     OW 1330   1.634   6.600   6.492
  144SOL    HW1 1331   1.630   6.643   6.402
  144SOL    HW2 1332   1.717   6.546   6.500
  145SOL     OW 1333   1.110   5.231   0.682
  145SOL    HW1 1334   1.082   5.211   0.775
  145SOL    HW2 1335   1.169   5.312   0.681
  146SOL     OW 1336   4.643   6.221   0.088
  146SOL    HW1 1337   4.730   6.268   0.078
  146SOL    HW2 1338   4.628   6.198   0.185
  147SOL     OW 1339   6.398   2.732   0.476
  147SOL    HW1 1340   6.320   2.770   0.427
  147SOL    HW2 1341   6.483   2.759   0.430
  148SOL     OW 1342   0.451   4.965   5.344
  148SOL    HW1 1343   0.483   5.055   5.374
  148SOL    HW2 1344   0.528   4.912   5.309
  149SOL     OW 1345   2.730   1.270   4.109
  149SOL    HW1 1346   2.665   1.301   4.179
  149SOL    HW2 1347   2.823   1.282   4.143
  150SOL     OW 1348   6.970   5.206   6.223
  150SOL    HW1 1349   6.948   5.128   6.282
  150SOL    HW2 1350   6.886   5.248   6.190
  151SOL     OW 1351   3.992   1.969   1.452
  151SOL    HW1 1352   3.934   2.043   1.484
  151SOL    HW2 1353   4.088   1.990   1.471
  152SOL     OW 1354   1.959   0.700   4.269
  152SOL    HW1 1355   2.006   0.678   4.183
  152SOL    HW2 1356   1.964   0.622   4.331
  153SOL     OW 1357   2.290   0.054   2.049
  153SOL    HW1 1358   2.323   0.098   1.966
  153SOL    HW2 1359   2.242   0.121   2.106
  154SOL     OW 1360   6.853   3.086   1.931
  154SOL    HW1 1361   6.917   3.013   1.953
  154SOL    HW2 1362   6.866   3.114   1.836
  155SOL     OW 1363   0.286   1.358   3.633
  155SOL    HW1 1364   0.254   1.451   3.614
  155SOL    HW2 1365   0.384   1.353   3.617
  156SOL     OW 1366   6.471   1.905   1.320
  156SOL    HW1 1367   6.465   1.823   1.262
  156SOL    HW2 1368   6.564   1.940   1.318
  157SOL     OW 1369   6.233   3.078   1.981
  157SOL    HW1 1370   6.226   2.994   1.928
  157SOL    HW2 1371   6.310   3.132   1.948
  158SOL     OW 1372   3.192   0.404   2.450
  158SOL    HW1 1373   3.237   0.381   2.364
  158SOL    HW2 1374   3.107   0.351   2.458
  159SOL     OW 1375   4.736   4.246   1.480
  159SOL    HW1 1376   4.807   4.315   1.491
  159SOL    HW2 1377   4.702   4.217   1.570
  160SOL     OW 1378   6.817   4.395   6.562
  160SOL    HW1 1379   6.875   4.351   6.631
  160SOL    HW2 1380   6.875   4.429   6.487
  161SOL     OW 1381   2.018   5.387   4.806
  161SOL    HW1 1382   2.012   5.487   4.799
  161SOL    HW2 1383   2.062   5.363   4.893
  162SOL     OW 1384   4.280   6.234   0.373
  162SOL    HW1 1385   4.218   6.310   0.392
  162SOL    HW2 1386   4.272   6.208   0.276
  163SOL     OW 1387   3.921   6.201   1.432
  163SOL    HW1 1388   3.839   6.226   1.484
  163SOL    HW2 1389   3.936   6.269   1.360
  164SOL     OW 1390   6.626   4.265   1.346
  164SOL    HW1 1391   6.634   4.234   1.441
  164SOL    HW2 1392   6.644   4.364   1.343
  165SOL     OW 1393   4.574   3.070   0.334
  165SOL    HW1 1394   4.631   3.148   0.306
  165SOL    HW2 1395   4.605   2.988   0.285
  166SOL     OW 1396   0.303   5.596   3.540
  166SOL    HW1 1397   0.289   5.538   3.620
  166SOL    HW2 1398   0.341   5.684   3.569
  167SOL     OW 1399   5.991   2.219   0.164
  167SOL    HW1 1400   6.047   2.258   0.236
  167SOL    HW2 1401   5.894   2.232   0.186
  168SOL     OW 1402   2.787   3.841   0.941
  168SOL    HW1 1403   2.822   3.923   0.987
  168SOL    HW2 1404   2.863   3.781   0.916
  169SOL     OW 1405   2.987   0.065   1.832
  169SOL    HW1 1406   2.959   0.059   1.737
  169SOL    HW2 1407   2.984   6.993   1.875
  170SOL     OW 1408   0.429   1.593   3.886
  170SOL    HW1 1409   0.395   1.502   3.910
  170SOL    HW2 1410   0.354   1.649   3.851
  171SOL     OW 1411   3.421   3.857   0.435
  171SOL    HW1 1412   3.353   3.783   0.431
  171SOL    HW2 1413   3.397   3.928   0.369
  172SOL     OW 1414   6.627   1.673   4.777
  172SOL    HW1 1415   6.543   1.699   4.824
  172SOL    HW2 1416   6.673   1.756   4.743
  173SOL     OW 1417   6.780   6.952   4.490
  173SOL    HW1 1418   6.755   7.012   4.565
  173SOL    HW2 1419   6.704   6.888   4.471
  174SOL     OW 1420   2.962   5.529   3.285
  174SOL    HW1 1421   2.988   5.610   3.234
  174SOL    HW2 1422   3.044   5.477   3.309
  175SOL     OW 1423   1.771   6.467   1.878
  175SOL    HW1 1424   1.854   6.447   1.825
  175SOL    HW2 1425   1.785   6.443   1.973
  176SOL     OW 1426   2.425   4.052   1.103
  176SOL    HW1 1427   2.398   4.010   1.190
  176SOL    HW2 1428   2.513   4.098   1.115
  177SOL     OW 1429   5.473   2.686   3.139
  177SOL    HW1 1430   5.475   2.699   3.040
  177SOL    HW2 1431   5.469   2.775   3.184
  178SOL     OW 1432   5.122   4.166   6.412
  178SOL    HW1 1433   5.123   4.150   6.313
  178SOL    HW2 1434   5.038   4.130   6.451
  179SOL     OW 1435   3.001   0.672   0.189
  179SOL    HW1 1436   2.954   0.741   0.135
  179SOL    HW2 1437   3.082   0.712   0.231
  180SOL     OW 1438   0.715   1.125   6.769
  180SOL    HW1 1439   0.647   1.053   6.752
  180SOL    HW2 1440   0.807   1.087   6.758
  181SOL     OW 1441   3.728   1.839   6.521
  181SOL    HW1 1442   3.779   1.887   6.449
  181SOL    HW2 1443   3.742   1.741   6.512
  182SOL     OW 1444   4.594   2.131   4.186
  182SOL    HW1 1445   4.664   2.060   4.178
  182SOL    HW2 1446   4.632   2.211   4.231
  183SOL     OW 1447   4.005   0.493   2.149
  183SOL    HW1 1448   4.053   0.563   2.097
  183SOL    HW2 1449   3.998   0.522   2.245
  184SOL     OW 1450   1.293   5.944   3.697
  184SOL    HW1 1451   1.349   6.027   3.692
  184SOL    HW2 1452   1.352   5.866   3.718
  185SOL     OW 1453   1.048   3.389   6.608
  185SOL    HW1 1454   1.107   3.344   6.540
  185SOL    HW2 1455   1.062   3.488   6.604
  186SOL     OW 1456   6.243   0.272   3.605
  186SOL    HW1 1457   6.231   0.284   3.704
  186SOL    HW2 1458   6.166   0.219   3.569
  187SOL     OW 1459   5.537   0.923   4.235
  187SOL    HW1 1460   5.570   0.848   4.292
  187SOL    HW2 1461   5.609   0.991   4.223
  188SOL     OW 1462   5.552   2.392   3.204
  188SOL    HW1 1463   5.477   2.350   3.153
  188SOL    HW2 1464   5.522   2.478   3.243
  189SOL     OW 1465   1.820   5.684   2.864
  189SOL    HW1 1466   1.914   5.696   2.896
  189SOL    HW2 1467   1.808   5.731   2.777
  190SOL     OW 1468   3.664   1.099   4.997
  190SOL    HW1 1469   3.663   1.170   5.068
  190SOL    HW2 1470   3.757   1.090   4.960
  191SOL     OW 1471   5.929   5.514   5.922
  191SOL    HW1 1472   5.846   5.491   5.972
  191SOL    HW2 1473   5.951   5.439   5.859
  192SOL     OW 1474   0.116   6.753   2.208
  192SOL    HW1 1475   0.203   6.723   2.170
  192SOL    HW2 1476   0.052   6.771   2.134
  193SOL     OW 1477   5.118   2.895   6.571
  193SOL    HW1 1478   5.023   2.918   6.551
  193SOL    HW2 1479   5.135   2.906   6.669
  194SOL     OW 1480   3.540   0.613   2.894
  194SOL    HW1 1481   3.549   0.653   2.986
  194SOL    HW2 1482   3.575   0.678   2.826
  195SOL     OW 1483   1.715   5.607   3.249
  195SOL    HW1 1484   1.756   5.693   3.220
  195SOL    HW2 1485   1.788   5.541   3.268
  196SOL     OW 1486   1.856   2.275   6.542
  196SOL    HW1 1487   1.780   2.330   6.578
  196SOL    HW2 1488   1.866   2.292   6.444
  197SOL     OW 1489   2.336   1.580   1.127
  197SOL    HW1 1490   2.331   1.659   1.187
  197SOL    HW2 1491   2.406   1.595   1.057
  198SOL     OW 1492   4.192   0.788   3.310
  198SOL    HW1 1493   4.255   0.865   3.315
  198SOL    HW2 1494   4.098   0.822   3.322
  199SOL     OW 1495   1.532   2.829   3.987
  199SOL    HW1 1496   1.484   2.812   3.902
  199SOL    HW2 1497   1.486   2.902   4.038
  200SOL     OW 1498   0.647   2.415   0.591
  200SOL    HW1 1499   0.696   2.340   0.635
  200SOL    HW2 1500   0.701   2.499   0.598
  201SOL     OW 1501   0.583   1.169   5.973
  201SOL    HW1 1502   0.675   1.204   5.957
  201SOL    HW2 1503   0.549   1.124   5.891
  202SOL     OW 1504   4.581   0.517   6.256
  202SOL    HW1 1505   4.670   0.470   6.258
  202SOL    HW2 1506   4.571   0.573   6.338
  203SOL     OW 1507   5.910   2.745   5.495
  203SOL    HW1 1508   5.975   2.700   5.435
  203SOL    HW2 1509   5.957   2.780   5.576
  204SOL     OW 1510   0.159   0.097   5.553
  204SOL    HW1 1511   0.084   0.138   5.604
  204SOL    HW2 1512   0.149   0.116   5.456
  205SOL     OW 1513   0.890   2.470   2.447
  205SOL    HW1 1514   0.815   2.487   2.511
  205SOL    HW2 1515   0.960   2.414   2.492
  206SOL     OW 1516   0.621   3.356   1.621
  206SOL    HW1 1517   0.601   3.261   1.600
  206SOL    HW2 1518   0.537   3.401   1.653
  207SOL     OW 1519   5.178   1.739   3.252
  207SOL    HW1 1520   5.175   1.810   3.181
  207SOL    HW2 1521   5.172   1.782   3.342
  208SOL     OW 1522   0.074   4.046   5.235
  208SOL    HW1 1523   0.140   4.079   5.169
  208SOL    HW2 1524   0.107   4.064   5.328
  209SOL     OW 1525   6.395   4.542   2.529
  209SOL    HW1 1526   6.387   4.463   2.468
  209SOL    HW2 1527   6.381   4.626   2.476
  210SOL     OW 1528   4.443   2.177   0.631
  210SOL    HW1 1529   4.394   2.142   0.551
  210SOL    HW2 1530   4.523   2.120   0.649
  211SOL     OW 1531   1.509   0.384   3.225
  211SOL    HW1 1532   1.462   0.431   3.150
  211SOL    HW2 1533   1.470   0.414   3.312
  212SOL     OW 1534   1.329   3.634   2.722
  212SOL    HW1 1535   1.247   3.577   2.718
  212SOL    HW2 1536   1.395   3.592   2.785
  213SOL     OW 1537   2.035   5.873   1.318
  213SOL    HW1 1538   2.036   5.864   1.218
  213SOL    HW2 1539   1.981   5.799   1.358
  214SOL     OW 1540   4.190   5.454   2.365
  214SOL    HW1 1541   4.160   5.419   2.277
  214SOL    HW2 1542   4.286   5.429   2.380
  215SOL     OW 1543   2.531   4.998   1.434
  215SOL    HW1 1544   2.501   5.050   1.354
  215SOL    HW2 1545   2.618   5.034   1.467
  216SOL     OW 1546   1.673   0.351   2.533
  216SOL    HW1 1547   1.592   0.401   2.563
  216SOL    HW2 1548   1.646   0.265   2.489
  217SOL     OW 1549   1.133   3.113   5.542
  217SOL    HW1 1550   1.208   3.073   5.594
  217SOL    HW2 1551   1.065   3.150   5.606
  218SOL     OW 1552   0.820   2.728   5.370
  218SOL    HW1 1553   0.907   2.757   5.407
  218SOL    HW2 1554   0.824   2.631   5.346
  219SOL     OW 1555   3.670   0.897   0.288
  219SOL    HW1 1556   3.752   0.907   0.344
  219SOL    HW2 1557   3.688   0.836   0.211
  220SOL     OW 1558   3.142   0.586   1.015
  220SOL    HW1 1559   3.113   0.651   0.945
  220SOL    HW2 1560   3.073   0.581   1.087
  221SOL     OW 1561   6.298   5.410   1.262
  221SOL    HW1 1562   6.292   5.343   1.336
  221SOL    HW2 1563   6.218   5.470   1.265
  222SOL     OW 1564   1.923   4.525   6.755
  222SOL    HW1 1565   1.930   4.601   6.819
  222SOL    HW2 1566   1.907   4.560   6.663
  223SOL     OW 1567   6.962   2.702   5.483
  223SOL    HW1 1568   6.879   2.755   5.501
  223SOL    HW2 1569   6.948   2.641   5.406
  224SOL     OW 1570   3.013   2.129   5.930
  224SOL    HW1 1571   2.952   2.075   5.872
  224SOL    HW2 1572   2.966   2.212   5.958
  225SOL     OW 1573   4.707   3.746   5.857
  225SOL    HW1 1574   4.651   3.780   5.781
  225SOL    HW2 1575   4.802   3.775   5.843
  226SOL     OW 1576   0.897   1.704   6.370
  226SOL    HW1 1577   0.853   1.770   6.430
  226SOL    HW2 1578   0.973   1.748   6.322
  227SOL     OW 1579   2.276   4.221   2.488
  227SOL    HW1 1580   2.190   4.271   2.481
  227SOL    HW2 1581   2.264   4.128   2.454
  228SOL     OW 1582   1.920   0.690   3.131
  228SOL    HW1 1583   1.849   0.639   3.082
  228SOL    HW2 1584   1.999   0.631   3.146
  229SOL     OW 1585   5.033   4.542   6.803
  229SOL    HW1 1586   5.067   4.633   6.828
  229SOL    HW2 1587   5.082   4.510   6.721
  230SOL     OW 1588   4.397   6.285   4.506
  230SOL    HW1 1589   4.406   6.384   4.521
  230SOL    HW2 1590   4.328   6.269   4.435
  231SOL     OW 1591   5.417   1.283   6.921
  231SOL    HW1 1592   5.453   1.308   6.831
  231SOL    HW2 1593   5.387   1.365   6.970
  232SOL     OW 1594   0.366   2.682   6.821
  232SOL    HW1 1595   0.269   2.689   6.798
  232SOL    HW2 1596   0.391   2.585   6.832
  233SOL     OW 1597   3.176   1.948   3.681
  233SOL    HW1 1598   3.155   1.851   3.669
  233SOL    HW2 1599   3.104   2.003   3.638
  234SOL     OW 1600   5.486   0.941   5.901
  234SOL    HW1 1601   5.419   0.898   5.962
  234SOL    HW2 1602   5.548   0.998   5.955
  235SOL     OW 1603   4.860   3.040   2.560
  235SOL    HW1 1604   4.830   3.052   2.465
  235SOL    HW2 1605   4.958   3.020   2.562
  236SOL     OW 1606   4.445   3.398   6.617
  236SOL    HW1 1607   4.423   3.487   6.578
  236SOL    HW2 1608   4.484   3.339   6.546
  237SOL     OW 1609   6.688   4.487   2.501
  237SOL    HW1 1610   6.695   4.424   2.423
  237SOL    HW2 1611   6.591   4.505   2.520
  238SOL     OW 1612   6.701   1.139   0.513
  238SOL    HW1 1613   6.605   1.136   0.543
  238SOL    HW2 1614   6.732   1.234   0.509
  239SOL     OW 1615   1.228   4.411   0.681
  239SOL    HW1 1616   1.297   4.370   0.740
  239SOL    HW2 1617   1.147   4.352   0.678
  240SOL     OW 1618   6.705   3.612   3.175
  240SOL    HW1 1619   6.738   3.624   3.269
  240SOL    HW2 1620   6.772   3.558   3.123
  241SOL     OW 1621   2.702   2.338   4.071
  241SOL    HW1 1622   2.703   2.351   4.170
  241SOL    HW2 1623   2.709   2.240   4.051
  242SOL     OW 1624   3.511   3.839   3.491
  242SOL    HW1 1625   3.527   3.790   3.577
  242SOL    HW2 1626   3.598   3.850   3.442
  243SOL     OW 1627   4.639   1.730   7.015
  243SOL    HW1 1628   4.702   1.672   0.047
  243SOL    HW2 1629   4.649   1.712   6.917
  244SOL     OW 1630   5.879   3.179   6.542
  244SOL    HW1 1631   5.823   3.261   6.529
  244SOL    HW2 1632   5.935   3.164   6.461
  245SOL     OW 1633   3.690   1.841   3.728
  245SOL    HW1 1634   3.608   1.897   3.739
  245SOL    HW2 1635   3.663   1.745   3.714
  246SOL     OW 1636   5.415   1.648   3.551
  246SOL    HW1 1637   5.453   1.559   3.575
  246SOL    HW2 1638   5.485   1.719   3.562
  247SOL     OW 1639   2.752   1.930   0.539
  247SOL    HW1 1640   2.849   1.906   0.550
  247SOL    HW2 1641   2.702   1.850   0.504
  248SOL     OW 1642   2.355   1.410   2.967
  248SOL    HW1 1643   2.439   1.464   2.971
  248SOL    HW2 1644   2.369   1.324   3.015
  249SOL     OW 1645   5.077   0.130   5.230
  249SOL    HW1 1646   5.172   0.121   5.260
  249SOL    HW2 1647   5.066   0.089   5.139
  250SOL     OW 1648   3.435   2.751   0.948
  250SOL    HW1 1649   3.375   2.708   1.015
  250SOL    HW2 1650   3.430   2.850   0.957
  251SOL     OW 1651   4.779   3.472   5.386
  251SOL    HW1 1652   4.808   3.549   5.443
  251SOL    HW2 1653   4.744   3.508   5.299
  252SOL     OW 1654   6.532   0.112   5.618
  252SOL    HW1 1655   6.440   0.135   5.586
  252SOL    HW2 1656   6.531   0.103   5.718
  253SOL     OW 1657   3.868   4.603   5.929
  253SOL    HW1 1658   3.902   4.518   5.888
  253SOL    HW2 1659   3.768   4.606   5.921
  254SOL     OW 1660   6.980   2.789   3.796
  254SOL    HW1 1661   6.979   2.717   3.866
  254SOL    HW2 1662   0.018   2.865   3.827
  255SOL     OW 1663   1.236   4.679   5.993
  255SOL    HW1 1664   1.247   4.631   5.906
  255SOL    HW2 1665   1.326   4.692   6.036
  256SOL     OW 1666   5.278   3.075   5.994
  256SOL    HW1 1667   5.194   3.050   5.945
  256SOL    HW2 1668   5.356   3.029   5.952
  257SOL     OW 1669   4.995   6.282   2.901
  257SOL    HW1 1670   4.962   6.351   2.965
  257SOL    HW2 1671   4.981   6.314   2.807
  258SOL     OW 1672   2.486   4.051   5.563
  258SOL    HW1 1673   2.433   4.124   5.519
  258SOL    HW2 1674   2.513   3.983   5.495
  259SOL     OW 1675   5.188   0.786   2.217
  259SOL    HW1 1676   5.225   0.709   2.269
  259SOL    HW2 1677   5.167   0.862   2.278
  260SOL     OW 1678   3.673   5.031   2.981
  260SOL    HW1 1679   3.618   5.091   2.923
  260SOL    HW2 1680   3.692   4.946   2.932
  261SOL     OW 1681   5.350   5.232   1.306
  261SOL    HW1 1682   5.390   5.264   1.220
  261SOL    HW2 1683   5.252   5.217   1.293
  262SOL     OW 1684   1.862   3.518   1.244
  262SOL    HW1 1685   1.764   3.539   1.249
  262SOL    HW2 1686   1.914   3.602   1.233
  263SOL     OW 1687   0.963   0.262   3.374
  263SOL    HW1 1688   0.918   0.349   3.394
  263SOL    HW2 1689   0.954   0.201   3.453
  264SOL     OW 1690   6.634   2.752   0.324
  264SOL    HW1 1691   6.691   2.820   0.368
  264SOL    HW2 1692   6.634   2.767   0.225
  265SOL     OW 1693   6.333   6.804   3.008
  265SOL    HW1 1694   6.388   6.873   2.960
  265SOL    HW2 1695   6.249   6.846   3.041
  266SOL     OW 1696   4.897   2.816   5.671
  266SOL    HW1 1697   4.844   2.735   5.696
  266SOL    HW2 1698   4.836   2.887   5.637
  267SOL     OW 1699   1.204   0.895   4.959
  267SOL    HW1 1700   1.158   0.806   4.961
  267SOL    HW2 1701   1.182   0.946   5.042
  268SOL     OW 1702   3.767   1.062   6.298
  268SOL    HW1 1703   3.682   1.112   6.282
  268SOL    HW2 1704   3.816   1.051   6.212
  269SOL     OW 1705   3.193   2.068   6.884
  269SOL    HW1 1706   3.119   2.101   6.826
  269SOL    HW2 1707   3.175   2.094   6.979
  270SOL     OW 1708   0.763   6.096   0.395
  270SOL    HW1 1709   0.842   6.043   0.366
  270SOL    HW2 1710   0.680   6.059   0.352
  271SOL     OW 1711   0.716   1.511   6.114
  271SOL    HW1 1712   0.696   1.493   6.211
  271SOL    HW2 1713   0.668   1.593   6.084
  272SOL     OW 1714   3.439   6.026   4.027
  272SOL    HW1 1715   3.498   5.947   4.044
  272SOL    HW2 1716   3.475   6.105   4.077
  273SOL     OW 1717   1.646   4.967   5.876
  273SOL    HW1 1718   1.735   4.945   5.837
  273SOL    HW2 1719   1.586   5.006   5.806
  274SOL     OW 1720   4.067   0.861   3.722
  274SOL    HW1 1721   4.161   0.883   3.698
  274SOL    HW2 1722   4.010   0.942   3.712
  275SOL     OW 1723   6.990   6.251   2.623
  275SOL    HW1 1724   6.917   6.308   2.659
  275SOL    HW2 1725   0.060   6.288   2.652
  276SOL     OW 1726   0.472   6.886   4.074
  276SOL    HW1 1727   0.400   6.835   4.122
  276SOL    HW2 1728   0.458   6.984   4.088
  277SOL     OW 1729   1.636   2.914   0.479
  277SOL    HW1 1730   1.674   2.822   0.490
  277SOL    HW2 1731   1.537   2.911   0.495
  278SOL     OW 1732   0.072   3.415   3.237
  278SOL    HW1 1733   0.119   3.474   3.303
  278SOL    HW2 1734   0.107   3.322   3.243
  279SOL     OW 1735   5.712   2.944   4.289
  279SOL    HW1 1736   5.784   3.012   4.296
  279SOL    HW2 1737   5.623   2.987   4.307
  280SOL     OW 1738   2.070   5.455   1.526
  280SOL    HW1 1739   2.086   5.463   1.625
  280SOL    HW2 1740   2.077   5.360   1.498
  281SOL     OW 1741   2.225   4.262   1.622
  281SOL    HW1 1742   2.193   4.219   1.538
  281SOL    HW2 1743   2.194   4.209   1.701
  282SOL     OW 1744   3.398   0.767   5.734
  282SOL    HW1 1745   3.356   0.857   5.719
  282SOL    HW2 1746   3.329   0.702   5.765
  283SOL     OW 1747   5.516   2.557   6.486
  283SOL    HW1 1748   5.445   2.493   6.517
  283SOL    HW2 1749   5.543   2.534   6.393
  284SOL     OW 1750   0.604   3.826   3.723
  284SOL    HW1 1751   0.541   3.903   3.735
  284SOL    HW2 1752   0.552   3.744   3.700
  285SOL     OW 1753   5.488   4.943   4.016
  285SOL    HW1 1754   5.483   4.868   4.083
  285SOL    HW2 1755   5.479   4.905   3.924
  286SOL     OW 1756   3.220   3.983   0.020
  286SOL    HW1 1757   3.208   3.889   0.049
  286SOL    HW2 1758   3.252   3.986   6.943
  287SOL     OW 1759   1.822   3.445   0.973
  287SOL    HW1 1760   1.823   3.490   1.062
  287SOL    HW2 1761   1.842   3.347   0.984
  288SOL     OW 1762   3.759   1.291   6.508
  288SOL    HW1 1763   3.839   1.305   6.450
  288SOL    HW2 1764   3.711   1.208   6.479
  289SOL     OW 1765   2.157   4.720   5.657
  289SOL    HW1 1766   2.257   4.718   5.650
  289SOL    HW2 1767   2.130   4.774   5.736
  290SOL     OW 1768   0.180   1.999   5.565
  290SOL    HW1 1769   0.124   1.975   5.645
  290SOL    HW2 1770   0.242   2.073   5.589
  291SOL     OW 1771   0.687   1.571   3.659
  291SOL    HW1 1772   0.682   1.542   3.755
  291SOL    HW2 1773   0.695   1.671   3.655
  292SOL     OW 1774   2.047   0.352   3.450
  292SOL    HW1 1775   2.028   0.256   3.469
  292SOL    HW2 1776   1.961   0.402   3.437
  293SOL     OW 1777   4.548   5.573   4.153
  293SOL    HW1 1778   4.475   5.512   4.184
  293SOL    HW2 1779   4.574   5.634   4.228
  294SOL     OW 1780   5.636   6.137   6.438
  294SOL    HW1 1781   5.612   6.113   6.344
  294SOL    HW2 1782   5.609   6.231   6.456
  295SOL     OW 1783   5.078   0.647   3.548
  295SOL    HW1 1784   5.145   0.687   3.485
  295SOL    HW2 1785   5.086   0.691   3.637
  296SOL     OW 1786   3.060   1.377   2.711
  296SOL    HW1 1787   3.085   1.308   2.644
  296SOL    HW2 1788   3.133   1.385   2.779
  297SOL     OW 1789   1.657   3.747   3.446
  297SOL    HW1 1790   1.703   3.749   3.357
  297SOL    HW2 1791   1.722   3.719   3.516
  298SOL     OW 1792   6.396   5.605   0.955
  298SOL    HW1 1793   6.460   5.641   0.887
  298SOL    HW2 1794   6.311   5.657   0.952
  299SOL     OW 1795   6.158   2.764   4.543
  299SOL    HW1 1796   6.247   2.730   4.574
  299SOL    HW2 1797   6.111   2.691   4.494
  300SOL     OW 1798   6.101   0.624   3.041
  300SOL    HW1 1799   6.191   0.590   3.067
  300SOL    HW2 1800   6.050   0.552   2.994
  301SOL     OW 1801   5.670   3.650   0.009
  301SOL    HW1 1802   5.595   3.664   0.074
  301SOL    HW2 1803   5.758   3.666   0.056
  302SOL     OW 1804   0.581   0.160   3.817
  302SOL    HW1 1805   0.652   0.195   3.879
  302SOL    HW2 1806   0.617   0.158   3.724
  303SOL     OW 1807   4.585   0.667   3.081
  303SOL    HW1 1808   4.530   0.745   3.052
  303SOL    HW2 1809   4.582   0.660   3.181
  304SOL     OW 1810   2.290   6.940   3.038
  304SOL    HW1 1811   2.235   6.913   3.117
  304SOL    HW2 1812   2.378   6.976   3.069
  305SOL     OW 1813   1.342   3.975   0.212
  305SOL    HW1 1814   1.317   3.884   0.247
  305SOL    HW2 1815   1.302   4.045   0.271
  306SOL     OW 1816   2.206   0.739   3.694
  306SOL    HW1 1817   2.127   0.702   3.744
  306SOL    HW2 1818   2.221   0.834   3.722
  307SOL     OW 1819   4.491   0.443   1.077
  307SOL    HW1 1820   4.392   0.453   1.086
  307SOL    HW2 1821   4.525   0.384   1.150
  308SOL     OW 1822   1.079   6.156   2.952
  308SOL    HW1 1823   0.982   6.135   2.940
  308SOL    HW2 1824   1.112   6.209   2.874
  309SOL     OW 1825   3.682   4.692   5.272
  309SOL    HW1 1826   3.763   4.750   5.267
  309SOL    HW2 1827   3.603   4.742   5.235
  310SOL     OW 1828   6.971   6.559   5.705
  310SOL    HW1 1829   6.879   6.563   5.667
  310SOL    HW2 1830   6.997   6.463   5.719
  311SOL     OW 1831   0.501   5.955   1.672
  311SOL    HW1 1832   0.585   5.942   1.724
  311SOL    HW2 1833   0.431   5.891   1.704
  312SOL     OW 1834   5.004   1.830   5.281
  312SOL    HW1 1835   5.051   1.786   5.357
  312SOL    HW2 1836   4.912   1.858   5.309
  313SOL     OW 1837   2.125   4.141   1.836
  313SOL    HW1 1838   2.192   4.093   1.892
  313SOL    HW2 1839   2.033   4.118   1.866
  314SOL     OW 1840   3.717   5.666   0.236
  314SOL    HW1 1841   3.665   5.645   0.319
  314SOL    HW2 1842   3.796   5.722   0.261
  315SOL     OW 1843   0.343   3.157   3.644
  315SOL    HW1 1844   0.401   3.172   3.724
  315SOL    HW2 1845   0.360   3.230   3.577
  316SOL     OW 1846   2.245   2.769   3.727
  316SOL    HW1 1847   2.211   2.736   3.815
  316SOL    HW2 1848   2.236   2.868   3.722
  317SOL     OW 1849   6.619   1.400   6.821
  317SOL    HW1 1850   6.553   1.414   6.895
  317SOL    HW2 1851   6.711   1.415   6.855
  318SOL     OW 1852   2.362   3.798   0.917
  318SOL    HW1 1853   2.448   3.801   0.866
  318SOL    HW2 1854   2.359   3.875   0.981
  319SOL     OW 1855   1.571   6.859   0.939
  319SOL    HW1 1856   1.668   6.879   0.929
  319SOL    HW2 1857   1.526   6.932   0.991
  320SOL     OW 1858   6.313   3.402   0.824
  320SOL    HW1 1859   6.303   3.455   0.740
  320SOL    HW2 1860   6.398   3.350   0.820
  321SOL     OW 1861   2.298   2.459   1.864
  321SOL    HW1 1862   2.352   2.441   1.946
  321SOL    HW2 1863   2.224   2.392   1.859
  322SOL     OW 1864   3.937   3.122   5.170
  322SOL    HW1 1865   3.883   3.189   5.222
  322SOL    HW2 1866   3.883   3.039   5.156
  323SOL     OW 1867   6.548   4.258   1.077
  323SOL    HW1 1868   6.579   4.250   1.172
  323SOL    HW2 1869   6.463   4.206   1.065
  324SOL     OW 1870   0.851   3.034   4.723
  324SOL    HW1 1871   0.939   3.013   4.681
  324SOL    HW2 1872   0.855   3.124   4.767
  325SOL     OW 1873   2.104   2.649   1.808
  325SOL    HW1 1874   2.024   2.605   1.769
  325SOL    HW2 1875   2.180   2.583   1.813
  326SOL     OW 1876   2.095   5.934   6.753
  326SOL    HW1 1877   2.104   5.839   6.724
  326SOL    HW2 1878   2.070   5.991   6.673
  327SOL     OW 1879   6.354   4.943   5.532
  327SOL    HW1 1880   6.320   4.863   5.580
  327SOL    HW2 1881   6.339   5.025   5.587
  328SOL     OW 1882   4.001   4.795   2.040
  328SOL    HW1 1883   3.950   4.829   2.120
  328SOL    HW2 1884   3.953   4.821   1.956
  329SOL     OW 1885   3.747   3.668   3.374
  329SOL    HW1 1886   3.752   3.571   3.350
  329SOL    HW2 1887   3.823   3.717   3.333
  330SOL     OW 1888   3.264   6.653   1.458
  330SOL    HW1 1889   3.180   6.614   1.494
  330SOL    HW2 1890   3.339   6.587   1.468
  331SOL     OW 1891   5.183   5.136   5.746
  331SOL    HW1 1892   5.155   5.205   5.812
  331SOL    HW2 1893   5.174   5.045   5.786
  332SOL     OW 1894   2.997   1.797   3.957
  332SOL    HW1 1895   3.041   1.758   3.876
  332SOL    HW2 1896   2.906   1.755   3.969
  333SOL     OW 1897   3.847   6.227   6.195
  333SOL    HW1 1898   3.786   6.149   6.196
  333SOL    HW2 1899   3.845   6.271   6.106
  334SOL     OW 1900   3.362   0.052   2.477
  334SOL    HW1 1901   3.392   0.146   2.493
  334SOL    HW2 1902   3.291   0.051   2.406
  335SOL     OW 1903   3.007   6.578   3.337
  335SOL    HW1 1904   3.015   6.495   3.282
  335SOL    HW2 1905   2.986   6.553   3.432
  336SOL     OW 1906   3.423   1.229   3.852
  336SOL    HW1 1907   3.368   1.215   3.934
  336SOL    HW2 1908   3.376   1.293   3.791
  337SOL     OW 1909   0.002   3.928   1.329
  337SOL    HW1 1910   0.031   3.998   1.394
  337SOL    HW2 1911   6.971   3.856   1.378
  338SOL     OW 1912   2.987   2.600   1.462
  338SOL    HW1 1913   2.999   2.548   1.547
  338SOL    HW2 1914   3.076   2.610   1.417
  339SOL     OW 1915   3.992   6.373   2.601
  339SOL    HW1 1916   3.961   6.368   2.696
  339SOL    HW2 1917   4.034   6.287   2.575
  340SOL     OW 1918   4.978   3.729   4.649
  340SOL    HW1 1919   4.952   3.659   4.715
  340SOL    HW2 1920   5.074   3.716   4.623
  341SOL     OW 1921   5.174   5.793   4.281
  341SOL    HW1 1922   5.137   5.755   4.196
  341SOL    HW2 1923   5.108   5.857   4.320
  342SOL     OW 1924   6.334   5.113   0.553
  342SOL    HW1 1925   6.408   5.045   0.549
  342SOL    HW2 1926   6.373   5.203   0.572
  343SOL     OW 1927   3.701   0.090   1.649
  343SOL    HW1 1928   3.797   0.108   1.670
  343SOL    HW2 1929   3.664   0.025   1.715
  344SOL     OW 1930   2.132   4.673   0.660
  344SOL    HW1 1931   2.217   4.633   0.693
  344SOL    HW2 1932   2.124   4.659   0.561
  345SOL     OW 1933   0.870   0.465   5.102
  345SOL    HW1 1934   0.796   0.533   5.096
  345SOL    HW2 1935   0.917   0.460   5.013
  346SOL     OW 1936   1.519   0.166   2.341
  346SOL    HW1 1937   1.445   0.173   2.407
  346SOL    HW2 1938   1.481   0.173   2.248
  347SOL     OW 1939   5.200   6.871   6.620
  347SOL    HW1 1940   5.171   6.850   6.713
  347SOL    HW2 1941   5.120   6.892   6.563
  348SOL     OW 1942   3.130   5.253   1.007
  348SOL    HW1 1943   3.219   5.297   1.017
  348SOL    HW2 1944   3.119   5.184   1.079
  349SOL     OW 1945   0.926   4.838   2.659
  349SOL    HW1 1946   0.974   4.801   2.580
  349SOL    HW2 1947   0.909   4.935   2.646
  350SOL     OW 1948   3.975   3.386   1.476
  350SOL    HW1 1949   4.037   3.327   1.529
  350SOL    HW2 1950   3.883   3.347   1.479
  351SOL     OW 1951   2.736   1.627   7.006
  351SOL    HW1 1952   2.690   1.570   0.056
  351SOL    HW2 1953   2.668   1.677   6.952
  352SOL     OW 1954   3.364   0.576   6.168
  352SOL    HW1 1955   3.377   0.518   6.087
  352SOL    HW2 1956   3.386   0.671   6.144
  353SOL     OW 1957   1.623   6.119   0.559
  353SOL    HW1 1958   1.622   6.162   0.650
  353SOL    HW2 1959   1.685   6.170   0.500
  354SOL     OW 1960   4.205   1.529   0.260
  354SOL    HW1 1961   4.247   1.609   0.303
  354SOL    HW2 1962   4.251   1.446   0.292
  355SOL     OW 1963   6.975   3.641   2.814
  355SOL    HW1 1964   6.926   3.711   2.867
  355SOL    HW2 1965   6.930   3.628   2.726
  356SOL     OW 1966   4.087   5.311   3.462
  356SOL    HW1 1967   4.134   5.366   3.532
  356SOL    HW2 1968   4.152   5.247   3.422
  357SOL     OW 1969   0.069   5.790   5.421
  357SOL    HW1 1970   0.106   5.718   5.362
  357SOL    HW2 1971   6.991   5.770   5.441
  358SOL     OW 1972   5.454   0.375   1.651
  358SOL    HW1 1973   5.547   0.400   1.679
  358SOL    HW2 1974   5.419   0.445   1.589
  359SOL     OW 1975   1.223   1.671   2.459
  359SOL    HW1 1976   1.180   1.630   2.378
  359SOL    HW2 1977   1.283   1.745   2.430
  360SOL     OW 1978   3.976   7.001   0.209
  360SOL    HW1 1979   3.918   6.919   0.207
  360SOL    HW2 1980   3.919   0.064   0.200
  361SOL     OW 1981   4.650   6.656   2.302
  361SOL    HW1 1982   4.632   6.742   2.254
  361SOL    HW2 1983   4.747   6.649   2.323
  362SOL     OW 1984   3.004   3.265   1.064
  362SOL    HW1 1985   2.960   3.354   1.073
  362SOL    HW2 1986   2.957   3.211   0.994
  363SOL     OW 1987   4.029   4.966   3.837
  363SOL    HW1 1988   4.081   5.048   3.864
  363SOL    HW2 1989   4.053   4.941   3.744
  364SOL     OW 1990   1.049   5.241   6.318
  364SOL    HW1 1991   1.088   5.149   6.327
  364SOL    HW2 1992   1.120   5.304   6.286
  365SOL     OW 1993   4.792   6.396   2.026
  365SOL    HW1 1994   4.806   6.363   1.932
  365SOL    HW2 1995   4.695   6.391   2.048
  366SOL     OW 1996   5.583   1.022   6.892
  366SOL    HW1 1997   5.619   1.114   6.904
  366SOL    HW2 1998   5.490   1.027   6.855
  367SOL     OW 1999   5.487   2.842   1.452
  367SOL    HW1 2000   5.422   2.917   1.464
  367SOL    HW2 2001   5.547   2.862   1.375
  368SOL     OW 2002   1.255   4.757   5.177
  368SOL    HW1 2003   1.337   4.727   5.129
  368SOL    HW2 2004   1.218   4.838   5.132
  369SOL     OW 2005   0.778   3.949   1.750
  369SOL    HW1 2006   0.721   3.908   1.680
  369SOL    HW2 2007   0.872   3.954   1.717
  370SOL     OW 2008   3.292   1.535   5.605
  370SOL    HW1 2009   3.218   1.495   5.551
  370SOL    HW2 2010   3.294   1.492   5.695
  371SOL     OW 2011   3.223   3.244   0.336
  371SOL    HW1 2012   3.238   3.159   0.285
  371SOL    HW2 2013   3.309   3.293   0.346
  372SOL     OW 2014   6.795   6.548   6.405
  372SOL    HW1 2015   6.714   6.588   6.362
  372SOL    HW2 2016   6.868   6.539   6.337
  373SOL     OW 2017   6.976   6.815   0.261
  373SOL    HW1 2018   6.915   6.740   0.238
  373SOL    HW2 2019   6.987   6.820   0.361
  374SOL     OW 2020   3.627   0.601   1.702
  374SOL    HW1 2021   3.534   0.633   1.688
  374SOL    HW2 2022   3.627   0.501   1.706
  375SOL     OW 2023   6.504   5.028   3.272
  375SOL    HW1 2024   6.510   5.030   3.172
  375SOL    HW2 2025   6.490   4.934   3.302
  376SOL     OW 2026   2.014   2.737   4.184
  376SOL    HW1 2027   2.064   2.668   4.236
  376SOL    HW2 2028   1.915   2.724   4.197
  377SOL     OW 2029   4.709   2.158   3.459
  377SOL    HW1 2030   4.796   2.207   3.459
  377SOL    HW2 2031   4.724   2.063   3.489
  378SOL     OW 2032   4.882   2.767   5.281
  378SOL    HW1 2033   4.940   2.848   5.272
  378SOL    HW2 2034   4.797   2.793   5.327
  379SOL     OW 2035   5.780   3.407   1.072
  379SOL    HW1 2036   5.801   3.335   1.007
  379SOL    HW2 2037   5.803   3.496   1.031
  380SOL     OW 2038   1.533   1.640   1.249
  380SOL    HW1 2039   1.588   1.669   1.171
  380SOL    HW2 2040   1.582   1.660   1.334
  381SOL     OW 2041   3.412   3.578   1.248
  381SOL    HW1 2042   3.424   3.614   1.340
  381SOL    HW2 2043   3.459   3.490   1.240
  382SOL     OW 2044   2.805   6.044   0.342
  382SOL    HW1 2045   2.761   5.993   0.416
  382SOL    HW2 2046   2.805   6.141   0.365
  383SOL     OW 2047   6.546   2.496   0.270
  383SOL    HW1 2048   6.451   2.520   0.248
  383SOL    HW2 2049   6.595   2.577   0.301
  384SOL     OW 2050   1.200   5.363   4.711
  384SOL    HW1 2051   1.219   5.343   4.615
  384SOL    HW2 2052   1.256   5.303   4.769
  385SOL     OW 2053   4.951   6.138   0.651
  385SOL    HW1 2054   4.983   6.164   0.560
  385SOL    HW2 2055   4.859   6.099   0.645
  386SOL     OW 2056   3.479   6.139   6.007
  386SOL    HW1 2057   3.440   6.229   6.029
  386SOL    HW2 2058   3.566   6.151   5.960
  387SOL     OW 2059   0.131   0.745   5.196
  387SOL    HW1 2060   0.151   0.842   5.178
  387SOL    HW2 2061   0.217   0.696   5.214
  388SOL     OW 2062   6.260   2.776   5.091
  388SOL    HW1 2063   6.202   2.840   5.142
  388SOL    HW2 2064   6.324   2.732   5.154
  389SOL     OW 2065   4.310   4.946   1.416
  389SOL    HW1 2066   4.352   4.937   1.506
  389SOL    HW2 2067   4.256   4.864   1.396
  390SOL     OW 2068   3.398   2.144   0.563
  390SOL    HW1 2069   3.302   2.128   0.539
  390SOL    HW2 2070   3.406   2.231   0.611
  391SOL     OW 2071   3.552   4.370   5.868
  391SOL    HW1 2072   3.454   4.351   5.862
  391SOL    HW2 2073   3.601   4.284   5.881
  392SOL     OW 2074   1.075   3.780   2.016
  392SOL    HW1 2075   1.064   3.726   1.932
  392SOL    HW2 2076   1.098   3.719   2.092
  393SOL     OW 2077   1.184   4.466   1.357
  393SOL    HW1 2078   1.208   4.369   1.359
  393SOL    HW2 2079   1.134   4.486   1.273
  394SOL     OW 2080   6.715   0.966   6.441
  394SOL    HW1 2081   6.754   1.058   6.441
  394SOL    HW2 2082   6.654   0.956   6.519
  395SOL     OW 2083   5.680   4.791   1.112
  395SOL    HW1 2084   5.692   4.692   1.119
  395SOL    HW2 2085   5.768   4.836   1.125
  396SOL     OW 2086   2.667   1.425   2.107
  396SOL    HW1 2087   2.723   1.450   2.028
  396SOL    HW2 2088   2.685   1.488   2.182
  397SOL     OW 2089   4.647   1.765   4.744
  397SOL    HW1 2090   4.560   1.811   4.724
  397SOL    HW2 2091   4.722   1.816   4.702
  398SOL     OW 2092   2.225   1.384   4.234
  398SOL    HW1 2093   2.229   1.340   4.144
  398SOL    HW2 2094   2.140   1.359   4.280
  399SOL     OW 2095   5.895   6.337   3.861
  399SOL    HW1 2096   5.880   6.253   3.913
  399SOL    HW2 2097   5.807   6.370   3.826
  400SOL     OW 2098   6.711   0.662   4.819
  400SOL    HW1 2099   6.753   0.650   4.909
  400SOL    HW2 2100   6.646   0.588   4.802
  401SOL     OW 2101   6.880   5.943   5.997
  401SOL    HW1 2102   6.780   5.954   5.994
  401SOL    HW2 2103   6.907   5.908   6.086
  402SOL     OW 2104   6.314   0.280   2.312
  402SOL    HW1 2105   6.400   0.294   2.359
  402SOL    HW2 2106   6.298   0.355   2.248
  403SOL     OW 2107   2.104   1.056   5.314
  403SOL    HW1 2108   2.120   1.154   5.332
  403SOL    HW2 2109   2.117   1.004   5.398
  404SOL     OW 2110   3.821   4.910   3.618
  404SOL    HW1 2111   3.855   4.994   3.577
  404SOL    HW2 2112   3.722   4.917   3.632
  405SOL     OW 2113   2.653   4.748   3.792
  405SOL    HW1 2114   2.727   4.800   3.749
  405SOL    HW2 2115   2.609   4.690   3.724
  406SOL     OW 2116   0.774   5.420   5.895
  406SOL    HW1 2117   0.828   5.402   5.977
  406SOL    HW2 2118   0.773   5.518   5.876
  407SOL     OW 2119   2.122   3.239   4.511
  407SOL    HW1 2120   2.088   3.332   4.524
  407SOL    HW2 2121   2.157   3.204   4.597
  408SOL     OW 2122   2.646   1.647   3.917
  408SOL    HW1 2123   2.644   1.657   4.017
  408SOL    HW2 2124   2.654   1.737   3.874
  409SOL     OW 2125   0.940   3.764   2.563
  409SOL    HW1 2126   0.941   3.699   2.487
  409SOL    HW2 2127   1.001   3.732   2.635
  410SOL     OW 2128   2.115   1.915   1.582
  410SOL    HW1 2129   2.046   1.870   1.525
  410SOL    HW2 2130   2.197   1.858   1.586
  411SOL     OW 2131   0.943   2.950   1.382
  411SOL    HW1 2132   0.904   2.921   1.294
  411SOL    HW2 2133   1.003   3.028   1.366
  412SOL     OW 2134   1.733   5.200   1.501
  412SOL    HW1 2135   1.788   5.238   1.575
  412SOL    HW2 2136   1.785   5.129   1.454
  413SOL     OW 2137   5.493   5.388   2.574
  413SOL    HW1 2138   5.550   5.429   2.503
  413SOL    HW2 2139   5.534   5.405   2.663
  414SOL     OW 2140   2.286   6.435   3.548
  414SOL    HW1 2141   2.296   6.336   3.557
  414SOL    HW2 2142   2.329   6.465   3.462
  415SOL     OW 2143   6.827   0.998   0.849
  415SOL    HW1 2144   6.850   1.008   0.752
  415SOL    HW2 2145   6.882   0.924   0.888
  416SOL     OW 2146   4.815   3.026   4.911
  416SOL    HW1 2147   4.765   2.961   4.968
  416SOL    HW2 2148   4.834   2.985   4.821
  417SOL     OW 2149   2.841   1.867   6.060
  417SOL    HW1 2150   2.868   1.792   6.121
  417SOL    HW2 2151   2.853   1.954   6.107
  418SOL     OW 2152   3.918   6.127   4.990
  418SOL    HW1 2153   3.972   6.043   4.996
  418SOL    HW2 2154   3.839   6.120   5.051
  419SOL     OW 2155   0.676   6.771   1.034
  419SOL    HW1 2156   0.620   6.829   0.974
  419SOL    HW2 2157   0.726   6.704   0.980
  420SOL     OW 2158   5.094   1.605   6.178
  420SOL    HW1 2159   5.030   1.566   6.244
  420SOL    HW2 2160   5.058   1.592   6.086
  421SOL     OW 2161   5.256   3.147   2.643
  421SOL    HW1 2162   5.307   3.172   2.725
  421SOL    HW2 2163   5.197   3.223   2.616
  422SOL     OW 2164   4.940   3.192   1.849
  422SOL    HW1 2165   5.031   3.151   1.859
  422SOL    HW2 2166   4.874   3.140   1.904
  423SOL     OW 2167   3.752   1.579   6.490
  423SOL    HW1 2168   3.851   1.569   6.500
  423SOL    HW2 2169   3.709   1.488   6.488
  424SOL     OW 2170   0.982   3.806   3.432
  424SOL    HW1 2171   0.919   3.736   3.399
  424SOL    HW2 2172   0.930   3.880   3.476
  425SOL     OW 2173   2.806   0.911   5.577
  425SOL    HW1 2174   2.792   0.867   5.489
  425SOL    HW2 2175   2.717   0.939   5.615
  426SOL     OW 2176   2.760   2.380   4.349
  426SOL    HW1 2177   2.795   2.291   4.377
  426SOL    HW2 2178   2.743   2.435   4.431
  427SOL     OW 2179   3.713   2.070   3.126
  427SOL    HW1 2180   3.681   2.059   3.220
  427SOL    HW2 2181   3.656   2.015   3.065
  428SOL     OW 2182   2.787   1.756   5.515
  428SOL    HW1 2183   2.825   1.737   5.606
  428SOL    HW2 2184   2.745   1.846   5.514
  429SOL     OW 2185   0.761   6.021   3.739
  429SOL    HW1 2186   0.768   5.967   3.823
  429SOL    HW2 2187   0.851   6.024   3.694
  430SOL     OW 2188   1.458   0.095   3.210
  430SOL    HW1 2189   1.405   0.154   3.149
  430SOL    HW2 2190   1.451   0.130   3.304
  431SOL     OW 2191   2.487   1.870   1.740
  431SOL    HW1 2192   2.567   1.814   1.763
  431SOL    HW2 2193   2.500   1.963   1.775
  432SOL     OW 2194   4.269   2.223   2.262
  432SOL    HW1 2195   4.343   2.289   2.250
  432SOL    HW2 2196   4.218   2.214   2.177
  433SOL     OW 2197   2.272   5.538   0.279
  433SOL    HW1 2198   2.371   5.548   0.282
  433SOL    HW2 2199   2.247   5.443   0.295
  434SOL     OW 2200   4.099   6.199   3.712
  434SOL    HW1 2201   4.010   6.204   3.667
  434SOL    HW2 2202   4.125   6.290   3.745
  435SOL     OW 2203   3.698   1.609   6.224
  435SOL    HW1 2204   3.735   1.607   6.317
  435SOL    HW2 2205   3.678   1.703   6.198
  436SOL     OW 2206   4.938   6.960   2.735
  436SOL    HW1 2207   4.896   6.922   2.817
  436SOL    HW2 2208   4.882   6.937   2.655
  437SOL     OW 2209   6.825   0.602   5.091
  437SOL    HW1 2210   6.764   0.531   5.057
  437SOL    HW2 2211   6.902   0.615   5.028
  438SOL     OW 2212   0.290   4.304   3.107
  438SOL    HW1 2213   0.222   4.301   3.034
  438SOL    HW2 2214   0.262   4.371   3.176
  439SOL     OW 2215   6.623   6.937   4.046
  439SOL    HW1 2216   6.547   6.925   4.110
  439SOL    HW2 2217   6.690   7.000   4.085
  440SOL     OW 2218   3.650   1.279   0.830
  440SOL    HW1 2219   3.555   1.263   0.801
  440SOL    HW2 2220   3.652   1.354   0.896
  441SOL     OW 2221   0.153   3.878   2.618
  441SOL    HW1 2222   0.201   3.881   2.530
  441SOL    HW2 2223   0.190   3.804   2.674
  442SOL     OW 2224   5.149   3.320   6.064
  442SOL    HW1 2225   5.212   3.265   6.010
  442SOL    HW2 2226   5.129   3.406   6.017
  443SOL     OW 2227   5.099   3.287   2.277
  443SOL    HW1 2228   5.042   3.210   2.248
  443SOL    HW2 2229   5.067   3.322   2.364
  444SOL     OW 2230   4.068   0.782   1.736
  444SOL    HW1 2231   4.076   0.684   1.716
  444SOL    HW2 2232   4.005   0.824   1.671
  445SOL     OW 2233   1.435   5.733   2.192
  445SOL    HW1 2234   1.431   5.635   2.170
  445SOL    HW2 2235   1.522   5.770   2.161
  446SOL     OW 2236   5.247   6.964   1.597
  446SOL    HW1 2237   5.194   0.021   1.557
  446SOL    HW2 2238   5.214   6.878   1.559
  447SOL     OW 2239   6.202   4.676   1.046
  447SOL    HW1 2240   6.161   4.644   0.961
  447SOL    HW2 2241   6.278   4.616   1.070
  448SOL     OW 2242   2.584   6.982   3.021
  448SOL    HW1 2243   2.556   6.938   3.106
  448SOL    HW2 2244   2.616   0.057   3.041
  449SOL     OW 2245   1.294   4.162   5.103
  449SOL    HW1 2246   1.282   4.259   5.082
  449SOL    HW2 2247   1.362   4.123   5.041
  450SOL     OW 2248   0.632   5.022   3.639
  450SOL    HW1 2249   0.581   4.941   3.669
  450SOL    HW2 2250   0.632   5.025   3.539
  451SOL     OW 2251   0.646   1.994   2.209
  451SOL    HW1 2252   0.653   1.911   2.264
  451SOL    HW2 2253   0.673   2.073   2.265
  452SOL     OW 2254   4.862   5.227   1.975
  452SOL    HW1 2255   4.789   5.280   1.934
  452SOL    HW2 2256   4.902   5.165   1.908
  453SOL     OW 2257   3.588   0.527   6.315
  453SOL    HW1 2258   3.551   0.452   6.370
  453SOL    HW2 2259   3.513   0.574   6.268
  454SOL     OW 2260   6.590   3.211   6.394
  454SOL    HW1 2261   6.547   3.302   6.397
  454SOL    HW2 2262   6.588   3.177   6.300
  455SOL     OW 2263   6.061   4.371   6.270
  455SOL    HW1 2264   6.084   4.466   6.251
  455SOL    HW2 2265   5.993   4.367   6.344
  456SOL     OW 2266   2.844   0.949   2.685
  456SOL    HW1 2267   2.796   0.942   2.772
  456SOL    HW2 2268   2.787   0.998   2.619
  457SOL     OW 2269   2.825   0.332   6.897
  457SOL    HW1 2270   2.779   0.386   6.827
  457SOL    HW2 2271   2.803   0.235   6.886
  458SOL     OW 2272   3.044   1.550   3.151
  458SOL    HW1 2273   2.961   1.496   3.133
  458SOL    HW2 2274   3.124   1.498   3.121
  459SOL     OW 2275   3.525   6.952   3.722
  459SOL    HW1 2276   3.581   6.890   3.777
  459SOL    HW2 2277   3.571   0.023   3.716
  460SOL     OW 2278   1.021   1.288   6.122
  460SOL    HW1 2279   1.021   1.209   6.183
  460SOL    HW2 2280   0.931   1.296   6.078
  461SOL     OW 2281   0.677   4.999   5.843
  461SOL    HW1 2282   0.634   4.941   5.912
  461SOL    HW2 2283   0.776   4.997   5.854
  462SOL     OW 2284   3.041   3.950   4.851
  462SOL    HW1 2285   3.116   4.004   4.812
  462SOL    HW2 2286   2.990   4.006   4.916
  463SOL     OW 2287   5.207   6.943   2.797
  463SOL    HW1 2288   5.109   6.963   2.788
  463SOL    HW2 2289   5.222   6.845   2.796
  464SOL     OW 2290   4.041   5.219   6.378
  464SOL    HW1 2291   4.034   5.126   6.415
  464SOL    HW2 2292   3.998   5.283   6.442
  465SOL     OW 2293   0.888   3.780   1.436
  465SOL    HW1 2294   0.831   3.716   1.487
  465SOL    HW2 2295   0.830   3.843   1.385
  466SOL     OW 2296   3.717   5.168   4.683
  466SOL    HW1 2297   3.680   5.258   4.707
  466SOL    HW2 2298   3.814   5.176   4.662
  467SOL     OW 2299   6.079   0.124   2.112
  467SOL    HW1 2300   6.021   0.145   2.191
  467SOL    HW2 2301   6.174   0.119   2.141
  468SOL     OW 2302   3.142   6.987   6.681
  468SOL    HW1 2303   3.047   6.993   6.650
  468SOL    HW2 2304   3.173   0.060   6.709
  469SOL     OW 2305   3.426   4.815   5.742
  469SOL    HW1 2306   3.355   4.847   5.679
  469SOL    HW2 2307   3.389   4.742   5.800
  470SOL     OW 2308   2.071   5.028   2.692
  470SOL    HW1 2309   2.069   4.937   2.732
  470SOL    HW2 2310   2.156   5.074   2.718
  471SOL     OW 2311   1.784   2.240   4.090
  471SOL    HW1 2312   1.841   2.201   4.018
  471SOL    HW2 2313   1.837   2.247   4.175
  472SOL     OW 2314   5.627   3.315   6.405
  472SOL    HW1 2315   5.661   3.293   6.314
  472SOL    HW2 2316   5.553   3.252   6.429
  473SOL     OW 2317   6.410   2.756   2.060
  473SOL    HW1 2318   6.484   2.817   2.032
  473SOL    HW2 2319   6.392   2.690   1.987
  474SOL     OW 2320   4.893   6.134   3.748
  474SOL    HW1 2321   4.810   6.157   3.697
  474SOL    HW2 2322   4.901   6.193   3.828
  475SOL     OW 2323   6.017   1.805   0.545
  475SOL    HW1 2324   5.940   1.821   0.606
  475SOL    HW2 2325   6.009   1.864   0.465
  476SOL     OW 2326   1.289   4.660   1.542
  476SOL    HW1 2327   1.222   4.734   1.551
  476SOL    HW2 2328   1.255   4.591   1.479
  477SOL     OW 2329   1.750   4.506   3.738
  477SOL    HW1 2330   1.808   4.514   3.819
  477SOL    HW2 2331   1.654   4.494   3.767
  478SOL     OW 2332   5.024   5.683   2.055
  478SOL    HW1 2333   5.008   5.667   1.958
  478SOL    HW2 2334   4.966   5.621   2.108
  479SOL     OW 2335   3.321   4.115   3.753
  479SOL    HW1 2336   3.361   4.149   3.668
  479SOL    HW2 2337   3.250   4.048   3.733
  480SOL     OW 2338   1.564   0.792   2.894
  480SOL    HW1 2339   1.497   0.838   2.953
  480SOL    HW2 2340   1.656   0.824   2.916
  481SOL     OW 2341   6.935   6.831   0.979
  481SOL    HW1 2342   6.897   6.914   0.939
  481SOL    HW2 2343   0.015   6.843   0.995
  482SOL     OW 2344   3.782   4.961   1.493
  482SOL    HW1 2345   3.830   4.940   1.408
  482SOL    HW2 2346   3.705   4.898   1.504
  483SOL     OW 2347   5.480   1.816   3.861
  483SOL    HW1 2348   5.571   1.855   3.875
  483SOL    HW2 2349   5.435   1.865   3.786
  484SOL     OW 2350   2.705   4.676   4.419
  484SOL    HW1 2351   2.772   4.663   4.345
  484SOL    HW2 2352   2.727   4.758   4.470
  485SOL     OW 2353   5.645   3.518   1.888
  485SOL    HW1 2354   5.563   3.551   1.935
  485SOL    HW2 2355   5.622   3.436   1.835
  486SOL     OW 2356   6.149   5.901   6.647
  486SOL    HW1 2357   6.219   5.851   6.697
  486SOL    HW2 2358   6.174   5.998   6.642
  487SOL     OW 2359   6.531   0.016   6.147
  487SOL    HW1 2360   6.466   0.091   6.156
  487SOL    HW2 2361   6.589   0.012   6.228
  488SOL     OW 2362   1.875   6.084   2.725
  488SOL    HW1 2363   1.908   6.040   2.810
  488SOL    HW2 2364   1.868   6.182   2.739
  489SOL     OW 2365   1.170   6.135   6.485
  489SOL    HW1 2366   1.270   6.139   6.483
  489SOL    HW2 2367   1.133   6.224   6.513
  490SOL     OW 2368   1.214   4.418   4.398
  490SOL    HW1 2369   1.127   4.463   4.419
  490SOL    HW2 2370   1.284   4.449   4.462
  491SOL     OW 2371   0.418   2.807   0.996
  491SOL    HW1 2372   0.400   2.777   1.089
  491SOL    HW2 2373   0.505   2.768   0.964
  492SOL     OW 2374   1.032   2.520   5.914
  492SOL    HW1 2375   1.093   2.441   5.909
  492SOL    HW2 2376   0.974   2.512   5.995
  493SOL     OW 2377   2.638   5.470   4.686
  493SOL    HW1 2378   2.683   5.498   4.601
  493SOL    HW2 2379   2.539   5.472   4.673
  494SOL     OW 2380   2.497   6.640   4.715
  494SOL    HW1 2381   2.488   6.545   4.683
  494SOL    HW2 2382   2.408   6.674   4.744
  495SOL     OW 2383   3.698   3.833   6.092
  495SOL    HW1 2384   3.659   3.891   6.020
  495SOL    HW2 2385   3.762   3.768   6.051
  496SOL     OW 2386   4.736   1.414   3.280
  496SOL    HW1 2387   4.814   1.454   3.233
  496SOL    HW2 2388   4.769   1.346   3.346
  497SOL     OW 2389   3.968   1.783   0.117
  497SOL    HW1 2390   3.995   1.692   0.087
  497SOL    HW2 2391   4.037   1.819   0.181
  498SOL     OW 2392   0.767   6.696   1.690
  498SOL    HW1 2393   0.747   6.794   1.685
  498SOL    HW2 2394   0.681   6.645   1.695
  499SOL     OW 2395   2.888   6.044   7.011
  499SOL    HW1 2396   2.937   6.049   0.080
  499SOL    HW2 2397   2.945   5.998   6.943
  500SOL     OW 2398   5.977   1.918   0.287
  500SOL    HW1 2399   6.069   1.958   0.283
  500SOL    HW2 2400   5.911   1.984   0.252
  501SOL     OW 2401   1.030   1.189   4.084
  501SOL    HW1 2402   1.116   1.139   4.094
  501SOL    HW2 2403   1.034   1.245   4.001
  502SOL     OW 2404   1.958   4.966   6.500
  502SOL    HW1 2405   1.880   5.001   6.552
  502SOL    HW2 2406   2.017   4.912   6.560
  503SOL     OW 2407   4.068   4.860   0.381
  503SOL    HW1 2408   4.046   4.890   0.288
  503SOL    HW2 2409   4.064   4.760   0.385
  504SOL     OW 2410   5.837   6.505   1.657
  504SOL    HW1 2411   5.831   6.534   1.752
  504SOL    HW2 2412   5.831   6.406   1.651
  505SOL     OW 2413   4.501   5.825   4.789
  505SOL    HW1 2414   4.550   5.843   4.874
  505SOL    HW2 2415   4.485   5.912   4.741
  506SOL     OW 2416   4.305   4.978   2.057
  506SOL    HW1 2417   4.317   4.883   2.085
  506SOL    HW2 2418   4.320   5.039   2.135
  507SOL     OW 2419   2.768   0.963   0.716
  507SOL    HW1 2420   2.725   0.887   0.667
  507SOL    HW2 2421   2.867   0.950   0.717
  508SOL     OW 2422   6.963   4.308   3.306
  508SOL    HW1 2423   7.008   4.248   3.373
  508SOL    HW2 2424   6.985   4.403   3.327
  509SOL     OW 2425   4.437   6.853   6.322
  509SOL    HW1 2426   4.413   6.777   6.261
  509SOL    HW2 2427   4.508   6.823   6.386
  510SOL     OW 2428   6.649   3.676   0.034
  510SOL    HW1 2429   6.586   3.601   0.016
  510SOL    HW2 2430   6.609   3.762   0.003
  511SOL     OW 2431   0.711   2.134   0.732
  511SOL    HW1 2432   0.613   2.125   0.718
  511SOL    HW2 2433   0.758   2.126   0.643
  512SOL     OW 2434   0.199   2.504   4.982
  512SOL    HW1 2435   0.234   2.531   5.072
  512SOL    HW2 2436   0.161   2.412   4.988
  513SOL     OW 2437   5.476   0.987   3.043
  513SOL    HW1 2438   5.419   0.954   2.968
  513SOL    HW2 2439   5.544   0.917   3.067
  514SOL     OW 2440   6.109   0.073   4.772
  514SOL    HW1 2441   6.184   0.130   4.807
  514SOL    HW2 2442   6.129   6.995   4.792
  515SOL     OW 2443   3.875   0.129   5.560
  515SOL    HW1 2444   3.933   0.193   5.510
  515SOL    HW2 2445   3.792   0.111   5.507
  516SOL     OW 2446   2.360   5.790   1.896
  516SOL    HW1 2447   2.311   5.814   1.812
  516SOL    HW2 2448   2.369   5.872   1.953
  517SOL     OW 2449   3.810   5.510   1.198
  517SOL    HW1 2450   3.851   5.602   1.194
  517SOL    HW2 2451   3.763   5.491   1.112
  518SOL     OW 2452   2.071   3.310   3.792
  518SOL    HW1 2453   2.088   3.381   3.860
  518SOL    HW2 2454   2.044   3.353   3.705
  519SOL     OW 2455   0.291   0.295   2.195
  519SOL    HW1 2456   0.210   0.326   2.246
  519SOL    HW2 2457   0.359   0.369   2.192
  520SOL     OW 2458   1.428   3.468   0.833
  520SOL    HW1 2459   1.485   3.391   0.862
  520SOL    HW2 2460   1.443   3.485   0.735
  521SOL     OW 2461   6.267   6.402   4.828
  521SOL    HW1 2462   6.319   6.431   4.747
  521SOL    HW2 2463   6.180   6.362   4.799
  522SOL     OW 2464   3.546   3.898   1.623
  522SOL    HW1 2465   3.597   3.864   1.702
  522SOL    HW2 2466   3.600   3.967   1.576
  523SOL     OW 2467   1.051   0.104   1.061
  523SOL    HW1 2468   1.024   0.080   0.968
  523SOL    HW2 2469   1.067   0.021   1.114
  524SOL     OW 2470   6.944   2.459   1.878
  524SOL    HW1 2471   6.941   2.551   1.838
  524SOL    HW2 2472   0.002   2.453   1.943
  525SOL     OW 2473   1.091   3.708   5.500
  525SOL    HW1 2474   1.179   3.717   5.546
  525SOL    HW2 2475   1.079   3.614   5.468
  526SOL     OW 2476   3.249   0.205   3.581
  526SOL    HW1 2477   3.329   0.190   3.523
  526SOL    HW2 2478   3.261   0.154   3.667
  527SOL     OW 2479   0.262   0.774   0.697
  527SOL    HW1 2480   0.355   0.797   0.724
  527SOL    HW2 2481   0.208   0.857   0.688
  528SOL     OW 2482   6.560   3.388   3.901
  528SOL    HW1 2483   6.590   3.436   3.983
  528SOL    HW2 2484   6.469   3.349   3.916
  529SOL     OW 2485   1.691   0.931   0.254
  529SOL    HW1 2486   1.758   0.857   0.258
  529SOL    HW2 2487   1.675   0.967   0.346
  530SOL     OW 2488   3.737   3.865   0.933
  530SOL    HW1 2489   3.711   3.802   0.860
  530SOL    HW2 2490   3.693   3.835   1.019
  531SOL     OW 2491   1.174   0.841   0.950
  531SOL    HW1 2492   1.119   0.759   0.966
  531SOL    HW2 2493   1.223   0.865   1.034
  532SOL     OW 2494   1.661   2.253   6.914
  532SOL    HW1 2495   1.722   2.332   6.926
  532SOL    HW2 2496   1.717   2.171   6.901
  533SOL     OW 2497   3.702   0.156   4.520
  533SOL    HW1 2498   3.730   0.246   4.487
  533SOL    HW2 2499   3.781   0.095   4.525
  534SOL     OW 2500   1.482   5.131   1.543
  534SOL    HW1 2501   1.580   5.152   1.537
  534SOL    HW2 2502   1.467   5.033   1.527
  535SOL     OW 2503   5.205   3.307   3.812
  535SOL    HW1 2504   5.127   3.249   3.835
  535SOL    HW2 2505   5.276   3.297   3.882
  536SOL     OW 2506   6.738   0.072   2.200
  536SOL    HW1 2507   6.712   7.018   2.265
  536SOL    HW2 2508   6.831   0.102   2.219
  537SOL     OW 2509   3.930   2.098   4.445
  537SOL    HW1 2510   4.008   2.148   4.483
  537SOL    HW2 2511   3.956   2.003   4.428
  538SOL     OW 2512   3.253   4.695   5.426
  538SOL    HW1 2513   3.324   4.704   5.356
  538SOL    HW2 2514   3.249   4.779   5.480
  539SOL     OW 2515   0.987   0.264   0.139
  539SOL    HW1 2516   1.066   0.288   0.195
  539SOL    HW2 2517   0.974   0.165   0.140
  540SOL     OW 2518   0.829   0.177   3.947
  540SOL    HW1 2519   0.913   0.211   3.905
  540SOL    HW2 2520   0.845   0.157   4.044
  541SOL     OW 2521   4.134   5.422   4.268
  541SOL    HW1 2522   4.076   5.342   4.284
  541SOL    HW2 2523   4.096   5.476   4.192
  542SOL     OW 2524   3.505   0.486   5.691
  542SOL    HW1 2525   3.500   0.514   5.595
  542SOL    HW2 2526   3.472   0.561   5.748
  543SOL     OW 2527   6.538   2.396   4.417
  543SOL    HW1 2528   6.471   2.455   4.462
  543SOL    HW2 2529   6.491   2.322   4.369
  544SOL     OW 2530   1.702   3.882   1.263
  544SOL    HW1 2531   1.707   3.977   1.295
  544SOL    HW2 2532   1.793   3.850   1.240
  545SOL     OW 2533   5.867   0.853   1.038
  545SOL    HW1 2534   5.838   0.927   1.098
  545SOL    HW2 2535   5.843   0.765   1.079
  546SOL     OW 2536   0.084   4.270   2.901
  546SOL    HW1 2537   0.096   4.364   2.868
  546SOL    HW2 2538   7.015   4.262   2.949
  547SOL     OW 2539   4.605   0.999   6.170
  547SOL    HW1 2540   4.542   1.077   6.163
  547SOL    HW2 2541   4.698   1.030   6.152
  548SOL     OW 2542   3.736   2.222   6.852
  548SOL    HW1 2543   3.642   2.199   6.828
  548SOL    HW2 2544   3.774   2.149   6.909
  549SOL     OW 2545   6.144   1.521   1.667
  549SOL    HW1 2546   6.193   1.444   1.708
  549SOL    HW2 2547   6.149   1.514   1.567
  550SOL     OW 2548   6.862   5.420   3.285
  550SOL    HW1 2549   6.922   5.364   3.343
  550SOL    HW2 2550   6.817   5.489   3.342
  551SOL     OW 2551   6.651   0.732   0.705
  551SOL    HW1 2552   6.621   0.753   0.797
  551SOL    HW2 2553   6.742   0.772   0.690
  552SOL     OW 2554   6.329   5.189   5.652
  552SOL    HW1 2555   6.375   5.230   5.574
  552SOL    HW2 2556   6.353   5.238   5.736
  553SOL     OW 2557   2.618   1.024   6.595
  553SOL    HW1 2558   2.704   1.052   6.553
  553SOL    HW2 2559   2.562   0.977   6.528
  554SOL     OW 2560   5.786   6.548   1.357
  554SOL    HW1 2561   5.797   6.645   1.338
  554SOL    HW2 2562   5.811   6.528   1.451
  555SOL     OW 2563   1.435   3.994   5.854
  555SOL    HW1 2564   1.364   4.039   5.908
  555SOL    HW2 2565   1.414   4.003   5.756
  556SOL     OW 2566   5.475   0.136   4.167
  556SOL    HW1 2567   5.509   0.218   4.212
  556SOL    HW2 2568   5.377   0.147   4.146
  557SOL     OW 2569   6.677   4.207   6.858
  557SOL    HW1 2570   6.640   4.285   6.909
  557SOL    HW2 2571   6.646   4.212   6.763
  558SOL     OW 2572   3.215   4.064   2.647
  558SOL    HW1 2573   3.202   4.011   2.730
  558SOL    HW2 2574   3.140   4.046   2.583
  559SOL     OW 2575   6.056   0.098   5.646
  559SOL    HW1 2576   5.970   0.103   5.697
  559SOL    HW2 2577   6.123   0.047   5.699
  560SOL     OW 2578   6.126   3.193   3.282
  560SOL    HW1 2579   6.059   3.207   3.355
  560SOL    HW2 2580   6.144   3.095   3.272
  561SOL     OW 2581   0.762   3.099   0.059
  561SOL    HW1 2582   0.749   3.197   0.045
  561SOL    HW2 2583   0.844   3.084   0.114
  562SOL     OW 2584   3.954   6.988   5.334
  562SOL    HW1 2585   3.923   7.006   5.240
  562SOL    HW2 2586   4.047   0.004   5.346
  563SOL     OW 2587   1.990   1.318   4.333
  563SOL    HW1 2588   1.906   1.356   4.373
  563SOL    HW2 2589   1.968   1.235   4.282
  564SOL     OW 2590   6.736   1.951   5.638
  564SOL    HW1 2591   6.674   1.969   5.562
  564SOL    HW2 2592   6.821   2.003   5.626
  565SOL     OW 2593   4.087   3.643   3.266
  565SOL    HW1 2594   4.051   3.735   3.285
  565SOL    HW2 2595   4.118   3.601   3.351
  566SOL     OW 2596   3.433   6.832   3.042
  566SOL    HW1 2597   3.514   6.839   2.984
  566SOL    HW2 2598   3.460   6.800   3.133
  567SOL     OW 2599   1.883   3.000   6.163
  567SOL    HW1 2600   1.977   3.023   6.188
  567SOL    HW2 2601   1.880   2.908   6.125
  568SOL     OW 2602   6.784   6.564   0.425
  568SOL    HW1 2603   6.843   6.544   0.503
  568SOL    HW2 2604   6.792   6.490   0.358
  569SOL     OW 2605   6.533   2.280   0.448
  569SOL    HW1 2606   6.537   2.347   0.374
  569SOL    HW2 2607   6.586   2.314   0.526
  570SOL     OW 2608   2.408   0.811   5.869
  570SOL    HW1 2609   2.408   0.830   5.771
  570SOL    HW2 2610   2.363   0.723   5.886
  571SOL     OW 2611   2.193   5.260   2.426
  571SOL    HW1 2612   2.101   5.259   2.465
  571SOL    HW2 2613   2.259   5.286   2.496
  572SOL     OW 2614   2.708   0.034   3.965
  572SOL    HW1 2615   2.637   6.988   3.938
  572SOL    HW2 2616   2.670   0.127   3.967
  573SOL     OW 2617   0.242   1.277   5.328
  573SOL    HW1 2618   0.195   1.350   5.279
  573SOL    HW2 2619   0.223   1.285   5.426
  574SOL     OW 2620   2.547   2.248   5.707
  574SOL    HW1 2621   2.523   2.321   5.643
  574SOL    HW2 2622   2.491   2.257   5.790
  575SOL     OW 2623   3.385   2.916   0.366
  575SOL    HW1 2624   3.386   2.817   0.382
  575SOL    HW2 2625   3.411   2.964   0.450
  576SOL     OW 2626   2.039   3.165   2.937
  576SOL    HW1 2627   1.948   3.204   2.924
  576SOL    HW2 2628   2.033   3.066   2.948
  577SOL     OW 2629   0.967   1.417   2.055
  577SOL    HW1 2630   1.038   1.456   1.997
  577SOL    HW2 2631   0.901   1.367   1.999
  578SOL     OW 2632   2.012   6.577   6.745
  578SOL    HW1 2633   1.992   6.601   6.650
  578SOL    HW2 2634   2.050   6.657   6.792
  579SOL     OW 2635   2.404   4.657   1.928
  579SOL    HW1 2636   2.380   4.720   1.854
  579SOL    HW2 2637   2.495   4.619   1.912
  580SOL     OW 2638   4.143   5.070   4.369
  580SOL    HW1 2639   4.187   5.100   4.454
  580SOL    HW2 2640   4.101   4.980   4.384
  581SOL     OW 2641   1.877   2.780   4.514
  581SOL    HW1 2642   1.880   2.875   4.483
  581SOL    HW2 2643   1.841   2.777   4.608
  582SOL     OW 2644   5.711   5.706   3.641
  582SOL    HW1 2645   5.771   5.641   3.593
  582SOL    HW2 2646   5.766   5.764   3.701
  583SOL     OW 2647   4.009   5.673   5.643
  583SOL    HW1 2648   4.073   5.608   5.602
  583SOL    HW2 2649   3.961   5.629   5.719
  584SOL     OW 2650   4.353   0.879   5.694
  584SOL    HW1 2651   4.337   0.812   5.621
  584SOL    HW2 2652   4.339   0.835   5.782
  585SOL     OW 2653   2.849   0.088   2.266
  585SOL    HW1 2654   2.750   0.080   2.257
  585SOL    HW2 2655   2.887   0.134   2.186
  586SOL     OW 2656   4.550   6.937   0.846
  586SOL    HW1 2657   4.641   6.895   0.844
  586SOL    HW2 2658   4.558   0.016   0.826
  587SOL     OW 2659   4.991   1.964   1.923
  587SOL    HW1 2660   4.959   2.054   1.954
  587SOL    HW2 2661   4.944   1.893   1.975
  588SOL     OW 2662   1.163   5.433   2.569
  588SOL    HW1 2663   1.191   5.344   2.533
  588SOL    HW2 2664   1.218   5.505   2.526
  589SOL     OW 2665   3.256   6.094   1.078
  589SOL    HW1 2666   3.326   6.038   1.034
  589SOL    HW2 2667   3.254   6.184   1.034
  590SOL     OW 2668   4.784   1.782   0.719
  590SOL    HW1 2669   4.858   1.747   0.775
  590SOL    HW2 2670   4.700   1.731   0.739
  591SOL     OW 2671   3.626   5.872   4.754
  591SOL    HW1 2672   3.702   5.809   4.768
  591SOL    HW2 2673   3.541   5.820   4.745
  592SOL     OW 2674   4.438   2.200   3.955
  592SOL    HW1 2675   4.490   2.165   4.033
  592SOL    HW2 2676   4.347   2.229   3.987
  593SOL     OW 2677   3.191   1.314   6.281
  593SOL    HW1 2678   3.284   1.342   6.304
  593SOL    HW2 2679   3.191   1.219   6.250
  594SOL     OW 2680   5.250   1.397   1.821
  594SOL    HW1 2681   5.287   1.380   1.730
  594SOL    HW2 2682   5.152   1.416   1.814
  595SOL     OW 2683   5.304   6.060   2.243
  595SOL    HW1 2684   5.253   6.026   2.322
  595SOL    HW2 2685   5.317   6.159   2.252
  596SOL     OW 2686   6.495   4.963   3.882
  596SOL    HW1 2687   6.419   4.929   3.826
  596SOL    HW2 2688   6.569   4.992   3.822
  597SOL     OW 2689   2.786   6.852   5.991
  597SOL    HW1 2690   2.879   6.848   6.030
  597SOL    HW2 2691   2.744   6.762   5.996
  598SOL     OW 2692   3.034   3.226   4.418
  598SOL    HW1 2693   3.095   3.146   4.411
  598SOL    HW2 2694   3.019   3.247   4.514
  599SOL     OW 2695   1.433   5.927   1.891
  599SOL    HW1 2696   1.379   5.974   1.961
  599SOL    HW2 2697   1.374   5.900   1.816
  600SOL     OW 2698   6.950   3.662   4.842
  600SOL    HW1 2699   6.920   3.732   4.778
  600SOL    HW2 2700   0.010   3.612   4.804
  601SOL     OW 2701   1.959   6.729   4.901
  601SOL    HW1 2702   2.050   6.735   4.859
  601SOL    HW2 2703   1.944   6.635   4.932
  602SOL     OW 2704   2.741   6.030   4.066
  602SOL    HW1 2705   2.702   6.114   4.027
  602SOL    HW2 2706   2.667   5.972   4.099
  603SOL     OW 2707   1.586   1.304   5.431
  603SOL    HW1 2708   1.517   1.234   5.415
  603SOL    HW2 2709   1.671   1.279   5.385
  604SOL     OW 2710   6.491   2.773   1.715
  604SOL    HW1 2711   6.571   2.713   1.711
  604SOL    HW2 2712   6.418   2.728   1.766
  605SOL     OW 2713   0.386   5.727   2.101
  605SOL    HW1 2714   0.335   5.652   2.143
  605SOL    HW2 2715   0.404   5.797   2.169
  606SOL     OW 2716   3.463   6.508   4.689
  606SOL    HW1 2717   3.519   6.509   4.772
  606SOL    HW2 2718   3.383   6.566   4.702
  607SOL     OW 2719   0.759   4.602   5.941
  607SOL    HW1 2720   0.704   4.670   5.892
  607SOL    HW2 2721   0.818   4.648   6.007
  608SOL     OW 2722   2.969   1.255   5.382
  608SOL    HW1 2723   3.047   1.213   5.337
  608SOL    HW2 2724   2.884   1.214   5.347
  609SOL     OW 2725   3.380   2.855   1.975
  609SOL    HW1 2726   3.364   2.826   2.070
  609SOL    HW2 2727   3.438   2.788   1.929
  610SOL     OW 2728   4.804   3.385   0.608
  610SOL    HW1 2729   4.888   3.349   0.568
  610SOL    HW2 2730   4.822   3.413   0.703
  611SOL     OW 2731   3.949   0.281   2.549
  611SOL    HW1 2732   3.908   0.267   2.639
  611SOL    HW2 2733   3.995   0.197   2.520
  612SOL     OW 2734   4.081   4.621   6.126
  612SOL    HW1 2735   4.155   4.564   6.089
  612SOL    HW2 2736   4.007   4.626   6.059
  613SOL     OW 2737   4.360   5.385   5.307
  613SOL    HW1 2738   4.305   5.304   5.287
  613SOL    HW2 2739   4.451   5.357   5.339
  614SOL     OW 2740   4.130   5.134   5.870
  614SOL    HW1 2741   4.132   5.111   5.967
  614SOL    HW2 2742   4.043   5.105   5.830
  615SOL     OW 2743   0.605   5.193   1.928
  615SOL    HW1 2744   0.596   5.180   1.829
  615SOL    HW2 2745   0.600   5.291   1.949
  616SOL     OW 2746   5.752   3.546   3.178
  616SOL    HW1 2747   5.722   3.459   3.140
  616SOL    HW2 2748   5.844   3.567   3.143
  617SOL     OW 2749   3.167   5.509   6.528
  617SOL    HW1 2750   3.216   5.488   6.443
  617SOL    HW2 2751   3.084   5.454   6.533
  618SOL     OW 2752   1.492   1.104   2.427
  618SOL    HW1 2753   1.561   1.168   2.462
  618SOL    HW2 2754   1.509   1.087   2.330
  619SOL     OW 2755   0.971   1.073   6.693
  619SOL    HW1 2756   0.962   1.141   6.620
  619SOL    HW2 2757   1.064   1.076   6.730
  620SOL     OW 2758   4.608   3.767   0.480
  620SOL    HW1 2759   4.527   3.709   0.467
  620SOL    HW2 2760   4.689   3.717   0.449
  621SOL     OW 2761   0.453   4.782   2.158
  621SOL    HW1 2762   0.449   4.800   2.060
  621SOL    HW2 2763   0.497   4.694   2.175
  622SOL     OW 2764   1.625   1.457   0.244
  622SOL    HW1 2765   1.672   1.389   0.188
  622SOL    HW2 2766   1.550   1.497   0.191
  623SOL     OW 2767   0.657   4.502   6.668
  623SOL    HW1 2768   0.679   4.488   6.571
  623SOL    HW2 2769   0.740   4.526   6.718
  624SOL     OW 2770   0.662   2.571   3.017
  624SOL    HW1 2771   0.697   2.636   3.084
  624SOL    HW2 2772   0.736   2.540   2.958
  625SOL     OW 2773   2.675   1.696   2.271
  625SOL    HW1 2774   2.643   1.735   2.185
  625SOL    HW2 2775   2.754   1.637   2.254
  626SOL     OW 2776   2.780   6.328   4.605
  626SOL    HW1 2777   2.818   6.245   4.565
  626SOL    HW2 2778   2.754   6.310   4.700
  627SOL     OW 2779   5.658   1.053   6.557
  627SOL    HW1 2780   5.599   1.132   6.537
  627SOL    HW2 2781   5.603   0.981   6.599
  628SOL     OW 2782   4.744   4.220   3.728
  628SOL    HW1 2783   4.662   4.266   3.693
  628SOL    HW2 2784   4.825   4.271   3.702
  629SOL     OW 2785   1.159   0.385   1.036
  629SOL    HW1 2786   1.233   0.369   0.972
  629SOL    HW2 2787   1.122   0.298   1.068
  630SOL     OW 2788   4.068   1.783   1.189
  630SOL    HW1 2789   4.034   1.874   1.209
  630SOL    HW2 2790   4.168   1.784   1.188
  631SOL     OW 2791   2.395   0.290   5.116
  631SOL    HW1 2792   2.390   0.357   5.042
  631SOL    HW2 2793   2.342   0.209   5.091
  632SOL     OW 2794   2.024   0.767   0.854
  632SOL    HW1 2795   1.964   0.837   0.817
  632SOL    HW2 2796   2.056   0.794   0.944
  633SOL     OW 2797   2.598   6.868   6.408
  633SOL    HW1 2798   2.528   6.880   6.338
  633SOL    HW2 2799   2.654   6.787   6.386
  634SOL     OW 2800   3.572   5.873   0.615
  634SOL    HW1 2801   3.492   5.922   0.650
  634SOL    HW2 2802   3.542   5.800   0.554
  635SOL     OW 2803   2.545   0.437   2.498
  635SOL    HW1 2804   2.524   0.498   2.574
  635SOL    HW2 2805   2.597   0.358   2.531
  636SOL     OW 2806   5.105   4.960   0.406
  636SOL    HW1 2807   5.142   4.969   0.314
  636SOL    HW2 2808   5.053   5.041   0.430
  637SOL     OW 2809   4.627   4.571   1.180
  637SOL    HW1 2810   4.563   4.627   1.233
  637SOL    HW2 2811   4.576   4.516   1.114
  638SOL     OW 2812   4.854   1.191   2.523
  638SOL    HW1 2813   4.881   1.288   2.526
  638SOL    HW2 2814   4.826   1.161   2.614
  639SOL     OW 2815   4.332   4.556   1.901
  639SOL    HW1 2816   4.379   4.473   1.929
  639SOL    HW2 2817   4.269   4.536   1.826
  640SOL     OW 2818   2.759   4.203   5.343
  640SOL    HW1 2819   2.850   4.224   5.309
  640SOL    HW2 2820   2.691   4.231   5.275
  641SOL     OW 2821   0.038   6.079   4.876
  641SOL    HW1 2822   6.969   6.042   4.846
  641SOL    HW2 2823   0.023   6.169   4.918
  642SOL     OW 2824   0.842   5.161   4.840
  642SOL    HW1 2825   0.783   5.219   4.897
  642SOL    HW2 2826   0.879   5.216   4.765
  643SOL     OW 2827   5.891   5.873   5.376
  643SOL    HW1 2828   5.922   5.779   5.383
  643SOL    HW2 2829   5.934   5.916   5.296
  644SOL     OW 2830   1.375   6.525   2.376
  644SOL    HW1 2831   1.279   6.524   2.404
  644SOL    HW2 2832   1.388   6.465   2.298
  645SOL     OW 2833   5.536   2.462   3.537
  645SOL    HW1 2834   5.577   2.380   3.498
  645SOL    HW2 2835   5.606   2.512   3.588
  646SOL     OW 2836   1.895   1.635   4.273
  646SOL    HW1 2837   1.971   1.655   4.211
  646SOL    HW2 2838   1.922   1.661   4.366
  647SOL     OW 2839   6.101   3.546   0.247
  647SOL    HW1 2840   6.075   3.572   0.340
  647SOL    HW2 2841   6.190   3.501   0.249
  648SOL     OW 2842   6.214   3.417   1.812
  648SOL    HW1 2843   6.139   3.409   1.877
  648SOL    HW2 2844   6.206   3.345   1.743
  649SOL     OW 2845   4.260   4.366   1.276
  649SOL    HW1 2846   4.309   4.286   1.310
  649SOL    HW2 2847   4.295   4.448   1.320
  650SOL     OW 2848   4.937   4.803   0.549
  650SOL    HW1 2849   5.021   4.848   0.520
  650SOL    HW2 2850   4.864   4.824   0.483
  651SOL     OW 2851   1.051   6.198   6.902
  651SOL    HW1 2852   1.083   6.290   6.880
  651SOL    HW2 2853   1.112   6.130   6.861
  652SOL     OW 2854   4.092   1.470   2.481
  652SOL    HW1 2855   4.076   1.432   2.390
  652SOL    HW2 2856   4.121   1.566   2.472
  653SOL     OW 2857   3.601   4.947   3.433
  653SOL    HW1 2858   3.533   5.009   3.393
  653SOL    HW2 2859   3.580   4.933   3.530
  654SOL     OW 2860   6.763   4.335   0.272
  654SOL    HW1 2861   6.697   4.396   0.316
  654SOL    HW2 2862   6.855   4.373   0.280
  655SOL     OW 2863   0.632   0.754   1.087
  655SOL    HW1 2864   0.696   0.683   1.056
  655SOL    HW2 2865   0.684   0.835   1.114
  656SOL     OW 2866   2.861   6.541   1.922
  656SOL    HW1 2867   2.890   6.458   1.969
  656SOL    HW2 2868   2.831   6.608   1.989
  657SOL     OW 2869   3.142   1.616   0.029
  657SOL    HW1 2870   3.112   1.711   0.020
  657SOL    HW2 2871   3.064   1.554   0.015
  658SOL     OW 2872   3.377   4.370   6.241
  658SOL    HW1 2873   3.287   4.382   6.199
  658SOL    HW2 2874   3.419   4.286   6.207
  659SOL     OW 2875   2.030   0.006   6.640
  659SOL    HW1 2876   2.085   0.070   6.694
  659SOL    HW2 2877   2.091   6.961   6.592
  660SOL     OW 2878   3.850   5.204   2.726
  660SOL    HW1 2879   3.906   5.283   2.700
  660SOL    HW2 2880   3.884   5.166   2.812
  661SOL     OW 2881   5.019   5.505   2.815
  661SOL    HW1 2882   4.932   5.508   2.764
  661SOL    HW2 2883   5.090   5.468   2.755
  662SOL     OW 2884   3.282   1.272   6.931
  662SOL    HW1 2885   3.295   1.359   6.883
  662SOL    HW2 2886   3.306   1.284   0.009
  663SOL     OW 2887   2.441   4.229   5.350
  663SOL    HW1 2888   2.509   4.296   5.322
  663SOL    HW2 2889   2.444   4.150   5.288
  664SOL     OW 2890   6.289   0.804   6.793
  664SOL    HW1 2891   6.233   0.878   6.756
  664SOL    HW2 2892   6.305   0.820   6.890
  665SOL     OW 2893   2.088   5.663   2.947
  665SOL    HW1 2894   2.131   5.734   2.890
  665SOL    HW2 2895   2.159   5.609   2.991
  666SOL     OW 2896   4.458   0.974   2.402
  666SOL    HW1 2897   4.462   1.049   2.336
  666SOL    HW2 2898   4.469   1.010   2.494
  667SOL     OW 2899   0.750   6.841   2.871
  667SOL    HW1 2900   0.748   6.908   2.945
  667SOL    HW2 2901   0.756   6.749   2.909
  668SOL     OW 2902   5.622   3.930   0.270
  668SOL    HW1 2903   5.701   3.979   0.306
  668SOL    HW2 2904   5.601   3.962   0.178
  669SOL     OW 2905   5.008   1.417   2.958
  669SOL    HW1 2906   4.981   1.329   2.997
  669SOL    HW2 2907   4.946   1.489   2.991
  670SOL     OW 2908   2.183   2.068   3.542
  670SOL    HW1 2909   2.159   1.975   3.513
  670SOL    HW2 2910   2.272   2.093   3.503
  671SOL     OW 2911   2.721   6.440   1.456
  671SOL    HW1 2912   2.753   6.456   1.549
  671SOL    HW2 2913   2.783   6.377   1.410
  672SOL     OW 2914   1.113   6.673   2.284
  672SOL    HW1 2915   1.127   6.669   2.383
  672SOL    HW2 2916   1.099   6.768   2.256
  673SOL     OW 2917   5.205   0.027   0.531
  673SOL    HW1 2918   5.249   0.111   0.499
  673SOL    HW2 2919   5.209   6.977   0.459
  674SOL     OW 2920   0.310   0.621   4.437
  674SOL    HW1 2921   0.364   0.578   4.510
  674SOL    HW2 2922   0.363   0.624   4.353
  675SOL     OW 2923   6.296   2.838   2.642
  675SOL    HW1 2924   6.359   2.775   2.598
  675SOL    HW2 2925   6.271   2.803   2.732
  676SOL     OW 2926   2.015   6.044   6.110
  676SOL    HW1 2927   2.085   6.114   6.124
  676SOL    HW2 2928   2.036   5.964   6.167
  677SOL     OW 2929   4.901   1.206   0.465
  677SOL    HW1 2930   4.900   1.284   0.528
  677SOL    HW2 2931   4.931   1.236   0.375
  678SOL     OW 2932   1.995   4.793   4.927
  678SOL    HW1 2933   2.022   4.726   4.996
  678SOL    HW2 2934   2.036   4.768   4.839
  679SOL     OW 2935   5.432   1.902   5.215
  679SOL    HW1 2936   5.403   1.806   5.221
  679SOL    HW2 2937   5.395   1.943   5.132
  680SOL     OW 2938   4.303   7.017   4.356
  680SOL    HW1 2939   4.374   0.001   4.285
  680SOL    HW2 2940   4.246   0.080   4.349
  681SOL     OW 2941   4.686   5.038   2.156
  681SOL    HW1 2942   4.778   5.044   2.196
  681SOL    HW2 2943   4.664   4.942   2.138
  682SOL     OW 2944   1.023   0.698   3.698
  682SOL    HW1 2945   1.011   0.793   3.727
  682SOL    HW2 2946   0.937   0.648   3.711
  683SOL     OW 2947   4.389   3.632   1.143
  683SOL    HW1 2948   4.416   3.587   1.058
  683SOL    HW2 2949   4.296   3.605   1.168
  684SOL     OW 2950   6.385   0.701   6.100
  684SOL    HW1 2951   6.394   0.786   6.153
  684SOL    HW2 2952   6.392   0.623   6.162
  685SOL     OW 2953   3.352   0.362   3.137
  685SOL    HW1 2954   3.393   0.417   3.211
  685SOL    HW2 2955   3.290   0.419   3.084
  686SOL     OW 2956   4.264   0.949   4.989
  686SOL    HW1 2957   4.271   0.897   5.074
  686SOL    HW2 2958   4.200   0.903   4.927
  687SOL     OW 2959   1.689   1.855   4.289
  687SOL    HW1 2960   1.786   1.835   4.304
  687SOL    HW2 2961   1.641   1.770   4.269
  688SOL     OW 2962   6.214   1.485   0.091
  688SOL    HW1 2963   6.261   1.471   0.178
  688SOL    HW2 2964   6.115   1.489   0.106
  689SOL     OW 2965   1.456   5.259   6.000
  689SOL    HW1 2966   1.475   5.184   5.936
  689SOL    HW2 2967   1.455   5.224   6.093
  690SOL     OW 2968   5.685   3.466   2.636
  690SOL    HW1 2969   5.775   3.499   2.667
  690SOL    HW2 2970   5.673   3.371   2.665
  691SOL     OW 2971   4.501   1.405   6.902
  691SOL    HW1 2972   4.418   1.352   6.917
  691SOL    HW2 2973   4.477   1.501   6.887
  692SOL     OW 2974   2.843   0.883   4.796
  692SOL    HW1 2975   2.936   0.902   4.765
  692SOL    HW2 2976   2.791   0.841   4.721
  693SOL     OW 2977   5.296   5.983   3.896
  693SOL    HW1 2978   5.337   6.073   3.912
  693SOL    HW2 2979   5.229   5.964   3.967
  694SOL     OW 2980   4.388   5.525   5.060
  694SOL    HW1 2981   4.382   5.620   5.089
  694SOL    HW2 2982   4.385   5.466   5.141
  695SOL     OW 2983   3.308   0.042   4.066
  695SOL    HW1 2984   3.390   0.062   4.120
  695SOL    HW2 2985   3.285   6.964   4.076
  696SOL     OW 2986   4.704   4.615   3.147
  696SOL    HW1 2987   4.797   4.652   3.148
  696SOL    HW2 2988   4.655   4.649   3.067
  697SOL     OW 2989   0.092   5.018   2.449
  697SOL    HW1 2990   0.122   4.946   2.512
  697SOL    HW2 2991   0.168   5.044   2.390
  698SOL     OW 2992   5.578   0.214   1.242
  698SOL    HW1 2993   5.527   0.220   1.156
  698SOL    HW2 2994   5.575   0.303   1.288
  699SOL     OW 2995   2.370   2.080   1.004
  699SOL    HW1 2996   2.383   2.115   0.911
  699SOL    HW2 2997   2.322   1.992   0.999
  700SOL     OW 2998   3.926   6.622   3.016
  700SOL    HW1 2999   3.947   6.662   2.927
  700SOL    HW2 3000   3.992   6.655   3.084
  701SOL     OW 3001   6.397   5.340   1.019
  701SOL    HW1 3002   6.398   5.423   0.964
  701SOL    HW2 3003   6.343   5.356   1.102
  702SOL     OW 3004   3.185   1.212   4.018
  702SOL    HW1 3005   3.206   1.121   3.984
  702SOL    HW2 3006   3.240   1.231   4.099
  703SOL     OW 3007   3.044   2.540   6.127
  703SOL    HW1 3008   3.112   2.476   6.164
  703SOL    HW2 3009   3.042   2.623   6.183
  704SOL     OW 3010   1.211   2.961   6.061
  704SOL    HW1 3011   1.251   2.913   6.139
  704SOL    HW2 3012   1.148   2.899   6.014
  705SOL     OW 3013   0.171   6.395   4.714
  705SOL    HW1 3014   0.209   6.305   4.736
  705SOL    HW2 3015   0.148   6.443   4.798
  706SOL     OW 3016   4.697   1.121   5.008
  706SOL    HW1 3017   4.736   1.170   4.930
  706SOL    HW2 3018   4.768   1.065   5.051
  707SOL     OW 3019   3.421   5.114   3.338
  707SOL    HW1 3020   3.342   5.086   3.284
  707SOL    HW2 3021   3.465   5.193   3.296
  708SOL     OW 3022   3.511   0.460   3.744
  708SOL    HW1 3023   3.416   0.482   3.723
  708SOL    HW2 3024   3.549   0.529   3.805
  709SOL     OW 3025   2.295   0.053   1.457
  709SOL    HW1 3026   2.272   0.002   1.374
  709SOL    HW2 3027   2.354   7.015   1.515
  710SOL     OW 3028   4.699   2.856   1.687
  710SOL    HW1 3029   4.768   2.804   1.737
  710SOL    HW2 3030   4.660   2.926   1.748
  711SOL     OW 3031   0.125   2.387   5.777
  711SOL    HW1 3032   0.142   2.472   5.825
  711SOL    HW2 3033   0.207   2.361   5.725
  712SOL     OW 3034   5.058   3.448   0.471
  712SOL    HW1 3035   5.010   3.483   0.390
  712SOL    HW2 3036   5.149   3.489   0.476
  713SOL     OW 3037   3.960   2.652   5.344
  713SOL    HW1 3038   3.925   2.725   5.285
  713SOL    HW2 3039   4.033   2.603   5.296
  714SOL     OW 3040   5.278   5.177   3.387
  714SOL    HW1 3041   5.211   5.241   3.350
  714SOL    HW2 3042   5.307   5.114   3.314
  715SOL     OW 3043   6.309   5.561   5.511
  715SOL    HW1 3044   6.341   5.631   5.575
  715SOL    HW2 3045   6.224   5.521   5.545
  716SOL     OW 3046   1.972   1.515   2.564
  716SOL    HW1 3047   2.003   1.608   2.583
  716SOL    HW2 3048   2.048   1.461   2.528
  717SOL     OW 3049   5.369   5.473   4.089
  717SOL    HW1 3050   5.420   5.413   4.027
  717SOL    HW2 3051   5.349   5.559   4.042
  718SOL     OW 3052   5.808   1.879   4.271
  718SOL    HW1 3053   5.752   1.810   4.227
  718SOL    HW2 3054   5.905   1.861   4.252
  719SOL     OW 3055   5.211   0.245   3.473
  719SOL    HW1 3056   5.291   0.195   3.439
  719SOL    HW2 3057   5.145   0.181   3.512
  720SOL     OW 3058   2.192   0.964   6.637
  720SOL    HW1 3059   2.262   0.904   6.598
  720SOL    HW2 3060   2.176   0.939   6.732
  721SOL     OW 3061   0.111   2.649   3.067
  721SOL    HW1 3062   0.013   2.646   3.046
  721SOL    HW2 3063   0.163   2.651   2.981
  722SOL     OW 3064   4.239   6.836   0.123
  722SOL    HW1 3065   4.150   6.881   0.112
  722SOL    HW2 3066   4.245   6.796   0.214
  723SOL     OW 3067   2.666   5.541   3.645
  723SOL    HW1 3068   2.750   5.583   3.680
  723SOL    HW2 3069   2.663   5.549   3.546
  724SOL     OW 3070   1.249   0.986   3.336
  724SOL    HW1 3071   1.189   1.065   3.337
  724SOL    HW2 3072   1.344   1.016   3.348
  725SOL     OW 3073   1.596   3.935   2.482
  725SOL    HW1 3074   1.497   3.941   2.469
  725SOL    HW2 3075   1.641   3.934   2.393
  726SOL     OW 3076   1.991   4.126   0.725
  726SOL    HW1 3077   1.936   4.203   0.693
  726SOL    HW2 3078   2.086   4.139   0.698
  727SOL     OW 3079   4.141   5.270   4.965
  727SOL    HW1 3080   4.112   5.303   4.874
  727SOL    HW2 3081   4.094   5.323   5.035
  728SOL     OW 3082   6.676   3.084   4.064
  728SOL    HW1 3083   6.584   3.109   4.092
  728SOL    HW2 3084   6.680   2.986   4.044
  729SOL     OW 3085   0.254   4.303   1.379
  729SOL    HW1 3086   0.242   4.356   1.463
  729SOL    HW2 3087   0.344   4.259   1.380
  730SOL     OW 3088   5.124   0.411   3.668
  730SOL    HW1 3089   5.120   0.500   3.623
  730SOL    HW2 3090   5.140   0.340   3.599
  731SOL     OW 3091   4.313   4.245   6.166
  731SOL    HW1 3092   4.403   4.245   6.208
  731SOL    HW2 3093   4.257   4.173   6.209
  732SOL     OW 3094   5.044   1.481   3.592
  732SOL    HW1 3095   5.086   1.421   3.523
  732SOL    HW2 3096   5.113   1.506   3.660
  733SOL     OW 3097   6.098   6.908   3.144
  733SOL    HW1 3098   6.000   6.904   3.122
  733SOL    HW2 3099   6.116   6.990   3.198
  734SOL     OW 3100   5.351   6.252   2.605
  734SOL    HW1 3101   5.296   6.170   2.617
  734SOL    HW2 3102   5.379   6.260   2.509
  735SOL     OW 3103   4.900   1.013   1.935
  735SOL    HW1 3104   4.855   1.074   2.000
  735SOL    HW2 3105   4.992   0.991   1.967
  736SOL     OW 3106   1.058   1.243   4.386
  736SOL    HW1 3107   1.136   1.263   4.444
  736SOL    HW2 3108   1.054   1.310   4.311
  737SOL     OW 3109   5.347   0.980   6.384
  737SOL    HW1 3110   5.430   0.927   6.365
  737SOL    HW2 3111   5.343   1.060   6.324
  738SOL     OW 3112   2.639   4.202   1.146
  738SOL    HW1 3113   2.728   4.162   1.122
  738SOL    HW2 3114   2.648   4.301   1.149
  739SOL     OW 3115   2.762   6.840   4.849
  739SOL    HW1 3116   2.700   6.761   4.841
  739SOL    HW2 3117   2.856   6.807   4.861
  740SOL     OW 3118   5.253   3.097   3.060
  740SOL    HW1 3119   5.190   3.167   3.027
  740SOL    HW2 3120   5.206   3.039   3.128
  741SOL     OW 3121   2.796   0.416   3.000
  741SOL    HW1 3122   2.844   0.380   3.080
  741SOL    HW2 3123   2.850   0.490   2.960
  742SOL     OW 3124   1.898   6.891   1.461
  742SOL    HW1 3125   1.876   6.949   1.539
  742SOL    HW2 3126   1.983   6.842   1.479
  743SOL     OW 3127   0.846   6.202   3.161
  743SOL    HW1 3128   0.912   6.165   3.226
  743SOL    HW2 3129   0.815   6.292   3.192
  744SOL     OW 3130   4.600   1.778   0.306
  744SOL    HW1 3131   4.564   1.780   0.213
  744SOL    HW2 3132   4.531   1.739   0.367
  745SOL     OW 3133   3.035   6.401   5.091
  745SOL    HW1 3134   2.956   6.341   5.109
  745SOL    HW2 3135   3.054   6.402   4.993
  746SOL     OW 3136   6.226   4.377   5.482
  746SOL    HW1 3137   6.213   4.362   5.384
  746SOL    HW2 3138   6.238   4.474   5.500
  747SOL     OW 3139   5.396   5.816   3.096
  747SOL    HW1 3140   5.461   5.754   3.139
  747SOL    HW2 3141   5.371   5.888   3.161
  748SOL     OW 3142   5.652   5.495   2.084
  748SOL    HW1 3143   5.667   5.397   2.101
  748SOL    HW2 3144   5.558   5.519   2.109
  749SOL     OW 3145   4.939   3.987   3.583
  749SOL    HW1 3146   4.870   4.051   3.551
  749SOL    HW2 3147   4.935   3.903   3.529
  750SOL     OW 3148   2.157   2.214   1.856
  750SOL    HW1 3149   2.063   2.183   1.861
  750SOL    HW2 3150   2.202   2.202   1.945
  751SOL     OW 3151   4.862   0.301   7.006
  751SOL    HW1 3152   4.892   0.392   6.977
  751SOL    HW2 3153   4.897   0.281   0.079
  752SOL     OW 3154   3.485   2.432   5.395
  752SOL    HW1 3155   3.472   2.366   5.468
  752SOL    HW2 3156   3.397   2.473   5.370
  753SOL     OW 3157   4.010   3.867   4.895
  753SOL    HW1 3158   4.017   3.773   4.863
  753SOL    HW2 3159   4.021   3.930   4.818
  754SOL     OW 3160   5.807   0.438   6.769
  754SOL    HW1 3161   5.742   0.514   6.763
  754SOL    HW2 3162   5.884   0.466   6.827
  755SOL     OW 3163   4.081   4.592   5.300
  755SOL    HW1 3164   4.149   4.534   5.255
  755SOL    HW2 3165   4.002   4.536   5.325
  756SOL     OW 3166   2.249   4.872   5.923
  756SOL    HW1 3167   2.348   4.857   5.932
  756SOL    HW2 3168   2.201   4.787   5.944
  757SOL     OW 3169   2.653   6.932   2.577
  757SOL    HW1 3170   2.751   6.915   2.571
  757SOL    HW2 3171   2.604   6.844   2.575
  758SOL     OW 3172   3.326   1.632   3.839
  758SOL    HW1 3173   3.396   1.683   3.889
  758SOL    HW2 3174   3.274   1.695   3.780
  759SOL     OW 3175   0.491   3.174   4.481
  759SOL    HW1 3176   0.515   3.244   4.415
  759SOL    HW2 3177   0.392   3.160   4.481
  760SOL     OW 3178   6.734   5.960   3.819
  760SOL    HW1 3179   6.693   6.037   3.867
  760SOL    HW2 3180   6.818   5.990   3.773
  761SOL     OW 3181   4.670   3.414   5.663
  761SOL    HW1 3182   4.578   3.393   5.631
  761SOL    HW2 3183   4.731   3.425   5.584
  762SOL     OW 3184   3.170   5.861   4.520
  762SOL    HW1 3185   3.165   5.773   4.473
  762SOL    HW2 3186   3.239   5.918   4.476
  763SOL     OW 3187   5.609   0.417   0.026
  763SOL    HW1 3188   5.559   0.493   7.005
  763SOL    HW2 3189   5.677   0.384   6.979
  764SOL     OW 3190   5.355   0.142   5.306
  764SOL    HW1 3191   5.364   0.241   5.311
  764SOL    HW2 3192   5.431   0.104   5.253
  765SOL     OW 3193   6.941   6.469   1.097
  765SOL    HW1 3194   6.996   6.487   1.016
  765SOL    HW2 3195   6.849   6.442   1.069
  766SOL     OW 3196   2.065   2.386   5.642
  766SOL    HW1 3197   2.113   2.389   5.555
  766SOL    HW2 3198   2.127   2.352   5.713
  767SOL     OW 3199   0.579   6.440   4.717
  767SOL    HW1 3200   0.523   6.358   4.725
  767SOL    HW2 3201   0.625   6.441   4.628
  768SOL     OW 3202   2.297   5.287   1.922
  768SOL    HW1 3203   2.283   5.333   1.834
  768SOL    HW2 3204   2.364   5.214   1.911
  769SOL     OW 3205   2.884   2.178   4.894
  769SOL    HW1 3206   2.851   2.237   4.820
  769SOL    HW2 3207   2.931   2.234   4.963
  770SOL     OW 3208   1.756   4.854   5.089
  770SOL    HW1 3209   1.830   4.821   5.029
  770SOL    HW2 3210   1.794   4.918   5.156
  771SOL     OW 3211   1.063   6.105   3.317
  771SOL    HW1 3212   1.094   6.192   3.279
  771SOL    HW2 3213   1.139   6.060   3.364
  772SOL     OW 3214   5.641   4.270   0.652
  772SOL    HW1 3215   5.620   4.367   0.650
  772SOL    HW2 3216   5.604   4.230   0.737
  773SOL     OW 3217   0.293   4.047   3.651
  773SOL    HW1 3218   0.218   4.085   3.597
  773SOL    HW2 3219   0.262   3.964   3.698
  774SOL     OW 3220   2.272   0.516   2.993
  774SOL    HW1 3221   2.283   0.611   2.962
  774SOL    HW2 3222   2.200   0.512   3.062
  775SOL     OW 3223   2.037   4.248   3.354
  775SOL    HW1 3224   1.989   4.274   3.438
  775SOL    HW2 3225   2.086   4.327   3.318
  776SOL     OW 3226   2.518   5.225   6.753
  776SOL    HW1 3227   2.482   5.317   6.738
  776SOL    HW2 3228   2.461   5.159   6.705
  777SOL     OW 3229   1.886   3.649   0.396
  777SOL    HW1 3230   1.796   3.689   0.416
  777SOL    HW2 3231   1.876   3.578   0.327
  778SOL     OW 3232   2.817   7.013   1.162
  778SOL    HW1 3233   2.758   0.021   1.238
  778SOL    HW2 3234   2.894   6.960   1.196
  779SOL     OW 3235   0.362   2.133   3.602
  779SOL    HW1 3236   0.428   2.147   3.528
  779SOL    HW2 3237   0.364   2.212   3.663
  780SOL     OW 3238   0.918   1.491   4.345
  780SOL    HW1 3239   0.853   1.564   4.324
  780SOL    HW2 3240   0.965   1.513   4.431
  781SOL     OW 3241   0.966   4.298   0.706
  781SOL    HW1 3242   0.925   4.387   0.725
  781SOL    HW2 3243   0.897   4.227   0.717
  782SOL     OW 3244   2.037   3.549   5.342
  782SOL    HW1 3245   2.097   3.577   5.268
  782SOL    HW2 3246   2.004   3.631   5.390
  783SOL     OW 3247   6.236   4.968   6.621
  783SOL    HW1 3248   6.202   4.874   6.612
  783SOL    HW2 3249   6.310   4.970   6.688
  784SOL     OW 3250   3.046   6.616   0.502
  784SOL    HW1 3251   3.035   6.678   0.425
  784SOL    HW2 3252   3.141   6.584   0.505
  785SOL     OW 3253   1.581   6.701   4.632
  785SOL    HW1 3254   1.533   6.613   4.635
  785SOL    HW2 3255   1.523   6.768   4.586
  786SOL     OW 3256   6.908   1.282   3.435
  786SOL    HW1 3257   6.972   1.316   3.365
  786SOL    HW2 3258   6.951   1.286   3.525
  787SOL     OW 3259   2.809   0.575   0.736
  787SOL    HW1 3260   2.800   0.630   0.819
  787SOL    HW2 3261   2.767   0.624   0.659
  788SOL     OW 3262   3.444   2.521   1.207
  788SOL    HW1 3263   3.481   2.465   1.133
  788SOL    HW2 3264   3.515   2.584   1.239
  789SOL     OW 3265   4.067   5.077   1.360
  789SOL    HW1 3266   4.096   5.155   1.304
  789SOL    HW2 3267   4.139   5.054   1.425
  790SOL     OW 3268   0.879   2.492   2.838
  790SOL    HW1 3269   0.933   2.506   2.920
  790SOL    HW2 3270   0.916   2.415   2.785
  791SOL     OW 3271   3.123   5.332   5.057
  791SOL    HW1 3272   3.216   5.308   5.031
  791SOL    HW2 3273   3.120   5.348   5.156
  792SOL     OW 3274   1.253   0.859   1.234
  792SOL    HW1 3275   1.304   0.873   1.319
  792SOL    HW2 3276   1.232   0.762   1.224
  793SOL     OW 3277   3.210   5.960   4.162
  793SOL    HW1 3278   3.258   5.998   4.082
  793SOL    HW2 3279   3.251   5.872   4.186
  794SOL     OW 3280   3.297   3.674   3.394
  794SOL    HW1 3281   3.385   3.719   3.405
  794SOL    HW2 3282   3.292   3.594   3.454
  795SOL     OW 3283   3.658   0.031   6.611
  795SOL    HW1 3284   3.630   0.096   6.540
  795SOL    HW2 3285   3.577   7.007   6.650
  796SOL     OW 3286   0.845   2.933   6.887
  796SOL    HW1 3287   0.826   2.999   6.959
  796SOL    HW2 3288   0.788   2.954   6.807
  797SOL     OW 3289   5.464   6.472   0.806
  797SOL    HW1 3290   5.556   6.440   0.829
  797SOL    HW2 3291   5.398   6.401   0.830
  798SOL     OW 3292   3.929   6.539   0.847
  798SOL    HW1 3293   3.939   6.619   0.905
  798SOL    HW2 3294   3.875   6.562   0.765
  799SOL     OW 3295   1.252   2.334   5.898
  799SOL    HW1 3296   1.264   2.400   5.824
  799SOL    HW2 3297   1.326   2.266   5.895
  800SOL     OW 3298   6.065   2.662   1.909
  800SOL    HW1 3299   6.077   2.677   2.007
  800SOL    HW2 3300   5.970   2.681   1.884
  801SOL     OW 3301   1.984   5.283   5.924
  801SOL    HW1 3302   1.992   5.312   5.829
  801SOL    HW2 3303   1.938   5.354   5.977
  802SOL     OW 3304   5.685   2.629   6.957
  802SOL    HW1 3305   5.763   2.638   6.895
  802SOL    HW2 3306   5.712   2.660   0.030
  803SOL     OW 3307   2.791   1.448   5.154
  803SOL    HW1 3308   2.776   1.532   5.206
  803SOL    HW2 3309   2.883   1.448   5.115
  804SOL     OW 3310   6.238   1.212   2.405
  804SOL    HW1 3311   6.314   1.148   2.416
  804SOL    HW2 3312   6.169   1.195   2.476
  805SOL     OW 3313   3.800   0.391   3.670
  805SOL    HW1 3314   3.858   0.343   3.736
  805SOL    HW2 3315   3.713   0.413   3.713
  806SOL     OW 3316   2.177   5.981   5.618
  806SOL    HW1 3317   2.275   5.962   5.617
  806SOL    HW2 3318   2.132   5.927   5.548
  807SOL     OW 3319   0.539   5.960   5.880
  807SOL    HW1 3320   0.545   6.049   5.924
  807SOL    HW2 3321   0.533   5.972   5.781
  808SOL     OW 3322   5.461   2.649   6.788
  808SOL    HW1 3323   5.479   2.720   6.720
  808SOL    HW2 3324   5.536   2.647   6.854
  809SOL     OW 3325   2.005   4.379   0.268
  809SOL    HW1 3326   1.984   4.354   0.362
  809SOL    HW2 3327   2.093   4.338   0.242
  810SOL     OW 3328   3.967   3.383   0.035
  810SOL    HW1 3329   4.025   3.423   0.105
  810SOL    HW2 3330   3.995   3.288   0.019
  811SOL     OW 3331   5.256   5.056   4.118
  811SOL    HW1 3332   5.352   5.027   4.111
  811SOL    HW2 3333   5.241   5.135   4.058
  812SOL     OW 3334   0.336   2.908   1.785
  812SOL    HW1 3335   0.398   2.874   1.715
  812SOL    HW2 3336   0.262   2.959   1.743
  813SOL     OW 3337   0.928   1.993   4.448
  813SOL    HW1 3338   0.997   1.947   4.504
  813SOL    HW2 3339   0.944   1.971   4.351
  814SOL     OW 3340   0.950   5.105   3.296
  814SOL    HW1 3341   1.042   5.083   3.327
  814SOL    HW2 3342   0.894   5.135   3.373
  815SOL     OW 3343   4.565   1.525   3.874
  815SOL    HW1 3344   4.637   1.549   3.939
  815SOL    HW2 3345   4.483   1.580   3.894
  816SOL     OW 3346   5.736   4.653   6.602
  816SOL    HW1 3347   5.675   4.732   6.598
  816SOL    HW2 3348   5.683   4.570   6.620
  817SOL     OW 3349   0.908   4.492   6.786
  817SOL    HW1 3350   0.913   4.397   6.756
  817SOL    HW2 3351   0.993   4.539   6.763
  818SOL     OW 3352   6.258   2.947   4.340
  818SOL    HW1 3353   6.208   2.878   4.392
  818SOL    HW2 3354   6.351   2.957   4.377
  819SOL     OW 3355   5.388   2.728   2.309
  819SOL    HW1 3356   5.366   2.819   2.274
  819SOL    HW2 3357   5.375   2.660   2.237
  820SOL     OW 3358   2.156   2.161   5.146
  820SOL    HW1 3359   2.236   2.113   5.109
  820SOL    HW2 3360   2.126   2.230   5.081
  821SOL     OW 3361   5.931   3.679   5.354
  821SOL    HW1 3362   5.988   3.603   5.322
  821SOL    HW2 3363   5.880   3.650   5.435
  822SOL     OW 3364   0.779   3.961   3.161
  822SOL    HW1 3365   0.691   3.923   3.132
  822SOL    HW2 3366   0.768   4.004   3.251
  823SOL     OW 3367   0.672   4.056   5.356
  823SOL    HW1 3368   0.590   4.014   5.318
  823SOL    HW2 3369   0.705   4.000   5.432
  824SOL     OW 3370   5.801   1.838   5.494
  824SOL    HW1 3371   5.782   1.769   5.424
  824SOL    HW2 3372   5.714   1.877   5.525
  825SOL     OW 3373   6.748   5.888   0.932
  825SOL    HW1 3374   6.811   5.843   0.868
  825SOL    HW2 3375   6.757   5.987   0.924
  826SOL     OW 3376   3.466   1.031   5.547
  826SOL    HW1 3377   3.396   1.001   5.612
  826SOL    HW2 3378   3.543   1.070   5.597
  827SOL     OW 3379   3.755   4.159   4.571
  827SOL    HW1 3380   3.692   4.211   4.628
  827SOL    HW2 3381   3.815   4.104   4.628
  828SOL     OW 3382   6.530   5.969   5.283
  828SOL    HW1 3383   6.432   5.957   5.268
  828SOL    HW2 3384   6.569   5.885   5.322
  829SOL     OW 3385   3.021   3.133   2.757
  829SOL    HW1 3386   2.939   3.102   2.709
  829SOL    HW2 3387   3.091   3.061   2.754
  830SOL     OW 3388   6.548   4.371   0.053
  830SOL    HW1 3389   6.564   4.338   0.146
  830SOL    HW2 3390   6.495   4.456   0.056
  831SOL     OW 3391   5.045   6.440   1.359
  831SOL    HW1 3392   5.067   6.343   1.370
  831SOL    HW2 3393   5.030   6.461   1.262
  832SOL     OW 3394   3.138   2.171   4.605
  832SOL    HW1 3395   3.111   2.215   4.691
  832SOL    HW2 3396   3.233   2.139   4.614
  833SOL     OW 3397   2.377   3.091   6.465
  833SOL    HW1 3398   2.437   3.160   6.424
  833SOL    HW2 3399   2.422   3.002   6.462
  834SOL     OW 3400   5.263   3.623   0.012
  834SOL    HW1 3401   5.318   3.673   6.963
  834SOL    HW2 3402   5.323   3.583   0.081
  835SOL     OW 3403   0.633   6.779   4.320
  835SOL    HW1 3404   0.610   6.876   4.334
  835SOL    HW2 3405   0.562   6.734   4.267
  836SOL     OW 3406   3.615   1.515   4.651
  836SOL    HW1 3407   3.710   1.487   4.665
  836SOL    HW2 3408   3.613   1.596   4.592
  837SOL     OW 3409   1.785   0.694   0.481
  837SOL    HW1 3410   1.831   0.673   0.567
  837SOL    HW2 3411   1.729   0.777   0.493
  838SOL     OW 3412   2.141   5.849   3.226
  838SOL    HW1 3413   2.214   5.833   3.160
  838SOL    HW2 3414   2.174   5.828   3.318
  839SOL     OW 3415   1.372   2.193   0.283
  839SOL    HW1 3416   1.347   2.289   0.270
  839SOL    HW2 3417   1.464   2.177   0.250
  840SOL     OW 3418   5.032   5.529   6.962
  840SOL    HW1 3419   5.023   5.472   6.880
  840SOL    HW2 3420   4.943   5.542   7.004
  841SOL     OW 3421   3.979   4.517   6.436
  841SOL    HW1 3422   3.963   4.553   6.344
  841SOL    HW2 3423   3.938   4.426   6.443
  842SOL     OW 3424   3.210   6.753   6.795
  842SOL    HW1 3425   3.188   6.731   6.890
  842SOL    HW2 3426   3.154   6.830   6.764
  843SOL     OW 3427   1.674   1.310   2.509
  843SOL    HW1 3428   1.604   1.359   2.561
  843SOL    HW2 3429   1.689   1.356   2.422
  844SOL     OW 3430   5.988   0.537   1.354
  844SOL    HW1 3431   5.918   0.488   1.406
  844SOL    HW2 3432   6.021   0.479   1.280
  845SOL     OW 3433   3.654   1.492   2.420
  845SOL    HW1 3434   3.707   1.408   2.416
  845SOL    HW2 3435   3.682   1.553   2.346
  846SOL     OW 3436   2.831   2.389   0.170
  846SOL    HW1 3437   2.816   2.298   0.131
  846SOL    HW2 3438   2.917   2.389   0.222
  847SOL     OW 3439   2.527   4.708   1.607
  847SOL    HW1 3440   2.578   4.640   1.660
  847SOL    HW2 3441   2.453   4.663   1.558
  848SOL     OW 3442   6.857   5.552   6.647
  848SOL    HW1 3443   6.859   5.509   6.557
  848SOL    HW2 3444   6.817   5.487   6.713
  849SOL     OW 3445   5.997   3.359   6.960
  849SOL    HW1 3446   5.924   3.345   0.009
  849SOL    HW2 3447   6.030   3.453   6.967
  850SOL     OW 3448   0.646   0.437   5.351
  850SOL    HW1 3449   0.645   0.341   5.322
  850SOL    HW2 3450   0.563   0.457   5.404
  851SOL     OW 3451   6.636   3.255   6.092
  851SOL    HW1 3452   6.580   3.337   6.087
  851SOL    HW2 3453   6.578   3.175   6.108
  852SOL     OW 3454   0.842   4.272   2.270
  852SOL    HW1 3455   0.935   4.304   2.289
  852SOL    HW2 3456   0.798   4.334   2.205
  853SOL     OW 3457   2.713   3.866   0.057
  853SOL    HW1 3458   2.647   3.801   0.017
  853SOL    HW2 3459   2.663   3.937   0.107
  854SOL     OW 3460   5.481   6.368   6.505
  854SOL    HW1 3461   5.425   6.375   6.423
  854SOL    HW2 3462   5.458   6.443   6.567
  855SOL     OW 3463   6.109   1.114   0.248
  855SOL    HW1 3464   6.193   1.166   0.265
  855SOL    HW2 3465   6.113   1.026   0.295
  856SOL     OW 3466   2.044   6.084   0.486
  856SOL    HW1 3467   2.046   5.989   0.517
  856SOL    HW2 3468   2.036   6.087   0.387
  857SOL     OW 3469   6.170   5.026   5.253
  857SOL    HW1 3470   6.071   5.026   5.247
  857SOL    HW2 3471   6.198   5.003   5.346
  858SOL     OW 3472   4.085   3.549   0.205
  858SOL    HW1 3473   4.090   3.519   0.301
  858SOL    HW2 3474   4.171   3.595   0.180
  859SOL     OW 3475   4.207   6.415   5.740
  859SOL    HW1 3476   4.153   6.363   5.806
  859SOL    HW2 3477   4.146   6.462   5.676
  860SOL     OW 3478   5.574   3.428   5.732
  860SOL    HW1 3479   5.553   3.332   5.717
  860SOL    HW2 3480   5.512   3.466   5.801
  861SOL     OW 3481   2.488   6.226   2.415
  861SOL    HW1 3482   2.418   6.297   2.423
  861SOL    HW2 3483   2.526   6.228   2.323
  862SOL     OW 3484   1.356   4.662   3.733
  862SOL    HW1 3485   1.367   4.761   3.739
  862SOL    HW2 3486   1.297   4.640   3.655
  863SOL     OW 3487   6.942   0.610   6.778
  863SOL    HW1 3488   6.887   0.692   6.789
  863SOL    HW2 3489   0.015   0.626   6.814
  864SOL     OW 3490   5.701   0.352   4.758
  864SOL    HW1 3491   5.725   0.375   4.852
  864SOL    HW2 3492   5.751   0.411   4.695
  865SOL     OW 3493   1.966   6.307   4.415
  865SOL    HW1 3494   2.005   6.314   4.506
  865SOL    HW2 3495   1.873   6.342   4.416
  866SOL     OW 3496   3.012   6.374   2.085
  866SOL    HW1 3497   3.050   6.288   2.053
  866SOL    HW2 3498   3.083   6.445   2.083
  867SOL     OW 3499   6.186   2.163   6.985
  867SOL    HW1 3500   6.175   2.108   6.902
  867SOL    HW2 3501   6.098   2.171   0.013
  868SOL     OW 3502   0.314   2.093   2.519
  868SOL    HW1 3503   0.228   2.141   2.539
  868SOL    HW2 3504   0.383   2.159   2.489
  869SOL     OW 3505   6.871   3.972   3.169
  869SOL    HW1 3506   6.891   3.888   3.119
  869SOL    HW2 3507   6.841   4.043   3.106
  870SOL     OW 3508   3.607   5.167   1.934
  870SOL    HW1 3509   3.614   5.266   1.945
  870SOL    HW2 3510   3.535   5.132   1.993
  871SOL     OW 3511   4.423   1.866   3.617
  871SOL    HW1 3512   4.428   1.931   3.693
  871SOL    HW2 3513   4.397   1.776   3.653
  872SOL     OW 3514   6.852   3.035   4.771
  872SOL    HW1 3515   6.811   3.126   4.763
  872SOL    HW2 3516   6.795   2.969   4.721
  873SOL     OW 3517   4.763   6.298   6.340
  873SOL    HW1 3518   4.680   6.326   6.291
  873SOL    HW2 3519   4.791   6.371   6.402
  874SOL     OW 3520   5.032   4.367   0.537
  874SOL    HW1 3521   5.132   4.373   0.537
  874SOL    HW2 3522   4.997   4.387   0.628
  875SOL     OW 3523   5.041   5.494   0.651
  875SOL    HW1 3524   5.024   5.419   0.586
  875SOL    HW2 3525   5.139   5.500   0.670
  876SOL     OW 3526   0.071   6.630   1.436
  876SOL    HW1 3527   0.092   6.535   1.413
  876SOL    HW2 3528   0.151   6.688   1.415
  877SOL     OW 3529   2.798   3.918   6.811
  877SOL    HW1 3530   2.767   4.012   6.801
  877SOL    HW2 3531   2.777   3.886   6.904
  878SOL     OW 3532   4.116   6.759   4.522
  878SOL    HW1 3533   4.194   6.726   4.574
  878SOL    HW2 3534   4.035   6.760   4.580
  879SOL     OW 3535   5.995   0.713   0.775
  879SOL    HW1 3536   5.971   0.810   0.777
  879SOL    HW2 3537   5.981   0.674   0.866
  880SOL     OW 3538   2.975   3.765   2.745
  880SOL    HW1 3539   2.932   3.717   2.822
  880SOL    HW2 3540   3.044   3.828   2.780
  881SOL     OW 3541   4.557   2.087   6.404
  881SOL    HW1 3542   4.620   2.066   6.329
  881SOL    HW2 3543   4.547   2.187   6.411
  882SOL     OW 3544   0.945   3.504   4.536
  882SOL    HW1 3545   0.979   3.411   4.549
  882SOL    HW2 3546   0.915   3.541   4.624
  883SOL     OW 3547   2.681   0.239   2.643
  883SOL    HW1 3548   2.625   0.157   2.656
  883SOL    HW2 3549   2.777   0.212   2.635
  884SOL     OW 3550   4.538   2.624   4.969
  884SOL    HW1 3551   4.488   2.641   5.054
  884SOL    HW2 3552   4.633   2.656   4.979
  885SOL     OW 3553   3.427   1.738   6.349
  885SOL    HW1 3554   3.518   1.771   6.324
  885SOL    HW2 3555   3.361   1.812   6.340
  886SOL     OW 3556   3.484   0.467   0.158
  886SOL    HW1 3557   3.464   0.448   0.062
  886SOL    HW2 3558   3.580   0.444   0.177
  887SOL     OW 3559   4.313   0.675   3.976
  887SOL    HW1 3560   4.250   0.741   4.018
  887SOL    HW2 3561   4.268   0.629   3.901
  888SOL     OW 3562   0.263   0.501   3.280
  888SOL    HW1 3563   0.220   0.526   3.193
  888SOL    HW2 3564   0.290   0.405   3.277
  889SOL     OW 3565   0.837   3.873   0.043
  889SOL    HW1 3566   0.849   3.860   0.141
  889SOL    HW2 3567   0.817   3.785   7.018
  890SOL     OW 3568   2.287   5.865   3.943
  890SOL    HW1 3569   2.312   5.776   3.905
  890SOL    HW2 3570   2.370   5.916   3.967
  891SOL     OW 3571   5.830   5.751   0.733
  891SOL    HW1 3572   5.810   5.781   0.640
  891SOL    HW2 3573   5.900   5.811   0.773
  892SOL     OW 3574   2.808   3.915   5.963
  892SOL    HW1 3575   2.868   3.835   5.971
  892SOL    HW2 3576   2.863   3.998   5.964
  893SOL     OW 3577   2.734   6.600   2.702
  893SOL    HW1 3578   2.766   6.624   2.610
  893SOL    HW2 3579   2.763   6.670   2.767
  894SOL     OW 3580   1.549   4.140   1.615
  894SOL    HW1 3581   1.464   4.119   1.665
  894SOL    HW2 3582   1.614   4.065   1.626
  895SOL     OW 3583   0.264   6.192   3.334
  895SOL    HW1 3584   0.305   6.280   3.356
  895SOL    HW2 3585   0.335   6.121   3.333
  896SOL     OW 3586   6.320   6.183   6.178
  896SOL    HW1 3587   6.356   6.159   6.087
  896SOL    HW2 3588   6.383   6.247   6.222
  897SOL     OW 3589   5.506   0.830   6.637
  897SOL    HW1 3590   5.439   0.773   6.588
  897SOL    HW2 3591   5.557   0.773   6.702
  898SOL     OW 3592   3.374   5.574   2.748
  898SOL    HW1 3593   3.319   5.562   2.831
  898SOL    HW2 3594   3.397   5.484   2.710
  899SOL     OW 3595   0.327   4.896   6.139
  899SOL    HW1 3596   0.317   4.995   6.140
  899SOL    HW2 3597   0.238   4.853   6.124
  900SOL     OW 3598   6.026   0.103   0.834
  900SOL    HW1 3599   6.017   0.086   0.736
  900SOL    HW2 3600   5.963   0.177   0.861
  901SOL     OW 3601   1.977   1.186   2.242
  901SOL    HW1 3602   2.026   1.267   2.274
  901SOL    HW2 3603   1.932   1.141   2.318
  902SOL     OW 3604   6.270   4.293   1.275
  902SOL    HW1 3605   6.320   4.255   1.353
  902SOL    HW2 3606   6.287   4.392   1.270
  903SOL     OW 3607   6.852   1.861   0.240
  903SOL    HW1 3608   6.804   1.937   0.195
  903SOL    HW2 3609   6.893   1.893   0.325
  904SOL     OW 3610   3.428   2.041   3.569
  904SOL    HW1 3611   3.330   2.024   3.576
  904SOL    HW2 3612   3.454   2.113   3.634
  905SOL     OW 3613   6.061   2.684   0.278
  905SOL    HW1 3614   5.998   2.621   0.234
  905SOL    HW2 3615   6.155   2.649   0.268
  906SOL     OW 3616   0.133   2.894   5.403
  906SOL    HW1 3617   0.231   2.877   5.418
  906SOL    HW2 3618   0.081   2.811   5.422
  907SOL     OW 3619   4.758   3.468   0.021
  907SOL    HW1 3620   4.835   3.520   7.003
  907SOL    HW2 3621   4.684   3.466   6.973
  908SOL     OW 3622   2.777   4.780   2.090
  908SOL    HW1 3623   2.705   4.726   2.132
  908SOL    HW2 3624   2.815   4.731   2.011
  909SOL     OW 3625   4.808   5.105   6.355
  909SOL    HW1 3626   4.787   5.158   6.437
  909SOL    HW2 3627   4.808   5.166   6.275
  910SOL     OW 3628   2.747   2.996   1.555
  910SOL    HW1 3629   2.652   2.988   1.586
  910SOL    HW2 3630   2.757   2.949   1.467
  911SOL     OW 3631   1.811   5.424   6.384
  911SOL    HW1 3632   1.732   5.479   6.408
  911SOL    HW2 3633   1.891   5.483   6.371
  912SOL     OW 3634   4.856   2.526   3.453
  912SOL    HW1 3635   4.795   2.494   3.381
  912SOL    HW2 3636   4.809   2.519   3.541
  913SOL     OW 3637   5.264   6.798   3.085
  913SOL    HW1 3638   5.254   6.760   2.992
  913SOL    HW2 3639   5.359   6.790   3.114
  914SOL     OW 3640   2.582   0.161   6.815
  914SOL    HW1 3641   2.593   0.144   6.717
  914SOL    HW2 3642   2.608   0.079   6.866
  915SOL     OW 3643   6.081   5.985   0.763
  915SOL    HW1 3644   6.176   6.017   0.760
  915SOL    HW2 3645   6.037   6.006   0.676
  916SOL     OW 3646   0.791   2.156   2.387
  916SOL    HW1 3647   0.800   2.190   2.480
  916SOL    HW2 3648   0.798   2.232   2.323
  917SOL     OW 3649   0.154   7.016   0.700
  917SOL    HW1 3650   0.196   0.055   0.770
  917SOL    HW2 3651   0.150   0.048   0.614
  918SOL     OW 3652   1.686   6.205   0.804
  918SOL    HW1 3653   1.781   6.193   0.775
  918SOL    HW2 3654   1.676   6.293   0.850
  919SOL     OW 3655   5.963   1.753   3.647
  919SOL    HW1 3656   5.892   1.757   3.576
  919SOL    HW2 3657   6.002   1.661   3.650
  920SOL     OW 3658   2.762   5.067   2.092
  920SOL    HW1 3659   2.676   5.110   2.118
  920SOL    HW2 3660   2.751   4.967   2.094
  921SOL     OW 3661   4.944   5.955   4.466
  921SOL    HW1 3662   4.902   5.867   4.489
  921SOL    HW2 3663   4.924   5.978   4.370
  922SOL     OW 3664   3.917   3.672   3.816
  922SOL    HW1 3665   3.888   3.581   3.847
  922SOL    HW2 3666   3.876   3.741   3.874
  923SOL     OW 3667   2.244   2.945   5.542
  923SOL    HW1 3668   2.324   2.916   5.489
  923SOL    HW2 3669   2.161   2.920   5.492
  924SOL     OW 3670   6.972   3.714   2.511
  924SOL    HW1 3671   0.025   3.769   2.554
  924SOL    HW2 3672   6.912   3.773   2.457
  925SOL     OW 3673   5.863   1.642   0.296
  925SOL    HW1 3674   5.772   1.684   0.295
  925SOL    HW2 3675   5.933   1.714   0.299
  926SOL     OW 3676   0.797   1.300   1.825
  926SOL    HW1 3677   0.764   1.222   1.879
  926SOL    HW2 3678   0.727   1.325   1.758
  927SOL     OW 3679   5.520   4.065   3.651
  927SOL    HW1 3680   5.553   3.971   3.663
  927SOL    HW2 3681   5.570   4.126   3.712
  928SOL     OW 3682   3.006   5.871   6.850
  928SOL    HW1 3683   2.911   5.845   6.865
  928SOL    HW2 3684   3.048   5.809   6.784
  929SOL     OW 3685   6.591   1.352   5.774
  929SOL    HW1 3686   6.500   1.380   5.747
  929SOL    HW2 3687   6.644   1.327   5.692
  930SOL     OW 3688   5.024   5.083   6.701
  930SOL    HW1 3689   4.953   5.013   6.695
  930SOL    HW2 3690   5.053   5.108   6.608
  931SOL     OW 3691   6.285   2.522   3.437
  931SOL    HW1 3692   6.346   2.458   3.390
  931SOL    HW2 3693   6.248   2.587   3.371
  932SOL     OW 3694   3.643   0.655   3.864
  932SOL    HW1 3695   3.638   0.753   3.846
  932SOL    HW2 3696   3.738   0.630   3.883
  933SOL     OW 3697   1.389   4.985   2.678
  933SOL    HW1 3698   1.385   5.009   2.581
  933SOL    HW2 3699   1.317   5.033   2.728
  934SOL     OW 3700   1.701   5.071   6.637
  934SOL    HW1 3701   1.660   5.102   6.552
  934SOL    HW2 3702   1.666   4.980   6.660
  935SOL     OW 3703   5.381   3.413   3.392
  935SOL    HW1 3704   5.286   3.438   3.373
  935SOL    HW2 3705   5.432   3.408   3.306
  936SOL     OW 3706   1.650   0.166   6.727
  936SOL    HW1 3707   1.608   0.179   6.817
  936SOL    HW2 3708   1.614   0.236   6.664
  937SOL     OW 3709   5.166   1.171   5.605
  937SOL    HW1 3710   5.215   1.085   5.610
  937SOL    HW2 3711   5.219   1.237   5.552
  938SOL     OW 3712   5.935   5.385   4.381
  938SOL    HW1 3713   6.012   5.414   4.325
  938SOL    HW2 3714   5.862   5.453   4.373
  939SOL     OW 3715   0.375   6.989   5.093
  939SOL    HW1 3716   0.338   0.064   5.097
  939SOL    HW2 3717   0.300   6.925   5.078
  940SOL     OW 3718   2.032   4.962   0.457
  940SOL    HW1 3719   2.103   4.960   0.527
  940SOL    HW2 3720   1.950   5.007   0.494
  941SOL     OW 3721   3.549   0.284   6.428
  941SOL    HW1 3722   3.480   0.214   6.408
  941SOL    HW2 3723   3.634   0.259   6.381
  942SOL     OW 3724   0.456   5.270   0.664
  942SOL    HW1 3725   0.501   5.265   0.575
  942SOL    HW2 3726   0.360   5.242   0.654
  943SOL     OW 3727   3.064   4.971   2.925
  943SOL    HW1 3728   3.012   4.910   2.866
  943SOL    HW2 3729   3.040   5.066   2.905
  944SOL     OW 3730   0.792   6.572   4.465
  944SOL    HW1 3731   0.755   6.486   4.431
  944SOL    HW2 3732   0.771   6.645   4.401
  945SOL     OW 3733   0.546   5.581   6.189
  945SOL    HW1 3734   0.644   5.599   6.184
  945SOL    HW2 3735   0.528   5.487   6.158
  946SOL     OW 3736   5.141   3.611   3.672
  946SOL    HW1 3737   5.083   3.651   3.742
  946SOL    HW2 3738   5.106   3.521   3.647
  947SOL     OW 3739   3.934   3.990   4.661
  947SOL    HW1 3740   3.917   3.921   4.591
  947SOL    HW2 3741   4.012   4.046   4.635
  948SOL     OW 3742   4.810   0.902   2.924
  948SOL    HW1 3743   4.841   0.961   2.849
  948SOL    HW2 3744   4.744   0.953   2.980
  949SOL     OW 3745   2.863   6.360   6.769
  949SOL    HW1 3746   2.909   6.376   6.856
  949SOL    HW2 3747   2.900   6.277   6.727
  950SOL     OW 3748   0.377   6.649   2.173
  950SOL    HW1 3749   0.400   6.574   2.235
  950SOL    HW2 3750   0.458   6.708   2.162
  951SOL     OW 3751   2.049   6.760   3.144
  951SOL    HW1 3752   2.067   6.848   3.098
  951SOL    HW2 3753   1.967   6.719   3.105
  952SOL     OW 3754   3.287   1.364   1.979
  952SOL    HW1 3755   3.318   1.388   1.887
  952SOL    HW2 3756   3.356   1.391   2.046
  953SOL     OW 3757   6.225   4.836   5.013
  953SOL    HW1 3758   6.208   4.885   5.098
  953SOL    HW2 3759   6.273   4.896   4.949
  954SOL     OW 3760   4.799   6.040   2.415
  954SOL    HW1 3761   4.852   6.068   2.495
  954SOL    HW2 3762   4.820   6.102   2.339
  955SOL     OW 3763   1.642   4.033   0.458
  955SOL    HW1 3764   1.658   4.115   0.401
  955SOL    HW2 3765   1.559   4.046   0.511
  956SOL     OW 3766   6.093   0.650   1.795
  956SOL    HW1 3767   6.040   0.701   1.862
  956SOL    HW2 3768   6.105   0.556   1.826
  957SOL     OW 3769   6.326   2.569   3.964
  957SOL    HW1 3770   6.341   2.663   3.933
  957SOL    HW2 3771   6.235   2.561   4.005
  958SOL     OW 3772   5.227   0.320   1.783
  958SOL    HW1 3773   5.165   0.384   1.829
  958SOL    HW2 3774   5.309   0.369   1.753
  959SOL     OW 3775   3.837   6.533   4.243
  959SOL    HW1 3776   3.822   6.453   4.300
  959SOL    HW2 3777   3.766   6.538   4.173
  960SOL     OW 3778   0.919   0.481   6.950
  960SOL    HW1 3779   0.821   0.474   6.928
  960SOL    HW2 3780   0.946   0.404   7.007
  961SOL     OW 3781   3.852   6.997   2.712
  961SOL    HW1 3782   3.808   0.038   2.645
  961SOL    HW2 3783   3.884   0.033   2.790
  962SOL     OW 3784   6.524   0.162   4.555
  962SOL    HW1 3785   6.623   0.176   4.544
  962SOL    HW2 3786   6.476   0.247   4.537
  963SOL     OW 3787   5.037   2.795   0.787
  963SOL    HW1 3788   5.067   2.722   0.726
  963SOL    HW2 3789   4.938   2.802   0.784
  964SOL     OW 3790   4.465   4.371   5.284
  964SOL    HW1 3791   4.537   4.307   5.257
  964SOL    HW2 3792   4.390   4.367   5.217
  965SOL     OW 3793   5.745   2.699   3.986
  965SOL    HW1 3794   5.826   2.676   3.932
  965SOL    HW2 3795   5.670   2.722   3.925
  966SOL     OW 3796   5.331   1.886   4.319
  966SOL    HW1 3797   5.331   1.853   4.225
  966SOL    HW2 3798   5.321   1.985   4.319
  967SOL     OW 3799   5.680   4.031   6.404
  967SOL    HW1 3800   5.718   4.012   6.495
  967SOL    HW2 3801   5.585   4.000   6.401
  968SOL     OW 3802   3.830   0.301   1.970
  968SOL    HW1 3803   3.765   0.229   1.997
  968SOL    HW2 3804   3.834   0.370   2.042
  969SOL     OW 3805   3.312   3.896   5.708
  969SOL    HW1 3806   3.367   3.929   5.632
  969SOL    HW2 3807   3.316   3.962   5.783
  970SOL     OW 3808   5.584   0.525   5.936
  970SOL    HW1 3809   5.674   0.554   5.966
  970SOL    HW2 3810   5.515   0.552   6.004
  971SOL     OW 3811   5.471   4.002   2.933
  971SOL    HW1 3812   5.448   4.097   2.912
  971SOL    HW2 3813   5.387   3.949   2.945
  972SOL     OW 3814   0.124   2.722   0.949
  972SOL    HW1 3815   0.115   2.820   0.965
  972SOL    HW2 3816   0.191   2.706   0.877
  973SOL     OW 3817   0.004   3.467   6.214
  973SOL    HW1 3818   6.944   3.419   6.174
  973SOL    HW2 3819   0.042   3.530   6.146
  974SOL     OW 3820   0.073   5.716   3.906
  974SOL    HW1 3821   0.063   5.738   3.809
  974SOL    HW2 3822   0.055   5.798   3.961
  975SOL     OW 3823   2.790   6.809   2.045
  975SOL    HW1 3824   2.772   6.827   2.142
  975SOL    HW2 3825   2.704   6.783   2.000
  976SOL     OW 3826   6.849   3.934   2.386
  976SOL    HW1 3827   6.843   3.987   2.302
  976SOL    HW2 3828   6.777   3.962   2.449
  977SOL     OW 3829   0.084   1.027   2.642
  977SOL    HW1 3830   0.049   1.032   2.736
  977SOL    HW2 3831   0.094   0.932   2.615
  978SOL     OW 3832   5.494   2.933   2.045
  978SOL    HW1 3833   5.415   2.936   2.106
  978SOL    HW2 3834   5.574   2.903   2.097
  979SOL     OW 3835   0.093   3.837   0.037
  979SOL    HW1 3836   0.021   3.867   6.993
  979SOL    HW2 3837   0.052   3.794   0.117
  980SOL     OW 3838   3.385   1.586   4.854
  980SOL    HW1 3839   3.384   1.683   4.830
  980SOL    HW2 3840   3.445   1.536   4.791
  981SOL     OW 3841   6.547   6.516   5.376
  981SOL    HW1 3842   6.582   6.433   5.334
  981SOL    HW2 3843   6.493   6.567   5.309
  982SOL     OW 3844   6.654   1.323   5.228
  982SOL    HW1 3845   6.567   1.353   5.189
  982SOL    HW2 3846   6.695   1.254   5.169
  983SOL     OW 3847   6.847   4.531   4.311
  983SOL    HW1 3848   6.851   4.608   4.375
  983SOL    HW2 3849   6.753   4.518   4.279
  984SOL     OW 3850   1.198   2.124   2.993
  984SOL    HW1 3851   1.264   2.169   2.934
  984SOL    HW2 3852   1.164   2.041   2.949
  985SOL     OW 3853   6.687   4.030   4.688
  985SOL    HW1 3854   6.759   4.089   4.724
  985SOL    HW2 3855   6.607   4.035   4.747
  986SOL     OW 3856   5.445   4.930   1.120
  986SOL    HW1 3857   5.534   4.885   1.131
  986SOL    HW2 3858   5.424   4.982   1.202
  987SOL     OW 3859   5.480   5.365   3.854
  987SOL    HW1 3860   5.496   5.368   3.756
  987SOL    HW2 3861   5.403   5.304   3.874
  988SOL     OW 3862   3.068   4.167   1.301
  988SOL    HW1 3863   3.055   4.162   1.400
  988SOL    HW2 3864   3.124   4.248   1.279
  989SOL     OW 3865   0.401   1.456   1.294
  989SOL    HW1 3866   0.356   1.421   1.212
  989SOL    HW2 3867   0.343   1.438   1.374
  990SOL     OW 3868   4.166   6.959   3.488
  990SOL    HW1 3869   4.224   6.926   3.413
  990SOL    HW2 3870   4.083   7.000   3.452
  991SOL     OW 3871   6.958   4.816   4.074
  991SOL    HW1 3872   7.001   4.730   4.102
  991SOL    HW2 3873   0.009   4.887   4.066
  992SOL     OW 3874   0.283   2.599   1.561
  992SOL    HW1 3875   0.254   2.545   1.482
  992SOL    HW2 3876   0.357   2.551   1.609
  993SOL     OW 3877   1.594   5.223   0.589
  993SOL    HW1 3878   1.540   5.285   0.532
  993SOL    HW2 3879   1.611   5.266   0.678
  994SOL     OW 3880   3.032   6.809   0.297
  994SOL    HW1 3881   3.117   6.802   0.246
  994SOL    HW2 3882   2.985   6.894   0.275
  995SOL     OW 3883   5.660   3.088   5.908
  995SOL    HW1 3884   5.737   3.132   5.861
  995SOL    HW2 3885   5.692   3.050   5.995
  996SOL     OW 3886   3.951   6.098   5.930
  996SOL    HW1 3887   3.965   6.034   5.855
  996SOL    HW2 3888   3.857   6.131   5.929
  997SOL     OW 3889   1.649   5.681   3.925
  997SOL    HW1 3890   1.650   5.632   4.012
  997SOL    HW2 3891   1.716   5.640   3.863
  998SOL     OW 3892   6.313   0.150   6.528
  998SOL    HW1 3893   6.304   0.249   6.527
  998SOL    HW2 3894   6.255   0.112   6.601
  999SOL     OW 3895   4.806   3.807   1.809
  999SOL    HW1 3896   4.796   3.718   1.763
  999SOL    HW2 3897   4.760   3.877   1.755
 1000SOL     OW 3898   4.344   1.722   1.588
 1000SOL    HW1 3899   4.421   1.713   1.524
 1000SOL    HW2 3900   4.265   1.672   1.551
 1001SOL     OW 3901   2.800   6.375   2.270
 1001SOL    HW1 3902   2.736   6.299   2.255
 1001SOL    HW2 3903   2.871   6.373   2.200
 1002SOL     OW 3904   5.521   2.369   1.441
 1002SOL    HW1 3905   5.513   2.389   1.343
 1002SOL    HW2 3906   5.579   2.437   1.484
 1003SOL     OW 3907   0.557   0.035   3.003
 1003SOL    HW1 3908   0.633   7.017   3.057
 1003SOL    HW2 3909   0.477   6.993   3.013
 1004SOL     OW 3910   5.426   1.300   3.347
 1004SOL    HW1 3911   5.436   1.282   3.445
 1004SOL    HW2 3912   5.500   1.359   3.317
 1005SOL     OW 3913   1.330   4.366   3.657
 1005SOL    HW1 3914   1.336   4.405   3.749
 1005SOL    HW2 3915   1.255   4.410   3.607
 1006SOL     OW 3916   2.734   3.167   1.249
 1006SOL    HW1 3917   2.726   3.262   1.279
 1006SOL    HW2 3918   2.674   3.153   1.170
 1007SOL     OW 3919   4.890   1.126   6.433
 1007SOL    HW1 3920   4.944   1.046   6.458
 1007SOL    HW2 3921   4.813   1.135   6.497
 1008SOL     OW 3922   0.255   4.857   4.665
 1008SOL    HW1 3923   0.299   4.942   4.634
 1008SOL    HW2 3924   0.173   4.841   4.611
 1009SOL     OW 3925   6.545   5.208   6.669
 1009SOL    HW1 3926   6.499   5.147   6.605
 1009SOL    HW2 3927   6.620   5.255   6.622
 1010SOL     OW 3928   2.478   3.024   1.381
 1010SOL    HW1 3929   2.463   3.013   1.479
 1010SOL    HW2 3930   2.553   3.089   1.366
 1011SOL     OW 3931   0.195   4.921   2.752
 1011SOL    HW1 3932   0.129   4.933   2.825
 1011SOL    HW2 3933   0.209   4.823   2.736
 1012SOL     OW 3934   5.120   0.210   2.475
 1012SOL    HW1 3935   5.027   0.230   2.506
 1012SOL    HW2 3936   5.176   0.182   2.552
 1013SOL     OW 3937   6.487   0.758   6.408
 1013SOL    HW1 3938   6.575   0.715   6.387
 1013SOL    HW2 3939   6.492   0.804   6.497
 1014SOL     OW 3940   1.492   5.004   4.585
 1014SOL    HW1 3941   1.508   5.078   4.650
 1014SOL    HW2 3942   1.395   4.979   4.587
 1015SOL     OW 3943   3.418   6.124   6.995
 1015SOL    HW1 3944   3.496   6.131   0.038
 1015SOL    HW2 3945   3.365   6.042   7.018
 1016SOL     OW 3946   6.000   4.398   1.699
 1016SOL    HW1 3947   6.063   4.464   1.659
 1016SOL    HW2 3948   5.906   4.426   1.681
 1017SOL     OW 3949   2.312   1.728   2.616
 1017SOL    HW1 3950   2.229   1.781   2.596
 1017SOL    HW2 3951   2.287   1.632   2.627
 1018SOL     OW 3952   0.575   5.238   3.196
 1018SOL    HW1 3953   0.630   5.234   3.112
 1018SOL    HW2 3954   0.571   5.333   3.228
 1019SOL     OW 3955   0.295   5.121   0.901
 1019SOL    HW1 3956   0.336   5.052   0.841
 1019SOL    HW2 3957   0.335   5.210   0.882
 1020SOL     OW 3958   6.687   0.225   0.784
 1020SOL    HW1 3959   6.588   0.212   0.777
 1020SOL    HW2 3960   6.714   0.306   0.732
 1021SOL     OW 3961   6.245   6.239   1.543
 1021SOL    HW1 3962   6.183   6.202   1.612
 1021SOL    HW2 3963   6.333   6.192   1.549
 1022SOL     OW 3964   2.234   6.539   6.514
 1022SOL    HW1 3965   2.207   6.616   6.572
 1022SOL    HW2 3966   2.163   6.468   6.519
 1023SOL     OW 3967   1.023   1.834   3.719
 1023SOL    HW1 3968   0.951   1.873   3.662
 1023SOL    HW2 3969   1.082   1.775   3.663
 1024SOL     OW 3970   1.448   2.137   5.030
 1024SOL    HW1 3971   1.431   2.089   4.944
 1024SOL    HW2 3972   1.390   2.218   5.035
 1025SOL     OW 3973   4.751   3.540   0.390
 1025SOL    HW1 3974   4.835   3.578   0.352
 1025SOL    HW2 3975   4.773   3.477   0.464
 1026SOL     OW 3976   2.861   2.512   1.079
 1026SOL    HW1 3977   2.923   2.584   1.048
 1026SOL    HW2 3978   2.912   2.428   1.094
 1027SOL     OW 3979   0.292   6.321   1.142
 1027SOL    HW1 3980   0.250   6.325   1.233
 1027SOL    HW2 3981   0.380   6.367   1.145
 1028SOL     OW 3982   1.071   6.186   2.474
 1028SOL    HW1 3983   1.071   6.128   2.393
 1028SOL    HW2 3984   1.165   6.194   2.509
 1029SOL     OW 3985   1.205   1.496   6.170
 1029SOL    HW1 3986   1.180   1.566   6.237
 1029SOL    HW2 3987   1.130   1.430   6.161
 1030SOL     OW 3988   3.462   3.287   1.546
 1030SOL    HW1 3989   3.436   3.214   1.609
 1030SOL    HW2 3990   3.382   3.343   1.524
 1031SOL     OW 3991   3.208   3.399   1.529
 1031SOL    HW1 3992   3.157   3.342   1.464
 1031SOL    HW2 3993   3.176   3.493   1.522
 1032SOL     OW 3994   1.995   1.914   5.965
 1032SOL    HW1 3995   2.038   1.998   5.931
 1032SOL    HW2 3996   2.051   1.835   5.940
 1033SOL     OW 3997   0.611   6.414   1.905
 1033SOL    HW1 3998   0.578   6.329   1.946
 1033SOL    HW2 3999   0.709   6.407   1.888
 1034SOL     OW 4000   3.205   6.620   4.667
 1034SOL    HW1 4001   3.165   6.545   4.720
 1034SOL    HW2 4002   3.171   6.707   4.702
 1035SOL     OW 4003   0.741   2.268   5.924
 1035SOL    HW1 4004   0.766   2.330   5.998
 1035SOL    HW2 4005   0.822   2.247   5.869
 1036SOL     OW 4006   4.993   1.427   0.954
 1036SOL    HW1 4007   5.043   1.343   0.931
 1036SOL    HW2 4008   4.900   1.421   0.917
 1037SOL     OW 4009   1.250   2.750   2.988
 1037SOL    HW1 4010   1.230   2.654   2.969
 1037SOL    HW2 4011   1.228   2.806   2.908
 1038SOL     OW 4012   3.175   6.759   0.056
 1038SOL    HW1 4013   3.242   6.692   0.087
 1038SOL    HW2 4014   3.206   6.851   0.082
 1039SOL     OW 4015   3.754   2.917   3.387
 1039SOL    HW1 4016   3.717   2.932   3.478
 1039SOL    HW2 4017   3.830   2.852   3.392
 1040SOL     OW 4018   4.294   0.561   3.159
 1040SOL    HW1 4019   4.305   0.627   3.233
 1040SOL    HW2 4020   4.245   0.604   3.083
 1041SOL     OW 4021   6.739   6.330   5.980
 1041SOL    HW1 4022   6.812   6.263   5.992
 1041SOL    HW2 4023   6.676   6.298   5.909
 1042SOL     OW 4024   5.186   4.851   2.479
 1042SOL    HW1 4025   5.123   4.824   2.405
 1042SOL    HW2 4026   5.165   4.944   2.508
 1043SOL     OW 4027   3.530   1.785   4.009
 1043SOL    HW1 4028   3.529   1.885   4.013
 1043SOL    HW2 4029   3.620   1.751   4.034
 1044SOL     OW 4030   5.818   5.149   1.599
 1044SOL    HW1 4031   5.748   5.096   1.550
 1044SOL    HW2 4032   5.842   5.230   1.545
 1045SOL     OW 4033   2.263   0.469   3.602
 1045SOL    HW1 4034   2.254   0.558   3.648
 1045SOL    HW2 4035   2.174   0.438   3.571
 1046SOL     OW 4036   2.766   1.173   0.912
 1046SOL    HW1 4037   2.761   1.096   0.849
 1046SOL    HW2 4038   2.833   1.240   0.878
 1047SOL     OW 4039   3.674   6.711   2.963
 1047SOL    HW1 4040   3.770   6.696   2.985
 1047SOL    HW2 4041   3.621   6.628   2.983
 1048SOL     OW 4042   1.555   6.205   1.907
 1048SOL    HW1 4043   1.558   6.106   1.914
 1048SOL    HW2 4044   1.648   6.242   1.898
 1049SOL     OW 4045   4.303   6.270   5.298
 1049SOL    HW1 4046   4.388   6.253   5.249
 1049SOL    HW2 4047   4.321   6.267   5.397
 1050SOL     OW 4048   3.298   5.298   3.115
 1050SOL    HW1 4049   3.285   5.202   3.088
 1050SOL    HW2 4050   3.396   5.317   3.121
 1051SOL     OW 4051   0.154   0.227   6.970
 1051SOL    HW1 4052   0.221   0.174   0.004
 1051SOL    HW2 4053   0.102   0.285   0.014
 1052SOL     OW 4054   3.709   0.629   6.830
 1052SOL    HW1 4055   3.791   0.662   6.784
 1052SOL    HW2 4056   3.676   0.546   6.785
 1053SOL     OW 4057   6.046   2.998   2.832
 1053SOL    HW1 4058   6.084   3.078   2.787
 1053SOL    HW2 4059   5.946   3.005   2.836
 1054SOL     OW 4060   3.144   4.444   0.063
 1054SOL    HW1 4061   3.144   4.544   0.055
 1054SOL    HW2 4062   3.232   4.408   0.034
 1055SOL     OW 4063   4.687   5.997   6.914
 1055SOL    HW1 4064   4.659   6.068   6.979
 1055SOL    HW2 4065   4.776   5.961   6.941
 1056SOL     OW 4066   2.799   3.652   6.539
 1056SOL    HW1 4067   2.839   3.586   6.603
 1056SOL    HW2 4068   2.871   3.691   6.482
 1057SOL     OW 4069   3.315   1.640   1.475
 1057SOL    HW1 4070   3.237   1.695   1.506
 1057SOL    HW2 4071   3.348   1.584   1.551
 1058SOL     OW 4072   2.349   2.382   2.640
 1058SOL    HW1 4073   2.433   2.361   2.691
 1058SOL    HW2 4074   2.272   2.332   2.681
 1059SOL     OW 4075   2.569   6.216   1.464
 1059SOL    HW1 4076   2.586   6.314   1.468
 1059SOL    HW2 4077   2.654   6.168   1.440
 1060SOL     OW 4078   6.330   6.298   5.186
 1060SOL    HW1 4079   6.390   6.303   5.106
 1060SOL    HW2 4080   6.384   6.304   5.269
 1061SOL     OW 4081   6.775   4.116   0.075
 1061SOL    HW1 4082   6.773   4.172   0.158
 1061SOL    HW2 4083   6.745   4.171   7.016
 1062SOL     OW 4084   3.694   6.225   5.870
 1062SOL    HW1 4085   3.705   6.321   5.897
 1062SOL    HW2 4086   3.633   6.219   5.791
 1063SOL     OW 4087   1.923   6.251   5.816
 1063SOL    HW1 4088   1.872   6.337   5.826
 1063SOL    HW2 4089   1.861   6.180   5.782
 1064SOL     OW 4090   1.628   4.259   0.279
 1064SOL    HW1 4091   1.613   4.273   0.181
 1064SOL    HW2 4092   1.590   4.335   0.330
 1065SOL     OW 4093   4.495   0.325   4.292
 1065SOL    HW1 4094   4.479   0.227   4.286
 1065SOL    HW2 4095   4.588   0.345   4.262
 1066SOL     OW 4096   4.744   0.441   1.987
 1066SOL    HW1 4097   4.663   0.426   2.044
 1066SOL    HW2 4098   4.806   0.505   2.032
 1067SOL     OW 4099   2.754   0.929   0.328
 1067SOL    HW1 4100   2.721   1.023   0.337
 1067SOL    HW2 4101   2.741   0.898   0.234
 1068SOL     OW 4102   5.819   3.269   1.283
 1068SOL    HW1 4103   5.790   3.330   1.209
 1068SOL    HW2 4104   5.918   3.261   1.283
 1069SOL     OW 4105   6.622   4.226   1.615
 1069SOL    HW1 4106   6.641   4.259   1.708
 1069SOL    HW2 4107   6.594   4.130   1.618
 1070SOL     OW 4108   1.289   0.745   2.069
 1070SOL    HW1 4109   1.282   0.701   1.980
 1070SOL    HW2 4110   1.202   0.788   2.092
 1071SOL     OW 4111   6.534   2.709   5.614
 1071SOL    HW1 4112   6.516   2.791   5.669
 1071SOL    HW2 4113   6.591   2.734   5.535
 1072SOL     OW 4114   2.803   1.406   2.577
 1072SOL    HW1 4115   2.880   1.365   2.527
 1072SOL    HW2 4116   2.812   1.385   2.674
 1073SOL     OW 4117   5.144   1.285   3.430
 1073SOL    HW1 4118   5.216   1.303   3.363
 1073SOL    HW2 4119   5.076   1.223   3.390
 1074SOL     OW 4120   2.902   5.020   1.854
 1074SOL    HW1 4121   2.949   4.937   1.885
 1074SOL    HW2 4122   2.855   5.062   1.931
 1075SOL     OW 4123   5.814   3.145   5.107
 1075SOL    HW1 4124   5.790   3.118   5.200
 1075SOL    HW2 4125   5.786   3.074   5.043
 1076SOL     OW 4126   2.173   3.703   5.158
 1076SOL    HW1 4127   2.232   3.780   5.135
 1076SOL    HW2 4128   2.193   3.626   5.098
 1077SOL     OW 4129   0.206   6.851   0.145
 1077SOL    HW1 4130   0.130   6.827   0.205
 1077SOL    HW2 4131   0.192   6.811   0.055
 1078SOL     OW 4132   6.732   5.783   4.032
 1078SOL    HW1 4133   6.746   5.867   3.980
 1078SOL    HW2 4134   6.778   5.707   3.985
 1079SOL     OW 4135   0.827   6.080   2.532
 1079SOL    HW1 4136   0.806   6.058   2.437
 1079SOL    HW2 4137   0.922   6.109   2.540
 1080SOL     OW 4138   1.948   4.918   6.211
 1080SOL    HW1 4139   1.939   4.953   6.304
 1080SOL    HW2 4140   2.025   4.963   6.165
 1081SOL     OW 4141   6.272   5.807   4.421
 1081SOL    HW1 4142   6.229   5.723   4.455
 1081SOL    HW2 4143   6.371   5.803   4.438
 1082SOL     OW 4144   5.162   6.998   6.284
 1082SOL    HW1 4145   5.066   6.978   6.306
 1082SOL    HW2 4146   5.200   6.924   6.229
 1083SOL     OW 4147   5.121   4.487   1.008
 1083SOL    HW1 4148   5.142   4.570   0.956
 1083SOL    HW2 4149   5.054   4.433   0.958
 1084SOL     OW 4150   0.676   0.229   6.079
 1084SOL    HW1 4151   0.580   0.250   6.095
 1084SOL    HW2 4152   0.720   0.304   6.031
 1085SOL     OW 4153   2.026   3.894   4.040
 1085SOL    HW1 4154   2.018   3.983   3.996
 1085SOL    HW2 4155   2.108   3.892   4.097
 1086SOL     OW 4156   6.407   5.002   6.864
 1086SOL    HW1 4157   6.493   5.052   6.879
 1086SOL    HW2 4158   6.426   4.904   6.861
 1087SOL     OW 4159   2.132   0.484   5.120
 1087SOL    HW1 4160   2.089   0.465   5.031
 1087SOL    HW2 4161   2.206   0.419   5.136
 1088SOL     OW 4162   0.095   4.535   3.636
 1088SOL    HW1 4163   0.063   4.541   3.542
 1088SOL    HW2 4164   0.103   4.627   3.675
 1089SOL     OW 4165   6.576   4.316   4.586
 1089SOL    HW1 4166   6.542   4.383   4.652
 1089SOL    HW2 4167   6.542   4.225   4.610
 1090SOL     OW 4168   5.180   1.499   4.489
 1090SOL    HW1 4169   5.253   1.468   4.549
 1090SOL    HW2 4170   5.190   1.598   4.473
 1091SOL     OW 4171   2.239   2.764   3.164
 1091SOL    HW1 4172   2.308   2.709   3.211
 1091SOL    HW2 4173   2.247   2.859   3.195
 1092SOL     OW 4174   0.708   4.932   0.615
 1092SOL    HW1 4175   0.749   5.021   0.595
 1092SOL    HW2 4176   0.715   4.873   0.535
 1093SOL     OW 4177   2.378   6.841   1.659
 1093SOL    HW1 4178   2.310   6.769   1.676
 1093SOL    HW2 4179   2.459   6.801   1.617
 1094SOL     OW 4180   1.158   0.525   2.931
 1094SOL    HW1 4181   1.143   0.598   2.864
 1094SOL    HW2 4182   1.113   0.442   2.899
 1095SOL     OW 4183   0.188   3.388   0.381
 1095SOL    HW1 4184   0.093   3.417   0.398
 1095SOL    HW2 4185   0.197   3.355   0.287
 1096SOL     OW 4186   3.104   5.516   1.705
 1096SOL    HW1 4187   3.024   5.462   1.681
 1096SOL    HW2 4188   3.128   5.500   1.801
 1097SOL     OW 4189   3.053   5.385   3.762
 1097SOL    HW1 4190   2.955   5.376   3.778
 1097SOL    HW2 4191   3.102   5.307   3.800
 1098SOL     OW 4192   6.445   4.999   0.253
 1098SOL    HW1 4193   6.364   4.970   0.202
 1098SOL    HW2 4194   6.424   5.082   0.304
 1099SOL     OW 4195   4.663   0.761   6.076
 1099SOL    HW1 4196   4.676   0.685   6.139
 1099SOL    HW2 4197   4.640   0.844   6.127
 1100SOL     OW 4198   3.595   1.478   3.971
 1100SOL    HW1 4199   3.582   1.403   4.035
 1100SOL    HW2 4200   3.571   1.564   4.014
 1101SOL     OW 4201   6.469   2.952   5.743
 1101SOL    HW1 4202   6.415   2.989   5.668
 1101SOL    HW2 4203   6.441   2.995   5.829
 1102SOL     OW 4204   2.768   1.043   4.253
 1102SOL    HW1 4205   2.730   1.128   4.216
 1102SOL    HW2 4206   2.714   1.014   4.331
 1103SOL     OW 4207   3.290   0.349   6.603
 1103SOL    HW1 4208   3.277   0.266   6.548
 1103SOL    HW2 4209   3.267   0.331   6.698
 1104SOL     OW 4210   0.166   3.505   3.734
 1104SOL    HW1 4211   0.079   3.461   3.713
 1104SOL    HW2 4212   0.174   3.516   3.833
 1105SOL     OW 4213   5.137   0.970   4.951
 1105SOL    HW1 4214   5.096   0.978   5.042
 1105SOL    HW2 4215   5.150   0.873   4.929
 1106SOL     OW 4216   0.390   1.493   0.865
 1106SOL    HW1 4217   0.453   1.493   0.787
 1106SOL    HW2 4218   0.415   1.568   0.927
 1107SOL     OW 4219   1.288   0.924   0.124
 1107SOL    HW1 4220   1.335   0.998   0.075
 1107SOL    HW2 4221   1.196   0.914   0.087
 1108SOL     OW 4222   2.492   6.171   4.345
 1108SOL    HW1 4223   2.495   6.253   4.287
 1108SOL    HW2 4224   2.501   6.090   4.288
 1109SOL     OW 4225   5.404   1.546   4.628
 1109SOL    HW1 4226   5.388   1.644   4.627
 1109SOL    HW2 4227   5.495   1.526   4.593
 1110SOL     OW 4228   3.570   1.059   2.306
 1110SOL    HW1 4229   3.518   1.009   2.375
 1110SOL    HW2 4230   3.605   0.994   2.238
 1111SOL     OW 4231   5.041   3.732   6.162
 1111SOL    HW1 4232   4.945   3.737   6.133
 1111SOL    HW2 4233   5.053   3.656   6.226
 1112SOL     OW 4234   5.359   0.420   2.080
 1112SOL    HW1 4235   5.305   0.445   1.999
 1112SOL    HW2 4236   5.326   0.334   2.117
 1113SOL     OW 4237   6.009   4.520   2.622
 1113SOL    HW1 4238   6.077   4.491   2.556
 1113SOL    HW2 4239   5.986   4.443   2.682
 1114SOL     OW 4240   4.429   3.312   5.562
 1114SOL    HW1 4241   4.451   3.372   5.486
 1114SOL    HW2 4242   4.405   3.221   5.528
 1115SOL     OW 4243   3.272   4.353   5.840
 1115SOL    HW1 4244   3.179   4.332   5.872
 1115SOL    HW2 4245   3.288   4.307   5.752
 1116SOL     OW 4246   4.983   0.339   6.352
 1116SOL    HW1 4247   4.941   0.275   6.288
 1116SOL    HW2 4248   5.004   0.291   6.437
 1117SOL     OW 4249   1.209   3.137   1.766
 1117SOL    HW1 4250   1.288   3.099   1.814
 1117SOL    HW2 4251   1.240   3.181   1.681
 1118SOL     OW 4252   3.031   4.926   6.850
 1118SOL    HW1 4253   3.041   4.835   6.810
 1118SOL    HW2 4254   2.943   4.966   6.822
 1119SOL     OW 4255   3.846   5.177   3.501
 1119SOL    HW1 4256   3.825   5.110   3.429
 1119SOL    HW2 4257   3.935   5.219   3.481
 1120SOL     OW 4258   6.640   5.433   0.781
 1120SOL    HW1 4259   6.723   5.403   0.828
 1120SOL    HW2 4260   6.577   5.474   0.847
 1121SOL     OW 4261   6.746   5.044   4.752
 1121SOL    HW1 4262   6.799   4.997   4.682
 1121SOL    HW2 4263   6.800   5.118   4.791
 1122SOL     OW 4264   5.572   2.637   1.783
 1122SOL    HW1 4265   5.499   2.705   1.794
 1122SOL    HW2 4266   5.556   2.562   1.847
 1123SOL     OW 4267   4.191   2.294   3.204
 1123SOL    HW1 4268   4.124   2.220   3.196
 1123SOL    HW2 4269   4.219   2.302   3.300
 1124SOL     OW 4270   2.202   3.261   4.824
 1124SOL    HW1 4271   2.270   3.209   4.876
 1124SOL    HW2 4272   2.110   3.234   4.852
 1125SOL     OW 4273   1.247   3.826   3.874
 1125SOL    HW1 4274   1.333   3.871   3.898
 1125SOL    HW2 4275   1.193   3.886   3.816
 1126SOL     OW 4276   3.573   5.398   5.385
 1126SOL    HW1 4277   3.575   5.308   5.340
 1126SOL    HW2 4278   3.629   5.462   5.332
 1127SOL     OW 4279   5.818   6.769   3.137
 1127SOL    HW1 4280   5.858   6.790   3.048
 1127SOL    HW2 4281   5.720   6.751   3.126
 1128SOL     OW 4282   6.104   1.526   3.591
 1128SOL    HW1 4283   6.097   1.426   3.595
 1128SOL    HW2 4284   6.124   1.554   3.497
 1129SOL     OW 4285   1.762   0.503   1.057
 1129SOL    HW1 4286   1.832   0.453   1.006
 1129SOL    HW2 4287   1.806   0.565   1.122
 1130SOL     OW 4288   2.256   5.416   2.665
 1130SOL    HW1 4289   2.192   5.462   2.604
 1130SOL    HW2 4290   2.349   5.449   2.648
 1131SOL     OW 4291   1.605   6.216   4.335
 1131SOL    HW1 4292   1.646   6.247   4.421
 1131SOL    HW2 4293   1.669   6.233   4.260
 1132SOL     OW 4294   3.472   1.426   2.614
 1132SOL    HW1 4295   3.422   1.489   2.673
 1132SOL    HW2 4296   3.546   1.476   2.568
 1133SOL     OW 4297   1.539   6.530   5.116
 1133SOL    HW1 4298   1.468   6.479   5.069
 1133SOL    HW2 4299   1.539   6.625   5.085
 1134SOL     OW 4300   4.335   0.126   1.345
 1134SOL    HW1 4301   4.401   0.191   1.383
 1134SOL    HW2 4302   4.296   0.162   1.261
 1135SOL     OW 4303   2.062   5.910   3.819
 1135SOL    HW1 4304   2.033   6.004   3.835
 1135SOL    HW2 4305   2.157   5.899   3.849
 1136SOL     OW 4306   2.749   5.884   1.759
 1136SOL    HW1 4307   2.837   5.840   1.774
 1136SOL    HW2 4308   2.690   5.870   1.838
 1137SOL     OW 4309   0.278   5.546   5.899
 1137SOL    HW1 4310   0.319   5.599   5.825
 1137SOL    HW2 4311   0.183   5.525   5.875
 1138SOL     OW 4312   2.216   2.981   4.662
 1138SOL    HW1 4313   2.288   2.995   4.731
 1138SOL    HW2 4314   2.161   2.901   4.688
 1139SOL     OW 4315   2.843   5.270   3.867
 1139SOL    HW1 4316   2.854   5.171   3.856
 1139SOL    HW2 4317   2.871   5.296   3.960
 1140SOL     OW 4318   1.562   1.455   1.872
 1140SOL    HW1 4319   1.500   1.421   1.802
 1140SOL    HW2 4320   1.510   1.499   1.945
 1141SOL     OW 4321   6.503   4.236   6.304
 1141SOL    HW1 4322   6.544   4.206   6.390
 1141SOL    HW2 4323   6.409   4.203   6.299
 1142SOL     OW 4324   2.466   0.044   2.785
 1142SOL    HW1 4325   2.445   0.142   2.781
 1142SOL    HW2 4326   2.514   0.024   2.871
 1143SOL     OW 4327   1.124   3.663   1.767
 1143SOL    HW1 4328   1.106   3.750   1.720
 1143SOL    HW2 4329   1.223   3.648   1.773
 1144SOL     OW 4330   5.259   4.176   2.153
 1144SOL    HW1 4331   5.264   4.077   2.160
 1144SOL    HW2 4332   5.320   4.208   2.080
 1145SOL     OW 4333   0.598   1.529   0.327
 1145SOL    HW1 4334   0.680   1.555   0.274
 1145SOL    HW2 4335   0.517   1.566   0.281
 1146SOL     OW 4336   0.774   1.341   1.404
 1146SOL    HW1 4337   0.732   1.426   1.374
 1146SOL    HW2 4338   0.824   1.357   1.489
 1147SOL     OW 4339   3.250   6.756   1.138
 1147SOL    HW1 4340   3.217   6.849   1.123
 1147SOL    HW2 4341   3.344   6.759   1.172
 1148SOL     OW 4342   3.956   5.628   2.854
 1148SOL    HW1 4343   3.915   5.713   2.885
 1148SOL    HW2 4344   3.905   5.550   2.890
 1149SOL     OW 4345   4.876   2.321   1.707
 1149SOL    HW1 4346   4.962   2.360   1.740
 1149SOL    HW2 4347   4.828   2.276   1.783
 1150SOL     OW 4348   1.635   4.359   0.003
 1150SOL    HW1 4349   1.556   4.365   6.961
 1150SOL    HW2 4350   1.705   4.301   6.980
 1151SOL     OW 4351   6.519   5.465   3.913
 1151SOL    HW1 4352   6.486   5.559   3.921
 1151SOL    HW2 4353   6.443   5.402   3.928
 1152SOL     OW 4354   4.438   6.916   6.685
 1152SOL    HW1 4355   4.484   7.004   6.674
 1152SOL    HW2 4356   4.487   6.846   6.634
 1153SOL     OW 4357   6.469   0.545   1.346
 1153SOL    HW1 4358   6.384   0.571   1.392
 1153SOL    HW2 4359   6.464   0.450   1.317
 1154SOL     OW 4360   1.532   2.865   2.008
 1154SOL    HW1 4361   1.525   2.781   1.953
 1154SOL    HW2 4362   1.627   2.895   2.010
 1155SOL     OW 4363   2.562   6.213   4.886
 1155SOL    HW1 4364   2.501   6.225   4.964
 1155SOL    HW2 4365   2.598   6.120   4.885
 1156SOL     OW 4366   3.967   2.176   4.180
 1156SOL    HW1 4367   3.976   2.166   4.279
 1156SOL    HW2 4368   3.951   2.273   4.158
 1157SOL     OW 4369   3.548   0.681   5.502
 1157SOL    HW1 4370   3.621   0.743   5.473
 1157SOL    HW2 4371   3.478   0.733   5.551
 1158SOL     OW 4372   5.992   6.214   3.128
 1158SOL    HW1 4373   5.958   6.301   3.093
 1158SOL    HW2 4374   6.047   6.230   3.210
 1159SOL     OW 4375   6.318   6.337   2.352
 1159SOL    HW1 4376   6.312   6.275   2.430
 1159SOL    HW2 4377   6.342   6.285   2.270
 1160SOL     OW 4378   5.017   0.959   0.173
 1160SOL    HW1 4379   5.037   0.890   0.243
 1160SOL    HW2 4380   5.061   1.045   0.198
 1161SOL     OW 4381   0.500   5.617   6.710
 1161SOL    HW1 4382   0.454   5.541   6.665
 1161SOL    HW2 4383   0.528   5.590   6.802
 1162SOL     OW 4384   2.184   2.689   5.134
 1162SOL    HW1 4385   2.112   2.639   5.182
 1162SOL    HW2 4386   2.164   2.787   5.136
 1163SOL     OW 4387   6.218   4.256   1.867
 1163SOL    HW1 4388   6.216   4.233   1.965
 1163SOL    HW2 4389   6.127   4.241   1.829
 1164SOL     OW 4390   4.919   1.769   4.384
 1164SOL    HW1 4391   4.957   1.778   4.292
 1164SOL    HW2 4392   4.983   1.809   4.451
 1165SOL     OW 4393   3.763   6.451   3.576
 1165SOL    HW1 4394   3.797   6.454   3.669
 1165SOL    HW2 4395   3.695   6.523   3.563
 1166SOL     OW 4396   2.127   5.941   7.009
 1166SOL    HW1 4397   2.168   5.850   7.007
 1166SOL    HW2 4398   2.104   5.969   6.916
 1167SOL     OW 4399   5.418   4.720   2.602
 1167SOL    HW1 4400   5.425   4.799   2.662
 1167SOL    HW2 4401   5.374   4.746   2.516
 1168SOL     OW 4402   6.129   2.428   3.183
 1168SOL    HW1 4403   6.181   2.345   3.205
 1168SOL    HW2 4404   6.037   2.421   3.220
 1169SOL     OW 4405   5.716   0.703   4.781
 1169SOL    HW1 4406   5.736   0.723   4.686
 1169SOL    HW2 4407   5.629   0.653   4.787
 1170SOL     OW 4408   4.756   6.799   3.624
 1170SOL    HW1 4409   4.673   6.782   3.572
 1170SOL    HW2 4410   4.824   6.842   3.564
 1171SOL     OW 4411   1.590   0.548   1.602
 1171SOL    HW1 4412   1.539   0.635   1.598
 1171SOL    HW2 4413   1.528   0.475   1.632
 1172SOL     OW 4414   6.952   3.444   6.659
 1172SOL    HW1 4415   0.005   3.509   6.685
 1172SOL    HW2 4416   6.908   3.473   6.575
 1173SOL     OW 4417   2.893   1.804   1.111
 1173SOL    HW1 4418   2.873   1.707   1.101
 1173SOL    HW2 4419   2.954   1.832   1.037
 1174SOL     OW 4420   3.623   3.778   1.173
 1174SOL    HW1 4421   3.539   3.734   1.140
 1174SOL    HW2 4422   3.675   3.711   1.227
 1175SOL     OW 4423   3.556   3.331   4.946
 1175SOL    HW1 4424   3.622   3.401   4.918
 1175SOL    HW2 4425   3.489   3.316   4.873
 1176SOL     OW 4426   5.300   3.954   6.500
 1176SOL    HW1 4427   5.246   4.038   6.494
 1176SOL    HW2 4428   5.284   3.897   6.420
 1177SOL     OW 4429   6.399   2.715   4.667
 1177SOL    HW1 4430   6.494   2.745   4.666
 1177SOL    HW2 4431   6.351   2.756   4.744
 1178SOL     OW 4432   2.742   4.563   0.079
 1178SOL    HW1 4433   2.838   4.549   0.103
 1178SOL    HW2 4434   2.725   4.530   7.005
 1179SOL     OW 4435   2.471   4.941   0.708
 1179SOL    HW1 4436   2.481   5.036   0.740
 1179SOL    HW2 4437   2.550   4.888   0.739
 1180SOL     OW 4438   2.783   5.621   0.612
 1180SOL    HW1 4439   2.809   5.555   0.542
 1180SOL    HW2 4440   2.837   5.606   0.694
 1181SOL     OW 4441   0.163   5.895   6.636
 1181SOL    HW1 4442   0.244   5.860   6.683
 1181SOL    HW2 4443   0.081   5.875   6.689
 1182SOL     OW 4444   4.128   5.164   2.902
 1182SOL    HW1 4445   4.102   5.228   2.974
 1182SOL    HW2 4446   4.170   5.214   2.826
 1183SOL     OW 4447   1.924   3.880   6.459
 1183SOL    HW1 4448   1.862   3.802   6.452
 1183SOL    HW2 4449   1.981   3.885   6.377
 1184SOL     OW 4450   1.599   0.040   4.939
 1184SOL    HW1 4451   1.583   0.081   5.029
 1184SOL    HW2 4452   1.596   0.112   4.869
 1185SOL     OW 4453   6.852   1.071   0.049
 1185SOL    HW1 4454   6.879   1.158   0.008
 1185SOL    HW2 4455   6.753   1.061   0.043
 1186SOL     OW 4456   4.814   6.155   4.638
 1186SOL    HW1 4457   4.748   6.161   4.563
 1186SOL    HW2 4458   4.883   6.086   4.616
 1187SOL     OW 4459   6.467   0.129   5.882
 1187SOL    HW1 4460   6.377   0.087   5.873
 1187SOL    HW2 4461   6.508   0.102   5.969
 1188SOL     OW 4462   2.701   6.438   4.974
 1188SOL    HW1 4463   2.631   6.369   4.954
 1188SOL    HW2 4464   2.728   6.484   4.890
 1189SOL     OW 4465   6.252   3.361   3.140
 1189SOL    HW1 4466   6.204   3.294   3.197
 1189SOL    HW2 4467   6.351   3.352   3.155
 1190SOL     OW 4468   2.000   6.388   2.695
 1190SOL    HW1 4469   2.063   6.330   2.746
 1190SOL    HW2 4470   1.920   6.409   2.751
 1191SOL     OW 4471   4.554   5.176   3.220
 1191SOL    HW1 4472   4.487   5.193   3.149
 1191SOL    HW2 4473   4.560   5.078   3.239
 1192SOL     OW 4474   4.048   5.948   2.583
 1192SOL    HW1 4475   4.080   6.028   2.533
 1192SOL    HW2 4476   4.079   5.951   2.677
 1193SOL     OW 4477   6.071   4.903   4.235
 1193SOL    HW1 4478   6.151   4.919   4.177
 1193SOL    HW2 4479   6.007   4.979   4.225
 1194SOL     OW 4480   4.905   0.400   1.317
 1194SOL    HW1 4481   4.834   0.331   1.304
 1194SOL    HW2 4482   4.903   0.433   1.411
 1195SOL     OW 4483   6.218   3.817   2.102
 1195SOL    HW1 4484   6.153   3.764   2.048
 1195SOL    HW2 4485   6.171   3.892   2.147
 1196SOL     OW 4486   6.400   6.523   3.680
 1196SOL    HW1 4487   6.491   6.555   3.655
 1196SOL    HW2 4488   6.408   6.452   3.751
 1197SOL     OW 4489   3.680   6.745   0.399
 1197SOL    HW1 4490   3.675   6.844   0.399
 1197SOL    HW2 4491   3.592   6.707   0.369
 1198SOL     OW 4492   1.587   2.048   0.926
 1198SOL    HW1 4493   1.645   2.088   0.997
 1198SOL    HW2 4494   1.537   2.121   0.880
 1199SOL     OW 4495   4.820   5.253   1.338
 1199SOL    HW1 4496   4.912   5.285   1.361
 1199SOL    HW2 4497   4.787   5.302   1.257
 1200SOL     OW 4498   2.926   3.312   2.377
 1200SOL    HW1 4499   2.838   3.356   2.362
 1200SOL    HW2 4500   2.998   3.382   2.382
 1201SOL     OW 4501   1.387   1.799   4.611
 1201SOL    HW1 4502   1.416   1.862   4.539
 1201SOL    HW2 4503   1.450   1.722   4.617
 1202SOL     OW 4504   0.499   5.265   6.455
 1202SOL    HW1 4505   0.591   5.254   6.494
 1202SOL    HW2 4506   0.439   5.307   6.522
 1203SOL     OW 4507   4.778   5.995   5.866
 1203SOL    HW1 4508   4.713   5.938   5.817
 1203SOL    HW2 4509   4.810   5.947   5.948
 1204SOL     OW 4510   2.548   0.917   2.217
 1204SOL    HW1 4511   2.461   0.869   2.203
 1204SOL    HW2 4512   2.539   1.012   2.188
 1205SOL     OW 4513   5.373   3.940   1.434
 1205SOL    HW1 4514   5.289   3.949   1.487
 1205SOL    HW2 4515   5.380   3.846   1.399
 1206SOL     OW 4516   2.975   3.337   4.709
 1206SOL    HW1 4517   2.977   3.358   4.806
 1206SOL    HW2 4518   2.955   3.420   4.657
 1207SOL     OW 4519   2.266   6.334   1.693
 1207SOL    HW1 4520   2.324   6.324   1.773
 1207SOL    HW2 4521   2.272   6.251   1.637
 1208SOL     OW 4522   3.645   3.200   0.451
 1208SOL    HW1 4523   3.659   3.172   0.546
 1208SOL    HW2 4524   3.649   3.119   0.391
 1209SOL     OW 4525   3.577   6.989   5.613
 1209SOL    HW1 4526   3.490   6.953   5.645
 1209SOL    HW2 4527   3.616   6.927   5.545
 1210SOL     OW 4528   3.140   0.020   3.203
 1210SOL    HW1 4529   3.225   0.053   3.162
 1210SOL    HW2 4530   3.158   6.954   3.254
 1211SOL     OW 4531   1.098   4.052   1.211
 1211SOL    HW1 4532   1.088   4.147   1.184
 1211SOL    HW2 4533   1.097   3.993   1.130
 1212SOL     OW 4534   0.183   0.130   6.708
 1212SOL    HW1 4535   0.172   0.189   6.788
 1212SOL    HW2 4536   0.231   0.180   6.636
 1213SOL     OW 4537   5.581   2.634   0.792
 1213SOL    HW1 4538   5.613   2.541   0.810
 1213SOL    HW2 4539   5.549   2.675   0.878
 1214SOL     OW 4540   6.775   2.260   1.102
 1214SOL    HW1 4541   6.834   2.288   1.026
 1214SOL    HW2 4542   6.815   2.181   1.148
 1215SOL     OW 4543   1.197   5.014   4.498
 1215SOL    HW1 4544   1.120   5.019   4.562
 1215SOL    HW2 4545   1.198   4.925   4.453
 1216SOL     OW 4546   4.398   0.292   6.241
 1216SOL    HW1 4547   4.452   0.211   6.221
 1216SOL    HW2 4548   4.444   0.373   6.206
 1217SOL     OW 4549   2.326   4.487   0.809
 1217SOL    HW1 4550   2.407   4.430   0.795
 1217SOL    HW2 4551   2.345   4.556   0.879
 1218SOL     OW 4552   1.251   4.182   3.990
 1218SOL    HW1 4553   1.305   4.239   4.051
 1218SOL    HW2 4554   1.310   4.144   3.918
 1219SOL     OW 4555   3.982   6.466   1.730
 1219SOL    HW1 4556   3.919   6.389   1.719
 1219SOL    HW2 4557   4.062   6.452   1.672
 1220SOL     OW 4558   1.290   4.862   2.959
 1220SOL    HW1 4559   1.196   4.827   2.959
 1220SOL    HW2 4560   1.310   4.904   3.047
 1221SOL     OW 4561   5.821   3.190   5.691
 1221SOL    HW1 4562   5.831   3.253   5.614
 1221SOL    HW2 4563   5.789   3.101   5.658
 1222SOL     OW 4564   6.573   6.484   6.886
 1222SOL    HW1 4565   6.549   6.523   6.975
 1222SOL    HW2 4566   6.619   6.554   6.831
 1223SOL     OW 4567   3.010   0.133   0.652
 1223SOL    HW1 4568   3.079   0.137   0.580
 1223SOL    HW2 4569   3.035   0.063   0.719
 1224SOL     OW 4570   2.527   0.437   0.964
 1224SOL    HW1 4571   2.452   0.379   0.998
 1224SOL    HW2 4572   2.489   0.518   0.920
 1225SOL     OW 4573   3.269   4.086   6.408
 1225SOL    HW1 4574   3.214   4.008   6.378
 1225SOL    HW2 4575   3.327   4.117   6.332
 1226SOL     OW 4576   2.154   5.193   1.537
 1226SOL    HW1 4577   2.095   5.166   1.460
 1226SOL    HW2 4578   2.159   5.117   1.602
 1227SOL     OW 4579   6.944   3.935   6.640
 1227SOL    HW1 4580   6.928   3.841   6.671
 1227SOL    HW2 4581   6.952   3.996   6.719
 1228SOL     OW 4582   3.786   2.629   6.098
 1228SOL    HW1 4583   3.873   2.668   6.129
 1228SOL    HW2 4584   3.711   2.670   6.150
 1229SOL     OW 4585   4.208   4.522   6.603
 1229SOL    HW1 4586   4.133   4.538   6.539
 1229SOL    HW2 4587   4.272   4.598   6.598
 1230SOL     OW 4588   4.302   6.560   3.583
 1230SOL    HW1 4589   4.304   6.531   3.487
 1230SOL    HW2 4590   4.243   6.639   3.592
 1231SOL     OW 4591   2.023   3.150   4.999
 1231SOL    HW1 4592   1.994   3.228   5.054
 1231SOL    HW2 4593   1.942   3.103   4.962
 1232SOL     OW 4594   1.224   2.464   5.359
 1232SOL    HW1 4595   1.217   2.564   5.360
 1232SOL    HW2 4596   1.167   2.427   5.286
 1233SOL     OW 4597   0.744   3.175   5.378
 1233SOL    HW1 4598   0.784   3.226   5.455
 1233SOL    HW2 4599   0.707   3.088   5.411
 1234SOL     OW 4600   5.795   4.534   4.784
 1234SOL    HW1 4601   5.768   4.575   4.696
 1234SOL    HW2 4602   5.842   4.603   4.840
 1235SOL     OW 4603   6.382   6.019   3.420
 1235SOL    HW1 4604   6.445   5.991   3.493
 1235SOL    HW2 4605   6.392   5.956   3.343
 1236SOL     OW 4606   5.721   0.732   6.818
 1236SOL    HW1 4607   5.768   0.754   6.732
 1236SOL    HW2 4608   5.753   0.793   6.890
 1237SOL     OW 4609   2.799   4.194   6.848
 1237SOL    HW1 4610   2.802   4.288   6.816
 1237SOL    HW2 4611   2.867   4.181   6.920
 1238SOL     OW 4612   1.847   1.725   0.770
 1238SOL    HW1 4613   1.818   1.778   0.690
 1238SOL    HW2 4614   1.772   1.665   0.798
 1239SOL     OW 4615   6.643   6.005   6.775
 1239SOL    HW1 4616   6.588   6.082   6.741
 1239SOL    HW2 4617   6.614   5.982   6.868
 1240SOL     OW 4618   4.780   5.925   1.947
 1240SOL    HW1 4619   4.704   5.860   1.948
 1240SOL    HW2 4620   4.754   6.006   1.895
 1241SOL     OW 4621   6.735   3.958   4.406
 1241SOL    HW1 4622   6.672   3.881   4.403
 1241SOL    HW2 4623   6.776   3.964   4.498
 1242SOL     OW 4624   2.092   3.813   0.487
 1242SOL    HW1 4625   2.108   3.789   0.582
 1242SOL    HW2 4626   2.035   3.743   0.444
 1243SOL     OW 4627   2.083   5.366   5.667
 1243SOL    HW1 4628   2.058   5.298   5.598
 1243SOL    HW2 4629   2.057   5.457   5.634
 1244SOL     OW 4630   0.386   0.951   3.464
 1244SOL    HW1 4631   0.446   0.951   3.544
 1244SOL    HW2 4632   0.392   0.863   3.417
 1245SOL     OW 4633   3.169   3.476   0.126
 1245SOL    HW1 4634   3.246   3.478   0.190
 1245SOL    HW2 4635   3.083   3.479   0.177
 1246SOL     OW 4636   2.009   6.481   2.187
 1246SOL    HW1 4637   2.086   6.454   2.129
 1246SOL    HW2 4638   1.947   6.404   2.199
 1247SOL     OW 4639   2.195   6.516   5.912
 1247SOL    HW1 4640   2.285   6.548   5.941
 1247SOL    HW2 4641   2.202   6.475   5.821
 1248SOL     OW 4642   2.025   5.506   3.430
 1248SOL    HW1 4643   1.943   5.541   3.474
 1248SOL    HW2 4644   2.000   5.452   3.350
 1249SOL     OW 4645   5.716   3.283   3.444
 1249SOL    HW1 4646   5.622   3.320   3.441
 1249SOL    HW2 4647   5.765   3.324   3.520
 1250SOL     OW 4648   1.194   4.646   3.951
 1250SOL    HW1 4649   1.143   4.563   3.927
 1250SOL    HW2 4650   1.261   4.666   3.879
 1251SOL     OW 4651   3.848   0.356   4.779
 1251SOL    HW1 4652   3.812   0.378   4.689
 1251SOL    HW2 4653   3.925   0.417   4.800
 1252SOL     OW 4654   3.052   4.080   5.717
 1252SOL    HW1 4655   3.136   4.100   5.666
 1252SOL    HW2 4656   3.014   3.994   5.684
 1253SOL     OW 4657   4.093   5.127   2.435
 1253SOL    HW1 4658   4.102   5.202   2.500
 1253SOL    HW2 4659   4.094   5.163   2.342
 1254SOL     OW 4660   6.372   2.090   2.962
 1254SOL    HW1 4661   6.273   2.076   2.954
 1254SOL    HW2 4662   6.404   2.051   3.048
 1255SOL     OW 4663   6.685   6.812   6.040
 1255SOL    HW1 4664   6.781   6.807   6.011
 1255SOL    HW2 4665   6.664   6.905   6.070
 1256SOL     OW 4666   5.928   0.339   3.476
 1256SOL    HW1 4667   5.976   0.425   3.465
 1256SOL    HW2 4668   5.894   0.332   3.570
 1257SOL     OW 4669   6.616   0.617   3.779
 1257SOL    HW1 4670   6.660   0.610   3.689
 1257SOL    HW2 4671   6.663   0.686   3.834
 1258SOL     OW 4672   0.575   6.868   3.335
 1258SOL    HW1 4673   0.665   6.907   3.355
 1258SOL    HW2 4674   0.503   6.932   3.364
 1259SOL     OW 4675   3.724   1.837   4.815
 1259SOL    HW1 4676   3.807   1.880   4.851
 1259SOL    HW2 4677   3.690   1.890   4.737
 1260SOL     OW 4678   0.893   1.351   0.210
 1260SOL    HW1 4679   0.971   1.304   0.252
 1260SOL    HW2 4680   0.840   1.285   0.156
 1261SOL     OW 4681   6.976   4.927   0.266
 1261SOL    HW1 4682   0.030   4.909   0.199
 1261SOL    HW2 4683   6.888   4.927   0.219
 1262SOL     OW 4684   5.456   5.738   1.529
 1262SOL    HW1 4685   5.461   5.806   1.603
 1262SOL    HW2 4686   5.548   5.710   1.504
 1263SOL     OW 4687   1.584   2.668   3.665
 1263SOL    HW1 4688   1.640   2.693   3.586
 1263SOL    HW2 4689   1.643   2.650   3.744
 1264SOL     OW 4690   0.943   2.604   4.897
 1264SOL    HW1 4691   0.883   2.676   4.862
 1264SOL    HW2 4692   0.900   2.515   4.887
 1265SOL     OW 4693   5.924   6.338   5.031
 1265SOL    HW1 4694   6.005   6.385   5.066
 1265SOL    HW2 4695   5.854   6.335   5.102
 1266SOL     OW 4696   1.718   0.407   4.806
 1266SOL    HW1 4697   1.723   0.451   4.896
 1266SOL    HW2 4698   1.732   0.476   4.735
 1267SOL     OW 4699   4.137   0.087   2.486
 1267SOL    HW1 4700   4.195   0.149   2.434
 1267SOL    HW2 4701   4.122   0.003   2.432
 1268SOL     OW 4702   4.306   2.423   5.382
 1268SOL    HW1 4703   4.398   2.461   5.373
 1268SOL    HW2 4704   4.251   2.450   5.303
 1269SOL     OW 4705   6.334   2.614   4.343
 1269SOL    HW1 4706   6.403   2.680   4.372
 1269SOL    HW2 4707   6.321   2.621   4.244
 1270SOL     OW 4708   0.092   4.841   3.371
 1270SOL    HW1 4709   0.007   4.894   3.377
 1270SOL    HW2 4710   0.155   4.887   3.308
 1271SOL     OW 4711   1.355   1.399   1.660
 1271SOL    HW1 4712   1.434   1.366   1.609
 1271SOL    HW2 4713   1.291   1.324   1.675
 1272SOL     OW 4714   6.788   4.124   0.431
 1272SOL    HW1 4715   6.752   4.197   0.373
 1272SOL    HW2 4716   6.724   4.106   0.506
 1273SOL     OW 4717   1.561   4.743   5.297
 1273SOL    HW1 4718   1.468   4.777   5.311
 1273SOL    HW2 4719   1.590   4.764   5.203
 1274SOL     OW 4720   0.852   5.124   2.642
 1274SOL    HW1 4721   0.905   5.207   2.658
 1274SOL    HW2 4722   0.832   5.115   2.545
 1275SOL     OW 4723   3.004   0.733   2.649
 1275SOL    HW1 4724   2.949   0.815   2.657
 1275SOL    HW2 4725   2.976   0.667   2.719
 1276SOL     OW 4726   5.232   4.386   4.018
 1276SOL    HW1 4727   5.325   4.351   4.025
 1276SOL    HW2 4728   5.210   4.404   3.922
 1277SOL     OW 4729   0.297   6.346   0.596
 1277SOL    HW1 4730   0.275   6.287   0.673
 1277SOL    HW2 4731   0.357   6.420   0.626
 1278SOL     OW 4732   1.326   5.875   2.501
 1278SOL    HW1 4733   1.240   5.830   2.522
 1278SOL    HW2 4734   1.370   5.905   2.586
 1279SOL     OW 4735   2.564   1.773   6.851
 1279SOL    HW1 4736   2.465   1.785   6.845
 1279SOL    HW2 4737   2.605   1.791   6.762
 1280SOL     OW 4738   2.670   1.830   3.417
 1280SOL    HW1 4739   2.592   1.893   3.424
 1280SOL    HW2 4740   2.649   1.758   3.351
 1281SOL     OW 4741   4.047   5.886   4.027
 1281SOL    HW1 4742   3.998   5.817   3.975
 1281SOL    HW2 4743   4.126   5.845   4.072
 1282SOL     OW 4744   0.258   2.679   1.183
 1282SOL    HW1 4745   0.206   2.622   1.247
 1282SOL    HW2 4746   0.197   2.750   1.145
 1283SOL     OW 4747   6.580   3.198   5.106
 1283SOL    HW1 4748   6.672   3.161   5.107
 1283SOL    HW2 4749   6.584   3.297   5.093
 1284SOL     OW 4750   4.132   1.580   1.504
 1284SOL    HW1 4751   4.040   1.599   1.538
 1284SOL    HW2 4752   4.169   1.499   1.551
 1285SOL     OW 4753   3.462   1.079   4.802
 1285SOL    HW1 4754   3.424   0.987   4.816
 1285SOL    HW2 4755   3.532   1.097   4.871
 1286SOL     OW 4756   4.610   2.165   2.134
 1286SOL    HW1 4757   4.525   2.164   2.083
 1286SOL    HW2 4758   4.603   2.230   2.210
 1287SOL     OW 4759   6.427   4.469   4.763
 1287SOL    HW1 4760   6.457   4.421   4.846
 1287SOL    HW2 4761   6.328   4.481   4.766
 1288SOL     OW 4762   4.524   4.234   6.325
 1288SOL    HW1 4763   4.562   4.325   6.338
 1288SOL    HW2 4764   4.598   4.167   6.327
 1289SOL     OW 4765   0.048   0.493   1.753
 1289SOL    HW1 4766   0.032   0.509   1.850
 1289SOL    HW2 4767   0.142   0.461   1.739
 1290SOL     OW 4768   1.242   6.954   6.819
 1290SOL    HW1 4769   1.257   0.033   6.801
 1290SOL    HW2 4770   1.196   6.913   6.740
 1291SOL     OW 4771   6.421   5.282   3.246
 1291SOL    HW1 4772   6.474   5.209   3.290
 1291SOL    HW2 4773   6.341   5.243   3.201
 1292SOL     OW 4774   0.941   6.163   2.121
 1292SOL    HW1 4775   1.012   6.107   2.165
 1292SOL    HW2 4776   0.983   6.220   2.051
 1293SOL     OW 4777   3.125   0.975   6.869
 1293SOL    HW1 4778   3.149   0.940   6.960
 1293SOL    HW2 4779   3.027   0.970   6.856
 1294SOL     OW 4780   2.394   3.792   5.612
 1294SOL    HW1 4781   2.382   3.789   5.513
 1294SOL    HW2 4782   2.464   3.860   5.636
 1295SOL     OW 4783   6.557   4.180   0.600
 1295SOL    HW1 4784   6.604   4.187   0.688
 1295SOL    HW2 4785   6.458   4.176   0.615
 1296SOL     OW 4786   5.265   6.554   5.688
 1296SOL    HW1 4787   5.298   6.593   5.602
 1296SOL    HW2 4788   5.306   6.602   5.765
 1297SOL     OW 4789   0.678   0.108   1.956
 1297SOL    HW1 4790   0.704   0.024   1.909
 1297SOL    HW2 4791   0.626   0.167   1.895
 1298SOL     OW 4792   5.610   5.740   2.490
 1298SOL    HW1 4793   5.555   5.749   2.573
 1298SOL    HW2 4794   5.550   5.749   2.410
 1299SOL     OW 4795   1.796   3.355   4.636
 1299SOL    HW1 4796   1.760   3.263   4.650
 1299SOL    HW2 4797   1.720   3.419   4.622
 1300SOL     OW 4798   1.569   4.616   1.631
 1300SOL    HW1 4799   1.628   4.549   1.585
 1300SOL    HW2 4800   1.474   4.603   1.602
 1301SOL     OW 4801   1.163   0.746   1.526
 1301SOL    HW1 4802   1.150   0.844   1.509
 1301SOL    HW2 4803   1.258   0.729   1.552
 1302SOL     OW 4804   5.739   6.584   5.498
 1302SOL    HW1 4805   5.748   6.577   5.398
 1302SOL    HW2 4806   5.783   6.667   5.530
 1303SOL     OW 4807   4.513   6.732   1.263
 1303SOL    HW1 4808   4.499   6.810   1.323
 1303SOL    HW2 4809   4.431   6.716   1.209
 1304SOL     OW 4810   0.284   1.370   1.079
 1304SOL    HW1 4811   0.213   1.300   1.073
 1304SOL    HW2 4812   0.294   1.415   0.990
 1305SOL     OW 4813   5.726   4.213   0.066
 1305SOL    HW1 4814   5.782   4.214   7.001
 1305SOL    HW2 4815   5.642   4.161   0.050
 1306SOL     OW 4816   2.327   5.453   3.971
 1306SOL    HW1 4817   2.402   5.515   3.992
 1306SOL    HW2 4818   2.340   5.367   4.019
 1307SOL     OW 4819   2.334   2.341   4.132
 1307SOL    HW1 4820   2.433   2.353   4.124
 1307SOL    HW2 4821   2.297   2.308   4.046
 1308SOL     OW 4822   6.494   5.565   6.212
 1308SOL    HW1 4823   6.569   5.551   6.147
 1308SOL    HW2 4824   6.532   5.582   6.303
 1309SOL     OW 4825   4.868   4.476   6.490
 1309SOL    HW1 4826   4.965   4.457   6.503
 1309SOL    HW2 4827   4.850   4.573   6.508
 1310SOL     OW 4828   1.227   4.117   3.530
 1310SOL    HW1 4829   1.271   4.189   3.583
 1310SOL    HW2 4830   1.282   4.033   3.535
 1311SOL     OW 4831   0.013   5.683   0.211
 1311SOL    HW1 4832   6.955   5.627   0.177
 1311SOL    HW2 4833   0.087   5.682   0.144
 1312SOL     OW 4834   1.931   0.461   6.104
 1312SOL    HW1 4835   1.987   0.426   6.179
 1312SOL    HW2 4836   1.872   0.535   6.137
 1313SOL     OW 4837   6.363   5.550   3.242
 1313SOL    HW1 4838   6.386   5.453   3.230
 1313SOL    HW2 4839   6.354   5.570   3.340
 1314SOL     OW 4840   2.798   1.761   4.930
 1314SOL    HW1 4841   2.733   1.837   4.920
 1314SOL    HW2 4842   2.890   1.794   4.910
 1315SOL     OW 4843   6.115   0.868   4.614
 1315SOL    HW1 4844   6.127   0.896   4.710
 1315SOL    HW2 4845   6.104   0.949   4.557
 1316SOL     OW 4846   4.308   0.682   4.821
 1316SOL    HW1 4847   4.377   0.701   4.751
 1316SOL    HW2 4848   4.348   0.628   4.894
 1317SOL     OW 4849   2.545   2.818   5.773
 1317SOL    HW1 4850   2.550   2.894   5.838
 1317SOL    HW2 4851   2.599   2.840   5.692
 1318SOL     OW 4852   1.528   2.958   6.501
 1318SOL    HW1 4853   1.526   2.936   6.598
 1318SOL    HW2 4854   1.596   2.902   6.454
 1319SOL     OW 4855   6.933   6.624   0.666
 1319SOL    HW1 4856   6.853   6.633   0.726
 1319SOL    HW2 4857   6.961   6.715   0.635
 1320SOL     OW 4858   3.234   2.690   5.986
 1320SOL    HW1 4859   3.288   2.614   5.950
 1320SOL    HW2 4860   3.146   2.657   6.019
 1321SOL     OW 4861   5.696   2.361   6.605
 1321SOL    HW1 4862   5.646   2.447   6.605
 1321SOL    HW2 4863   5.786   2.374   6.646
 1322SOL     OW 4864   3.388   1.757   0.385
 1322SOL    HW1 4865   3.409   1.845   0.343
 1322SOL    HW2 4866   3.311   1.714   0.338
 1323SOL     OW 4867   3.836   0.481   0.238
 1323SOL    HW1 4868   3.801   0.568   0.202
 1323SOL    HW2 4869   3.898   0.500   0.315
 1324SOL     OW 4870   1.204   3.655   6.976
 1324SOL    HW1 4871   1.163   3.746   6.972
 1324SOL    HW2 4872   1.143   3.589   6.932
 1325SOL     OW 4873   2.971   4.827   6.509
 1325SOL    HW1 4874   3.047   4.799   6.450
 1325SOL    HW2 4875   2.943   4.751   6.567
 1326SOL     OW 4876   5.002   3.742   3.897
 1326SOL    HW1 4877   4.958   3.824   3.863
 1326SOL    HW2 4878   4.933   3.680   3.934
 1327SOL     OW 4879   6.915   6.379   1.355
 1327SOL    HW1 4880   6.859   6.430   1.421
 1327SOL    HW2 4881   6.927   6.433   1.272
 1328SOL     OW 4882   0.878   3.644   5.762
 1328SOL    HW1 4883   0.912   3.718   5.705
 1328SOL    HW2 4884   0.942   3.568   5.760
 1329SOL     OW 4885   0.442   3.112   3.355
 1329SOL    HW1 4886   0.540   3.119   3.370
 1329SOL    HW2 4887   0.422   3.034   3.297
 1330SOL     OW 4888   6.455   3.081   0.997
 1330SOL    HW1 4889   6.465   3.158   0.934
 1330SOL    HW2 4890   6.482   2.997   0.952
 1331SOL     OW 4891   4.682   1.755   3.205
 1331SOL    HW1 4892   4.608   1.735   3.270
 1331SOL    HW2 4893   4.648   1.745   3.112
 1332SOL     OW 4894   1.548   6.733   0.706
 1332SOL    HW1 4895   1.546   6.758   0.803
 1332SOL    HW2 4896   1.462   6.758   0.663
 1333SOL     OW 4897   3.283   4.131   2.989
 1333SOL    HW1 4898   3.357   4.120   3.056
 1333SOL    HW2 4899   3.306   4.204   2.926
 1334SOL     OW 4900   6.725   2.499   2.264
 1334SOL    HW1 4901   6.638   2.536   2.232
 1334SOL    HW2 4902   6.754   2.425   2.204
 1335SOL     OW 4903   1.681   3.628   2.195
 1335SOL    HW1 4904   1.702   3.714   2.149
 1335SOL    HW2 4905   1.594   3.636   2.243
 1336SOL     OW 4906   3.446   0.308   5.044
 1336SOL    HW1 4907   3.542   0.318   5.019
 1336SOL    HW2 4908   3.425   0.368   5.121
 1337SOL     OW 4909   6.548   1.307   3.939
 1337SOL    HW1 4910   6.610   1.353   3.877
 1337SOL    HW2 4911   6.455   1.306   3.900
 1338SOL     OW 4912   5.862   4.062   4.834
 1338SOL    HW1 4913   5.859   4.151   4.790
 1338SOL    HW2 4914   5.935   4.059   4.902
 1339SOL     OW 4915   0.383   0.437   6.846
 1339SOL    HW1 4916   0.380   0.406   6.751
 1339SOL    HW2 4917   0.304   0.495   6.865
 1340SOL     OW 4918   5.256   1.947   1.882
 1340SOL    HW1 4919   5.158   1.965   1.889
 1340SOL    HW2 4920   5.282   1.936   1.787
 1341SOL     OW 4921   4.643   6.729   6.522
 1341SOL    HW1 4922   4.647   6.705   6.619
 1341SOL    HW2 4923   4.713   6.679   6.472
 1342SOL     OW 4924   2.999   6.000   1.026
 1342SOL    HW1 4925   3.092   6.010   1.061
 1342SOL    HW2 4926   2.944   6.078   1.057
 1343SOL     OW 4927   5.484   5.772   2.719
 1343SOL    HW1 4928   5.414   5.708   2.751
 1343SOL    HW2 4929   5.482   5.855   2.776
 1344SOL     OW 4930   0.156   0.028   4.774
 1344SOL    HW1 4931   0.166   6.976   4.704
 1344SOL    HW2 4932   0.245   0.069   4.794
 1345SOL     OW 4933   0.697   5.670   1.435
 1345SOL    HW1 4934   0.606   5.640   1.463
 1345SOL    HW2 4935   0.764   5.643   1.504
 1346SOL     OW 4936   2.590   5.328   6.150
 1346SOL    HW1 4937   2.558   5.344   6.057
 1346SOL    HW2 4938   2.627   5.236   6.158
 1347SOL     OW 4939   1.453   0.229   6.927
 1347SOL    HW1 4940   1.415   0.250   7.017
 1347SOL    HW2 4941   1.380   0.228   6.859
 1348SOL     OW 4942   0.239   6.101   5.763
 1348SOL    HW1 4943   0.251   6.050   5.848
 1348SOL    HW2 4944   0.245   6.039   5.685
 1349SOL     OW 4945   4.915   3.684   4.373
 1349SOL    HW1 4946   4.934   3.688   4.471
 1349SOL    HW2 4947   5.000   3.698   4.322
 1350SOL     OW 4948   3.021   3.611   0.637
 1350SOL    HW1 4949   3.008   3.708   0.617
 1350SOL    HW2 4950   2.971   3.587   0.721
 1351SOL     OW 4951   6.672   2.638   5.357
 1351SOL    HW1 4952   6.641   2.733   5.347
 1351SOL    HW2 4953   6.731   2.614   5.280
 1352SOL     OW 4954   6.910   0.045   2.649
 1352SOL    HW1 4955   6.995   0.051   2.701
 1352SOL    HW2 4956   6.928   0.006   2.559
 1353SOL     OW 4957   0.521   1.203   1.093
 1353SOL    HW1 4958   0.458   1.280   1.083
 1353SOL    HW2 4959   0.486   1.124   1.042
 1354SOL     OW 4960   5.762   4.556   1.972
 1354SOL    HW1 4961   5.704   4.560   1.891
 1354SOL    HW2 4962   5.740   4.632   2.033
 1355SOL     OW 4963   6.281   3.579   4.844
 1355SOL    HW1 4964   6.364   3.634   4.856
 1355SOL    HW2 4965   6.264   3.526   4.927
 1356SOL     OW 4966   3.734   3.263   1.480
 1356SOL    HW1 4967   3.741   3.168   1.451
 1356SOL    HW2 4968   3.643   3.280   1.517
 1357SOL     OW 4969   6.770   2.973   5.642
 1357SOL    HW1 4970   6.679   2.984   5.682
 1357SOL    HW2 4971   6.839   2.974   5.714
 1358SOL     OW 4972   1.164   6.670   0.073
 1358SOL    HW1 4973   1.183   6.587   0.020
 1358SOL    HW2 4974   1.214   6.667   0.159
 1359SOL     OW 4975   6.382   4.439   1.770
 1359SOL    HW1 4976   6.328   4.521   1.787
 1359SOL    HW2 4977   6.331   4.358   1.801
 1360SOL     OW 4978   2.656   2.255   6.495
 1360SOL    HW1 4979   2.623   2.347   6.512
 1360SOL    HW2 4980   2.749   2.259   6.460
 1361SOL     OW 4981   6.872   5.110   4.181
 1361SOL    HW1 4982   6.772   5.113   4.180
 1361SOL    HW2 4983   6.905   5.056   4.104
 1362SOL     OW 4984   3.266   3.116   3.036
 1362SOL    HW1 4985   3.180   3.158   3.062
 1362SOL    HW2 4986   3.328   3.115   3.115
 1363SOL     OW 4987   0.815   5.807   5.232
 1363SOL    HW1 4988   0.742   5.856   5.281
 1363SOL    HW2 4989   0.841   5.726   5.284
 1364SOL     OW 4990   4.388   4.004   0.752
 1364SOL    HW1 4991   4.480   3.976   0.725
 1364SOL    HW2 4992   4.386   4.023   0.850
 1365SOL     OW 4993   0.639   3.494   0.157
 1365SOL    HW1 4994   0.592   3.451   0.080
 1365SOL    HW2 4995   0.735   3.509   0.132
 1366SOL     OW 4996   2.201   6.873   4.628
 1366SOL    HW1 4997   2.122   6.839   4.577
 1366SOL    HW2 4998   2.182   6.966   4.660
 1367SOL     OW 4999   2.408   1.127   2.903
 1367SOL    HW1 5000   2.330   1.077   2.942
 1367SOL    HW2 5001   2.393   1.140   2.805
 1368SOL     OW 5002   5.761   6.786   4.699
 1368SOL    HW1 5003   5.823   6.713   4.671
 1368SOL    HW2 5004   5.684   6.747   4.750
 1369SOL     OW 5005   0.974   0.795   2.995
 1369SOL    HW1 5006   1.040   0.810   3.069
 1369SOL    HW2 5007   1.022   0.755   2.917
 1370SOL     OW 5008   2.992   1.141   1.228
 1370SOL    HW1 5009   2.907   1.173   1.269
 1370SOL    HW2 5010   2.972   1.072   1.159
 1371SOL     OW 5011   3.772   0.762   5.977
 1371SOL    HW1 5012   3.814   0.707   5.904
 1371SOL    HW2 5013   3.814   0.739   6.064
 1372SOL     OW 5014   3.555   1.859   2.152
 1372SOL    HW1 5015   3.506   1.915   2.085
 1372SOL    HW2 5016   3.513   1.870   2.241
 1373SOL     OW 5017   0.935   6.328   0.863
 1373SOL    HW1 5018   0.898   6.278   0.785
 1373SOL    HW2 5019   1.028   6.358   0.842
 1374SOL     OW 5020   4.765   2.334   0.579
 1374SOL    HW1 5021   4.725   2.245   0.602
 1374SOL    HW2 5022   4.859   2.338   0.611
 1375SOL     OW 5023   0.246   4.316   5.907
 1375SOL    HW1 5024   0.148   4.296   5.918
 1375SOL    HW2 5025   0.281   4.357   5.991
 1376SOL     OW 5026   4.988   1.856   2.897
 1376SOL    HW1 5027   4.941   1.928   2.845
 1376SOL    HW2 5028   5.064   1.820   2.843
 1377SOL     OW 5029   0.301   5.518   4.842
 1377SOL    HW1 5030   0.317   5.433   4.793
 1377SOL    HW2 5031   0.269   5.588   4.778
 1378SOL     OW 5032   1.519   1.801   1.008
 1378SOL    HW1 5033   1.534   1.893   0.971
 1378SOL    HW2 5034   1.427   1.796   1.046
 1379SOL     OW 5035   3.823   6.232   1.723
 1379SOL    HW1 5036   3.829   6.222   1.822
 1379SOL    HW2 5037   3.875   6.159   1.679
 1380SOL     OW 5038   6.201   6.583   2.237
 1380SOL    HW1 5039   6.235   6.513   2.299
 1380SOL    HW2 5040   6.269   6.656   2.229
 1381SOL     OW 5041   6.166   1.602   1.403
 1381SOL    HW1 5042   6.265   1.602   1.411
 1381SOL    HW2 5043   6.140   1.596   1.306
 1382SOL     OW 5044   5.606   4.916   6.551
 1382SOL    HW1 5045   5.659   4.978   6.494
 1382SOL    HW2 5046   5.532   4.966   6.596
 1383SOL     OW 5047   2.513   0.592   0.267
 1383SOL    HW1 5048   2.569   0.629   0.193
 1383SOL    HW2 5049   2.485   0.499   0.245
 1384SOL     OW 5050   3.621   1.852   2.957
 1384SOL    HW1 5051   3.602   1.816   2.866
 1384SOL    HW2 5052   3.704   1.811   2.993
 1385SOL     OW 5053   6.387   3.101   2.721
 1385SOL    HW1 5054   6.391   3.102   2.821
 1385SOL    HW2 5055   6.335   3.021   2.691
 1386SOL     OW 5056   2.175   2.535   4.281
 1386SOL    HW1 5057   2.225   2.532   4.368
 1386SOL    HW2 5058   2.217   2.471   4.217
 1387SOL     OW 5059   2.103   0.524   4.857
 1387SOL    HW1 5060   2.057   0.597   4.907
 1387SOL    HW2 5061   2.080   0.530   4.760
 1388SOL     OW 5062   6.673   0.956   4.849
 1388SOL    HW1 5063   6.731   0.943   4.769
 1388SOL    HW2 5064   6.626   0.870   4.870
 1389SOL     OW 5065   6.456   0.498   4.885
 1389SOL    HW1 5066   6.419   0.549   4.962
 1389SOL    HW2 5067   6.384   0.483   4.817
 1390SOL     OW 5068   4.628   2.540   2.789
 1390SOL    HW1 5069   4.618   2.624   2.842
 1390SOL    HW2 5070   4.684   2.474   2.840
 1391SOL     OW 5071   5.469   0.922   4.766
 1391SOL    HW1 5072   5.488   0.905   4.862
 1391SOL    HW2 5073   5.439   0.837   4.722
 1392SOL     OW 5074   4.547   5.258   5.998
 1392SOL    HW1 5075   4.517   5.337   5.945
 1392SOL    HW2 5076   4.468   5.212   6.038
 1393SOL     OW 5077   5.926   0.585   6.964
 1393SOL    HW1 5078   5.957   0.543   0.031
 1393SOL    HW2 5079   5.904   0.681   6.981
 1394SOL     OW 5080   4.380   6.924   3.834
 1394SOL    HW1 5081   4.334   6.910   3.922
 1394SOL    HW2 5082   4.477   6.904   3.843
 1395SOL     OW 5083   0.741   5.187   2.359
 1395SOL    HW1 5084   0.715   5.252   2.431
 1395SOL    HW2 5085   0.793   5.234   2.288
 1396SOL     OW 5086   1.802   1.649   3.802
 1396SOL    HW1 5087   1.818   1.747   3.792
 1396SOL    HW2 5088   1.852   1.615   3.882
 1397SOL     OW 5089   0.513   5.661   4.967
 1397SOL    HW1 5090   0.591   5.599   4.977
 1397SOL    HW2 5091   0.438   5.614   4.922
 1398SOL     OW 5092   0.516   0.040   0.327
 1398SOL    HW1 5093   0.530   0.001   0.418
 1398SOL    HW2 5094   0.557   0.131   0.322
 1399SOL     OW 5095   4.116   0.263   0.460
 1399SOL    HW1 5096   4.156   0.261   0.368
 1399SOL    HW2 5097   4.063   0.347   0.471
 1400SOL     OW 5098   0.035   0.649   4.934
 1400SOL    HW1 5099   0.084   0.700   5.005
 1400SOL    HW2 5100   0.081   0.562   4.917
 1401SOL     OW 5101   5.515   0.231   3.381
 1401SOL    HW1 5102   5.537   0.246   3.285
 1401SOL    HW2 5103   5.571   0.156   3.416
 1402SOL     OW 5104   6.984   4.824   2.289
 1402SOL    HW1 5105   0.019   4.841   2.206
 1402SOL    HW2 5106   7.010   4.889   2.360
 1403SOL     OW 5107   3.189   3.178   6.521
 1403SOL    HW1 5108   3.097   3.185   6.560
 1403SOL    HW2 5109   3.253   3.233   6.576
 1404SOL     OW 5110   4.122   6.995   0.456
 1404SOL    HW1 5111   4.079   7.010   0.367
 1404SOL    HW2 5112   4.124   0.062   0.507
 1405SOL     OW 5113   1.021   3.909   1.628
 1405SOL    HW1 5114   1.111   3.924   1.586
 1405SOL    HW2 5115   0.965   3.852   1.568
 1406SOL     OW 5116   1.993   2.959   0.718
 1406SOL    HW1 5117   1.989   3.039   0.658
 1406SOL    HW2 5118   2.074   2.904   0.697
 1407SOL     OW 5119   0.086   3.453   1.304
 1407SOL    HW1 5120   0.127   3.544   1.292
 1407SOL    HW2 5121   0.035   3.429   1.222
 1408SOL     OW 5122   5.721   6.673   0.945
 1408SOL    HW1 5123   5.757   6.755   0.900
 1408SOL    HW2 5124   5.633   6.696   0.989
 1409SOL     OW 5125   6.701   1.658   5.959
 1409SOL    HW1 5126   6.601   1.654   5.965
 1409SOL    HW2 5127   6.729   1.669   5.863
 1410SOL     OW 5128   4.013   0.904   5.837
 1410SOL    HW1 5129   3.959   0.828   5.799
 1410SOL    HW2 5130   4.089   0.867   5.890
 1411SOL     OW 5131   3.632   5.292   0.332
 1411SOL    HW1 5132   3.672   5.300   0.241
 1411SOL    HW2 5133   3.668   5.364   0.391
 1412SOL     OW 5134   2.073   3.086   0.455
 1412SOL    HW1 5135   2.139   3.162   0.459
 1412SOL    HW2 5136   2.117   3.007   0.413
 1413SOL     OW 5137   1.380   1.274   4.779
 1413SOL    HW1 5138   1.407   1.368   4.801
 1413SOL    HW2 5139   1.288   1.256   4.813
 1414SOL     OW 5140   0.720   4.126   2.746
 1414SOL    HW1 5141   0.804   4.143   2.796
 1414SOL    HW2 5142   0.641   4.145   2.804
 1415SOL     OW 5143   2.517   1.634   5.024
 1415SOL    HW1 5144   2.614   1.656   5.029
 1415SOL    HW2 5145   2.479   1.672   4.939
 1416SOL     OW 5146   4.410   0.714   4.522
 1416SOL    HW1 5147   4.493   0.750   4.564
 1416SOL    HW2 5148   4.401   0.749   4.429
 1417SOL     OW 5149   3.763   3.268   5.769
 1417SOL    HW1 5150   3.718   3.332   5.707
 1417SOL    HW2 5151   3.697   3.236   5.837
 1418SOL     OW 5152   3.876   4.302   5.709
 1418SOL    HW1 5153   3.789   4.340   5.676
 1418SOL    HW2 5154   3.926   4.262   5.632
 1419SOL     OW 5155   1.642   5.306   2.310
 1419SOL    HW1 5156   1.727   5.287   2.260
 1419SOL    HW2 5157   1.657   5.385   2.370
 1420SOL     OW 5158   2.808   6.835   2.864
 1420SOL    HW1 5159   2.745   6.877   2.930
 1420SOL    HW2 5160   2.901   6.840   2.900
 1421SOL     OW 5161   1.301   4.842   5.667
 1421SOL    HW1 5162   1.236   4.859   5.741
 1421SOL    HW2 5163   1.256   4.788   5.595
 1422SOL     OW 5164   2.322   3.242   6.069
 1422SOL    HW1 5165   2.367   3.327   6.041
 1422SOL    HW2 5166   2.346   3.168   6.007
 1423SOL     OW 5167   4.358   0.439   4.511
 1423SOL    HW1 5168   4.435   0.411   4.453
 1423SOL    HW2 5169   4.359   0.538   4.522
 1424SOL     OW 5170   5.941   2.942   0.316
 1424SOL    HW1 5171   5.902   2.963   0.226
 1424SOL    HW2 5172   6.009   2.869   0.307
 1425SOL     OW 5173   5.314   6.638   3.590
 1425SOL    HW1 5174   5.264   6.574   3.649
 1425SOL    HW2 5175   5.282   6.731   3.607
 1426SOL     OW 5176   3.479   2.068   6.865
 1426SOL    HW1 5177   3.382   2.092   6.857
 1426SOL    HW2 5178   3.501   2.050   6.961
 1427SOL     OW 5179   2.000   6.873   3.579
 1427SOL    HW1 5180   2.009   6.802   3.509
 1427SOL    HW2 5181   2.089   6.915   3.595
 1428SOL     OW 5182   0.724   2.568   3.832
 1428SOL    HW1 5183   0.628   2.575   3.805
 1428SOL    HW2 5184   0.774   2.520   3.760
 1429SOL     OW 5185   6.438   1.076   1.566
 1429SOL    HW1 5186   6.482   1.057   1.654
 1429SOL    HW2 5187   6.492   1.036   1.492
 1430SOL     OW 5188   2.157   3.529   4.254
 1430SOL    HW1 5189   2.081   3.530   4.318
 1430SOL    HW2 5190   2.195   3.437   4.248
 1431SOL     OW 5191   2.832   0.969   6.839
 1431SOL    HW1 5192   2.825   1.062   6.804
 1431SOL    HW2 5193   2.808   0.904   6.767
 1432SOL     OW 5194   3.337   0.859   2.128
 1432SOL    HW1 5195   3.301   0.953   2.128
 1432SOL    HW2 5196   3.424   0.858   2.177
 1433SOL     OW 5197   2.390   0.222   3.648
 1433SOL    HW1 5198   2.383   0.195   3.744
 1433SOL    HW2 5199   2.374   0.321   3.640
 1434SOL     OW 5200   0.032   3.471   0.736
 1434SOL    HW1 5201   0.021   3.560   0.691
 1434SOL    HW2 5202   6.962   3.442   0.775
 1435SOL     OW 5203   1.520   0.191   3.656
 1435SOL    HW1 5204   1.558   0.123   3.592
 1435SOL    HW2 5205   1.500   0.147   3.743
 1436SOL     OW 5206   5.226   1.048   6.870
 1436SOL    HW1 5207   5.274   1.134   6.885
 1436SOL    HW2 5208   5.127   1.064   6.870
 1437SOL     OW 5209   3.791   0.249   6.321
 1437SOL    HW1 5210   3.759   0.328   6.268
 1437SOL    HW2 5211   3.871   0.276   6.375
 1438SOL     OW 5212   2.372   0.678   1.914
 1438SOL    HW1 5213   2.453   0.625   1.940
 1438SOL    HW2 5214   2.387   0.774   1.938
 1439SOL     OW 5215   0.090   4.417   6.952
 1439SOL    HW1 5216   0.171   4.385   6.902
 1439SOL    HW2 5217   0.092   4.380   0.027
 1440SOL     OW 5218   3.429   3.166   3.268
 1440SOL    HW1 5219   3.476   3.128   3.347
 1440SOL    HW2 5220   3.459   3.260   3.253
 1441SOL     OW 5221   6.680   3.290   3.664
 1441SOL    HW1 5222   6.633   3.202   3.656
 1441SOL    HW2 5223   6.647   3.338   3.745
 1442SOL     OW 5224   5.623   6.293   6.930
 1442SOL    HW1 5225   5.610   6.375   6.873
 1442SOL    HW2 5226   5.713   6.253   6.911
 1443SOL     OW 5227   1.109   2.440   3.445
 1443SOL    HW1 5228   1.139   2.364   3.387
 1443SOL    HW2 5229   1.136   2.527   3.404
 1444SOL     OW 5230   5.054   1.062   4.476
 1444SOL    HW1 5231   5.007   1.146   4.448
 1444SOL    HW2 5232   5.150   1.067   4.450
 1445SOL     OW 5233   6.181   2.403   1.030
 1445SOL    HW1 5234   6.118   2.445   1.096
 1445SOL    HW2 5235   6.263   2.371   1.078
 1446SOL     OW 5236   4.749   0.535   0.950
 1446SOL    HW1 5237   4.657   0.525   0.988
 1446SOL    HW2 5238   4.772   0.632   0.943
 1447SOL     OW 5239   5.548   1.192   5.630
 1447SOL    HW1 5240   5.471   1.128   5.637
 1447SOL    HW2 5241   5.607   1.165   5.554
 1448SOL     OW 5242   5.547   0.289   6.740
 1448SOL    HW1 5243   5.632   0.326   6.778
 1448SOL    HW2 5244   5.516   0.213   6.797
 1449SOL     OW 5245   4.630   5.572   0.842
 1449SOL    HW1 5246   4.710   5.631   0.834
 1449SOL    HW2 5247   4.561   5.601   0.775
 1450SOL     OW 5248   5.635   2.342   3.897
 1450SOL    HW1 5249   5.706   2.337   3.827
 1450SOL    HW2 5250   5.664   2.406   3.969
 1451SOL     OW 5251   1.434   6.772   2.428
 1451SOL    HW1 5252   1.531   6.795   2.425
 1451SOL    HW2 5253   1.421   6.675   2.408
 1452SOL     OW 5254   4.537   0.758   5.114
 1452SOL    HW1 5255   4.554   0.772   5.211
 1452SOL    HW2 5256   4.610   0.802   5.061
 1453SOL     OW 5257   4.506   4.513   4.223
 1453SOL    HW1 5258   4.528   4.416   4.215
 1453SOL    HW2 5259   4.590   4.565   4.238
 1454SOL     OW 5260   4.472   3.930   1.416
 1454SOL    HW1 5261   4.544   3.874   1.376
 1454SOL    HW2 5262   4.484   4.025   1.387
 1455SOL     OW 5263   1.890   2.504   1.252
 1455SOL    HW1 5264   1.988   2.524   1.262
 1455SOL    HW2 5265   1.867   2.425   1.307
 1456SOL     OW 5266   6.860   5.564   3.955
 1456SOL    HW1 5267   6.898   5.503   4.025
 1456SOL    HW2 5268   6.934   5.601   3.899
 1457SOL     OW 5269   2.001   0.031   3.031
 1457SOL    HW1 5270   1.929   7.005   2.977
 1457SOL    HW2 5271   1.991   0.131   3.023
 1458SOL     OW 5272   6.496   5.465   6.877
 1458SOL    HW1 5273   6.570   5.531   6.887
 1458SOL    HW2 5274   6.535   5.373   6.870
 1459SOL     OW 5275   2.576   6.964   0.805
 1459SOL    HW1 5276   2.550   7.007   0.891
 1459SOL    HW2 5277   2.504   6.900   0.777
 1460SOL     OW 5278   0.562   6.210   6.976
 1460SOL    HW1 5279   0.652   6.251   6.994
 1460SOL    HW2 5280   0.574   6.112   6.959
 1461SOL     OW 5281   4.868   5.005   1.282
 1461SOL    HW1 5282   4.835   4.977   1.192
 1461SOL    HW2 5283   4.848   5.102   1.295
 1462SOL     OW 5284   5.537   0.277   5.818
 1462SOL    HW1 5285   5.439   0.260   5.829
 1462SOL    HW2 5286   5.566   0.348   5.882
 1463SOL     OW 5287   0.492   0.860   5.319
 1463SOL    HW1 5288   0.435   0.782   5.345
 1463SOL    HW2 5289   0.520   0.849   5.223
 1464SOL     OW 5290   6.909   6.689   1.624
 1464SOL    HW1 5291   6.958   6.675   1.538
 1464SOL    HW2 5292   6.944   6.770   1.670
 1465SOL     OW 5293   0.555   6.956   4.875
 1465SOL    HW1 5294   0.540   6.873   4.929
 1465SOL    HW2 5295   0.535   6.937   4.779
 1466SOL     OW 5296   5.469   5.664   4.306
 1466SOL    HW1 5297   5.400   5.725   4.344
 1466SOL    HW2 5298   5.424   5.594   4.250
 1467SOL     OW 5299   6.615   3.982   2.551
 1467SOL    HW1 5300   6.532   3.960   2.499
 1467SOL    HW2 5301   6.591   4.045   2.626
 1468SOL     OW 5302   5.469   6.488   2.698
 1468SOL    HW1 5303   5.402   6.413   2.694
 1468SOL    HW2 5304   5.432   6.568   2.652
 1469SOL     OW 5305   0.103   0.747   2.685
 1469SOL    HW1 5306   0.161   0.772   2.763
 1469SOL    HW2 5307   0.021   0.700   2.719
 1470SOL     OW 5308   0.108   1.062   3.479
 1470SOL    HW1 5309   0.190   1.011   3.456
 1470SOL    HW2 5310   0.132   1.158   3.496
 1471SOL     OW 5311   6.553   0.640   0.342
 1471SOL    HW1 5312   6.526   0.707   0.412
 1471SOL    HW2 5313   6.611   0.684   0.274
 1472SOL     OW 5314   4.484   6.665   5.197
 1472SOL    HW1 5315   4.452   6.675   5.291
 1472SOL    HW2 5316   4.543   6.742   5.174
 1473SOL     OW 5317   5.939   4.312   3.915
 1473SOL    HW1 5318   6.037   4.301   3.930
 1473SOL    HW2 5319   5.897   4.350   3.998
 1474SOL     OW 5320   4.996   5.146   3.581
 1474SOL    HW1 5321   5.056   5.216   3.542
 1474SOL    HW2 5322   4.910   5.188   3.610
 1475SOL     OW 5323   6.680   0.637   3.041
 1475SOL    HW1 5324   6.695   0.696   3.120
 1475SOL    HW2 5325   6.611   0.678   2.981
 1476SOL     OW 5326   6.527   2.374   1.104
 1476SOL    HW1 5327   6.615   2.329   1.095
 1476SOL    HW2 5328   6.478   2.336   1.182
 1477SOL     OW 5329   2.959   6.371   2.629
 1477SOL    HW1 5330   3.003   6.394   2.716
 1477SOL    HW2 5331   2.882   6.433   2.614
 1478SOL     OW 5332   6.644   4.520   1.827
 1478SOL    HW1 5333   6.625   4.568   1.913
 1478SOL    HW2 5334   6.560   4.478   1.792
 1479SOL     OW 5335   1.293   5.844   0.525
 1479SOL    HW1 5336   1.241   5.906   0.583
 1479SOL    HW2 5337   1.263   5.750   0.541
 1480SOL     OW 5338   2.833   0.840   0.055
 1480SOL    HW1 5339   2.821   0.875   6.981
 1480SOL    HW2 5340   2.776   0.760   0.069
 1481SOL     OW 5341   6.700   2.245   6.286
 1481SOL    HW1 5342   6.775   2.228   6.221
 1481SOL    HW2 5343   6.720   2.328   6.337
 1482SOL     OW 5344   6.111   0.645   6.672
 1482SOL    HW1 5345   6.174   0.700   6.727
 1482SOL    HW2 5346   6.021   0.688   6.671
 1483SOL     OW 5347   6.171   2.748   6.524
 1483SOL    HW1 5348   6.088   2.804   6.528
 1483SOL    HW2 5349   6.160   2.677   6.454
 1484SOL     OW 5350   6.356   6.648   2.711
 1484SOL    HW1 5351   6.306   6.726   2.673
 1484SOL    HW2 5352   6.441   6.680   2.753
 1485SOL     OW 5353   5.970   2.881   4.068
 1485SOL    HW1 5354   5.974   2.800   4.127
 1485SOL    HW2 5355   5.901   2.867   3.997
 1486SOL     OW 5356   4.853   2.018   2.596
 1486SOL    HW1 5357   4.792   2.094   2.574
 1486SOL    HW2 5358   4.817   1.934   2.554
 1487SOL     OW 5359   6.301   1.367   5.476
 1487SOL    HW1 5360   6.331   1.309   5.400
 1487SOL    HW2 5361   6.216   1.413   5.450
 1488SOL     OW 5362   3.968   1.789   2.793
 1488SOL    HW1 5363   3.952   1.814   2.698
 1488SOL    HW2 5364   4.061   1.756   2.804
 1489SOL     OW 5365   3.654   4.943   4.529
 1489SOL    HW1 5366   3.734   4.917   4.475
 1489SOL    HW2 5367   3.672   5.030   4.576
 1490SOL     OW 5368   2.129   2.515   0.702
 1490SOL    HW1 5369   2.118   2.569   0.619
 1490SOL    HW2 5370   2.193   2.440   0.685
 1491SOL     OW 5371   0.018   2.379   5.454
 1491SOL    HW1 5372   0.079   2.432   5.514
 1491SOL    HW2 5373   0.016   2.422   5.364
 1492SOL     OW 5374   5.624   2.706   2.425
 1492SOL    HW1 5375   5.629   2.797   2.465
 1492SOL    HW2 5376   5.537   2.694   2.378
 1493SOL     OW 5377   5.466   0.606   4.881
 1493SOL    HW1 5378   5.380   0.558   4.894
 1493SOL    HW2 5379   5.495   0.648   4.968
 1494SOL     OW 5380   5.123   2.745   4.716
 1494SOL    HW1 5381   5.182   2.729   4.796
 1494SOL    HW2 5382   5.175   2.794   4.646
 1495SOL     OW 5383   1.905   2.709   2.868
 1495SOL    HW1 5384   1.958   2.734   2.949
 1495SOL    HW2 5385   1.826   2.770   2.859
 1496SOL     OW 5386   0.673   1.401   3.006
 1496SOL    HW1 5387   0.593   1.367   2.956
 1496SOL    HW2 5388   0.678   1.500   2.999
 1497SOL     OW 5389   5.003   4.551   5.495
 1497SOL    HW1 5390   4.986   4.635   5.443
 1497SOL    HW2 5391   5.092   4.514   5.471
 1498SOL     OW 5392   2.205   5.814   0.281
 1498SOL    HW1 5393   2.221   5.863   0.195
 1498SOL    HW2 5394   2.230   5.718   0.269
 1499SOL     OW 5395   0.643   4.820   5.231
 1499SOL    HW1 5396   0.626   4.722   5.236
 1499SOL    HW2 5397   0.731   4.841   5.275
 1500SOL     OW 5398   4.285   6.801   5.456
 1500SOL    HW1 5399   4.264   6.783   5.552
 1500SOL    HW2 5400   4.383   6.813   5.445
 1501SOL     OW 5401   4.307   0.079   6.447
 1501SOL    HW1 5402   4.360   7.015   6.429
 1501SOL    HW2 5403   4.370   0.156   6.460
 1502SOL     OW 5404   6.403   6.341   0.208
 1502SOL    HW1 5405   6.492   6.326   0.165
 1502SOL    HW2 5406   6.391   6.276   0.282
 1503SOL     OW 5407   3.117   3.697   5.738
 1503SOL    HW1 5408   3.150   3.619   5.685
 1503SOL    HW2 5409   3.184   3.771   5.735
 1504SOL     OW 5410   2.474   5.935   4.202
 1504SOL    HW1 5411   2.511   5.863   4.261
 1504SOL    HW2 5412   2.374   5.926   4.197
 1505SOL     OW 5413   4.724   5.422   1.147
 1505SOL    HW1 5414   4.682   5.513   1.143
 1505SOL    HW2 5415   4.738   5.388   1.054
 1506SOL     OW 5416   0.372   6.365   2.891
 1506SOL    HW1 5417   0.411   6.276   2.914
 1506SOL    HW2 5418   0.296   6.385   2.953
 1507SOL     OW 5419   2.225   1.250   6.065
 1507SOL    HW1 5420   2.160   1.179   6.037
 1507SOL    HW2 5421   2.225   1.257   6.165
 1508SOL     OW 5422   4.720   0.249   0.404
 1508SOL    HW1 5423   4.799   0.310   0.390
 1508SOL    HW2 5424   4.689   0.213   0.316
 1509SOL     OW 5425   5.093   1.740   0.479
 1509SOL    HW1 5426   5.080   1.813   0.546
 1509SOL    HW2 5427   5.014   1.679   0.481
 1510SOL     OW 5428   0.144   1.548   3.910
 1510SOL    HW1 5429   0.136   1.636   3.956
 1510SOL    HW2 5430   0.074   1.540   3.839
 1511SOL     OW 5431   2.306   2.350   0.615
 1511SOL    HW1 5432   2.370   2.292   0.667
 1511SOL    HW2 5433   2.346   2.373   0.527
 1512SOL     OW 5434   6.028   0.533   2.496
 1512SOL    HW1 5435   6.019   0.438   2.463
 1512SOL    HW2 5436   6.054   0.592   2.419
 1513SOL     OW 5437   4.061   1.291   2.256
 1513SOL    HW1 5438   4.112   1.271   2.172
 1513SOL    HW2 5439   3.976   1.238   2.256
 1514SOL     OW 5440   5.182   1.678   5.446
 1514SOL    HW1 5441   5.118   1.602   5.456
 1514SOL    HW2 5442   5.251   1.654   5.377
 1515SOL     OW 5443   6.285   5.002   4.803
 1515SOL    HW1 5444   6.230   5.085   4.793
 1515SOL    HW2 5445   6.374   5.015   4.760
 1516SOL     OW 5446   0.907   1.624   1.372
 1516SOL    HW1 5447   0.921   1.588   1.464
 1516SOL    HW2 5448   0.809   1.637   1.356
 1517SOL     OW 5449   3.774   5.170   3.176
 1517SOL    HW1 5450   3.812   5.092   3.225
 1517SOL    HW2 5451   3.730   5.138   3.092
 1518SOL     OW 5452   0.744   4.924   1.383
 1518SOL    HW1 5453   0.802   4.891   1.457
 1518SOL    HW2 5454   0.794   4.994   1.331
 1519SOL     OW 5455   6.788   4.781   0.940
 1519SOL    HW1 5456   6.860   4.733   0.990
 1519SOL    HW2 5457   6.822   4.871   0.911
 1520SOL     OW 5458   1.274   2.927   3.504
 1520SOL    HW1 5459   1.353   2.974   3.464
 1520SOL    HW2 5460   1.201   2.993   3.521
 1521SOL     OW 5461   2.588   4.311   6.054
 1521SOL    HW1 5462   2.528   4.345   5.981
 1521SOL    HW2 5463   2.533   4.268   6.126
 1522SOL     OW 5464   6.768   2.235   6.618
 1522SOL    HW1 5465   6.813   2.169   6.558
 1522SOL    HW2 5466   6.822   2.247   6.701
 1523SOL     OW 5467   6.666   1.197   0.812
 1523SOL    HW1 5468   6.716   1.121   0.852
 1523SOL    HW2 5469   6.730   1.260   0.768
 1524SOL     OW 5470   6.518   1.128   2.602
 1524SOL    HW1 5471   6.496   1.077   2.519
 1524SOL    HW2 5472   6.603   1.092   2.642
 1525SOL     OW 5473   4.129   1.823   6.020
 1525SOL    HW1 5474   4.125   1.900   6.085
 1525SOL    HW2 5475   4.036   1.801   5.989
 1526SOL     OW 5476   6.933   2.031   1.204
 1526SOL    HW1 5477   6.954   2.023   1.107
 1526SOL    HW2 5478   7.001   1.981   1.258
 1527SOL     OW 5479   2.966   1.604   5.703
 1527SOL    HW1 5480   2.927   1.543   5.771
 1527SOL    HW2 5481   2.954   1.699   5.732
 1528SOL     OW 5482   5.065   6.310   3.313
 1528SOL    HW1 5483   5.082   6.272   3.404
 1528SOL    HW2 5484   5.032   6.238   3.253
 1529SOL     OW 5485   3.107   0.339   5.828
 1529SOL    HW1 5486   3.129   0.435   5.810
 1529SOL    HW2 5487   3.160   0.280   5.767
 1530SOL     OW 5488   3.487   6.692   1.738
 1530SOL    HW1 5489   3.454   6.786   1.742
 1530SOL    HW2 5490   3.587   6.692   1.731
 1531SOL     OW 5491   6.975   0.334   5.065
 1531SOL    HW1 5492   6.980   0.304   5.160
 1531SOL    HW2 5493   6.879   0.341   5.037
 1532SOL     OW 5494   3.099   2.031   5.152
 1532SOL    HW1 5495   3.115   2.103   5.085
 1532SOL    HW2 5496   3.181   2.018   5.208
 1533SOL     OW 5497   5.567   2.971   6.714
 1533SOL    HW1 5498   5.637   3.033   6.749
 1533SOL    HW2 5499   5.611   2.899   6.660
 1534SOL     OW 5500   0.373   6.778   1.403
 1534SOL    HW1 5501   0.403   6.788   1.308
 1534SOL    HW2 5502   0.417   6.698   1.444
 1535SOL     OW 5503   5.134   5.438   4.533
 1535SOL    HW1 5504   5.168   5.391   4.452
 1535SOL    HW2 5505   5.165   5.533   4.532
 1536SOL     OW 5506   2.880   5.691   3.703
 1536SOL    HW1 5507   2.961   5.645   3.664
 1536SOL    HW2 5508   2.909   5.776   3.747
 1537SOL     OW 5509   2.691   5.117   4.122
 1537SOL    HW1 5510   2.646   5.055   4.188
 1537SOL    HW2 5511   2.624   5.183   4.088
 1538SOL     OW 5512   2.271   5.105   6.630
 1538SOL    HW1 5513   2.201   5.176   6.622
 1538SOL    HW2 5514   2.278   5.056   6.543
 1539SOL     OW 5515   3.105   4.793   1.551
 1539SOL    HW1 5516   3.185   4.770   1.606
 1539SOL    HW2 5517   3.022   4.758   1.595
 1540SOL     OW 5518   0.165   6.838   5.079
 1540SOL    HW1 5519   0.090   6.874   5.024
 1540SOL    HW2 5520   0.129   6.784   5.155
 1541SOL     OW 5521   5.274   2.282   1.123
 1541SOL    HW1 5522   5.328   2.200   1.100
 1541SOL    HW2 5523   5.235   2.272   1.214
 1542SOL     OW 5524   0.827   6.622   0.889
 1542SOL    HW1 5525   0.865   6.658   0.804
 1542SOL    HW2 5526   0.833   6.522   0.889
 1543SOL     OW 5527   3.076   3.966   4.231
 1543SOL    HW1 5528   3.010   4.008   4.169
 1543SOL    HW2 5529   3.168   3.998   4.209
 1544SOL     OW 5530   3.707   3.815   3.094
 1544SOL    HW1 5531   3.643   3.771   3.157
 1544SOL    HW2 5532   3.766   3.878   3.146
 1545SOL     OW 5533   6.351   1.001   4.981
 1545SOL    HW1 5534   6.413   1.074   4.950
 1545SOL    HW2 5535   6.355   0.925   4.916
 1546SOL     OW 5536   0.209   6.599   5.859
 1546SOL    HW1 5537   0.231   6.671   5.924
 1546SOL    HW2 5538   0.111   6.582   5.859
 1547SOL     OW 5539   3.869   5.875   0.011
 1547SOL    HW1 5540   3.773   5.879   7.003
 1547SOL    HW2 5541   3.922   5.832   6.956
 1548SOL     OW 5542   6.309   4.629   4.138
 1548SOL    HW1 5543   6.332   4.603   4.044
 1548SOL    HW2 5544   6.357   4.569   4.202
 1549SOL     OW 5545   6.412   1.628   1.484
 1549SOL    HW1 5546   6.453   1.567   1.552
 1549SOL    HW2 5547   6.435   1.723   1.506
 1550SOL     OW 5548   2.530   5.609   3.994
 1550SOL    HW1 5549   2.612   5.666   4.002
 1550SOL    HW2 5550   2.492   5.619   3.903
 1551SOL     OW 5551   1.222   2.863   0.974
 1551SOL    HW1 5552   1.157   2.806   0.923
 1551SOL    HW2 5553   1.281   2.912   0.909
 1552SOL     OW 5554   0.604   0.278   0.288
 1552SOL    HW1 5555   0.590   0.347   0.359
 1552SOL    HW2 5556   0.558   0.306   0.205
 1553SOL     OW 5557   5.799   1.508   6.475
 1553SOL    HW1 5558   5.782   1.514   6.573
 1553SOL    HW2 5559   5.750   1.582   6.428
 1554SOL     OW 5560   3.117   1.567   0.866
 1554SOL    HW1 5561   3.057   1.510   0.922
 1554SOL    HW2 5562   3.212   1.540   0.880
 1555SOL     OW 5563   4.575   1.131   5.884
 1555SOL    HW1 5564   4.604   1.159   5.792
 1555SOL    HW2 5565   4.487   1.174   5.905
 1556SOL     OW 5566   3.487   1.774   0.040
 1556SOL    HW1 5567   3.397   1.762   0.082
 1556SOL    HW2 5568   3.485   1.740   6.965
 1557SOL     OW 5569   1.853   2.579   0.364
 1557SOL    HW1 5570   1.923   2.638   0.404
 1557SOL    HW2 5571   1.863   2.487   0.400
 1558SOL     OW 5572   5.625   2.799   6.503
 1558SOL    HW1 5573   5.602   2.702   6.514
 1558SOL    HW2 5574   5.651   2.816   6.408
 1559SOL     OW 5575   2.359   5.152   3.838
 1559SOL    HW1 5576   2.363   5.150   3.937
 1559SOL    HW2 5577   2.444   5.192   3.802
 1560SOL     OW 5578   3.947   1.843   0.867
 1560SOL    HW1 5579   4.010   1.799   0.930
 1560SOL    HW2 5580   3.884   1.775   0.829
 1561SOL     OW 5581   6.348   6.066   0.708
 1561SOL    HW1 5582   6.436   6.024   0.682
 1561SOL    HW2 5583   6.360   6.165   0.717
 1562SOL     OW 5584   4.061   6.893   2.326
 1562SOL    HW1 5585   4.041   6.952   2.248
 1562SOL    HW2 5586   3.986   6.828   2.339
 1563SOL     OW 5587   3.174   2.093   4.326
 1563SOL    HW1 5588   3.142   2.088   4.421
 1563SOL    HW2 5589   3.270   2.066   4.322
 1564SOL     OW 5590   1.181   1.669   3.571
 1564SOL    HW1 5591   1.274   1.702   3.558
 1564SOL    HW2 5592   1.183   1.574   3.602
 1565SOL     OW 5593   3.880   1.556   4.710
 1565SOL    HW1 5594   3.944   1.525   4.781
 1565SOL    HW2 5595   3.831   1.637   4.743
 1566SOL     OW 5596   5.024   4.887   3.620
 1566SOL    HW1 5597   5.029   4.987   3.614
 1566SOL    HW2 5598   5.101   4.853   3.675
 1567SOL     OW 5599   5.519   0.589   4.598
 1567SOL    HW1 5600   5.505   0.495   4.568
 1567SOL    HW2 5601   5.465   0.605   4.682
 1568SOL     OW 5602   2.813   5.101   1.559
 1568SOL    HW1 5603   2.823   5.070   1.654
 1568SOL    HW2 5604   2.826   5.200   1.555
 1569SOL     OW 5605   2.984   0.560   2.883
 1569SOL    HW1 5606   3.015   0.491   2.817
 1569SOL    HW2 5607   3.039   0.553   2.966
 1570SOL     OW 5608   3.032   5.847   6.102
 1570SOL    HW1 5609   3.023   5.861   6.201
 1570SOL    HW2 5610   3.106   5.782   6.084
 1571SOL     OW 5611   0.538   2.426   4.217
 1571SOL    HW1 5612   0.473   2.470   4.154
 1571SOL    HW2 5613   0.523   2.327   4.217
 1572SOL     OW 5614   2.467   5.255   2.254
 1572SOL    HW1 5615   2.527   5.178   2.279
 1572SOL    HW2 5616   2.377   5.241   2.295
 1573SOL     OW 5617   5.872   6.193   0.487
 1573SOL    HW1 5618   5.889   6.096   0.504
 1573SOL    HW2 5619   5.859   6.207   0.389
 1574SOL     OW 5620   6.784   3.993   3.459
 1574SOL    HW1 5621   6.774   3.898   3.490
 1574SOL    HW2 5622   6.809   3.994   3.362
 1575SOL     OW 5623   6.676   1.668   0.360
 1575SOL    HW1 5624   6.590   1.716   0.381
 1575SOL    HW2 5625   6.744   1.734   0.329
 1576SOL     OW 5626   1.009   0.563   1.714
 1576SOL    HW1 5627   0.934   0.557   1.649
 1576SOL    HW2 5628   1.078   0.626   1.680
 1577SOL     OW 5629   3.951   5.330   5.189
 1577SOL    HW1 5630   3.984   5.237   5.204
 1577SOL    HW2 5631   3.952   5.381   5.276
 1578SOL     OW 5632   4.674   1.361   1.249
 1578SOL    HW1 5633   4.738   1.438   1.252
 1578SOL    HW2 5634   4.602   1.375   1.317
 1579SOL     OW 5635   1.775   2.479   1.016
 1579SOL    HW1 5636   1.834   2.507   0.941
 1579SOL    HW2 5637   1.814   2.511   1.102
 1580SOL     OW 5638   3.296   3.485   2.818
 1580SOL    HW1 5639   3.349   3.423   2.760
 1580SOL    HW2 5640   3.199   3.475   2.798
 1581SOL     OW 5641   6.104   4.654   6.232
 1581SOL    HW1 5642   6.135   4.697   6.147
 1581SOL    HW2 5643   6.036   4.713   6.276
 1582SOL     OW 5644   4.394   6.286   5.553
 1582SOL    HW1 5645   4.464   6.351   5.524
 1582SOL    HW2 5646   4.340   6.326   5.627
 1583SOL     OW 5647   1.292   5.157   4.884
 1583SOL    HW1 5648   1.384   5.134   4.854
 1583SOL    HW2 5649   1.275   5.117   4.974
 1584SOL     OW 5650   0.082   4.643   0.498
 1584SOL    HW1 5651   0.068   4.664   0.401
 1584SOL    HW2 5652   0.177   4.664   0.523
 1585SOL     OW 5653   3.519   6.507   3.100
 1585SOL    HW1 5654   3.591   6.442   3.126
 1585SOL    HW2 5655   3.519   6.584   3.163
 1586SOL     OW 5656   3.382   5.759   3.432
 1586SOL    HW1 5657   3.355   5.691   3.499
 1586SOL    HW2 5658   3.435   5.831   3.477
 1587SOL     OW 5659   2.792   5.977   6.633
 1587SOL    HW1 5660   2.746   5.956   6.546
 1587SOL    HW2 5661   2.785   5.898   6.694
 1588SOL     OW 5662   6.423   1.647   3.410
 1588SOL    HW1 5663   6.408   1.566   3.467
 1588SOL    HW2 5664   6.335   1.681   3.376
 1589SOL     OW 5665   6.067   4.701   4.432
 1589SOL    HW1 5666   6.080   4.779   4.370
 1589SOL    HW2 5667   6.076   4.732   4.526
 1590SOL     OW 5668   6.709   2.598   3.619
 1590SOL    HW1 5669   6.620   2.553   3.618
 1590SOL    HW2 5670   6.703   2.686   3.572
 1591SOL     OW 5671   1.561   6.621   1.775
 1591SOL    HW1 5672   1.612   6.539   1.802
 1591SOL    HW2 5673   1.555   6.683   1.853
 1592SOL     OW 5674   0.007   4.208   5.979
 1592SOL    HW1 5675   0.016   4.131   5.916
 1592SOL    HW2 5676   0.026   4.178   6.072
 1593SOL     OW 5677   3.421   0.344   6.890
 1593SOL    HW1 5678   3.484   0.366   6.815
 1593SOL    HW2 5679   3.439   0.251   6.922
 1594SOL     OW 5680   6.288   0.147   2.699
 1594SOL    HW1 5681   6.192   0.121   2.710
 1594SOL    HW2 5682   6.332   0.087   2.632
 1595SOL     OW 5683   0.550   3.913   0.476
 1595SOL    HW1 5684   0.564   3.815   0.459
 1595SOL    HW2 5685   0.492   3.925   0.557
 1596SOL     OW 5686   4.656   4.748   2.804
 1596SOL    HW1 5687   4.618   4.832   2.764
 1596SOL    HW2 5688   4.583   4.697   2.848
 1597SOL     OW 5689   3.614   5.996   6.836
 1597SOL    HW1 5690   3.684   6.026   6.772
 1597SOL    HW2 5691   3.551   6.071   6.854
 1598SOL     OW 5692   1.671   4.943   0.261
 1598SOL    HW1 5693   1.650   4.894   0.345
 1598SOL    HW2 5694   1.588   4.988   0.228
 1599SOL     OW 5695   4.623   5.525   3.398
 1599SOL    HW1 5696   4.670   5.444   3.363
 1599SOL    HW2 5697   4.570   5.500   3.479
 1600SOL     OW 5698   4.258   6.905   1.982
 1600SOL    HW1 5699   4.163   6.885   1.957
 1600SOL    HW2 5700   4.275   6.875   2.076
 1601SOL     OW 5701   0.027   7.006   4.407
 1601SOL    HW1 5702   0.054   0.084   4.404
 1601SOL    HW2 5703   6.953   6.998   4.444
 1602SOL     OW 5704   3.474   5.542   3.676
 1602SOL    HW1 5705   3.529   5.524   3.758
 1602SOL    HW2 5706   3.535   5.562   3.599
 1603SOL     OW 5707   3.301   5.122   2.601
 1603SOL    HW1 5708   3.283   5.027   2.623
 1603SOL    HW2 5709   3.247   5.149   2.521
 1604SOL     OW 5710   4.171   5.463   1.820
 1604SOL    HW1 5711   4.129   5.526   1.886
 1604SOL    HW2 5712   4.235   5.403   1.868
 1605SOL     OW 5713   4.753   5.851   0.892
 1605SOL    HW1 5714   4.698   5.925   0.855
 1605SOL    HW2 5715   4.724   5.832   0.986
 1606SOL     OW 5716   3.478   6.043   4.913
 1606SOL    HW1 5717   3.390   6.003   4.940
 1606SOL    HW2 5718   3.531   5.976   4.860
 1607SOL     OW 5719   4.662   5.718   2.895
 1607SOL    HW1 5720   4.687   5.643   2.832
 1607SOL    HW2 5721   4.724   5.716   2.973
 1608SOL     OW 5722   5.453   0.997   3.332
 1608SOL    HW1 5723   5.452   1.097   3.330
 1608SOL    HW2 5724   5.466   0.963   3.238
 1609SOL     OW 5725   2.398   6.721   0.796
 1609SOL    HW1 5726   2.366   6.757   0.709
 1609SOL    HW2 5727   2.354   6.633   0.815
 1610SOL     OW 5728   5.455   0.416   0.653
 1610SOL    HW1 5729   5.393   0.495   0.650
 1610SOL    HW2 5730   5.413   0.340   0.602
 1611SOL     OW 5731   1.529   4.304   1.309
 1611SOL    HW1 5732   1.490   4.221   1.347
 1611SOL    HW2 5733   1.500   4.314   1.214
 1612SOL     OW 5734   3.593   0.194   2.031
 1612SOL    HW1 5735   3.521   0.258   2.007
 1612SOL    HW2 5736   3.554   0.102   2.041
 1613SOL     OW 5737   6.440   5.339   2.507
 1613SOL    HW1 5738   6.498   5.416   2.536
 1613SOL    HW2 5739   6.359   5.375   2.461
 1614SOL     OW 5740   6.378   1.599   6.419
 1614SOL    HW1 5741   6.318   1.672   6.453
 1614SOL    HW2 5742   6.471   1.635   6.409
 1615SOL     OW 5743   1.349   4.566   6.578
 1615SOL    HW1 5744   1.441   4.590   6.548
 1615SOL    HW2 5745   1.348   4.473   6.615
 1616SOL     OW 5746   1.952   1.555   4.573
 1616SOL    HW1 5747   2.021   1.560   4.645
 1616SOL    HW2 5748   1.928   1.459   4.556
 1617SOL     OW 5749   5.574   6.208   3.284
 1617SOL    HW1 5750   5.648   6.268   3.316
 1617SOL    HW2 5751   5.504   6.264   3.239
 1618SOL     OW 5752   2.953   5.399   3.035
 1618SOL    HW1 5753   2.934   5.315   2.983
 1618SOL    HW2 5754   2.930   5.385   3.131
 1619SOL     OW 5755   1.145   4.628   6.756
 1619SOL    HW1 5756   1.166   4.623   6.854
 1619SOL    HW2 5757   1.229   4.619   6.703
 1620SOL     OW 5758   3.731   5.131   6.246
 1620SOL    HW1 5759   3.679   5.133   6.331
 1620SOL    HW2 5760   3.821   5.172   6.261
 1621SOL     OW 5761   5.080   5.816   1.231
 1621SOL    HW1 5762   5.051   5.729   1.190
 1621SOL    HW2 5763   5.064   5.890   1.166
 1622SOL     OW 5764   0.519   5.151   4.240
 1622SOL    HW1 5765   0.611   5.188   4.249
 1622SOL    HW2 5766   0.512   5.098   4.156
 1623SOL     OW 5767   0.552   2.220   3.952
 1623SOL    HW1 5768   0.508   2.240   3.865
 1623SOL    HW2 5769   0.650   2.235   3.944
 1624SOL     OW 5770   4.342   1.688   0.864
 1624SOL    HW1 5771   4.248   1.659   0.884
 1624SOL    HW2 5772   4.343   1.786   0.845
 1625SOL     OW 5773   0.807   5.883   0.750
 1625SOL    HW1 5774   0.737   5.819   0.783
 1625SOL    HW2 5775   0.763   5.963   0.709
 1626SOL     OW 5776   2.550   1.984   1.252
 1626SOL    HW1 5777   2.463   1.966   1.298
 1626SOL    HW2 5778   2.615   2.023   1.317
 1627SOL     OW 5779   4.250   1.741   5.047
 1627SOL    HW1 5780   4.152   1.755   5.037
 1627SOL    HW2 5781   4.286   1.701   4.962
 1628SOL     OW 5782   5.835   6.719   0.286
 1628SOL    HW1 5783   5.930   6.690   0.294
 1628SOL    HW2 5784   5.785   6.693   0.370
 1629SOL     OW 5785   1.915   0.095   3.485
 1629SOL    HW1 5786   1.953   0.011   3.523
 1629SOL    HW2 5787   1.817   0.082   3.467
 1630SOL     OW 5788   0.373   3.753   6.965
 1630SOL    HW1 5789   0.441   3.779   0.015
 1630SOL    HW2 5790   0.282   3.753   7.006
 1631SOL     OW 5791   7.005   3.441   0.087
 1631SOL    HW1 5792   6.981   3.536   0.105
 1631SOL    HW2 5793   0.081   3.436   0.054
 1632SOL     OW 5794   6.570   5.246   2.922
 1632SOL    HW1 5795   6.553   5.155   2.883
 1632SOL    HW2 5796   6.634   5.238   2.998
 1633SOL     OW 5797   5.389   3.354   4.293
 1633SOL    HW1 5798   5.300   3.393   4.271
 1633SOL    HW2 5799   5.391   3.328   4.390
 1634SOL     OW 5800   6.316   1.278   4.580
 1634SOL    HW1 5801   6.408   1.273   4.540
 1634SOL    HW2 5802   6.320   1.327   4.667
 1635SOL     OW 5803   3.639   6.085   3.157
 1635SOL    HW1 5804   3.629   6.174   3.111
 1635SOL    HW2 5805   3.587   6.085   3.242
 1636SOL     OW 5806   5.817   6.496   1.948
 1636SOL    HW1 5807   5.894   6.549   1.983
 1636SOL    HW2 5808   5.834   6.399   1.963
 1637SOL     OW 5809   0.684   6.953   1.668
 1637SOL    HW1 5810   0.740   0.016   1.678
 1637SOL    HW2 5811   0.647   6.950   1.575
 1638SOL     OW 5812   6.071   3.255   1.601
 1638SOL    HW1 5813   5.978   3.251   1.639
 1638SOL    HW2 5814   6.068   3.233   1.503
 1639SOL     OW 5815   5.470   2.462   2.586
 1639SOL    HW1 5816   5.437   2.437   2.677
 1639SOL    HW2 5817   5.570   2.471   2.588
 1640SOL     OW 5818   6.573   0.382   6.762
 1640SOL    HW1 5819   6.603   0.288   6.772
 1640SOL    HW2 5820   6.511   0.405   6.837
 1641SOL     OW 5821   6.535   2.410   3.300
 1641SOL    HW1 5822   6.528   2.362   3.213
 1641SOL    HW2 5823   6.598   2.361   3.361
 1642SOL     OW 5824   6.363   2.507   6.158
 1642SOL    HW1 5825   6.357   2.570   6.081
 1642SOL    HW2 5826   6.436   2.536   6.220
 1643SOL     OW 5827   2.247   6.137   3.556
 1643SOL    HW1 5828   2.160   6.097   3.529
 1643SOL    HW2 5829   2.322   6.086   3.514
 1644SOL     OW 5830   6.063   2.633   1.502
 1644SOL    HW1 5831   5.981   2.582   1.530
 1644SOL    HW2 5832   6.042   2.731   1.502
 1645SOL     OW 5833   2.129   0.930   5.570
 1645SOL    HW1 5834   2.066   1.004   5.596
 1645SOL    HW2 5835   2.096   0.844   5.608
 1646SOL     OW 5836   1.110   5.274   1.119
 1646SOL    HW1 5837   1.144   5.368   1.114
 1646SOL    HW2 5838   1.069   5.248   1.032
 1647SOL     OW 5839   5.884   2.976   3.779
 1647SOL    HW1 5840   5.790   3.009   3.768
 1647SOL    HW2 5841   5.948   3.052   3.770
 1648SOL     OW 5842   5.372   5.741   1.255
 1648SOL    HW1 5843   5.279   5.777   1.245
 1648SOL    HW2 5844   5.403   5.755   1.349
 1649SOL     OW 5845   3.516   0.703   3.571
 1649SOL    HW1 5846   3.609   0.735   3.585
 1649SOL    HW2 5847   3.504   0.613   3.614
 1650SOL     OW 5848   3.280   3.932   6.760
 1650SOL    HW1 5849   3.195   3.907   6.713
 1650SOL    HW2 5850   3.335   3.990   6.701
 1651SOL     OW 5851   0.858   2.939   3.440
 1651SOL    HW1 5852   0.812   2.902   3.521
 1651SOL    HW2 5853   0.894   2.864   3.385
 1652SOL     OW 5854   0.540   2.866   1.591
 1652SOL    HW1 5855   0.581   2.956   1.580
 1652SOL    HW2 5856   0.535   2.821   1.501
 1653SOL     OW 5857   0.038   4.588   3.351
 1653SOL    HW1 5858   0.044   4.688   3.361
 1653SOL    HW2 5859   0.130   4.552   3.333
 1654SOL     OW 5860   0.189   3.229   2.090
 1654SOL    HW1 5861   0.170   3.248   2.186
 1654SOL    HW2 5862   0.177   3.312   2.036
 1655SOL     OW 5863   0.159   6.861   4.587
 1655SOL    HW1 5864   0.158   6.766   4.555
 1655SOL    HW2 5865   0.131   6.921   4.512
 1656SOL     OW 5866   2.236   4.480   3.326
 1656SOL    HW1 5867   2.269   4.575   3.324
 1656SOL    HW2 5868   2.310   4.420   3.356
 1657SOL     OW 5869   1.363   6.458   5.579
 1657SOL    HW1 5870   1.298   6.413   5.640
 1657SOL    HW2 5871   1.452   6.412   5.585
 1658SOL     OW 5872   6.107   6.992   6.275
 1658SOL    HW1 5873   6.037   7.016   6.342
 1658SOL    HW2 5874   6.198   7.013   6.312
 1659SOL     OW 5875   4.520   6.437   6.489
 1659SOL    HW1 5876   4.545   6.461   6.395
 1659SOL    HW2 5877   4.461   6.508   6.527
 1660SOL     OW 5878   2.615   0.350   2.093
 1660SOL    HW1 5879   2.611   0.268   2.150
 1660SOL    HW2 5880   2.658   0.328   2.005
 1661SOL     OW 5881   4.293   4.747   2.511
 1661SOL    HW1 5882   4.327   4.678   2.448
 1661SOL    HW2 5883   4.195   4.762   2.497
 1662SOL     OW 5884   0.193   1.577   5.008
 1662SOL    HW1 5885   0.124   1.649   4.997
 1662SOL    HW2 5886   0.166   1.517   5.084
 1663SOL     OW 5887   4.741   4.537   0.562
 1663SOL    HW1 5888   4.828   4.549   0.609
 1663SOL    HW2 5889   4.669   4.582   0.613
 1664SOL     OW 5890   1.114   6.883   5.931
 1664SOL    HW1 5891   1.051   6.917   5.862
 1664SOL    HW2 5892   1.084   6.913   6.022
 1665SOL     OW 5893   2.523   4.046   0.228
 1665SOL    HW1 5894   2.468   3.988   0.288
 1665SOL    HW2 5895   2.593   4.093   0.282
 1666SOL     OW 5896   5.487   6.796   6.223
 1666SOL    HW1 5897   5.525   6.707   6.201
 1666SOL    HW2 5898   5.552   6.867   6.197
 1667SOL     OW 5899   0.472   6.191   1.340
 1667SOL    HW1 5900   0.560   6.238   1.331
 1667SOL    HW2 5901   0.488   6.093   1.353
 1668SOL     OW 5902   5.221   4.575   3.418
 1668SOL    HW1 5903   5.180   4.626   3.494
 1668SOL    HW2 5904   5.155   4.510   3.382
 1669SOL     OW 5905   6.430   3.520   5.093
 1669SOL    HW1 5906   6.526   3.530   5.066
 1669SOL    HW2 5907   6.413   3.571   5.177
 1670SOL     OW 5908   1.507   5.299   6.291
 1670SOL    HW1 5909   1.535   5.349   6.373
 1670SOL    HW2 5910   1.588   5.271   6.240
 1671SOL     OW 5911   5.830   2.215   1.138
 1671SOL    HW1 5912   5.902   2.153   1.172
 1671SOL    HW2 5913   5.857   2.251   1.049
 1672SOL     OW 5914   0.842   3.804   0.298
 1672SOL    HW1 5915   0.909   3.762   0.360
 1672SOL    HW2 5916   0.756   3.753   0.304
 1673SOL     OW 5917   2.046   0.933   4.517
 1673SOL    HW1 5918   2.025   1.027   4.543
 1673SOL    HW2 5919   2.013   0.916   4.424
 1674SOL     OW 5920   4.909   2.030   3.098
 1674SOL    HW1 5921   4.957   1.970   3.034
 1674SOL    HW2 5922   4.831   1.981   3.137
 1675SOL     OW 5923   5.180   0.823   1.309
 1675SOL    HW1 5924   5.127   0.845   1.391
 1675SOL    HW2 5925   5.187   0.723   1.300
 1676SOL     OW 5926   0.925   2.054   2.680
 1676SOL    HW1 5927   0.979   2.136   2.666
 1676SOL    HW2 5928   0.971   1.995   2.746
 1677SOL     OW 5929   4.151   3.563   3.003
 1677SOL    HW1 5930   4.142   3.592   3.099
 1677SOL    HW2 5931   4.151   3.463   2.998
 1678SOL     OW 5932   0.899   6.954   1.335
 1678SOL    HW1 5933   0.923   6.878   1.275
 1678SOL    HW2 5934   0.801   6.954   1.352
 1679SOL     OW 5935   0.993   2.996   5.851
 1679SOL    HW1 5936   0.962   3.024   5.942
 1679SOL    HW2 5937   1.012   2.898   5.851
 1680SOL     OW 5938   5.231   2.243   4.065
 1680SOL    HW1 5939   5.174   2.263   3.986
 1680SOL    HW2 5940   5.278   2.326   4.095
 1681SOL     OW 5941   2.184   6.089   4.136
 1681SOL    HW1 5942   2.180   6.038   4.222
 1681SOL    HW2 5943   2.158   6.029   4.060
 1682SOL     OW 5944   3.192   6.859   4.402
 1682SOL    HW1 5945   3.094   6.841   4.400
 1682SOL    HW2 5946   3.209   6.957   4.408
 1683SOL     OW 5947   5.846   4.905   2.854
 1683SOL    HW1 5948   5.868   4.856   2.769
 1683SOL    HW2 5949   5.769   4.859   2.899
 1684SOL     OW 5950   2.616   4.523   1.778
 1684SOL    HW1 5951   2.586   4.448   1.720
 1684SOL    HW2 5952   2.711   4.508   1.806
 1685SOL     OW 5953   0.031   1.421   5.190
 1685SOL    HW1 5954   0.019   1.358   5.113
 1685SOL    HW2 5955   6.961   1.431   5.237
 1686SOL     OW 5956   4.993   6.058   2.623
 1686SOL    HW1 5957   5.043   5.980   2.659
 1686SOL    HW2 5958   4.905   6.067   2.671
 1687SOL     OW 5959   5.602   3.855   2.415
 1687SOL    HW1 5960   5.582   3.890   2.323
 1687SOL    HW2 5961   5.572   3.921   2.483
 1688SOL     OW 5962   1.823   1.147   2.992
 1688SOL    HW1 5963   1.895   1.188   3.047
 1688SOL    HW2 5964   1.824   1.188   2.900
 1689SOL     OW 5965   4.499   1.129   1.455
 1689SOL    HW1 5966   4.439   1.157   1.380
 1689SOL    HW2 5967   4.593   1.122   1.422
 1690SOL     OW 5968   0.749   4.491   4.057
 1690SOL    HW1 5969   0.790   4.401   4.044
 1690SOL    HW2 5970   0.820   4.555   4.087
 1691SOL     OW 5971   4.507   2.703   5.227
 1691SOL    HW1 5972   4.566   2.763   5.282
 1691SOL    HW2 5973   4.412   2.731   5.238
 1692SOL     OW 5974   5.654   5.102   1.340
 1692SOL    HW1 5975   5.637   5.197   1.315
 1692SOL    HW2 5976   5.601   5.079   1.422
 1693SOL     OW 5977   5.231   6.747   5.453
 1693SOL    HW1 5978   5.306   6.806   5.422
 1693SOL    HW2 5979   5.219   6.672   5.388
 1694SOL     OW 5980   5.101   1.288   5.165
 1694SOL    HW1 5981   5.083   1.373   5.116
 1694SOL    HW2 5982   5.172   1.235   5.117
 1695SOL     OW 5983   3.900   0.787   6.274
 1695SOL    HW1 5984   3.918   0.689   6.289
 1695SOL    HW2 5985   3.836   0.819   6.344
 1696SOL     OW 5986   5.254   5.873   0.635
 1696SOL    HW1 5987   5.333   5.929   0.660
 1696SOL    HW2 5988   5.235   5.809   0.709
 1697SOL     OW 5989   5.678   2.281   2.229
 1697SOL    HW1 5990   5.582   2.289   2.204
 1697SOL    HW2 5991   5.698   2.187   2.258
 1698SOL     OW 5992   3.945   0.867   1.497
 1698SOL    HW1 5993   3.999   0.878   1.414
 1698SOL    HW2 5994   3.848   0.880   1.477
 1699SOL     OW 5995   2.543   6.923   0.409
 1699SOL    HW1 5996   2.488   6.851   0.453
 1699SOL    HW2 5997   2.611   6.957   0.474
 1700SOL     OW 5998   6.505   2.667   2.952
 1700SOL    HW1 5999   6.412   2.694   2.976
 1700SOL    HW2 6000   6.503   2.602   2.876
 1701SOL     OW 6001   0.322   6.221   4.943
 1701SOL    HW1 6002   0.230   6.251   4.968
 1701SOL    HW2 6003   0.358   6.160   5.014
 1702SOL     OW 6004   2.025   2.410   6.187
 1702SOL    HW1 6005   2.048   2.434   6.093
 1702SOL    HW2 6006   2.012   2.311   6.194
 1703SOL     OW 6007   3.114   1.845   0.911
 1703SOL    HW1 6008   3.102   1.754   0.872
 1703SOL    HW2 6009   3.197   1.886   0.875
 1704SOL     OW 6010   2.976   2.278   0.728
 1704SOL    HW1 6011   2.882   2.257   0.757
 1704SOL    HW2 6012   3.029   2.193   0.725
 1705SOL     OW 6013   4.369   1.838   0.164
 1705SOL    HW1 6014   4.372   1.777   0.085
 1705SOL    HW2 6015   4.277   1.838   0.203
 1706SOL     OW 6016   4.468   2.072   6.842
 1706SOL    HW1 6017   4.478   2.130   6.761
 1706SOL    HW2 6018   4.470   2.128   6.924
 1707SOL     OW 6019   4.608   2.171   2.506
 1707SOL    HW1 6020   4.561   2.245   2.554
 1707SOL    HW2 6021   4.542   2.111   2.463
 1708SOL     OW 6022   3.246   5.096   1.605
 1708SOL    HW1 6023   3.214   5.174   1.552
 1708SOL    HW2 6024   3.181   5.021   1.596
 1709SOL     OW 6025   4.526   5.115   0.672
 1709SOL    HW1 6026   4.624   5.132   0.671
 1709SOL    HW2 6027   4.478   5.198   0.644
 1710SOL     OW 6028   4.247   5.147   3.309
 1710SOL    HW1 6029   4.186   5.092   3.252
 1710SOL    HW2 6030   4.308   5.200   3.250
 1711SOL     OW 6031   4.042   4.365   5.924
 1711SOL    HW1 6032   3.974   4.332   5.858
 1711SOL    HW2 6033   4.131   4.373   5.878
 1712SOL     OW 6034   0.236   1.668   3.227
 1712SOL    HW1 6035   0.266   1.761   3.209
 1712SOL    HW2 6036   0.207   1.625   3.142
 1713SOL     OW 6037   3.822   0.509   3.198
 1713SOL    HW1 6038   3.747   0.458   3.156
 1713SOL    HW2 6039   3.803   0.607   3.193
 1714SOL     OW 6040   3.946   3.072   0.702
 1714SOL    HW1 6041   3.925   3.082   0.800
 1714SOL    HW2 6042   3.960   3.163   0.662
 1715SOL     OW 6043   1.965   6.970   2.324
 1715SOL    HW1 6044   2.008   6.880   2.330
 1715SOL    HW2 6045   1.941   6.989   2.228
 1716SOL     OW 6046   5.186   0.705   3.801
 1716SOL    HW1 6047   5.153   0.794   3.835
 1716SOL    HW2 6048   5.284   0.712   3.780
 1717SOL     OW 6049   3.295   6.269   5.596
 1717SOL    HW1 6050   3.258   6.271   5.503
 1717SOL    HW2 6051   3.276   6.357   5.641
 1718SOL     OW 6052   1.549   2.936   1.641
 1718SOL    HW1 6053   1.498   2.946   1.555
 1718SOL    HW2 6054   1.643   2.910   1.622
 1719SOL     OW 6055   1.350   5.578   2.442
 1719SOL    HW1 6056   1.328   5.550   2.349
 1719SOL    HW2 6057   1.384   5.672   2.442
 1720SOL     OW 6058   0.421   3.210   5.748
 1720SOL    HW1 6059   0.477   3.215   5.831
 1720SOL    HW2 6060   0.455   3.276   5.681
 1721SOL     OW 6061   1.225   2.018   0.793
 1721SOL    HW1 6062   1.324   2.019   0.803
 1721SOL    HW2 6063   1.187   2.107   0.821
 1722SOL     OW 6064   2.424   2.525   3.185
 1722SOL    HW1 6065   2.495   2.479   3.238
 1722SOL    HW2 6066   2.344   2.466   3.179
 1723SOL     OW 6067   5.451   3.342   0.567
 1723SOL    HW1 6068   5.390   3.270   0.535
 1723SOL    HW2 6069   5.542   3.304   0.584
 1724SOL     OW 6070   6.521   2.353   1.590
 1724SOL    HW1 6071   6.552   2.371   1.684
 1724SOL    HW2 6072   6.454   2.422   1.564
 1725SOL     OW 6073   1.205   5.908   7.014
 1725SOL    HW1 6074   1.232   5.996   6.974
 1725SOL    HW2 6075   1.228   5.908   0.093
 1726SOL     OW 6076   5.469   4.391   3.115
 1726SOL    HW1 6077   5.406   4.341   3.174
 1726SOL    HW2 6078   5.424   4.410   3.027
 1727SOL     OW 6079   2.975   3.338   3.988
 1727SOL    HW1 6080   2.938   3.418   3.941
 1727SOL    HW2 6081   2.944   3.338   4.084
 1728SOL     OW 6082   5.259   1.970   4.007
 1728SOL    HW1 6083   5.345   1.932   3.975
 1728SOL    HW2 6084   5.264   2.070   4.007
 1729SOL     OW 6085   1.532   3.288   2.479
 1729SOL    HW1 6086   1.446   3.245   2.508
 1729SOL    HW2 6087   1.609   3.234   2.513
 1730SOL     OW 6088   2.497   4.974   5.086
 1730SOL    HW1 6089   2.563   5.034   5.131
 1730SOL    HW2 6090   2.436   4.935   5.154
 1731SOL     OW 6091   6.329   4.485   3.878
 1731SOL    HW1 6092   6.255   4.486   3.810
 1731SOL    HW2 6093   6.401   4.548   3.850
 1732SOL     OW 6094   2.289   3.990   5.823
 1732SOL    HW1 6095   2.366   4.003   5.760
 1732SOL    HW2 6096   2.248   3.900   5.807
 1733SOL     OW 6097   2.410   3.588   6.359
 1733SOL    HW1 6098   2.490   3.644   6.382
 1733SOL    HW2 6099   2.334   3.613   6.418
 1734SOL     OW 6100   6.961   2.926   1.585
 1734SOL    HW1 6101   6.944   2.992   1.658
 1734SOL    HW2 6102   0.039   2.929   1.559
 1735SOL     OW 6103   4.037   5.084   6.147
 1735SOL    HW1 6104   4.014   5.157   6.211
 1735SOL    HW2 6105   4.005   4.996   6.185
 1736SOL     OW 6106   5.030   3.029   0.633
 1736SOL    HW1 6107   5.074   2.958   0.688
 1736SOL    HW2 6108   4.934   3.005   0.617
 1737SOL     OW 6109   4.777   1.937   5.379
 1737SOL    HW1 6110   4.763   2.030   5.344
 1737SOL    HW2 6111   4.760   1.936   5.478
 1738SOL     OW 6112   1.525   3.356   4.026
 1738SOL    HW1 6113   1.619   3.387   4.015
 1738SOL    HW2 6114   1.479   3.357   3.937
 1739SOL     OW 6115   5.854   0.243   4.025
 1739SOL    HW1 6116   5.939   0.241   4.077
 1739SOL    HW2 6117   5.807   0.330   4.042
 1740SOL     OW 6118   6.339   3.298   4.378
 1740SOL    HW1 6119   6.259   3.358   4.386
 1740SOL    HW2 6120   6.350   3.247   4.463
 1741SOL     OW 6121   0.732   1.953   4.634
 1741SOL    HW1 6122   0.736   1.854   4.622
 1741SOL    HW2 6123   0.811   1.995   4.589
 1742SOL     OW 6124   6.103   6.505   6.176
 1742SOL    HW1 6125   6.099   6.604   6.171
 1742SOL    HW2 6126   6.171   6.477   6.244
 1743SOL     OW 6127   1.849   1.319   2.739
 1743SOL    HW1 6128   1.801   1.340   2.654
 1743SOL    HW2 6129   1.894   1.402   2.773
 1744SOL     OW 6130   3.551   1.751   4.551
 1744SOL    HW1 6131   3.491   1.730   4.474
 1744SOL    HW2 6132   3.498   1.796   4.623
 1745SOL     OW 6133   6.114   6.914   1.504
 1745SOL    HW1 6134   6.158   6.827   1.526
 1745SOL    HW2 6135   6.148   6.985   1.566
 1746SOL     OW 6136   2.345   4.246   4.026
 1746SOL    HW1 6137   2.344   4.207   3.933
 1746SOL    HW2 6138   2.305   4.180   4.089
 1747SOL     OW 6139   4.450   0.033   2.559
 1747SOL    HW1 6140   4.444   0.108   2.495
 1747SOL    HW2 6141   4.534   0.041   2.613
 1748SOL     OW 6142   6.910   3.121   5.056
 1748SOL    HW1 6143   7.010   3.119   5.049
 1748SOL    HW2 6144   6.871   3.129   4.964
 1749SOL     OW 6145   1.660   4.701   1.252
 1749SOL    HW1 6146   1.589   4.766   1.280
 1749SOL    HW2 6147   1.618   4.612   1.236
 1750SOL     OW 6148   3.333   6.937   5.738
 1750SOL    HW1 6149   3.300   6.995   5.813
 1750SOL    HW2 6150   3.262   6.873   5.711
 1751SOL     OW 6151   5.202   2.627   5.266
 1751SOL    HW1 6152   5.156   2.711   5.236
 1751SOL    HW2 6153   5.140   2.574   5.323
 1752SOL     OW 6154   0.061   0.523   2.034
 1752SOL    HW1 6155   0.158   0.503   2.046
 1752SOL    HW2 6156   0.030   0.584   2.107
 1753SOL     OW 6157   6.293   1.723   1.803
 1753SOL    HW1 6158   6.264   1.640   1.754
 1753SOL    HW2 6159   6.226   1.795   1.788
 1754SOL     OW 6160   2.989   5.516   4.150
 1754SOL    HW1 6161   3.066   5.557   4.100
 1754SOL    HW2 6162   3.016   5.426   4.185
 1755SOL     OW 6163   6.328   6.675   4.869
 1755SOL    HW1 6164   6.257   6.739   4.898
 1755SOL    HW2 6165   6.290   6.583   4.863
 1756SOL     OW 6166   4.608   6.536   6.241
 1756SOL    HW1 6167   4.678   6.598   6.206
 1756SOL    HW2 6168   4.519   6.560   6.202
 1757SOL     OW 6169   2.297   4.893   5.261
 1757SOL    HW1 6170   2.284   4.896   5.360
 1757SOL    HW2 6171   2.247   4.814   5.224
 1758SOL     OW 6172   2.139   5.956   4.358
 1758SOL    HW1 6173   2.190   5.985   4.439
 1758SOL    HW2 6174   2.041   5.956   4.378
 1759SOL     OW 6175   1.745   6.764   0.519
 1759SOL    HW1 6176   1.836   6.805   0.529
 1759SOL    HW2 6177   1.695   6.774   0.605
 1760SOL     OW 6178   6.897   0.584   4.653
 1760SOL    HW1 6179   6.816   0.628   4.693
 1760SOL    HW2 6180   6.966   0.571   4.724
 1761SOL     OW 6181   6.146   1.521   2.557
 1761SOL    HW1 6182   6.079   1.447   2.559
 1761SOL    HW2 6183   6.198   1.521   2.642
 1762SOL     OW 6184   0.572   1.685   5.899
 1762SOL    HW1 6185   0.643   1.754   5.914
 1762SOL    HW2 6186   0.518   1.711   5.819
 1763SOL     OW 6187   0.499   4.132   3.819
 1763SOL    HW1 6188   0.420   4.109   3.763
 1763SOL    HW2 6189   0.560   4.191   3.767
 1764SOL     OW 6190   0.931   5.405   2.696
 1764SOL    HW1 6191   0.973   5.384   2.784
 1764SOL    HW2 6192   1.001   5.442   2.634
 1765SOL     OW 6193   5.583   3.274   2.245
 1765SOL    HW1 6194   5.557   3.369   2.231
 1765SOL    HW2 6195   5.681   3.269   2.266
 1766SOL     OW 6196   4.296   4.664   3.780
 1766SOL    HW1 6197   4.230   4.617   3.838
 1766SOL    HW2 6198   4.376   4.691   3.834
 1767SOL     OW 6199   1.037   4.666   2.468
 1767SOL    HW1 6200   0.984   4.697   2.389
 1767SOL    HW2 6201   1.134   4.683   2.451
 1768SOL     OW 6202   5.255   6.385   2.196
 1768SOL    HW1 6203   5.352   6.368   2.211
 1768SOL    HW2 6204   5.201   6.332   2.261
 1769SOL     OW 6205   5.905   0.952   0.683
 1769SOL    HW1 6206   5.873   0.916   0.595
 1769SOL    HW2 6207   5.835   1.011   0.723
 1770SOL     OW 6208   2.003   5.566   0.229
 1770SOL    HW1 6209   1.957   5.652   0.210
 1770SOL    HW2 6210   2.094   5.584   0.266
 1771SOL     OW 6211   1.362   3.096   5.851
 1771SOL    HW1 6212   1.320   3.060   5.934
 1771SOL    HW2 6213   1.293   3.108   5.780
 1772SOL     OW 6214   2.116   4.464   3.028
 1772SOL    HW1 6215   2.176   4.386   3.043
 1772SOL    HW2 6216   2.157   4.546   3.067
 1773SOL     OW 6217   1.469   6.403   6.387
 1773SOL    HW1 6218   1.490   6.313   6.427
 1773SOL    HW2 6219   1.524   6.473   6.431
 1774SOL     OW 6220   4.916   5.485   0.891
 1774SOL    HW1 6221   4.974   5.473   0.810
 1774SOL    HW2 6222   4.821   5.466   0.866
 1775SOL     OW 6223   2.152   5.661   6.705
 1775SOL    HW1 6224   2.059   5.627   6.714
 1775SOL    HW2 6225   2.193   5.626   6.621
 1776SOL     OW 6226   4.715   2.200   5.312
 1776SOL    HW1 6227   4.621   2.234   5.322
 1776SOL    HW2 6228   4.777   2.276   5.297
 1777SOL     OW 6229   4.884   6.148   6.731
 1777SOL    HW1 6230   4.808   6.212   6.717
 1777SOL    HW2 6231   4.947   6.185   6.799
 1778SOL     OW 6232   5.465   6.885   4.157
 1778SOL    HW1 6233   5.478   6.983   4.171
 1778SOL    HW2 6234   5.407   6.870   4.077
 1779SOL     OW 6235   5.351   6.349   4.629
 1779SOL    HW1 6236   5.283   6.327   4.699
 1779SOL    HW2 6237   5.435   6.299   4.648
 1780SOL     OW 6238   2.362   5.640   4.967
 1780SOL    HW1 6239   2.388   5.543   4.965
 1780SOL    HW2 6240   2.310   5.662   4.884
 1781SOL     OW 6241   4.085   0.691   4.271
 1781SOL    HW1 6242   4.073   0.593   4.253
 1781SOL    HW2 6243   4.175   0.719   4.238
 1782SOL     OW 6244   0.036   1.555   2.690
 1782SOL    HW1 6245   0.126   1.597   2.680
 1782SOL    HW2 6246   6.983   1.624   2.681
 1783SOL     OW 6247   2.192   3.742   6.577
 1783SOL    HW1 6248   2.099   3.778   6.579
 1783SOL    HW2 6249   2.256   3.814   6.551
 1784SOL     OW 6250   2.714   0.096   1.400
 1784SOL    HW1 6251   2.647   0.171   1.395
 1784SOL    HW2 6252   2.670   0.011   1.372
 1785SOL     OW 6253   1.463   6.455   4.641
 1785SOL    HW1 6254   1.415   6.402   4.572
 1785SOL    HW2 6255   1.399   6.486   4.711
 1786SOL     OW 6256   1.006   6.711   0.672
 1786SOL    HW1 6257   1.061   6.657   0.609
 1786SOL    HW2 6258   0.971   6.792   0.625
 1787SOL     OW 6259   3.008   3.485   6.389
 1787SOL    HW1 6260   3.025   3.402   6.336
 1787SOL    HW2 6261   2.955   3.549   6.334
 1788SOL     OW 6262   4.861   3.869   1.276
 1788SOL    HW1 6263   4.901   3.780   1.299
 1788SOL    HW2 6264   4.765   3.857   1.251
 1789SOL     OW 6265   5.731   3.939   1.927
 1789SOL    HW1 6266   5.765   4.033   1.937
 1789SOL    HW2 6267   5.761   3.903   1.839
 1790SOL     OW 6268   2.433   2.012   4.501
 1790SOL    HW1 6269   2.357   1.985   4.559
 1790SOL    HW2 6270   2.416   2.103   4.463
 1791SOL     OW 6271   4.948   6.897   3.465
 1791SOL    HW1 6272   4.997   6.959   3.526
 1791SOL    HW2 6273   5.000   6.887   3.380
 1792SOL     OW 6274   0.332   1.913   5.836
 1792SOL    HW1 6275   0.365   1.916   5.741
 1792SOL    HW2 6276   0.232   1.909   5.837
 1793SOL     OW 6277   0.187   0.968   5.688
 1793SOL    HW1 6278   0.134   0.885   5.669
 1793SOL    HW2 6279   0.126   1.040   5.720
 1794SOL     OW 6280   1.004   0.285   6.191
 1794SOL    HW1 6281   0.945   0.213   6.228
 1794SOL    HW2 6282   1.100   0.263   6.210
 1795SOL     OW 6283   5.743   4.528   1.248
 1795SOL    HW1 6284   5.651   4.490   1.238
 1795SOL    HW2 6285   5.806   4.455   1.274
 1796SOL     OW 6286   0.539   0.353   6.434
 1796SOL    HW1 6287   0.609   0.359   6.362
 1796SOL    HW2 6288   0.526   0.444   6.474
 1797SOL     OW 6289   1.769   5.194   6.261
 1797SOL    HW1 6290   1.846   5.162   6.205
 1797SOL    HW2 6291   1.795   5.279   6.307
 1798SOL     OW 6292   2.689   3.661   5.439
 1798SOL    HW1 6293   2.598   3.624   5.454
 1798SOL    HW2 6294   2.682   3.759   5.418
 1799SOL     OW 6295   3.279   1.577   0.629
 1799SOL    HW1 6296   3.180   1.579   0.642
 1799SOL    HW2 6297   3.299   1.574   0.531
 1800SOL     OW 6298   6.152   3.436   5.287
 1800SOL    HW1 6299   6.209   3.510   5.324
 1800SOL    HW2 6300   6.172   3.424   5.190
 1801SOL     OW 6301   1.323   0.920   3.040
 1801SOL    HW1 6302   1.271   0.971   2.972
 1801SOL    HW2 6303   1.280   0.929   3.130
 1802SOL     OW 6304   6.945   4.756   3.781
 1802SOL    HW1 6305   6.954   4.756   3.881
 1802SOL    HW2 6306   6.875   4.689   3.754
 1803SOL     OW 6307   0.371   0.278   3.118
 1803SOL    HW1 6308   0.453   0.287   3.175
 1803SOL    HW2 6309   0.380   0.337   3.038
 1804SOL     OW 6310   2.241   3.088   5.806
 1804SOL    HW1 6311   2.255   3.187   5.794
 1804SOL    HW2 6312   2.272   3.040   5.724
 1805SOL     OW 6313   0.389   5.453   0.309
 1805SOL    HW1 6314   0.395   5.358   0.276
 1805SOL    HW2 6315   0.479   5.482   0.341
 1806SOL     OW 6316   0.229   2.231   1.638
 1806SOL    HW1 6317   0.257   2.184   1.554
 1806SOL    HW2 6318   0.131   2.220   1.651
 1807SOL     OW 6319   0.334   2.645   2.908
 1807SOL    HW1 6320   0.424   2.636   2.951
 1807SOL    HW2 6321   0.319   2.740   2.882
 1808SOL     OW 6322   4.855   2.027   5.916
 1808SOL    HW1 6323   4.830   2.030   5.820
 1808SOL    HW2 6324   4.936   1.969   5.928
 1809SOL     OW 6325   4.432   0.514   5.010
 1809SOL    HW1 6326   4.472   0.592   5.059
 1809SOL    HW2 6327   4.495   0.437   5.013
 1810SOL     OW 6328   0.855   0.550   4.043
 1810SOL    HW1 6329   0.808   0.639   4.040
 1810SOL    HW2 6330   0.838   0.506   4.131
 1811SOL     OW 6331   3.973   5.418   1.404
 1811SOL    HW1 6332   4.056   5.472   1.415
 1811SOL    HW2 6333   3.922   5.451   1.325
 1812SOL     OW 6334   4.734   6.030   6.261
 1812SOL    HW1 6335   4.739   5.956   6.327
 1812SOL    HW2 6336   4.760   6.116   6.305
 1813SOL     OW 6337   4.840   4.410   2.110
 1813SOL    HW1 6338   4.903   4.476   2.069
 1813SOL    HW2 6339   4.888   4.359   2.181
 1814SOL     OW 6340   6.632   5.900   0.279
 1814SOL    HW1 6341   6.602   5.930   0.370
 1814SOL    HW2 6342   6.725   5.933   0.262
 1815SOL     OW 6343   5.556   6.328   1.155
 1815SOL    HW1 6344   5.646   6.331   1.199
 1815SOL    HW2 6345   5.567   6.333   1.056
 1816SOL     OW 6346   3.763   4.955   5.449
 1816SOL    HW1 6347   3.838   4.966   5.514
 1816SOL    HW2 6348   3.797   4.910   5.367
 1817SOL     OW 6349   0.145   2.347   3.992
 1817SOL    HW1 6350   0.133   2.320   3.896
 1817SOL    HW2 6351   0.122   2.270   4.052
 1818SOL     OW 6352   2.617   1.104   0.015
 1818SOL    HW1 6353   2.624   1.035   6.962
 1818SOL    HW2 6354   2.523   1.140   0.018
 1819SOL     OW 6355   1.904   4.761   2.970
 1819SOL    HW1 6356   1.980   4.769   2.906
 1819SOL    HW2 6357   1.891   4.665   2.996
 1820SOL     OW 6358   3.393   6.874   5.080
 1820SOL    HW1 6359   3.479   6.903   5.122
 1820SOL    HW2 6360   3.353   6.951   5.029
 1821SOL     OW 6361   3.514   2.071   2.624
 1821SOL    HW1 6362   3.419   2.069   2.656
 1821SOL    HW2 6363   3.572   2.109   2.696
 1822SOL     OW 6364   6.734   3.292   2.581
 1822SOL    HW1 6365   6.647   3.290   2.531
 1822SOL    HW2 6366   6.717   3.318   2.676
 1823SOL     OW 6367   4.392   6.200   2.061
 1823SOL    HW1 6368   4.443   6.261   2.001
 1823SOL    HW2 6369   4.295   6.224   2.058
 1824SOL     OW 6370   4.353   2.975   1.713
 1824SOL    HW1 6371   4.353   3.023   1.626
 1824SOL    HW2 6372   4.426   3.011   1.772
 1825SOL     OW 6373   1.445   2.009   4.781
 1825SOL    HW1 6374   1.403   2.089   4.737
 1825SOL    HW2 6375   1.420   1.926   4.731
 1826SOL     OW 6376   3.570   1.952   1.667
 1826SOL    HW1 6377   3.662   1.980   1.695
 1826SOL    HW2 6378   3.504   2.021   1.696
 1827SOL     OW 6379   5.666   5.587   0.904
 1827SOL    HW1 6380   5.718   5.643   0.839
 1827SOL    HW2 6381   5.687   5.491   0.888
 1828SOL     OW 6382   1.416   3.474   5.421
 1828SOL    HW1 6383   1.415   3.537   5.499
 1828SOL    HW2 6384   1.401   3.525   5.337
 1829SOL     OW 6385   3.893   0.618   2.636
 1829SOL    HW1 6386   3.805   0.636   2.681
 1829SOL    HW2 6387   3.877   0.589   2.542
 1830SOL     OW 6388   5.409   0.423   5.240
 1830SOL    HW1 6389   5.506   0.447   5.234
 1830SOL    HW2 6390   5.357   0.501   5.274
 1831SOL     OW 6391   3.742   4.647   0.693
 1831SOL    HW1 6392   3.685   4.646   0.611
 1831SOL    HW2 6393   3.815   4.714   0.682
 1832SOL     OW 6394   2.311   3.208   0.324
 1832SOL    HW1 6395   2.226   3.175   0.283
 1832SOL    HW2 6396   2.325   3.304   0.300
 1833SOL     OW 6397   5.859   1.188   6.747
 1833SOL    HW1 6398   5.774   1.161   6.701
 1833SOL    HW2 6399   5.838   1.220   6.840
 1834SOL     OW 6400   0.406   2.819   5.380
 1834SOL    HW1 6401   0.459   2.746   5.423
 1834SOL    HW2 6402   0.430   2.826   5.283
 1835SOL     OW 6403   0.139   6.684   1.776
 1835SOL    HW1 6404   0.063   6.629   1.741
 1835SOL    HW2 6405   0.222   6.628   1.779
 1836SOL     OW 6406   4.884   2.618   2.578
 1836SOL    HW1 6407   4.945   2.635   2.656
 1836SOL    HW2 6408   4.877   2.520   2.562
 1837SOL     OW 6409   2.856   2.377   5.990
 1837SOL    HW1 6410   2.784   2.348   6.053
 1837SOL    HW2 6411   2.923   2.432   6.039
 1838SOL     OW 6412   5.471   0.996   0.701
 1838SOL    HW1 6413   5.420   1.058   0.643
 1838SOL    HW2 6414   5.410   0.924   0.735
 1839SOL     OW 6415   0.106   0.615   0.337
 1839SOL    HW1 6416   0.011   0.584   0.334
 1839SOL    HW2 6417   0.164   0.550   0.287
 1840SOL     OW 6418   4.279   6.240   3.427
 1840SOL    HW1 6419   4.185   6.210   3.414
 1840SOL    HW2 6420   4.285   6.339   3.414
 1841SOL     OW 6421   1.869   0.975   2.415
 1841SOL    HW1 6422   1.831   0.947   2.503
 1841SOL    HW2 6423   1.805   0.949   2.342
 1842SOL     OW 6424   1.202   5.712   0.835
 1842SOL    HW1 6425   1.175   5.805   0.859
 1842SOL    HW2 6426   1.124   5.664   0.796
 1843SOL     OW 6427   2.417   0.880   5.597
 1843SOL    HW1 6428   2.427   0.832   5.510
 1843SOL    HW2 6429   2.326   0.920   5.602
 1844SOL     OW 6430   5.994   2.651   6.182
 1844SOL    HW1 6431   6.073   2.625   6.237
 1844SOL    HW2 6432   5.918   2.589   6.202
 1845SOL     OW 6433   1.354   2.325   2.869
 1845SOL    HW1 6434   1.280   2.388   2.844
 1845SOL    HW2 6435   1.414   2.370   2.936
 1846SOL     OW 6436   3.475   0.866   1.648
 1846SOL    HW1 6437   3.412   0.789   1.660
 1846SOL    HW2 6438   3.450   0.939   1.712
 1847SOL     OW 6439   1.868   5.682   5.281
 1847SOL    HW1 6440   1.918   5.683   5.367
 1847SOL    HW2 6441   1.816   5.597   5.273
 1848SOL     OW 6442   3.077   6.391   3.133
 1848SOL    HW1 6443   3.145   6.324   3.103
 1848SOL    HW2 6444   3.114   6.483   3.122
 1849SOL     OW 6445   5.049   2.863   2.309
 1849SOL    HW1 6446   5.047   2.777   2.259
 1849SOL    HW2 6447   5.051   2.845   2.408
 1850SOL     OW 6448   4.327   1.506   1.068
 1850SOL    HW1 6449   4.384   1.530   1.147
 1850SOL    HW2 6450   4.349   1.567   0.992
 1851SOL     OW 6451   0.813   4.593   5.061
 1851SOL    HW1 6452   0.812   4.680   5.013
 1851SOL    HW2 6453   0.731   4.585   5.117
 1852SOL     OW 6454   0.432   0.180   2.788
 1852SOL    HW1 6455   0.402   0.097   2.741
 1852SOL    HW2 6456   0.491   0.155   2.865
 1853SOL     OW 6457   0.199   2.637   5.907
 1853SOL    HW1 6458   0.294   2.666   5.898
 1853SOL    HW2 6459   0.140   2.704   5.863
 1854SOL     OW 6460   0.834   6.947   3.387
 1854SOL    HW1 6461   0.920   6.934   3.337
 1854SOL    HW2 6462   0.842   6.908   3.478
 1855SOL     OW 6463   5.109   3.133   4.647
 1855SOL    HW1 6464   5.186   3.095   4.698
 1855SOL    HW2 6465   5.136   3.220   4.605
 1856SOL     OW 6466   3.893   2.772   0.918
 1856SOL    HW1 6467   3.964   2.753   0.986
 1856SOL    HW2 6468   3.836   2.848   0.949
 1857SOL     OW 6469   4.075   1.505   0.040
 1857SOL    HW1 6470   4.126   1.526   0.124
 1857SOL    HW2 6471   4.074   1.406   0.025
 1858SOL     OW 6472   5.116   2.510   4.281
 1858SOL    HW1 6473   5.069   2.573   4.344
 1858SOL    HW2 6474   5.110   2.417   4.316
 1859SOL     OW 6475   6.897   1.689   4.210
 1859SOL    HW1 6476   6.962   1.725   4.143
 1859SOL    HW2 6477   6.889   1.754   4.287
 1860SOL     OW 6478   2.036   1.398   5.651
 1860SOL    HW1 6479   2.128   1.403   5.689
 1860SOL    HW2 6480   1.978   1.466   5.695
 1861SOL     OW 6481   6.659   6.614   3.667
 1861SOL    HW1 6482   6.686   6.595   3.572
 1861SOL    HW2 6483   6.726   6.574   3.729
 1862SOL     OW 6484   3.069   5.441   5.695
 1862SOL    HW1 6485   3.051   5.417   5.791
 1862SOL    HW2 6486   3.136   5.515   5.692
 1863SOL     OW 6487   0.165   2.769   0.538
 1863SOL    HW1 6488   0.182   2.708   0.616
 1863SOL    HW2 6489   0.089   2.734   0.483
 1864SOL     OW 6490   3.955   5.627   2.390
 1864SOL    HW1 6491   4.016   5.594   2.461
 1864SOL    HW2 6492   3.986   5.716   2.357
 1865SOL     OW 6493   6.054   1.983   5.393
 1865SOL    HW1 6494   6.013   1.894   5.372
 1865SOL    HW2 6495   6.017   2.017   5.479
 1866SOL     OW 6496   0.907   4.988   3.744
 1866SOL    HW1 6497   0.809   5.008   3.736
 1866SOL    HW2 6498   0.938   4.940   3.662
 1867SOL     OW 6499   1.534   2.442   1.443
 1867SOL    HW1 6500   1.440   2.457   1.475
 1867SOL    HW2 6501   1.543   2.477   1.350
 1868SOL     OW 6502   5.767   3.135   6.828
 1868SOL    HW1 6503   5.744   3.224   6.866
 1868SOL    HW2 6504   5.802   3.146   6.735
 1869SOL     OW 6505   4.298   1.095   4.288
 1869SOL    HW1 6506   4.355   1.091   4.370
 1869SOL    HW2 6507   4.214   1.146   4.308
 1870SOL     OW 6508   6.501   6.321   4.963
 1870SOL    HW1 6509   6.421   6.351   4.911
 1870SOL    HW2 6510   6.526   6.228   4.937
 1871SOL     OW 6511   0.345   6.112   0.437
 1871SOL    HW1 6512   0.355   6.208   0.461
 1871SOL    HW2 6513   0.253   6.095   0.402
 1872SOL     OW 6514   2.773   2.674   1.682
 1872SOL    HW1 6515   2.753   2.710   1.591
 1872SOL    HW2 6516   2.698   2.615   1.712
 1873SOL     OW 6517   6.365   1.505   0.727
 1873SOL    HW1 6518   6.334   1.423   0.774
 1873SOL    HW2 6519   6.462   1.496   0.704
 1874SOL     OW 6520   0.587   5.257   0.181
 1874SOL    HW1 6521   0.560   5.240   0.086
 1874SOL    HW2 6522   0.682   5.290   0.183
 1875SOL     OW 6523   6.777   5.132   0.404
 1875SOL    HW1 6524   6.777   5.072   0.484
 1875SOL    HW2 6525   6.828   5.215   0.425
 1876SOL     OW 6526   0.088   5.546   0.777
 1876SOL    HW1 6527   0.093   5.475   0.707
 1876SOL    HW2 6528   0.152   5.619   0.755
 1877SOL     OW 6529   0.852   1.412   2.476
 1877SOL    HW1 6530   0.849   1.512   2.480
 1877SOL    HW2 6531   0.944   1.383   2.450
 1878SOL     OW 6532   5.842   3.744   3.822
 1878SOL    HW1 6533   5.783   3.825   3.821
 1878SOL    HW2 6534   5.805   3.678   3.888
 1879SOL     OW 6535   4.620   5.688   4.378
 1879SOL    HW1 6536   4.540   5.681   4.438
 1879SOL    HW2 6537   4.644   5.784   4.366
 1880SOL     OW 6538   6.939   1.868   4.399
 1880SOL    HW1 6539   0.011   1.828   4.411
 1880SOL    HW2 6540   6.884   1.853   4.481
 1881SOL     OW 6541   1.760   1.482   4.098
 1881SOL    HW1 6542   1.798   1.423   4.027
 1881SOL    HW2 6543   1.833   1.537   4.139
 1882SOL     OW 6544   1.438   5.402   0.470
 1882SOL    HW1 6545   1.460   5.416   0.373
 1882SOL    HW2 6546   1.387   5.480   0.504
 1883SOL     OW 6547   1.465   2.865   3.121
 1883SOL    HW1 6548   1.387   2.816   3.080
 1883SOL    HW2 6549   1.436   2.906   3.208
 1884SOL     OW 6550   4.010   0.877   0.026
 1884SOL    HW1 6551   4.026   0.885   6.946
 1884SOL    HW2 6552   3.945   0.948   0.055
 1885SOL     OW 6553   0.038   1.974   0.989
 1885SOL    HW1 6554   0.128   2.019   0.990
 1885SOL    HW2 6555   0.051   1.875   0.986
 1886SOL     OW 6556   3.117   2.452   5.684
 1886SOL    HW1 6557   3.027   2.452   5.728
 1886SOL    HW2 6558   3.118   2.384   5.610
 1887SOL     OW 6559   0.887   6.287   4.996
 1887SOL    HW1 6560   0.895   6.385   4.976
 1887SOL    HW2 6561   0.947   6.263   5.072
 1888SOL     OW 6562   1.860   2.186   5.536
 1888SOL    HW1 6563   1.803   2.104   5.541
 1888SOL    HW2 6564   1.889   2.211   5.628
 1889SOL     OW 6565   3.385   2.726   0.038
 1889SOL    HW1 6566   3.385   2.700   6.960
 1889SOL    HW2 6567   3.301   2.693   0.081
 1890SOL     OW 6568   6.346   5.734   7.004
 1890SOL    HW1 6569   6.347   5.714   6.906
 1890SOL    HW2 6570   6.345   5.649   0.037
 1891SOL     OW 6571   5.657   3.863   6.146
 1891SOL    HW1 6572   5.606   3.806   6.210
 1891SOL    HW2 6573   5.752   3.869   6.175
 1892SOL     OW 6574   3.981   6.873   1.895
 1892SOL    HW1 6575   3.994   6.838   1.802
 1892SOL    HW2 6576   3.887   6.854   1.925
 1893SOL     OW 6577   3.360   1.946   5.302
 1893SOL    HW1 6578   3.453   1.918   5.322
 1893SOL    HW2 6579   3.295   1.881   5.342
 1894SOL     OW 6580   4.557   3.554   0.782
 1894SOL    HW1 6581   4.517   3.532   0.694
 1894SOL    HW2 6582   4.522   3.492   0.852
 1895SOL     OW 6583   4.868   0.881   3.365
 1895SOL    HW1 6584   4.909   0.811   3.308
 1895SOL    HW2 6585   4.768   0.872   3.364
 1896SOL     OW 6586   6.016   2.040   5.707
 1896SOL    HW1 6587   6.109   2.034   5.671
 1896SOL    HW2 6588   6.009   1.986   5.791
 1897SOL     OW 6589   5.799   5.291   3.608
 1897SOL    HW1 6590   5.737   5.366   3.583
 1897SOL    HW2 6591   5.747   5.208   3.626
 1898SOL     OW 6592   5.840   6.511   6.953
 1898SOL    HW1 6593   5.743   6.532   6.970
 1898SOL    HW2 6594   5.866   6.548   6.864
 1899SOL     OW 6595   1.371   1.866   3.542
 1899SOL    HW1 6596   1.307   1.934   3.578
 1899SOL    HW2 6597   1.444   1.850   3.609
 1900SOL     OW 6598   2.554   6.030   0.851
 1900SOL    HW1 6599   2.636   6.077   0.818
 1900SOL    HW2 6600   2.505   5.990   0.774
 1901SOL     OW 6601   1.442   1.423   6.343
 1901SOL    HW1 6602   1.357   1.403   6.294
 1901SOL    HW2 6603   1.495   1.491   6.291
 1902SOL     OW 6604   1.811   2.417   5.401
 1902SOL    HW1 6605   1.714   2.407   5.379
 1902SOL    HW2 6606   1.839   2.343   5.462
 1903SOL     OW 6607   6.616   4.488   4.184
 1903SOL    HW1 6608   6.626   4.422   4.109
 1903SOL    HW2 6609   6.565   4.446   4.259
 1904SOL     OW 6610   0.763   0.501   4.744
 1904SOL    HW1 6611   0.737   0.563   4.671
 1904SOL    HW2 6612   0.862   0.492   4.747
 1905SOL     OW 6613   6.401   3.120   4.121
 1905SOL    HW1 6614   6.373   3.205   4.164
 1905SOL    HW2 6615   6.329   3.052   4.131
 1906SOL     OW 6616   2.575   0.322   0.253
 1906SOL    HW1 6617   2.509   0.271   0.196
 1906SOL    HW2 6618   2.555   0.304   0.349
 1907SOL     OW 6619   3.563   5.903   2.982
 1907SOL    HW1 6620   3.505   5.840   3.033
 1907SOL    HW2 6621   3.578   5.986   3.037
 1908SOL     OW 6622   4.947   1.111   6.772
 1908SOL    HW1 6623   4.898   1.039   6.723
 1908SOL    HW2 6624   4.950   1.194   6.715
 1909SOL     OW 6625   4.045   4.817   4.532
 1909SOL    HW1 6626   4.137   4.785   4.556
 1909SOL    HW2 6627   3.994   4.837   4.616
 1910SOL     OW 6628   4.808   2.457   4.853
 1910SOL    HW1 6629   4.837   2.367   4.885
 1910SOL    HW2 6630   4.788   2.516   4.931
 1911SOL     OW 6631   6.877   3.789   6.329
 1911SOL    HW1 6632   6.835   3.870   6.370
 1911SOL    HW2 6633   6.933   3.816   6.251
 1912SOL     OW 6634   3.314   6.225   3.059
 1912SOL    HW1 6635   3.296   6.134   3.021
 1912SOL    HW2 6636   3.295   6.295   2.990
 1913SOL     OW 6637   1.542   4.453   5.121
 1913SOL    HW1 6638   1.454   4.425   5.082
 1913SOL    HW2 6639   1.586   4.519   5.061
 1914SOL     OW 6640   4.529   1.386   5.291
 1914SOL    HW1 6641   4.504   1.381   5.194
 1914SOL    HW2 6642   4.616   1.434   5.300
 1915SOL     OW 6643   3.826   0.312   5.202
 1915SOL    HW1 6644   3.921   0.341   5.217
 1915SOL    HW2 6645   3.776   0.316   5.289
 1916SOL     OW 6646   4.042   6.526   1.310
 1916SOL    HW1 6647   3.946   6.512   1.334
 1916SOL    HW2 6648   4.063   6.623   1.313
 1917SOL     OW 6649   3.252   3.399   4.365
 1917SOL    HW1 6650   3.182   3.471   4.364
 1917SOL    HW2 6651   3.213   3.315   4.402
 1918SOL     OW 6652   5.959   6.638   4.196
 1918SOL    HW1 6653   5.973   6.548   4.236
 1918SOL    HW2 6654   5.862   6.650   4.175
 1919SOL     OW 6655   6.381   6.811   2.210
 1919SOL    HW1 6656   6.401   6.901   2.172
 1919SOL    HW2 6657   6.449   6.745   2.178
 1920SOL     OW 6658   6.648   6.030   4.200
 1920SOL    HW1 6659   6.551   6.009   4.198
 1920SOL    HW2 6660   6.699   5.958   4.153
 1921SOL     OW 6661   0.945   6.919   6.168
 1921SOL    HW1 6662   0.863   6.947   6.117
 1921SOL    HW2 6663   0.953   6.819   6.165
 1922SOL     OW 6664   3.511   4.408   0.969
 1922SOL    HW1 6665   3.536   4.470   1.044
 1922SOL    HW2 6666   3.429   4.357   0.994
 1923SOL     OW 6667   2.218   2.118   0.484
 1923SOL    HW1 6668   2.223   2.193   0.549
 1923SOL    HW2 6669   2.295   2.056   0.498
 1924SOL     OW 6670   0.889   3.931   2.190
 1924SOL    HW1 6671   0.973   3.890   2.155
 1924SOL    HW2 6672   0.911   4.005   2.254
 1925SOL     OW 6673   3.582   4.286   0.478
 1925SOL    HW1 6674   3.651   4.233   0.429
 1925SOL    HW2 6675   3.599   4.384   0.466
 1926SOL     OW 6676   0.625   0.143   3.516
 1926SOL    HW1 6677   0.528   0.161   3.532
 1926SOL    HW2 6678   0.639   0.045   3.500
 1927SOL     OW 6679   4.070   3.852   0.124
 1927SOL    HW1 6680   4.155   3.838   0.074
 1927SOL    HW2 6681   3.992   3.830   0.064
 1928SOL     OW 6682   6.605   4.960   5.407
 1928SOL    HW1 6683   6.507   4.957   5.427
 1928SOL    HW2 6684   6.619   4.944   5.309
 1929SOL     OW 6685   1.323   0.225   2.549
 1929SOL    HW1 6686   1.376   0.273   2.619
 1929SOL    HW2 6687   1.285   0.141   2.588
 1930SOL     OW 6688   6.458   4.636   0.054
 1930SOL    HW1 6689   6.456   4.671   6.979
 1930SOL    HW2 6690   6.365   4.625   0.088
 1931SOL     OW 6691   1.126   2.574   5.126
 1931SOL    HW1 6692   1.124   2.649   5.192
 1931SOL    HW2 6693   1.061   2.592   5.053
 1932SOL     OW 6694   5.840   3.227   2.311
 1932SOL    HW1 6695   5.913   3.270   2.258
 1932SOL    HW2 6696   5.878   3.190   2.395
 1933SOL     OW 6697   2.761   4.417   1.442
 1933SOL    HW1 6698   2.705   4.395   1.362
 1933SOL    HW2 6699   2.782   4.334   1.492
 1934SOL     OW 6700   0.223   5.910   4.309
 1934SOL    HW1 6701   0.283   5.932   4.386
 1934SOL    HW2 6702   0.173   5.992   4.281
 1935SOL     OW 6703   2.252   0.648   4.079
 1935SOL    HW1 6704   2.292   0.665   4.169
 1935SOL    HW2 6705   2.325   0.636   4.011
 1936SOL     OW 6706   6.625   5.909   5.911
 1936SOL    HW1 6707   6.571   5.829   5.937
 1936SOL    HW2 6708   6.615   5.924   5.812
 1937SOL     OW 6709   4.323   6.843   2.648
 1937SOL    HW1 6710   4.370   6.923   2.610
 1937SOL    HW2 6711   4.340   6.764   2.590
 1938SOL     OW 6712   4.918   0.227   3.931
 1938SOL    HW1 6713   4.986   0.300   3.934
 1938SOL    HW2 6714   4.939   0.159   4.001
 1939SOL     OW 6715   2.414   0.137   3.337
 1939SOL    HW1 6716   2.331   0.105   3.291
 1939SOL    HW2 6717   2.482   0.064   3.338
 1940SOL     OW 6718   0.135   4.855   0.023
 1940SOL    HW1 6719   0.076   4.913   6.985
 1940SOL    HW2 6720   0.149   4.768   6.995
 1941SOL     OW 6721   5.036   4.998   3.163
 1941SOL    HW1 6722   5.099   4.921   3.151
 1941SOL    HW2 6723   5.087   5.083   3.157
 1942SOL     OW 6724   5.978   5.620   3.057
 1942SOL    HW1 6725   6.046   5.685   3.091
 1942SOL    HW2 6726   5.913   5.667   2.997
 1943SOL     OW 6727   2.846   5.176   2.597
 1943SOL    HW1 6728   2.879   5.267   2.574
 1943SOL    HW2 6729   2.895   5.108   2.543
 1944SOL     OW 6730   6.851   0.951   1.738
 1944SOL    HW1 6731   6.804   0.865   1.753
 1944SOL    HW2 6732   6.860   0.968   1.639
 1945SOL     OW 6733   2.945   5.221   4.139
 1945SOL    HW1 6734   2.874   5.152   4.155
 1945SOL    HW2 6735   3.027   5.196   4.191
 1946SOL     OW 6736   1.608   0.471   6.894
 1946SOL    HW1 6737   1.535   0.540   6.891
 1946SOL    HW2 6738   1.568   0.382   6.917
 1947SOL     OW 6739   5.638   6.242   4.769
 1947SOL    HW1 6740   5.705   6.264   4.697
 1947SOL    HW2 6741   5.665   6.157   4.814
 1948SOL     OW 6742   5.920   4.232   5.855
 1948SOL    HW1 6743   5.878   4.154   5.902
 1948SOL    HW2 6744   5.909   4.221   5.757
 1949SOL     OW 6745   5.341   4.288   6.729
 1949SOL    HW1 6746   5.327   4.313   6.825
 1949SOL    HW2 6747   5.345   4.189   6.720
 1950SOL     OW 6748   3.241   3.610   0.446
 1950SOL    HW1 6749   3.240   3.628   0.545
 1950SOL    HW2 6750   3.148   3.610   0.411
 1951SOL     OW 6751   6.946   2.097   0.067
 1951SOL    HW1 6752   0.002   2.104   0.133
 1951SOL    HW2 6753   6.858   2.102   0.116
 1952SOL     OW 6754   3.627   1.736   5.840
 1952SOL    HW1 6755   3.541   1.788   5.846
 1952SOL    HW2 6756   3.609   1.647   5.800
 1953SOL     OW 6757   0.278   3.501   5.705
 1953SOL    HW1 6758   0.273   3.469   5.799
 1953SOL    HW2 6759   0.349   3.450   5.656
 1954SOL     OW 6760   3.299   2.130   3.848
 1954SOL    HW1 6761   3.229   2.149   3.917
 1954SOL    HW2 6762   3.273   2.049   3.796
 1955SOL     OW 6763   6.486   5.957   2.800
 1955SOL    HW1 6764   6.571   5.998   2.766
 1955SOL    HW2 6765   6.431   6.027   2.845
 1956SOL     OW 6766   5.813   5.874   2.593
 1956SOL    HW1 6767   5.870   5.815   2.651
 1956SOL    HW2 6768   5.733   5.824   2.561
 1957SOL     OW 6769   1.214   6.968   4.908
 1957SOL    HW1 6770   1.300   6.920   4.894
 1957SOL    HW2 6771   1.141   6.920   4.859
 1958SOL     OW 6772   5.539   3.791   5.891
 1958SOL    HW1 6773   5.484   3.707   5.888
 1958SOL    HW2 6774   5.609   3.783   5.962
 1959SOL     OW 6775   1.271   2.398   6.396
 1959SOL    HW1 6776   1.316   2.388   6.485
 1959SOL    HW2 6777   1.238   2.308   6.366
 1960SOL     OW 6778   5.829   6.314   1.245
 1960SOL    HW1 6779   5.803   6.258   1.324
 1960SOL    HW2 6780   5.808   6.410   1.265
 1961SOL     OW 6781   5.847   4.984   3.867
 1961SOL    HW1 6782   5.770   5.003   3.805
 1961SOL    HW2 6783   5.835   4.893   3.906
 1962SOL     OW 6784   6.802   6.382   2.747
 1962SOL    HW1 6785   6.709   6.395   2.711
 1962SOL    HW2 6786   6.835   6.469   2.785
 1963SOL     OW 6787   1.823   0.374   2.765
 1963SOL    HW1 6788   1.777   0.377   2.676
 1963SOL    HW2 6789   1.921   0.386   2.751
 1964SOL     OW 6790   5.834   3.187   2.914
 1964SOL    HW1 6791   5.912   3.250   2.918
 1964SOL    HW2 6792   5.812   3.155   3.006
 1965SOL     OW 6793   2.119   4.822   3.568
 1965SOL    HW1 6794   2.187   4.880   3.613
 1965SOL    HW2 6795   2.073   4.875   3.497
 1966SOL     OW 6796   6.434   5.699   5.960
 1966SOL    HW1 6797   6.344   5.741   5.950
 1966SOL    HW2 6798   6.427   5.620   6.022
 1967SOL     OW 6799   4.731   2.118   4.976
 1967SOL    HW1 6800   4.767   2.108   5.069
 1967SOL    HW2 6801   4.641   2.075   4.970
 1968SOL     OW 6802   3.216   5.320   6.194
 1968SOL    HW1 6803   3.149   5.381   6.150
 1968SOL    HW2 6804   3.292   5.374   6.229
 1969SOL     OW 6805   6.549   2.912   1.436
 1969SOL    HW1 6806   6.516   2.895   1.529
 1969SOL    HW2 6807   6.471   2.920   1.375
 1970SOL     OW 6808   1.639   0.024   3.444
 1970SOL    HW1 6809   1.657   7.011   3.351
 1970SOL    HW2 6810   1.605   6.967   3.500
 1971SOL     OW 6811   0.297   6.240   6.587
 1971SOL    HW1 6812   0.281   6.306   6.660
 1971SOL    HW2 6813   0.216   6.181   6.576
 1972SOL     OW 6814   0.639   5.126   3.894
 1972SOL    HW1 6815   0.618   5.081   3.807
 1972SOL    HW2 6816   0.693   5.065   3.952
 1973SOL     OW 6817   2.966   2.917   0.649
 1973SOL    HW1 6818   2.902   2.931   0.574
 1973SOL    HW2 6819   3.052   2.965   0.630
 1974SOL     OW 6820   5.568   0.367   4.300
 1974SOL    HW1 6821   5.506   0.360   4.379
 1974SOL    HW2 6822   5.613   0.456   4.301
 1975SOL     OW 6823   3.447   0.500   3.370
 1975SOL    HW1 6824   3.393   0.477   3.451
 1975SOL    HW2 6825   3.460   0.599   3.365
 1976SOL     OW 6826   0.320   4.929   0.214
 1976SOL    HW1 6827   0.418   4.912   0.203
 1976SOL    HW2 6828   0.271   4.887   0.138
 1977SOL     OW 6829   1.853   2.964   4.921
 1977SOL    HW1 6830   1.835   2.959   5.019
 1977SOL    HW2 6831   1.931   2.906   4.899
 1978SOL     OW 6832   6.701   1.401   4.833
 1978SOL    HW1 6833   6.666   1.494   4.823
 1978SOL    HW2 6834   6.797   1.399   4.804
 1979SOL     OW 6835   5.547   4.938   3.464
 1979SOL    HW1 6836   5.519   4.844   3.447
 1979SOL    HW2 6837   5.515   4.996   3.389
 1980SOL     OW 6838   4.312   0.479   1.455
 1980SOL    HW1 6839   4.320   0.486   1.554
 1980SOL    HW2 6840   4.217   0.462   1.430
 1981SOL     OW 6841   4.593   3.263   1.667
 1981SOL    HW1 6842   4.617   3.183   1.722
 1981SOL    HW2 6843   4.503   3.296   1.694
 1982SOL     OW 6844   5.563   6.319   5.017
 1982SOL    HW1 6845   5.548   6.232   5.064
 1982SOL    HW2 6846   5.589   6.302   4.922
 1983SOL     OW 6847   0.576   3.694   3.342
 1983SOL    HW1 6848   0.579   3.784   3.300
 1983SOL    HW2 6849   0.660   3.644   3.320
 1984SOL     OW 6850   4.291   0.424   5.704
 1984SOL    HW1 6851   4.274   0.442   5.607
 1984SOL    HW2 6852   4.224   0.357   5.737
 1985SOL     OW 6853   1.491   1.155   1.631
 1985SOL    HW1 6854   1.476   1.155   1.730
 1985SOL    HW2 6855   1.572   1.209   1.609
 1986SOL     OW 6856   1.311   1.452   5.919
 1986SOL    HW1 6857   1.300   1.461   6.018
 1986SOL    HW2 6858   1.317   1.355   5.894
 1987SOL     OW 6859   2.607   2.913   6.885
 1987SOL    HW1 6860   2.696   2.912   6.840
 1987SOL    HW2 6861   2.540   2.959   6.826
 1988SOL     OW 6862   4.206   3.380   0.844
 1988SOL    HW1 6863   4.241   3.434   0.767
 1988SOL    HW2 6864   4.134   3.431   0.891
 1989SOL     OW 6865   2.513   0.205   4.166
 1989SOL    HW1 6866   2.608   0.223   4.191
 1989SOL    HW2 6867   2.452   0.249   4.232
 1990SOL     OW 6868   2.881   0.580   1.866
 1990SOL    HW1 6869   2.956   0.550   1.924
 1990SOL    HW2 6870   2.914   0.648   1.800
 1991SOL     OW 6871   3.142   5.590   4.436
 1991SOL    HW1 6872   3.148   5.545   4.525
 1991SOL    HW2 6873   3.186   5.532   4.367
 1992SOL     OW 6874   1.902   6.749   5.249
 1992SOL    HW1 6875   2.001   6.765   5.247
 1992SOL    HW2 6876   1.855   6.821   5.197
 1993SOL     OW 6877   3.893   3.456   5.215
 1993SOL    HW1 6878   3.844   3.534   5.175
 1993SOL    HW2 6879   3.830   3.403   5.272
 1994SOL     OW 6880   6.341   2.209   2.394
 1994SOL    HW1 6881   6.438   2.232   2.406
 1994SOL    HW2 6882   6.304   2.262   2.317
 1995SOL     OW 6883   5.531   2.412   1.919
 1995SOL    HW1 6884   5.600   2.436   1.987
 1995SOL    HW2 6885   5.492   2.323   1.939
 1996SOL     OW 6886   3.227   4.257   0.340
 1996SOL    HW1 6887   3.269   4.286   0.426
 1996SOL    HW2 6888   3.191   4.336   0.291
 1997SOL     OW 6889   5.480   0.782   3.737
 1997SOL    HW1 6890   5.543   0.736   3.674
 1997SOL    HW2 6891   5.514   0.773   3.830
 1998SOL     OW 6892   2.973   4.760   5.279
 1998SOL    HW1 6893   3.027   4.723   5.355
 1998SOL    HW2 6894   2.921   4.686   5.237
 1999SOL     OW 6895   2.327   1.181   1.930
 1999SOL    HW1 6896   2.265   1.159   2.006
 1999SOL    HW2 6897   2.360   1.097   1.888
 2000SOL     OW 6898   3.975   1.857   5.045
 2000SOL    HW1 6899   3.931   1.830   5.130
 2000SOL    HW2 6900   3.964   1.955   5.030
 2001SOL     OW 6901   3.005   2.098   0.973
 2001SOL    HW1 6902   2.922   2.110   1.028
 2001SOL    HW2 6903   3.029   2.001   0.969
 2002SOL     OW 6904   2.154   5.088   5.149
 2002SOL    HW1 6905   2.216   5.009   5.148
 2002SOL    HW2 6906   2.061   5.056   5.167
 2003SOL     OW 6907   6.143   5.999   3.991
 2003SOL    HW1 6908   6.172   6.021   3.898
 2003SOL    HW2 6909   6.063   6.054   4.014
 2004SOL     OW 6910   2.745   0.658   5.696
 2004SOL    HW1 6911   2.767   0.572   5.649
 2004SOL    HW2 6912   2.804   0.731   5.660
 2005SOL     OW 6913   2.433   6.084   5.883
 2005SOL    HW1 6914   2.343   6.126   5.893
 2005SOL    HW2 6915   2.456   6.034   5.967
 2006SOL     OW 6916   3.741   5.014   3.898
 2006SOL    HW1 6917   3.828   4.967   3.882
 2006SOL    HW2 6918   3.706   4.989   3.988
 2007SOL     OW 6919   5.670   5.926   0.555
 2007SOL    HW1 6920   5.685   6.025   0.549
 2007SOL    HW2 6921   5.611   5.905   0.632
 2008SOL     OW 6922   0.437   5.923   4.043
 2008SOL    HW1 6923   0.414   5.856   3.972
 2008SOL    HW2 6924   0.363   5.928   4.109
 2009SOL     OW 6925   0.329   6.991   1.884
 2009SOL    HW1 6926   0.287   7.003   1.974
 2009SOL    HW2 6927   0.300   0.046   1.823
 2010SOL     OW 6928   1.534   0.555   0.383
 2010SOL    HW1 6929   1.505   0.635   0.330
 2010SOL    HW2 6930   1.627   0.570   0.418
 2011SOL     OW 6931   0.096   2.269   5.032
 2011SOL    HW1 6932   7.016   2.281   5.016
 2011SOL    HW2 6933   0.111   2.194   5.096
 2012SOL     OW 6934   1.303   4.052   0.921
 2012SOL    HW1 6935   1.389   4.013   0.954
 2012SOL    HW2 6936   1.243   3.978   0.890
 2013SOL     OW 6937   4.912   1.412   2.269
 2013SOL    HW1 6938   4.959   1.443   2.351
 2013SOL    HW2 6939   4.936   1.472   2.192
 2014SOL     OW 6940   2.117   5.544   2.470
 2014SOL    HW1 6941   2.174   5.626   2.470
 2014SOL    HW2 6942   2.021   5.570   2.480
 2015SOL     OW 6943   3.456   0.084   6.940
 2015SOL    HW1 6944   3.556   0.089   6.942
 2015SOL    HW2 6945   3.426   0.036   6.858
 2016SOL     OW 6946   0.307   5.246   4.740
 2016SOL    HW1 6947   0.302   5.203   4.650
 2016SOL    HW2 6948   0.379   5.204   4.794
 2017SOL     OW 6949   2.900   5.781   2.630
 2017SOL    HW1 6950   2.956   5.824   2.559
 2017SOL    HW2 6951   2.956   5.762   2.710
 2018SOL     OW 6952   1.046   5.467   5.599
 2018SOL    HW1 6953   1.042   5.558   5.641
 2018SOL    HW2 6954   1.000   5.401   5.659
 2019SOL     OW 6955   6.361   1.923   2.465
 2019SOL    HW1 6956   6.453   1.914   2.504
 2019SOL    HW2 6957   6.328   2.016   2.479
 2020SOL     OW 6958   2.704   6.039   3.080
 2020SOL    HW1 6959   2.761   6.116   3.051
 2020SOL    HW2 6960   2.608   6.059   3.057
 2021SOL     OW 6961   0.998   0.784   2.142
 2021SOL    HW1 6962   0.950   0.704   2.178
 2021SOL    HW2 6963   0.954   0.813   2.057
 2022SOL     OW 6964   2.109   3.727   1.611
 2022SOL    HW1 6965   2.016   3.692   1.595
 2022SOL    HW2 6966   2.121   3.743   1.709
 2023SOL     OW 6967   6.660   0.882   5.741
 2023SOL    HW1 6968   6.673   0.842   5.650
 2023SOL    HW2 6969   6.741   0.865   5.797
 2024SOL     OW 6970   6.021   0.965   3.837
 2024SOL    HW1 6971   6.024   0.865   3.830
 2024SOL    HW2 6972   5.933   0.998   3.804
 2025SOL     OW 6973   7.014   1.381   1.548
 2025SOL    HW1 6974   0.016   1.407   1.642
 2025SOL    HW2 6975   6.928   1.424   1.520
 2026SOL     OW 6976   1.668   1.511   5.231
 2026SOL    HW1 6977   1.677   1.503   5.331
 2026SOL    HW2 6978   1.698   1.426   5.188
 2027SOL     OW 6979   0.669   1.684   3.009
 2027SOL    HW1 6980   0.643   1.755   3.074
 2027SOL    HW2 6981   0.667   1.720   2.916
 2028SOL     OW 6982   4.083   2.996   6.985
 2028SOL    HW1 6983   4.015   3.036   0.028
 2028SOL    HW2 6984   4.037   2.944   6.913
 2029SOL     OW 6985   1.033   0.874   6.978
 2029SOL    HW1 6986   0.941   0.879   6.939
 2029SOL    HW2 6987   1.100   0.864   6.905
 2030SOL     OW 6988   1.850   1.080   3.576
 2030SOL    HW1 6989   1.848   1.006   3.509
 2030SOL    HW2 6990   1.945   1.103   3.597
 2031SOL     OW 6991   5.795   0.168   1.939
 2031SOL    HW1 6992   5.756   0.091   1.889
 2031SOL    HW2 6993   5.894   0.158   1.943
 2032SOL     OW 6994   5.198   6.741   1.419
 2032SOL    HW1 6995   5.254   6.658   1.427
 2032SOL    HW2 6996   5.158   6.745   1.328
 2033SOL     OW 6997   5.456   5.153   6.674
 2033SOL    HW1 6998   5.468   5.196   6.584
 2033SOL    HW2 6999   5.469   5.222   6.746
 2034SOL     OW 7000   2.066   0.200   2.710
 2034SOL    HW1 7001   2.090   0.114   2.755
 2034SOL    HW2 7002   2.037   0.181   2.616
 2035SOL     OW 7003   1.246   2.500   2.400
 2035SOL    HW1 7004   1.262   2.427   2.334
 2035SOL    HW2 7005   1.209   2.581   2.353
 2036SOL     OW 7006   1.873   4.407   0.626
 2036SOL    HW1 7007   1.841   4.472   0.696
 2036SOL    HW2 7008   1.973   4.414   0.618
 2037SOL     OW 7009   0.122   1.363   5.940
 2037SOL    HW1 7010   0.206   1.386   5.988
 2037SOL    HW2 7011   0.086   1.444   5.895
 2038SOL     OW 7012   0.681   0.773   4.069
 2038SOL    HW1 7013   0.647   0.857   4.111
 2038SOL    HW2 7014   0.622   0.749   3.991
 2039SOL     OW 7015   0.254   5.062   2.228
 2039SOL    HW1 7016   0.311   5.111   2.162
 2039SOL    HW2 7017   0.312   5.003   2.284
 2040SOL     OW 7018   4.136   3.422   4.388
 2040SOL    HW1 7019   4.121   3.325   4.406
 2040SOL    HW2 7020   4.092   3.446   4.301
 2041SOL     OW 7021   6.223   4.193   5.709
 2041SOL    HW1 7022   6.201   4.233   5.798
 2041SOL    HW2 7023   6.202   4.258   5.637
 2042SOL     OW 7024   4.443   5.389   6.915
 2042SOL    HW1 7025   4.482   5.300   6.940
 2042SOL    HW2 7026   4.409   5.385   6.821
 2043SOL     OW 7027   5.523   4.623   1.800
 2043SOL    HW1 7028   5.456   4.657   1.866
 2043SOL    HW2 7029   5.482   4.551   1.744
 2044SOL     OW 7030   6.416   0.052   2.118
 2044SOL    HW1 7031   6.413   0.115   2.196
 2044SOL    HW2 7032   6.428   0.104   2.034
 2045SOL     OW 7033   2.107   5.291   6.217
 2045SOL    HW1 7034   2.101   5.327   6.124
 2045SOL    HW2 7035   2.161   5.207   6.216
 2046SOL     OW 7036   6.453   0.049   4.823
 2046SOL    HW1 7037   6.480   0.118   4.757
 2046SOL    HW2 7038   6.508   6.985   4.810
 2047SOL     OW 7039   5.461   2.569   0.359
 2047SOL    HW1 7040   5.392   2.641   0.358
 2047SOL    HW2 7041   5.480   2.539   0.266
 2048SOL     OW 7042   5.077   0.110   5.666
 2048SOL    HW1 7043   5.044   0.025   5.628
 2048SOL    HW2 7044   5.040   0.123   5.758
 2049SOL     OW 7045   4.885   0.590   0.194
 2049SOL    HW1 7046   4.787   0.571   0.198
 2049SOL    HW2 7047   4.907   0.633   0.106
 2050SOL     OW 7048   5.595   2.728   3.745
 2050SOL    HW1 7049   5.633   2.806   3.696
 2050SOL    HW2 7050   5.496   2.726   3.735
 2051SOL     OW 7051   1.772   5.675   0.518
 2051SOL    HW1 7052   1.745   5.580   0.504
 2051SOL    HW2 7053   1.692   5.735   0.506
 2052SOL     OW 7054   1.053   2.684   0.849
 2052SOL    HW1 7055   1.007   2.604   0.887
 2052SOL    HW2 7056   1.011   2.708   0.761
 2053SOL     OW 7057   5.976   0.607   0.226
 2053SOL    HW1 7058   6.007   0.533   0.286
 2053SOL    HW2 7059   5.937   0.680   0.282
 2054SOL     OW 7060   5.910   2.346   0.654
 2054SOL    HW1 7061   5.989   2.403   0.632
 2054SOL    HW2 7062   5.830   2.380   0.606
 2055SOL     OW 7063   5.476   2.647   4.445
 2055SOL    HW1 7064   5.427   2.568   4.482
 2055SOL    HW2 7065   5.514   2.623   4.355
 2056SOL     OW 7066   2.393   0.675   3.230
 2056SOL    HW1 7067   2.410   0.585   3.272
 2056SOL    HW2 7068   2.316   0.719   3.276
 2057SOL     OW 7069   0.151   3.393   4.245
 2057SOL    HW1 7070   0.052   3.382   4.240
 2057SOL    HW2 7071   0.189   3.323   4.305
 2058SOL     OW 7072   6.988   2.146   2.232
 2058SOL    HW1 7073   0.040   2.081   2.205
 2058SOL    HW2 7074   6.971   2.138   2.330
 2059SOL     OW 7075   1.783   1.556   6.828
 2059SOL    HW1 7076   1.849   1.629   6.811
 2059SOL    HW2 7077   1.746   1.523   6.740
 2060SOL     OW 7078   0.208   5.321   2.534
 2060SOL    HW1 7079   0.167   5.344   2.622
 2060SOL    HW2 7080   0.296   5.276   2.549
 2061SOL     OW 7081   6.521   1.462   1.678
 2061SOL    HW1 7082   6.476   1.475   1.766
 2061SOL    HW2 7083   6.589   1.388   1.685
 2062SOL     OW 7084   4.718   0.344   3.203
 2062SOL    HW1 7085   4.659   0.404   3.257
 2062SOL    HW2 7086   4.752   0.270   3.261
 2063SOL     OW 7087   2.107   2.666   6.503
 2063SOL    HW1 7088   2.016   2.642   6.470
 2063SOL    HW2 7089   2.174   2.651   6.431
 2064SOL     OW 7090   1.244   2.635   0.186
 2064SOL    HW1 7091   1.148   2.609   0.180
 2064SOL    HW2 7092   1.295   2.565   0.237
 2065SOL     OW 7093   6.058   4.152   1.597
 2065SOL    HW1 7094   6.155   4.153   1.574
 2065SOL    HW2 7095   6.034   4.237   1.645
 2066SOL     OW 7096   0.792   0.200   4.239
 2066SOL    HW1 7097   0.706   0.160   4.270
 2066SOL    HW2 7098   0.792   0.298   4.259
 2067SOL     OW 7099   6.724   6.918   1.530
 2067SOL    HW1 7100   6.706   6.927   1.432
 2067SOL    HW2 7101   6.790   6.987   1.559
 2068SOL     OW 7102   1.730   1.752   5.131
 2068SOL    HW1 7103   1.718   1.661   5.171
 2068SOL    HW2 7104   1.649   1.807   5.150
 2069SOL     OW 7105   0.661   2.420   2.021
 2069SOL    HW1 7106   0.744   2.398   2.071
 2069SOL    HW2 7107   0.673   2.505   1.970
 2070SOL     OW 7108   1.356   1.066   2.666
 2070SOL    HW1 7109   1.444   1.070   2.714
 2070SOL    HW2 7110   1.371   1.088   2.569
 2071SOL     OW 7111   1.463   0.116   3.945
 2071SOL    HW1 7112   1.526   0.169   4.001
 2071SOL    HW2 7113   1.488   0.019   3.948
 2072SOL     OW 7114   4.881   5.589   1.819
 2072SOL    HW1 7115   4.785   5.617   1.827
 2072SOL    HW2 7116   4.887   5.508   1.760
 2073SOL     OW 7117   2.730   6.580   5.983
 2073SOL    HW1 7118   2.693   6.584   6.076
 2073SOL    HW2 7119   2.687   6.505   5.934
 2074SOL     OW 7120   5.906   1.607   1.793
 2074SOL    HW1 7121   5.950   1.642   1.875
 2074SOL    HW2 7122   5.971   1.554   1.740
 2075SOL     OW 7123   4.295   3.159   0.693
 2075SOL    HW1 7124   4.255   3.219   0.762
 2075SOL    HW2 7125   4.386   3.129   0.724
 2076SOL     OW 7126   5.525   6.770   1.121
 2076SOL    HW1 7127   5.470   6.835   1.069
 2076SOL    HW2 7128   5.467   6.694   1.152
 2077SOL     OW 7129   5.338   1.059   2.794
 2077SOL    HW1 7130   5.242   1.031   2.799
 2077SOL    HW2 7131   5.344   1.158   2.804
 2078SOL     OW 7132   3.283   4.611   5.908
 2078SOL    HW1 7133   3.258   4.524   5.865
 2078SOL    HW2 7134   3.258   4.609   6.004
 2079SOL     OW 7135   5.501   1.123   3.935
 2079SOL    HW1 7136   5.468   1.156   4.024
 2079SOL    HW2 7137   5.477   1.026   3.925
 2080SOL     OW 7138   2.476   2.465   4.541
 2080SOL    HW1 7139   2.521   2.404   4.607
 2080SOL    HW2 7140   2.443   2.546   4.588
 2081SOL     OW 7141   0.710   6.569   5.396
 2081SOL    HW1 7142   0.641   6.545   5.465
 2081SOL    HW2 7143   0.673   6.551   5.305
 2082SOL     OW 7144   5.810   1.057   1.197
 2082SOL    HW1 7145   5.853   1.106   1.273
 2082SOL    HW2 7146   5.715   1.036   1.221
 2083SOL     OW 7147   3.954   4.832   6.270
 2083SOL    HW1 7148   3.863   4.791   6.267
 2083SOL    HW2 7149   4.017   4.776   6.217
 2084SOL     OW 7150   0.072   3.000   3.151
 2084SOL    HW1 7151   0.112   3.081   3.195
 2084SOL    HW2 7152   0.022   2.947   3.219
 2085SOL     OW 7153   5.109   0.497   5.694
 2085SOL    HW1 7154   5.115   0.428   5.621
 2085SOL    HW2 7155   5.022   0.488   5.741
 2086SOL     OW 7156   2.573   4.910   0.429
 2086SOL    HW1 7157   2.656   4.855   0.443
 2086SOL    HW2 7158   2.543   4.948   0.516
 2087SOL     OW 7159   5.273   6.968   3.361
 2087SOL    HW1 7160   5.357   6.944   3.312
 2087SOL    HW2 7161   5.194   6.948   3.303
 2088SOL     OW 7162   3.565   0.270   0.940
 2088SOL    HW1 7163   3.496   0.228   0.882
 2088SOL    HW2 7164   3.547   0.247   1.035
 2089SOL     OW 7165   4.447   0.559   6.617
 2089SOL    HW1 7166   4.421   0.593   6.707
 2089SOL    HW2 7167   4.445   0.634   6.551
 2090SOL     OW 7168   3.544   3.710   4.798
 2090SOL    HW1 7169   3.451   3.713   4.835
 2090SOL    HW2 7170   3.551   3.772   4.720
 2091SOL     OW 7171   1.946   5.079   1.348
 2091SOL    HW1 7172   2.022   5.014   1.342
 2091SOL    HW2 7173   1.861   5.033   1.323
 2092SOL     OW 7174   6.682   6.445   0.992
 2092SOL    HW1 7175   6.703   6.523   0.934
 2092SOL    HW2 7176   6.587   6.452   1.024
 2093SOL     OW 7177   0.953   3.056   1.724
 2093SOL    HW1 7178   1.045   3.094   1.726
 2093SOL    HW2 7179   0.933   3.012   1.811
 2094SOL     OW 7180   5.706   0.183   2.195
 2094SOL    HW1 7181   5.694   0.090   2.229
 2094SOL    HW2 7182   5.704   0.183   2.095
 2095SOL     OW 7183   5.644   5.460   4.976
 2095SOL    HW1 7184   5.679   5.552   4.959
 2095SOL    HW2 7185   5.654   5.438   5.073
 2096SOL     OW 7186   4.686   4.250   2.454
 2096SOL    HW1 7187   4.618   4.218   2.388
 2096SOL    HW2 7188   4.657   4.338   2.492
 2097SOL     OW 7189   0.448   2.750   0.107
 2097SOL    HW1 7190   0.367   2.732   0.053
 2097SOL    HW2 7191   0.528   2.707   0.064
 2098SOL     OW 7192   4.562   0.054   4.204
 2098SOL    HW1 7193   4.551   6.973   4.200
 2098SOL    HW2 7194   4.587   0.089   4.114
 2099SOL     OW 7195   3.439   1.276   4.120
 2099SOL    HW1 7196   3.412   1.306   4.212
 2099SOL    HW2 7197   3.495   1.193   4.128
 2100SOL     OW 7198   4.902   4.038   6.494
 2100SOL    HW1 7199   4.870   3.957   6.543
 2100SOL    HW2 7200   4.883   4.119   6.548
 2101SOL     OW 7201   0.367   0.161   3.572
 2101SOL    HW1 7202   0.327   0.246   3.607
 2101SOL    HW2 7203   0.300   0.114   3.514
 2102SOL     OW 7204   7.007   5.246   3.484
 2102SOL    HW1 7205   6.964   5.165   3.524
 2102SOL    HW2 7206   0.081   5.257   3.520
 2103SOL     OW 7207   3.416   3.532   6.355
 2103SOL    HW1 7208   3.513   3.522   6.375
 2103SOL    HW2 7209   3.367   3.560   6.438
 2104SOL     OW 7210   1.686   3.449   5.428
 2104SOL    HW1 7211   1.587   3.461   5.425
 2104SOL    HW2 7212   1.710   3.362   5.385
 2105SOL     OW 7213   6.096   6.151   1.817
 2105SOL    HW1 7214   6.080   6.076   1.881
 2105SOL    HW2 7215   6.179   6.200   1.843
 2106SOL     OW 7216   5.024   5.385   6.745
 2106SOL    HW1 7217   5.120   5.393   6.718
 2106SOL    HW2 7218   4.990   5.294   6.722
 2107SOL     OW 7219   4.446   4.188   5.909
 2107SOL    HW1 7220   4.545   4.201   5.898
 2107SOL    HW2 7221   4.419   4.208   6.003
 2108SOL     OW 7222   5.742   4.986   5.593
 2108SOL    HW1 7223   5.824   4.939   5.626
 2108SOL    HW2 7224   5.680   4.919   5.553
 2109SOL     OW 7225   5.665   6.473   2.468
 2109SOL    HW1 7226   5.717   6.427   2.540
 2109SOL    HW2 7227   5.617   6.552   2.508
 2110SOL     OW 7228   2.888   4.335   6.303
 2110SOL    HW1 7229   2.863   4.299   6.392
 2110SOL    HW2 7230   2.825   4.408   6.277
 2111SOL     OW 7231   1.433   3.156   0.083
 2111SOL    HW1 7232   1.359   3.097   0.051
 2111SOL    HW2 7233   1.514   3.100   0.103
 2112SOL     OW 7234   4.739   2.972   1.445
 2112SOL    HW1 7235   4.694   2.920   1.517
 2112SOL    HW2 7236   4.784   2.909   1.382
 2113SOL     OW 7237   0.705   0.494   2.853
 2113SOL    HW1 7238   0.715   0.394   2.850
 2113SOL    HW2 7239   0.727   0.526   2.945
 2114SOL     OW 7240   2.081   3.651   6.991
 2114SOL    HW1 7241   1.987   3.639   6.960
 2114SOL    HW2 7242   2.115   3.566   0.013
 2115SOL     OW 7243   2.088   4.571   2.155
 2115SOL    HW1 7244   2.065   4.476   2.136
 2115SOL    HW2 7245   2.053   4.629   2.082
 2116SOL     OW 7246   0.499   4.646   3.380
 2116SOL    HW1 7247   0.580   4.613   3.428
 2116SOL    HW2 7248   0.519   4.736   3.341
 2117SOL     OW 7249   0.913   4.970   1.013
 2117SOL    HW1 7250   0.950   4.877   1.010
 2117SOL    HW2 7251   0.890   4.993   1.108
 2118SOL     OW 7252   0.277   3.850   2.381
 2118SOL    HW1 7253   0.281   3.906   2.298
 2118SOL    HW2 7254   0.370   3.830   2.413
 2119SOL     OW 7255   2.478   6.001   1.280
 2119SOL    HW1 7256   2.557   6.048   1.317
 2119SOL    HW2 7257   2.434   5.947   1.351
 2120SOL     OW 7258   6.670   4.916   1.964
 2120SOL    HW1 7259   6.679   4.948   2.058
 2120SOL    HW2 7260   6.761   4.891   1.929
 2121SOL     OW 7261   0.277   5.640   5.306
 2121SOL    HW1 7262   0.353   5.606   5.251
 2121SOL    HW2 7263   0.240   5.723   5.264
 2122SOL     OW 7264   4.504   4.522   4.794
 2122SOL    HW1 7265   4.451   4.519   4.879
 2122SOL    HW2 7266   4.565   4.602   4.797
 2123SOL     OW 7267   6.526   4.639   2.991
 2123SOL    HW1 7268   6.505   4.624   2.895
 2123SOL    HW2 7269   6.441   4.649   3.043
 2124SOL     OW 7270   2.256   1.839   0.985
 2124SOL    HW1 7271   2.187   1.771   1.008
 2124SOL    HW2 7272   2.272   1.839   0.886
 2125SOL     OW 7273   3.036   0.503   0.630
 2125SOL    HW1 7274   3.034   0.511   0.531
 2125SOL    HW2 7275   2.945   0.517   0.667
 2126SOL     OW 7276   2.832   0.761   6.656
 2126SOL    HW1 7277   2.906   0.696   6.670
 2126SOL    HW2 7278   2.796   0.752   6.563
 2127SOL     OW 7279   5.773   3.353   4.791
 2127SOL    HW1 7280   5.736   3.443   4.770
 2127SOL    HW2 7281   5.848   3.361   4.856
 2128SOL     OW 7282   0.574   4.767   4.144
 2128SOL    HW1 7283   0.516   4.773   4.063
 2128SOL    HW2 7284   0.548   4.688   4.199
 2129SOL     OW 7285   4.091   1.737   5.668
 2129SOL    HW1 7286   4.040   1.756   5.752
 2129SOL    HW2 7287   4.119   1.824   5.627
 2130SOL     OW 7288   4.386   6.625   2.402
 2130SOL    HW1 7289   4.484   6.625   2.423
 2130SOL    HW2 7290   4.371   6.590   2.309
 2131SOL     OW 7291   7.009   1.360   0.359
 2131SOL    HW1 7292   0.027   1.275   0.320
 2131SOL    HW2 7293   0.062   1.430   0.356
 2132SOL     OW 7294   1.808   3.135   0.485
 2132SOL    HW1 7295   1.760   3.049   0.465
 2132SOL    HW2 7296   1.897   3.135   0.439
 2133SOL     OW 7297   2.754   2.714   6.154
 2133SOL    HW1 7298   2.659   2.723   6.124
 2133SOL    HW2 7299   2.763   2.631   6.209
 2134SOL     OW 7300   0.812   0.726   0.535
 2134SOL    HW1 7301   0.718   0.694   0.518
 2134SOL    HW2 7302   0.871   0.695   0.460
 2135SOL     OW 7303   0.537   4.050   4.069
 2135SOL    HW1 7304   0.509   4.069   3.975
 2135SOL    HW2 7305   0.564   3.954   4.076
 2136SOL     OW 7306   2.512   5.698   1.655
 2136SOL    HW1 7307   2.544   5.765   1.589
 2136SOL    HW2 7308   2.461   5.743   1.728
 2137SOL     OW 7309   2.487   5.576   4.293
 2137SOL    HW1 7310   2.462   5.594   4.198
 2137SOL    HW2 7311   2.563   5.511   4.296
 2138SOL     OW 7312   5.378   1.366   2.394
 2138SOL    HW1 7313   5.434   1.433   2.443
 2138SOL    HW2 7314   5.307   1.332   2.455
 2139SOL     OW 7315   3.202   1.166   5.248
 2139SOL    HW1 7316   3.253   1.081   5.261
 2139SOL    HW2 7317   3.192   1.184   5.150
 2140SOL     OW 7318   2.120   1.399   5.326
 2140SOL    HW1 7319   2.203   1.404   5.271
 2140SOL    HW2 7320   2.129   1.458   5.406
 2141SOL     OW 7321   6.258   4.555   2.063
 2141SOL    HW1 7322   6.253   4.564   1.964
 2141SOL    HW2 7323   6.342   4.507   2.088
 2142SOL     OW 7324   2.081   1.765   3.570
 2142SOL    HW1 7325   2.042   1.697   3.632
 2142SOL    HW2 7326   2.007   1.817   3.526
 2143SOL     OW 7327   1.806   4.636   0.775
 2143SOL    HW1 7328   1.893   4.666   0.812
 2143SOL    HW2 7329   1.791   4.679   0.686
 2144SOL     OW 7330   6.399   6.124   4.638
 2144SOL    HW1 7331   6.354   6.105   4.725
 2144SOL    HW2 7332   6.498   6.129   4.652
 2145SOL     OW 7333   4.037   6.609   3.829
 2145SOL    HW1 7334   4.087   6.522   3.829
 2145SOL    HW2 7335   4.086   6.676   3.773
 2146SOL     OW 7336   2.207   2.785   0.783
 2146SOL    HW1 7337   2.194   2.691   0.753
 2146SOL    HW2 7338   2.251   2.786   0.872
 2147SOL     OW 7339   5.507   1.416   5.307
 2147SOL    HW1 7340   5.552   1.437   5.394
 2147SOL    HW2 7341   5.464   1.498   5.270
 2148SOL     OW 7342   0.275   3.044   6.966
 2148SOL    HW1 7343   0.242   2.960   7.007
 2148SOL    HW2 7344   0.267   3.119   0.013
 2149SOL     OW 7345   0.666   0.398   6.849
 2149SOL    HW1 7346   0.575   0.426   6.879
 2149SOL    HW2 7347   0.674   0.299   6.855
 2150SOL     OW 7348   2.173   3.243   1.486
 2150SOL    HW1 7349   2.167   3.147   1.513
 2150SOL    HW2 7350   2.092   3.268   1.433
 2151SOL     OW 7351   1.294   5.506   6.957
 2151SOL    HW1 7352   1.308   5.485   0.035
 2151SOL    HW2 7353   1.322   5.600   6.939
 2152SOL     OW 7354   4.022   6.144   3.404
 2152SOL    HW1 7355   3.983   6.123   3.315
 2152SOL    HW2 7356   3.951   6.140   3.474
 2153SOL     OW 7357   4.806   1.279   3.504
 2153SOL    HW1 7358   4.850   1.216   3.439
 2153SOL    HW2 7359   4.875   1.312   3.569
 2154SOL     OW 7360   3.049   6.847   2.982
 2154SOL    HW1 7361   3.110   6.924   2.997
 2154SOL    HW2 7362   3.101   6.761   2.992
 2155SOL     OW 7363   4.825   6.875   1.462
 2155SOL    HW1 7364   4.736   6.897   1.421
 2155SOL    HW2 7365   4.876   6.815   1.401
 2156SOL     OW 7366   5.830   1.607   3.989
 2156SOL    HW1 7367   5.839   1.535   4.058
 2156SOL    HW2 7368   5.873   1.691   4.022
 2157SOL     OW 7369   3.728   5.463   3.458
 2157SOL    HW1 7370   3.640   5.445   3.413
 2157SOL    HW2 7371   3.758   5.381   3.507
 2158SOL     OW 7372   3.233   0.812   0.289
 2158SOL    HW1 7373   3.205   0.905   0.314
 2158SOL    HW2 7374   3.292   0.775   0.361
 2159SOL     OW 7375   1.322   0.393   5.672
 2159SOL    HW1 7376   1.362   0.302   5.662
 2159SOL    HW2 7377   1.309   0.414   5.769
 2160SOL     OW 7378   5.650   6.296   0.609
 2160SOL    HW1 7379   5.747   6.270   0.603
 2160SOL    HW2 7380   5.635   6.351   0.691
 2161SOL     OW 7381   1.688   2.390   2.575
 2161SOL    HW1 7382   1.769   2.426   2.622
 2161SOL    HW2 7383   1.643   2.465   2.526
 2162SOL     OW 7384   1.687   6.960   2.379
 2162SOL    HW1 7385   1.647   0.022   2.337
 2162SOL    HW2 7386   1.786   6.960   2.364
 2163SOL     OW 7387   1.500   3.348   1.942
 2163SOL    HW1 7388   1.470   3.252   1.943
 2163SOL    HW2 7389   1.514   3.377   1.848
 2164SOL     OW 7390   1.582   2.624   2.808
 2164SOL    HW1 7391   1.614   2.718   2.797
 2164SOL    HW2 7392   1.514   2.604   2.737
 2165SOL     OW 7393   0.138   1.792   4.066
 2165SOL    HW1 7394   0.120   1.890   4.073
 2165SOL    HW2 7395   0.224   1.770   4.112
 2166SOL     OW 7396   0.104   3.874   3.377
 2166SOL    HW1 7397   0.071   3.962   3.411
 2166SOL    HW2 7398   0.092   3.870   3.278
 2167SOL     OW 7399   1.961   1.935   4.186
 2167SOL    HW1 7400   2.060   1.950   4.185
 2167SOL    HW2 7401   1.919   1.996   4.253
 2168SOL     OW 7402   1.749   1.759   3.163
 2168SOL    HW1 7403   1.828   1.821   3.158
 2168SOL    HW2 7404   1.750   1.697   3.085
 2169SOL     OW 7405   0.032   0.934   1.959
 2169SOL    HW1 7406   6.999   0.890   1.886
 2169SOL    HW2 7407   0.065   1.023   1.927
 2170SOL     OW 7408   0.834   4.379   5.782
 2170SOL    HW1 7409   0.844   4.409   5.687
 2170SOL    HW2 7410   0.828   4.458   5.842
 2171SOL     OW 7411   0.692   5.229   0.821
 2171SOL    HW1 7412   0.672   5.151   0.880
 2171SOL    HW2 7413   0.611   5.251   0.767
 2172SOL     OW 7414   0.852   1.716   5.044
 2172SOL    HW1 7415   0.835   1.793   4.983
 2172SOL    HW2 7416   0.796   1.725   5.126
 2173SOL     OW 7417   5.261   0.389   5.002
 2173SOL    HW1 7418   5.294   0.383   5.096
 2173SOL    HW2 7419   5.161   0.380   5.001
 2174SOL     OW 7420   0.327   6.365   5.304
 2174SOL    HW1 7421   0.305   6.273   5.337
 2174SOL    HW2 7422   0.403   6.402   5.358
 2175SOL     OW 7423   3.155   3.644   5.324
 2175SOL    HW1 7424   3.072   3.607   5.367
 2175SOL    HW2 7425   3.138   3.739   5.296
 2176SOL     OW 7426   5.476   2.054   1.354
 2176SOL    HW1 7427   5.564   2.015   1.379
 2176SOL    HW2 7428   5.472   2.150   1.383
 2177SOL     OW 7429   0.159   0.600   3.538
 2177SOL    HW1 7430   0.200   0.586   3.448
 2177SOL    HW2 7431   0.092   0.528   3.555
 2178SOL     OW 7432   0.730   2.283   2.625
 2178SOL    HW1 7433   0.681   2.349   2.682
 2178SOL    HW2 7434   0.770   2.212   2.682
 2179SOL     OW 7435   1.630   4.381   6.392
 2179SOL    HW1 7436   1.585   4.308   6.443
 2179SOL    HW2 7437   1.621   4.364   6.294
 2180SOL     OW 7438   1.059   5.611   1.829
 2180SOL    HW1 7439   1.136   5.662   1.791
 2180SOL    HW2 7440   0.979   5.671   1.836
 2181SOL     OW 7441   4.037   4.884   4.104
 2181SOL    HW1 7442   4.027   4.894   4.005
 2181SOL    HW2 7443   4.104   4.811   4.123
 2182SOL     OW 7444   0.223   5.714   2.499
 2182SOL    HW1 7445   0.131   5.728   2.537
 2182SOL    HW2 7446   0.217   5.653   2.420
 2183SOL     OW 7447   3.843   2.811   0.041
 2183SOL    HW1 7448   3.853   2.889   0.103
 2183SOL    HW2 7449   3.746   2.800   0.017
 2184SOL     OW 7450   6.407   0.781   0.076
 2184SOL    HW1 7451   6.383   0.811   0.168
 2184SOL    HW2 7452   6.506   0.794   0.062
 2185SOL     OW 7453   0.397   1.178   6.868
 2185SOL    HW1 7454   0.471   1.113   6.848
 2185SOL    HW2 7455   0.314   1.128   6.891
 2186SOL     OW 7456   6.743   5.625   4.849
 2186SOL    HW1 7457   6.662   5.567   4.843
 2186SOL    HW2 7458   6.822   5.570   4.877
 2187SOL     OW 7459   0.731   5.543   2.938
 2187SOL    HW1 7460   0.672   5.571   2.863
 2187SOL    HW2 7461   0.823   5.523   2.903
 2188SOL     OW 7462   2.097   0.378   0.506
 2188SOL    HW1 7463   2.098   0.278   0.508
 2188SOL    HW2 7464   2.033   0.410   0.436
 2189SOL     OW 7465   2.737   1.451   1.498
 2189SOL    HW1 7466   2.747   1.542   1.457
 2189SOL    HW2 7467   2.754   1.458   1.597
 2190SOL     OW 7468   6.322   4.310   2.419
 2190SOL    HW1 7469   6.363   4.255   2.346
 2190SOL    HW2 7470   6.231   4.340   2.391
 2191SOL     OW 7471   3.058   0.683   6.369
 2191SOL    HW1 7472   2.962   0.701   6.392
 2191SOL    HW2 7473   3.091   0.606   6.424
 2192SOL     OW 7474   4.479   0.829   1.826
 2192SOL    HW1 7475   4.398   0.816   1.883
 2192SOL    HW2 7476   4.561   0.819   1.883
 2193SOL     OW 7477   0.406   6.942   6.683
 2193SOL    HW1 7478   0.330   6.998   6.716
 2193SOL    HW2 7479   0.450   6.988   6.606
 2194SOL     OW 7480   1.190   4.459   6.240
 2194SOL    HW1 7481   1.220   4.552   6.221
 2194SOL    HW2 7482   1.129   4.459   6.319
 2195SOL     OW 7483   0.414   4.347   6.581
 2195SOL    HW1 7484   0.343   4.314   6.643
 2195SOL    HW2 7485   0.498   4.363   6.632
 2196SOL     OW 7486   2.790   6.324   5.765
 2196SOL    HW1 7487   2.830   6.243   5.807
 2196SOL    HW2 7488   2.863   6.382   5.729
 2197SOL     OW 7489   2.680   4.973   5.616
 2197SOL    HW1 7490   2.657   5.012   5.704
 2197SOL    HW2 7491   2.663   5.040   5.544
 2198SOL     OW 7492   0.558   0.679   6.296
 2198SOL    HW1 7493   0.530   0.668   6.392
 2198SOL    HW2 7494   0.645   0.633   6.281
 2199SOL     OW 7495   4.203   0.050   4.621
 2199SOL    HW1 7496   4.111   0.022   4.595
 2199SOL    HW2 7497   4.270   7.011   4.574
 2200SOL     OW 7498   2.782   1.470   4.367
 2200SOL    HW1 7499   2.772   1.385   4.418
 2200SOL    HW2 7500   2.742   1.545   4.420
 2201SOL     OW 7501   6.397   3.962   3.692
 2201SOL    HW1 7502   6.301   3.990   3.692
 2201SOL    HW2 7503   6.455   4.039   3.666
 2202SOL     OW 7504   4.057   5.617   2.088
 2202SOL    HW1 7505   4.077   5.715   2.082
 2202SOL    HW2 7506   4.064   5.588   2.183
 2203SOL     OW 7507   1.936   3.283   1.343
 2203SOL    HW1 7508   1.890   3.205   1.300
 2203SOL    HW2 7509   1.907   3.368   1.297
 2204SOL     OW 7510   4.544   2.846   1.116
 2204SOL    HW1 7511   4.520   2.939   1.142
 2204SOL    HW2 7512   4.589   2.800   1.192
 2205SOL     OW 7513   1.854   5.386   0.407
 2205SOL    HW1 7514   1.897   5.447   0.341
 2205SOL    HW2 7515   1.787   5.328   0.360
 2206SOL     OW 7516   2.577   2.869   6.388
 2206SOL    HW1 7517   2.545   2.775   6.398
 2206SOL    HW2 7518   2.658   2.883   6.445
 2207SOL     OW 7519   4.710   6.054   0.653
 2207SOL    HW1 7520   4.639   6.124   0.652
 2207SOL    HW2 7521   4.668   5.964   0.639
 2208SOL     OW 7522   0.676   5.795   4.096
 2208SOL    HW1 7523   0.598   5.842   4.054
 2208SOL    HW2 7524   0.760   5.824   4.050
 2209SOL     OW 7525   3.091   5.504   4.792
 2209SOL    HW1 7526   3.091   5.442   4.870
 2209SOL    HW2 7527   3.025   5.578   4.807
 2210SOL     OW 7528   5.354   6.126   1.162
 2210SOL    HW1 7529   5.442   6.141   1.206
 2210SOL    HW2 7530   5.282   6.124   1.231
 2211SOL     OW 7531   6.626   0.812   0.966
 2211SOL    HW1 7532   6.584   0.810   1.057
 2211SOL    HW2 7533   6.698   0.882   0.964
 2212SOL     OW 7534   2.613   6.191   6.726
 2212SOL    HW1 7535   2.676   6.114   6.712
 2212SOL    HW2 7536   2.666   6.274   6.744
 2213SOL     OW 7537   3.592   2.077   4.087
 2213SOL    HW1 7538   3.689   2.086   4.109
 2213SOL    HW2 7539   3.537   2.116   4.161
 2214SOL     OW 7540   4.256   3.209   5.966
 2214SOL    HW1 7541   4.293   3.289   5.919
 2214SOL    HW2 7542   4.166   3.187   5.929
 2215SOL     OW 7543   4.737   0.695   6.498
 2215SOL    HW1 7544   4.640   0.700   6.475
 2215SOL    HW2 7545   4.791   0.718   6.417
 2216SOL     OW 7546   0.492   6.793   6.234
 2216SOL    HW1 7547   0.546   6.727   6.183
 2216SOL    HW2 7548   0.526   6.798   6.328
 2217SOL     OW 7549   4.008   0.436   2.812
 2217SOL    HW1 7550   3.960   0.463   2.729
 2217SOL    HW2 7551   4.022   0.516   2.871
 2218SOL     OW 7552   0.378   5.202   5.663
 2218SOL    HW1 7553   0.428   5.242   5.740
 2218SOL    HW2 7554   0.280   5.213   5.677
 2219SOL     OW 7555   5.262   1.414   0.168
 2219SOL    HW1 7556   5.300   1.475   0.098
 2219SOL    HW2 7557   5.220   1.468   0.240
 2220SOL     OW 7558   0.961   6.420   5.439
 2220SOL    HW1 7559   0.867   6.453   5.428
 2220SOL    HW2 7560   0.963   6.350   5.511
 2221SOL     OW 7561   6.979   1.323   4.737
 2221SOL    HW1 7562   6.982   1.252   4.667
 2221SOL    HW2 7563   0.053   1.356   4.756
 2222SOL     OW 7564   5.118   6.156   1.359
 2222SOL    HW1 7565   5.080   6.113   1.277
 2222SOL    HW2 7566   5.083   6.110   1.440
 2223SOL     OW 7567   6.659   0.261   5.414
 2223SOL    HW1 7568   6.604   0.202   5.472
 2223SOL    HW2 7569   6.662   0.353   5.453
 2224SOL     OW 7570   5.661   3.820   1.170
 2224SOL    HW1 7571   5.627   3.736   1.212
 2224SOL    HW2 7572   5.594   3.854   1.104
 2225SOL     OW 7573   0.447   6.613   3.280
 2225SOL    HW1 7574   0.491   6.589   3.194
 2225SOL    HW2 7575   0.489   6.696   3.317
 2226SOL     OW 7576   2.184   4.942   0.686
 2226SOL    HW1 7577   2.173   4.846   0.660
 2226SOL    HW2 7578   2.281   4.967   0.680
 2227SOL     OW 7579   4.476   2.425   2.228
 2227SOL    HW1 7580   4.471   2.469   2.139
 2227SOL    HW2 7581   4.488   2.494   2.299
 2228SOL     OW 7582   4.662   4.606   0.093
 2228SOL    HW1 7583   4.618   4.695   0.078
 2228SOL    HW2 7584   4.717   4.582   0.014
 2229SOL     OW 7585   3.359   3.360   4.740
 2229SOL    HW1 7586   3.358   3.428   4.666
 2229SOL    HW2 7587   3.278   3.372   4.797
 2230SOL     OW 7588   5.329   6.643   0.411
 2230SOL    HW1 7589   5.390   6.570   0.380
 2230SOL    HW2 7590   5.332   6.649   0.511
 2231SOL     OW 7591   0.724   0.869   0.010
 2231SOL    HW1 7592   0.712   0.824   6.940
 2231SOL    HW2 7593   0.699   0.805   0.083
 2232SOL     OW 7594   1.476   0.493   5.466
 2232SOL    HW1 7595   1.469   0.593   5.469
 2232SOL    HW2 7596   1.439   0.454   5.551
 2233SOL     OW 7597   3.205   2.903   1.176
 2233SOL    HW1 7598   3.219   2.968   1.251
 2233SOL    HW2 7599   3.193   2.953   1.091
 2234SOL     OW 7600   4.176   1.506   0.571
 2234SOL    HW1 7601   4.084   1.484   0.540
 2234SOL    HW2 7602   4.201   1.446   0.646
 2235SOL     OW 7603   2.709   1.024   2.420
 2235SOL    HW1 7604   2.669   1.115   2.436
 2235SOL    HW2 7605   2.676   0.989   2.333
 2236SOL     OW 7606   1.854   4.171   5.554
 2236SOL    HW1 7607   1.897   4.189   5.465
 2236SOL    HW2 7608   1.917   4.120   5.612
 2237SOL     OW 7609   5.296   5.094   5.267
 2237SOL    HW1 7610   5.246   5.123   5.185
 2237SOL    HW2 7611   5.394   5.094   5.248
 2238SOL     OW 7612   5.173   4.427   2.242
 2238SOL    HW1 7613   5.098   4.454   2.303
 2238SOL    HW2 7614   5.183   4.327   2.245
 2239SOL     OW 7615   3.825   0.035   3.742
 2239SOL    HW1 7616   3.796   6.959   3.726
 2239SOL    HW2 7617   3.834   0.082   3.654
 2240SOL     OW 7618   5.013   5.773   3.002
 2240SOL    HW1 7619   5.019   5.869   2.975
 2240SOL    HW2 7620   5.036   5.715   2.924
 2241SOL     OW 7621   0.388   6.549   1.805
 2241SOL    HW1 7622   0.416   6.644   1.790
 2241SOL    HW2 7623   0.453   6.504   1.866
 2242SOL     OW 7624   5.019   3.229   2.960
 2242SOL    HW1 7625   4.961   3.233   2.879
 2242SOL    HW2 7626   4.969   3.183   3.034
 2243SOL     OW 7627   1.841   6.334   0.518
 2243SOL    HW1 7628   1.923   6.305   0.568
 2243SOL    HW2 7629   1.836   6.284   0.431
 2244SOL     OW 7630   2.423   0.243   0.498
 2244SOL    HW1 7631   2.337   0.286   0.525
 2244SOL    HW2 7632   2.493   0.260   0.568
 2245SOL     OW 7633   0.602   1.028   0.596
 2245SOL    HW1 7634   0.609   1.105   0.533
 2245SOL    HW2 7635   0.652   1.050   0.680
 2246SOL     OW 7636   2.277   0.827   4.939
 2246SOL    HW1 7637   2.236   0.886   4.869
 2246SOL    HW2 7638   2.217   0.749   4.956
 2247SOL     OW 7639   3.537   4.086   2.733
 2247SOL    HW1 7640   3.617   4.037   2.699
 2247SOL    HW2 7641   3.489   4.129   2.656
 2248SOL     OW 7642   5.590   4.109   5.051
 2248SOL    HW1 7643   5.512   4.170   5.033
 2248SOL    HW2 7644   5.616   4.063   4.966
 2249SOL     OW 7645   2.677   6.323   4.009
 2249SOL    HW1 7646   2.757   6.381   4.012
 2249SOL    HW2 7647   2.603   6.363   4.063
 2250SOL     OW 7648   3.924   3.885   6.293
 2250SOL    HW1 7649   3.851   3.906   6.229
 2250SOL    HW2 7650   3.889   3.893   6.387
 2251SOL     OW 7651   5.330   6.435   6.262
 2251SOL    HW1 7652   5.362   6.404   6.173
 2251SOL    HW2 7653   5.262   6.507   6.250
 2252SOL     OW 7654   5.165   1.500   2.743
 2252SOL    HW1 7655   5.118   1.483   2.830
 2252SOL    HW2 7656   5.180   1.599   2.732
 2253SOL     OW 7657   0.613   3.340   0.813
 2253SOL    HW1 7658   0.696   3.317   0.864
 2253SOL    HW2 7659   0.540   3.365   0.877
 2254SOL     OW 7660   4.068   3.760   2.601
 2254SOL    HW1 7661   4.053   3.787   2.697
 2254SOL    HW2 7662   4.120   3.675   2.598
 2255SOL     OW 7663   2.820   4.231   5.631
 2255SOL    HW1 7664   2.908   4.186   5.650
 2255SOL    HW2 7665   2.791   4.209   5.538
 2256SOL     OW 7666   5.010   6.043   2.004
 2256SOL    HW1 7667   5.093   5.998   1.972
 2256SOL    HW2 7668   4.932   5.983   1.991
 2257SOL     OW 7669   6.781   1.825   4.612
 2257SOL    HW1 7670   6.816   1.732   4.615
 2257SOL    HW2 7671   6.828   1.881   4.680
 2258SOL     OW 7672   2.163   6.555   4.549
 2258SOL    HW1 7673   2.183   6.462   4.519
 2258SOL    HW2 7674   2.064   6.567   4.556
 2259SOL     OW 7675   6.684   2.787   4.633
 2259SOL    HW1 7676   6.679   2.728   4.713
 2259SOL    HW2 7677   6.749   2.749   4.567
 2260SOL     OW 7678   1.296   4.191   1.465
 2260SOL    HW1 7679   1.275   4.094   1.452
 2260SOL    HW2 7680   1.380   4.200   1.518
 2261SOL     OW 7681   5.670   3.435   0.390
 2261SOL    HW1 7682   5.685   3.525   0.431
 2261SOL    HW2 7683   5.708   3.364   0.450
 2262SOL     OW 7684   6.656   0.365   4.014
 2262SOL    HW1 7685   6.718   0.436   4.045
 2262SOL    HW2 7686   6.648   0.293   4.083
 2263SOL     OW 7687   1.517   4.765   0.474
 2263SOL    HW1 7688   1.487   4.861   0.476
 2263SOL    HW2 7689   1.440   4.706   0.498
 2264SOL     OW 7690   1.880   6.865   6.289
 2264SOL    HW1 7691   1.864   6.844   6.193
 2264SOL    HW2 7692   1.801   6.913   6.327
 2265SOL     OW 7693   1.060   6.601   3.730
 2265SOL    HW1 7694   1.059   6.701   3.728
 2265SOL    HW2 7695   1.130   6.570   3.795
 2266SOL     OW 7696   5.070   1.618   6.563
 2266SOL    HW1 7697   5.095   1.599   6.467
 2266SOL    HW2 7698   5.033   1.535   6.604
 2267SOL     OW 7699   4.556   2.493   4.720
 2267SOL    HW1 7700   4.654   2.489   4.738
 2267SOL    HW2 7701   4.509   2.526   4.802
 2268SOL     OW 7702   6.650   4.211   6.074
 2268SOL    HW1 7703   6.631   4.228   5.977
 2268SOL    HW2 7704   6.588   4.265   6.131
 2269SOL     OW 7705   1.267   3.235   5.131
 2269SOL    HW1 7706   1.273   3.168   5.206
 2269SOL    HW2 7707   1.182   3.287   5.141
 2270SOL     OW 7708   4.246   2.851   6.211
 2270SOL    HW1 7709   4.151   2.835   6.237
 2270SOL    HW2 7710   4.295   2.763   6.207
 2271SOL     OW 7711   6.251   4.460   6.429
 2271SOL    HW1 7712   6.183   4.426   6.364
 2271SOL    HW2 7713   6.335   4.483   6.379
 2272SOL     OW 7714   6.162   1.166   6.195
 2272SOL    HW1 7715   6.228   1.096   6.222
 2272SOL    HW2 7716   6.203   1.257   6.207
 2273SOL     OW 7717   1.904   2.510   2.710
 2273SOL    HW1 7718   1.976   2.520   2.642
 2273SOL    HW2 7719   1.907   2.587   2.774
 2274SOL     OW 7720   0.406   1.294   0.247
 2274SOL    HW1 7721   0.453   1.326   0.165
 2274SOL    HW2 7722   0.473   1.263   0.315
 2275SOL     OW 7723   5.953   4.797   2.623
 2275SOL    HW1 7724   5.973   4.699   2.627
 2275SOL    HW2 7725   5.940   4.824   2.528
 2276SOL     OW 7726   1.365   1.166   1.158
 2276SOL    HW1 7727   1.316   1.253   1.158
 2276SOL    HW2 7728   1.423   1.159   1.238
 2277SOL     OW 7729   3.464   4.122   3.503
 2277SOL    HW1 7730   3.463   4.026   3.528
 2277SOL    HW2 7731   3.446   4.131   3.405
 2278SOL     OW 7732   0.707   2.923   3.684
 2278SOL    HW1 7733   0.618   2.915   3.640
 2278SOL    HW2 7734   0.695   2.949   3.780
 2279SOL     OW 7735   6.824   5.935   6.386
 2279SOL    HW1 7736   6.739   5.987   6.397
 2279SOL    HW2 7737   6.902   5.995   6.402
 2280SOL     OW 7738   4.908   0.880   5.612
 2280SOL    HW1 7739   4.840   0.861   5.682
 2280SOL    HW2 7740   4.862   0.900   5.525
 2281SOL     OW 7741   4.624   6.460   2.479
 2281SOL    HW1 7742   4.571   6.387   2.437
 2281SOL    HW2 7743   4.622   6.541   2.421
 2282SOL     OW 7744   4.389   5.282   5.620
 2282SOL    HW1 7745   4.391   5.194   5.666
 2282SOL    HW2 7746   4.440   5.275   5.534
 2283SOL     OW 7747   1.337   0.543   3.401
 2283SOL    HW1 7748   1.308   0.623   3.454
 2283SOL    HW2 7749   1.262   0.514   3.341
 2284SOL     OW 7750   0.777   3.322   6.294
 2284SOL    HW1 7751   0.790   3.249   6.362
 2284SOL    HW2 7752   0.680   3.348   6.293
 2285SOL     OW 7753   1.066   3.708   0.457
 2285SOL    HW1 7754   1.131   3.675   0.389
 2285SOL    HW2 7755   1.067   3.647   0.536
 2286SOL     OW 7756   5.008   6.593   3.063
 2286SOL    HW1 7757   4.940   6.606   3.134
 2286SOL    HW2 7758   5.091   6.553   3.102
 2287SOL     OW 7759   2.653   0.725   3.307
 2287SOL    HW1 7760   2.621   0.776   3.387
 2287SOL    HW2 7761   2.575   0.707   3.247
 2288SOL     OW 7762   0.449   5.363   3.617
 2288SOL    HW1 7763   0.472   5.357   3.715
 2288SOL    HW2 7764   0.533   5.375   3.564
 2289SOL     OW 7765   0.672   5.470   1.988
 2289SOL    HW1 7766   0.717   5.555   1.962
 2289SOL    HW2 7767   0.738   5.409   2.032
 2290SOL     OW 7768   1.053   4.754   1.310
 2290SOL    HW1 7769   1.091   4.800   1.390
 2290SOL    HW2 7770   1.005   4.671   1.338
 2291SOL     OW 7771   3.130   1.448   5.966
 2291SOL    HW1 7772   3.138   1.452   6.065
 2291SOL    HW2 7773   3.036   1.425   5.941
 2292SOL     OW 7774   1.131   1.030   4.743
 2292SOL    HW1 7775   1.055   0.974   4.710
 2292SOL    HW2 7776   1.177   0.982   4.818
 2293SOL     OW 7777   5.151   5.233   1.735
 2293SOL    HW1 7778   5.241   5.229   1.692
 2293SOL    HW2 7779   5.158   5.282   1.822
 2294SOL     OW 7780   3.987   6.834   6.968
 2294SOL    HW1 7781   3.944   6.838   0.039
 2294SOL    HW2 7782   3.984   6.741   6.933
 2295SOL     OW 7783   6.926   2.248   1.692
 2295SOL    HW1 7784   6.911   2.327   1.752
 2295SOL    HW2 7785   6.862   2.252   1.615
 2296SOL     OW 7786   3.267   0.963   0.582
 2296SOL    HW1 7787   3.263   0.866   0.557
 2296SOL    HW2 7788   3.265   1.019   0.499
 2297SOL     OW 7789   4.425   4.338   5.550
 2297SOL    HW1 7790   4.476   4.263   5.591
 2297SOL    HW2 7791   4.442   4.340   5.451
 2298SOL     OW 7792   3.520   2.028   1.235
 2298SOL    HW1 7793   3.438   2.045   1.290
 2298SOL    HW2 7794   3.570   1.950   1.272
 2299SOL     OW 7795   5.157   6.138   0.172
 2299SOL    HW1 7796   5.168   6.040   0.154
 2299SOL    HW2 7797   5.149   6.154   0.270
 2300SOL     OW 7798   1.836   5.591   1.420
 2300SOL    HW1 7799   1.918   5.546   1.455
 2300SOL    HW2 7800   1.820   5.564   1.325
 2301SOL     OW 7801   2.933   3.459   3.010
 2301SOL    HW1 7802   2.959   3.461   2.913
 2301SOL    HW2 7803   2.906   3.551   3.039
 2302SOL     OW 7804   3.671   6.157   2.383
 2302SOL    HW1 7805   3.578   6.151   2.346
 2302SOL    HW2 7806   3.699   6.067   2.415
 2303SOL     OW 7807   1.001   3.357   5.125
 2303SOL    HW1 7808   0.918   3.334   5.076
 2303SOL    HW2 7809   1.028   3.451   5.102
 2304SOL     OW 7810   2.577   0.346   3.367
 2304SOL    HW1 7811   2.515   0.268   3.357
 2304SOL    HW2 7812   2.566   0.386   3.458
 2305SOL     OW 7813   3.691   5.560   2.435
 2305SOL    HW1 7814   3.786   5.588   2.428
 2305SOL    HW2 7815   3.658   5.575   2.528
 2306SOL     OW 7816   2.315   4.693   2.181
 2306SOL    HW1 7817   2.222   4.660   2.188
 2306SOL    HW2 7818   2.348   4.680   2.088
 2307SOL     OW 7819   1.123   3.312   3.383
 2307SOL    HW1 7820   1.160   3.390   3.433
 2307SOL    HW2 7821   1.046   3.343   3.326
 2308SOL     OW 7822   0.862   0.824   6.565
 2308SOL    HW1 7823   0.922   0.881   6.623
 2308SOL    HW2 7824   0.820   0.881   6.495
 2309SOL     OW 7825   3.357   5.337   0.434
 2309SOL    HW1 7826   3.334   5.376   0.346
 2309SOL    HW2 7827   3.449   5.297   0.430
 2310SOL     OW 7828   6.035   0.358   1.964
 2310SOL    HW1 7829   6.076   0.282   2.014
 2310SOL    HW2 7830   5.948   0.383   2.007
 2311SOL     OW 7831   2.458   0.070   2.489
 2311SOL    HW1 7832   2.379   0.053   2.549
 2311SOL    HW2 7833   2.534   0.012   2.517
 2312SOL     OW 7834   3.942   6.987   3.075
 2312SOL    HW1 7835   3.844   7.006   3.080
 2312SOL    HW2 7836   3.983   0.025   3.003
 2313SOL     OW 7837   4.970   4.155   2.177
 2313SOL    HW1 7838   5.065   4.150   2.146
 2313SOL    HW2 7839   4.908   4.141   2.100
 2314SOL     OW 7840   5.742   0.490   3.935
 2314SOL    HW1 7841   5.643   0.489   3.920
 2314SOL    HW2 7842   5.787   0.523   3.852
 2315SOL     OW 7843   4.968   3.816   5.771
 2315SOL    HW1 7844   4.973   3.904   5.820
 2315SOL    HW2 7845   5.059   3.776   5.767
 2316SOL     OW 7846   2.828   0.793   5.954
 2316SOL    HW1 7847   2.871   0.731   6.019
 2316SOL    HW2 7848   2.786   0.740   5.880
 2317SOL     OW 7849   6.599   6.197   3.848
 2317SOL    HW1 7850   6.525   6.264   3.861
 2317SOL    HW2 7851   6.645   6.214   3.761
 2318SOL     OW 7852   2.105   3.670   4.681
 2318SOL    HW1 7853   2.125   3.748   4.623
 2318SOL    HW2 7854   2.165   3.672   4.761
 2319SOL     OW 7855   2.769   5.185   4.663
 2319SOL    HW1 7856   2.862   5.221   4.654
 2319SOL    HW2 7857   2.703   5.260   4.658
 2320SOL     OW 7858   1.255   3.041   5.306
 2320SOL    HW1 7859   1.350   3.018   5.327
 2320SOL    HW2 7860   1.206   3.063   5.390
 2321SOL     OW 7861   2.714   4.609   6.612
 2321SOL    HW1 7862   2.811   4.606   6.589
 2321SOL    HW2 7863   2.660   4.594   6.529
 2322SOL     OW 7864   2.123   3.680   2.262
 2322SOL    HW1 7865   2.047   3.638   2.313
 2322SOL    HW2 7866   2.150   3.620   2.186
 2323SOL     OW 7867   3.380   5.158   2.058
 2323SOL    HW1 7868   3.371   5.058   2.058
 2323SOL    HW2 7869   3.291   5.200   2.074
 2324SOL     OW 7870   6.631   6.216   1.882
 2324SOL    HW1 7871   6.688   6.208   1.800
 2324SOL    HW2 7872   6.668   6.158   1.954
 2325SOL     OW 7873   0.030   5.233   1.299
 2325SOL    HW1 7874   0.104   5.188   1.350
 2325SOL    HW2 7875   6.977   5.166   1.279
 2326SOL     OW 7876   1.610   6.154   6.716
 2326SOL    HW1 7877   1.576   6.161   6.810
 2326SOL    HW2 7878   1.710   6.151   6.718
 2327SOL     OW 7879   6.929   0.617   2.823
 2327SOL    HW1 7880   6.916   0.622   2.922
 2327SOL    HW2 7881   6.859   0.673   2.778
 2328SOL     OW 7882   1.405   1.856   2.362
 2328SOL    HW1 7883   1.436   1.921   2.432
 2328SOL    HW2 7884   1.483   1.831   2.304
 2329SOL     OW 7885   0.532   4.492   4.217
 2329SOL    HW1 7886   0.612   4.503   4.158
 2329SOL    HW2 7887   0.563   4.485   4.312
 2330SOL     OW 7888   0.160   3.190   0.590
 2330SOL    HW1 7889   0.249   3.145   0.593
 2330SOL    HW2 7890   0.168   3.277   0.540
 2331SOL     OW 7891   3.316   5.465   0.196
 2331SOL    HW1 7892   3.365   5.547   0.166
 2331SOL    HW2 7893   3.325   5.394   0.127
 2332SOL     OW 7894   5.826   0.063   5.767
 2332SOL    HW1 7895   5.754   0.131   5.776
 2332SOL    HW2 7896   5.815   7.011   5.837
 2333SOL     OW 7897   6.669   4.956   2.989
 2333SOL    HW1 7898   6.713   4.867   3.001
 2333SOL    HW2 7899   6.729   5.028   3.025
 2334SOL     OW 7900   1.310   0.989   6.551
 2334SOL    HW1 7901   1.359   0.950   6.473
 2334SOL    HW2 7902   1.215   1.008   6.525
 2335SOL     OW 7903   6.071   1.050   4.390
 2335SOL    HW1 7904   6.061   1.146   4.416
 2335SOL    HW2 7905   6.004   1.028   4.320
 2336SOL     OW 7906   3.093   1.674   3.687
 2336SOL    HW1 7907   3.062   1.587   3.725
 2336SOL    HW2 7908   3.046   1.692   3.601
 2337SOL     OW 7909   4.262   1.365   1.610
 2337SOL    HW1 7910   4.219   1.278   1.586
 2337SOL    HW2 7911   4.295   1.361   1.704
 2338SOL     OW 7912   1.197   4.003   4.343
 2338SOL    HW1 7913   1.268   4.070   4.322
 2338SOL    HW2 7914   1.196   3.933   4.272
 2339SOL     OW 7915   2.998   3.654   3.686
 2339SOL    HW1 7916   3.090   3.681   3.717
 2339SOL    HW2 7917   2.958   3.729   3.634
 2340SOL     OW 7918   0.467   4.695   6.660
 2340SOL    HW1 7919   0.547   4.636   6.650
 2340SOL    HW2 7920   0.416   4.668   6.742
 2341SOL     OW 7921   2.290   4.801   2.466
 2341SOL    HW1 7922   2.327   4.829   2.554
 2341SOL    HW2 7923   2.339   4.719   2.434
 2342SOL     OW 7924   1.999   6.803   4.404
 2342SOL    HW1 7925   2.062   6.749   4.349
 2342SOL    HW2 7926   1.929   6.743   4.443
 2343SOL     OW 7927   2.421   6.324   2.884
 2343SOL    HW1 7928   2.456   6.273   2.805
 2343SOL    HW2 7929   2.378   6.409   2.852
 2344SOL     OW 7930   6.808   5.343   0.048
 2344SOL    HW1 7931   6.776   5.338   6.972
 2344SOL    HW2 7932   6.803   5.437   0.080
 2345SOL     OW 7933   2.830   5.581   4.510
 2345SOL    HW1 7934   2.757   5.644   4.536
 2345SOL    HW2 7935   2.894   5.627   4.449
 2346SOL     OW 7936   3.992   3.049   5.623
 2346SOL    HW1 7937   4.002   3.068   5.721
 2346SOL    HW2 7938   4.006   3.134   5.572
 2347SOL     OW 7939   1.345   2.155   1.630
 2347SOL    HW1 7940   1.395   2.069   1.624
 2347SOL    HW2 7941   1.390   2.216   1.695
 2348SOL     OW 7942   2.001   6.168   3.845
 2348SOL    HW1 7943   2.001   6.245   3.781
 2348SOL    HW2 7944   2.013   6.203   3.938
 2349SOL     OW 7945   0.733   4.449   6.385
 2349SOL    HW1 7946   0.692   4.510   6.317
 2349SOL    HW2 7947   0.787   4.379   6.339
 2350SOL     OW 7948   5.907   4.076   6.238
 2350SOL    HW1 7949   5.953   4.165   6.238
 2350SOL    HW2 7950   5.827   4.080   6.298
 2351SOL     OW 7951   3.563   4.992   3.711
 2351SOL    HW1 7952   3.628   4.989   3.787
 2351SOL    HW2 7953   3.526   5.084   3.703
 2352SOL     OW 7954   6.715   2.847   3.495
 2352SOL    HW1 7955   6.721   2.945   3.516
 2352SOL    HW2 7956   6.652   2.832   3.419
 2353SOL     OW 7957   4.311   4.777   4.601
 2353SOL    HW1 7958   4.407   4.797   4.581
 2353SOL    HW2 7959   4.305   4.717   4.681
 2354SOL     OW 7960   2.271   2.163   4.731
 2354SOL    HW1 7961   2.249   2.254   4.694
 2354SOL    HW2 7962   2.189   2.124   4.774
 2355SOL     OW 7963   2.147   6.155   5.280
 2355SOL    HW1 7964   2.113   6.207   5.202
 2355SOL    HW2 7965   2.069   6.123   5.334
 2356SOL     OW 7966   1.135   3.123   6.765
 2356SOL    HW1 7967   1.070   3.164   6.701
 2356SOL    HW2 7968   1.209   3.188   6.783
 2357SOL     OW 7969   3.923   0.989   2.216
 2357SOL    HW1 7970   3.950   0.981   2.312
 2357SOL    HW2 7971   4.005   0.980   2.159
 2358SOL     OW 7972   2.884   5.159   5.403
 2358SOL    HW1 7973   2.912   5.103   5.325
 2358SOL    HW2 7974   2.785   5.148   5.418
 2359SOL     OW 7975   0.433   1.080   5.727
 2359SOL    HW1 7976   0.339   1.048   5.712
 2359SOL    HW2 7977   0.477   1.095   5.639
 2360SOL     OW 7978   6.184   3.747   0.594
 2360SOL    HW1 7979   6.145   3.833   0.627
 2360SOL    HW2 7980   6.118   3.700   0.536
 2361SOL     OW 7981   3.096   1.244   6.589
 2361SOL    HW1 7982   3.025   1.273   6.653
 2361SOL    HW2 7983   3.054   1.205   6.507
 2362SOL     OW 7984   3.020   6.175   3.762
 2362SOL    HW1 7985   3.113   6.148   3.737
 2362SOL    HW2 7986   2.960   6.165   3.683
 2363SOL     OW 7987   3.668   1.743   3.393
 2363SOL    HW1 7988   3.682   1.683   3.313
 2363SOL    HW2 7989   3.608   1.697   3.458
 2364SOL     OW 7990   1.599   2.615   2.421
 2364SOL    HW1 7991   1.644   2.704   2.430
 2364SOL    HW2 7992   1.520   2.624   2.360
 2365SOL     OW 7993   6.292   1.850   6.485
 2365SOL    HW1 7994   6.347   1.914   6.539
 2365SOL    HW2 7995   6.269   1.892   6.397
 2366SOL     OW 7996   3.054   5.110   0.021
 2366SOL    HW1 7997   2.963   5.150   0.024
 2366SOL    HW2 7998   3.058   5.043   6.966
 2367SOL     OW 7999   1.922   3.210   0.966
 2367SOL    HW1 8000   1.928   3.210   0.866
 2367SOL    HW2 8001   2.014   3.200   1.005
 2368SOL     OW 8002   5.575   6.674   4.826
 2368SOL    HW1 8003   5.490   6.621   4.822
 2368SOL    HW2 8004   5.561   6.755   4.884
 2369SOL     OW 8005   2.200   0.064   4.244
 2369SOL    HW1 8006   2.113   0.065   4.293
 2369SOL    HW2 8007   2.246   0.153   4.254
 2370SOL     OW 8008   5.367   3.078   0.192
 2370SOL    HW1 8009   5.285   3.021   0.201
 2370SOL    HW2 8010   5.430   3.057   0.266
 2371SOL     OW 8011   2.287   6.742   2.259
 2371SOL    HW1 8012   2.198   6.715   2.297
 2371SOL    HW2 8013   2.280   6.747   2.160
 2372SOL     OW 8014   6.432   2.581   2.256
 2372SOL    HW1 8015   6.335   2.556   2.258
 2372SOL    HW2 8016   6.447   2.653   2.189
 2373SOL     OW 8017   1.463   3.740   5.875
 2373SOL    HW1 8018   1.539   3.732   5.810
 2373SOL    HW2 8019   1.446   3.837   5.893
 2374SOL     OW 8020   6.906   2.562   5.233
 2374SOL    HW1 8021   6.848   2.542   5.155
 2374SOL    HW2 8022   6.974   2.631   5.208
 2375SOL     OW 8023   3.220   5.101   5.917
 2375SOL    HW1 8024   3.251   5.076   6.009
 2375SOL    HW2 8025   3.297   5.132   5.863
 2376SOL     OW 8026   6.285   3.608   4.013
 2376SOL    HW1 8027   6.201   3.663   4.008
 2376SOL    HW2 8028   6.267   3.517   3.976
 2377SOL     OW 8029   3.819   3.987   3.764
 2377SOL    HW1 8030   3.881   3.997   3.842
 2377SOL    HW2 8031   3.729   3.958   3.797
 2378SOL     OW 8032   4.805   1.972   0.361
 2378SOL    HW1 8033   4.772   2.044   0.300
 2378SOL    HW2 8034   4.748   1.890   0.352
 2379SOL     OW 8035   6.898   0.980   0.570
 2379SOL    HW1 8036   6.895   0.882   0.548
 2379SOL    HW2 8037   6.828   1.028   0.518
 2380SOL     OW 8038   6.871   2.404   0.198
 2380SOL    HW1 8039   6.835   2.314   0.223
 2380SOL    HW2 8040   6.843   2.427   0.105
 2381SOL     OW 8041   2.461   5.865   2.735
 2381SOL    HW1 8042   2.374   5.865   2.685
 2381SOL    HW2 8043   2.447   5.904   2.826
 2382SOL     OW 8044   1.794   3.900   4.276
 2382SOL    HW1 8045   1.846   3.952   4.343
 2382SOL    HW2 8046   1.833   3.915   4.185
 2383SOL     OW 8047   6.636   0.173   1.116
 2383SOL    HW1 8048   6.576   0.200   1.040
 2383SOL    HW2 8049   6.731   0.178   1.087
 2384SOL     OW 8050   5.181   1.779   2.698
 2384SOL    HW1 8051   5.135   1.806   2.614
 2384SOL    HW2 8052   5.275   1.815   2.697
 2385SOL     OW 8053   6.821   0.187   6.616
 2385SOL    HW1 8054   6.749   0.166   6.682
 2385SOL    HW2 8055   6.843   0.284   6.621
 2386SOL     OW 8056   5.248   6.099   4.195
 2386SOL    HW1 8057   5.233   6.097   4.294
 2386SOL    HW2 8058   5.340   6.068   4.174
 2387SOL     OW 8059   2.121   1.162   3.934
 2387SOL    HW1 8060   2.102   1.086   3.872
 2387SOL    HW2 8061   2.092   1.248   3.892
 2388SOL     OW 8062   0.006   2.344   3.708
 2388SOL    HW1 8063   0.038   2.432   3.673
 2388SOL    HW2 8064   6.925   2.345   3.715
 2389SOL     OW 8065   4.346   4.677   3.252
 2389SOL    HW1 8066   4.252   4.645   3.257
 2389SOL    HW2 8067   4.394   4.653   3.336
 2390SOL     OW 8068   3.701   2.937   3.075
 2390SOL    HW1 8069   3.701   2.981   3.165
 2390SOL    HW2 8070   3.785   2.959   3.027
 2391SOL     OW 8071   5.882   4.460   6.450
 2391SOL    HW1 8072   5.880   4.523   6.528
 2391SOL    HW2 8073   5.794   4.413   6.443
 2392SOL     OW 8074   3.030   6.788   6.105
 2392SOL    HW1 8075   3.068   6.719   6.043
 2392SOL    HW2 8076   3.071   6.877   6.084
 2393SOL     OW 8077   5.456   3.836   6.844
 2393SOL    HW1 8078   5.377   3.892   6.819
 2393SOL    HW2 8079   5.539   3.893   6.840
 2394SOL     OW 8080   0.439   3.722   4.584
 2394SOL    HW1 8081   0.504   3.773   4.528
 2394SOL    HW2 8082   0.364   3.689   4.526
 2395SOL     OW 8083   4.805   6.953   6.214
 2395SOL    HW1 8084   4.706   6.964   6.201
 2395SOL    HW2 8085   4.849   0.024   6.205
 2396SOL     OW 8086   3.498   4.975   1.327
 2396SOL    HW1 8087   3.528   4.993   1.234
 2396SOL    HW2 8088   3.501   5.060   1.380
 2397SOL     OW 8089   0.747   4.455   4.811
 2397SOL    HW1 8090   0.783   4.486   4.899
 2397SOL    HW2 8091   0.678   4.384   4.827
 2398SOL     OW 8092   4.761   3.884   6.779
 2398SOL    HW1 8093   4.682   3.892   6.840
 2398SOL    HW2 8094   4.760   3.795   6.734
 2399SOL     OW 8095   4.774   0.794   0.803
 2399SOL    HW1 8096   4.797   0.866   0.870
 2399SOL    HW2 8097   4.760   0.835   0.713
 2400SOL     OW 8098   2.881   3.563   0.864
 2400SOL    HW1 8099   2.876   3.549   0.963
 2400SOL    HW2 8100   2.789   3.560   0.825
 2401SOL     OW 8101   5.517   6.408   0.406
 2401SOL    HW1 8102   5.559   6.346   0.472
 2401SOL    HW2 8103   5.496   6.359   0.321
 2402SOL     OW 8104   0.655   0.334   4.488
 2402SOL    HW1 8105   0.671   0.243   4.525
 2402SOL    HW2 8106   0.587   0.382   4.545
 2403SOL     OW 8107   1.157   2.489   6.173
 2403SOL    HW1 8108   1.195   2.439   6.096
 2403SOL    HW2 8109   1.208   2.466   6.256
 2404SOL     OW 8110   2.523   1.052   1.320
 2404SOL    HW1 8111   2.445   1.100   1.360
 2404SOL    HW2 8112   2.507   1.038   1.222
 2405SOL     OW 8113   3.422   3.617   2.536
 2405SOL    HW1 8114   3.354   3.647   2.603
 2405SOL    HW2 8115   3.505   3.671   2.546
 2406SOL     OW 8116   3.398   1.276   1.254
 2406SOL    HW1 8117   3.445   1.205   1.202
 2406SOL    HW2 8118   3.422   1.366   1.218
 2407SOL     OW 8119   5.556   1.985   3.460
 2407SOL    HW1 8120   5.600   2.072   3.438
 2407SOL    HW2 8121   5.494   1.998   3.537
 2408SOL     OW 8122   4.565   4.433   2.148
 2408SOL    HW1 8123   4.517   4.371   2.085
 2408SOL    HW2 8124   4.662   4.409   2.152
 2409SOL     OW 8125   2.335   4.347   2.159
 2409SOL    HW1 8126   2.340   4.374   2.063
 2409SOL    HW2 8127   2.311   4.427   2.214
 2410SOL     OW 8128   3.594   2.998   4.522
 2410SOL    HW1 8129   3.502   2.963   4.534
 2410SOL    HW2 8130   3.593   3.098   4.521
 2411SOL     OW 8131   5.130   6.327   4.800
 2411SOL    HW1 8132   5.084   6.344   4.887
 2411SOL    HW2 8133   5.071   6.356   4.724
 2412SOL     OW 8134   5.278   4.747   1.566
 2412SOL    HW1 8135   5.291   4.649   1.580
 2412SOL    HW2 8136   5.366   4.794   1.572
 2413SOL     OW 8137   6.184   0.893   1.655
 2413SOL    HW1 8138   6.190   0.812   1.714
 2413SOL    HW2 8139   6.132   0.869   1.572
 2414SOL     OW 8140   4.934   4.381   3.581
 2414SOL    HW1 8141   4.934   4.481   3.578
 2414SOL    HW2 8142   5.024   4.347   3.552
 2415SOL     OW 8143   6.187   1.497   3.102
 2415SOL    HW1 8144   6.262   1.508   3.037
 2415SOL    HW2 8145   6.183   1.403   3.134
 2416SOL     OW 8146   5.318   2.084   5.384
 2416SOL    HW1 8147   5.379   2.135   5.445
 2416SOL    HW2 8148   5.372   2.018   5.331
 2417SOL     OW 8149   3.007   3.151   4.973
 2417SOL    HW1 8150   2.909   3.164   4.960
 2417SOL    HW2 8151   3.049   3.237   5.001
 2418SOL     OW 8152   3.515   3.266   3.850
 2418SOL    HW1 8153   3.537   3.202   3.923
 2418SOL    HW2 8154   3.427   3.310   3.869
 2419SOL     OW 8155   0.087   6.545   3.636
 2419SOL    HW1 8156   0.013   6.542   3.703
 2419SOL    HW2 8157   0.164   6.597   3.674
 2420SOL     OW 8158   3.299   0.355   2.175
 2420SOL    HW1 8159   3.223   0.408   2.136
 2420SOL    HW2 8160   3.267   0.264   2.199
 2421SOL     OW 8161   2.019   2.708   4.766
 2421SOL    HW1 8162   1.942   2.672   4.819
 2421SOL    HW2 8163   2.047   2.641   4.698
 2422SOL     OW 8164   4.944   1.442   0.611
 2422SOL    HW1 8165   4.880   1.467   0.683
 2422SOL    HW2 8166   5.038   1.449   0.645
 2423SOL     OW 8167   2.464   6.443   1.966
 2423SOL    HW1 8168   2.483   6.375   1.896
 2423SOL    HW2 8169   2.507   6.530   1.941
 2424SOL     OW 8170   6.434   0.817   0.540
 2424SOL    HW1 8171   6.509   0.787   0.599
 2424SOL    HW2 8172   6.349   0.774   0.570
 2425SOL     OW 8173   5.969   6.966   4.238
 2425SOL    HW1 8174   5.937   0.042   4.247
 2425SOL    HW2 8175   5.931   6.911   4.313
 2426SOL     OW 8176   2.047   5.182   5.443
 2426SOL    HW1 8177   2.131   5.154   5.396
 2426SOL    HW2 8178   2.032   5.122   5.522
 2427SOL     OW 8179   5.718   5.724   5.037
 2427SOL    HW1 8180   5.687   5.818   5.023
 2427SOL    HW2 8181   5.687   5.692   5.127
 2428SOL     OW 8182   0.813   0.908   1.618
 2428SOL    HW1 8183   0.722   0.901   1.659
 2428SOL    HW2 8184   0.827   0.831   1.555
 2429SOL     OW 8185   5.477   5.883   1.802
 2429SOL    HW1 8186   5.548   5.817   1.826
 2429SOL    HW2 8187   5.484   5.962   1.863
 2430SOL     OW 8188   6.049   0.884   2.546
 2430SOL    HW1 8189   6.048   0.984   2.550
 2430SOL    HW2 8190   5.956   0.849   2.562
 2431SOL     OW 8191   4.447   1.158   2.622
 2431SOL    HW1 8192   4.477   1.221   2.550
 2431SOL    HW2 8193   4.421   1.211   2.703
 2432SOL     OW 8194   4.319   6.533   2.153
 2432SOL    HW1 8195   4.243   6.559   2.094
 2432SOL    HW2 8196   4.389   6.486   2.100
 2433SOL     OW 8197   4.481   0.895   6.744
 2433SOL    HW1 8198   4.435   0.818   6.788
 2433SOL    HW2 8199   4.438   0.914   6.656
 2434SOL     OW 8200   3.900   0.654   5.761
 2434SOL    HW1 8201   3.944   0.662   5.672
 2434SOL    HW2 8202   3.860   0.562   5.770
 2435SOL     OW 8203   5.827   6.204   5.483
 2435SOL    HW1 8204   5.812   6.157   5.570
 2435SOL    HW2 8205   5.747   6.258   5.460
 2436SOL     OW 8206   2.043   6.118   0.184
 2436SOL    HW1 8207   2.071   6.041   0.126
 2436SOL    HW2 8208   1.944   6.130   0.176
 2437SOL     OW 8209   6.385   6.845   6.001
 2437SOL    HW1 8210   6.457   6.793   5.955
 2437SOL    HW2 8211   6.416   6.871   6.092
 2438SOL     OW 8212   2.677   2.460   0.463
 2438SOL    HW1 8213   2.723   2.515   0.533
 2438SOL    HW2 8214   2.716   2.368   0.461
 2439SOL     OW 8215   6.553   4.588   6.084
 2439SOL    HW1 8216   6.635   4.579   6.026
 2439SOL    HW2 8217   6.475   4.547   6.038
 2440SOL     OW 8218   5.294   5.363   5.857
 2440SOL    HW1 8219   5.303   5.432   5.785
 2440SOL    HW2 8220   5.341   5.279   5.829
 2441SOL     OW 8221   6.079   2.046   1.174
 2441SOL    HW1 8222   6.116   2.031   1.266
 2441SOL    HW2 8223   6.149   2.025   1.106
 2442SOL     OW 8224   0.756   3.731   5.120
 2442SOL    HW1 8225   0.816   3.701   5.195
 2442SOL    HW2 8226   0.811   3.768   5.046
 2443SOL     OW 8227   2.959   4.110   6.162
 2443SOL    HW1 8228   2.927   4.203   6.181
 2443SOL    HW2 8229   2.894   4.044   6.199
 2444SOL     OW 8230   2.117   4.173   5.924
 2444SOL    HW1 8231   2.173   4.106   5.876
 2444SOL    HW2 8232   2.127   4.160   6.023
 2445SOL     OW 8233   0.498   0.564   0.863
 2445SOL    HW1 8234   0.497   0.661   0.839
 2445SOL    HW2 8235   0.420   0.518   0.819
 2446SOL     OW 8236   6.157   4.556   4.794
 2446SOL    HW1 8237   6.087   4.486   4.777
 2446SOL    HW2 8238   6.152   4.585   4.889
 2447SOL     OW 8239   0.861   1.316   0.638
 2447SOL    HW1 8240   0.838   1.219   0.645
 2447SOL    HW2 8241   0.917   1.331   0.556
 2448SOL     OW 8242   1.136   6.959   4.525
 2448SOL    HW1 8243   1.091   6.965   4.614
 2448SOL    HW2 8244   1.082   7.009   4.457
 2449SOL     OW 8245   0.075   3.614   5.977
 2449SOL    HW1 8246   0.003   3.601   5.909
 2449SOL    HW2 8247   0.149   3.549   5.960
 2450SOL     OW 8248   2.385   4.532   2.699
 2450SOL    HW1 8249   2.376   4.435   2.723
 2450SOL    HW2 8250   2.296   4.576   2.704
 2451SOL     OW 8251   2.456   5.947   3.416
 2451SOL    HW1 8252   2.544   5.909   3.444
 2451SOL    HW2 8253   2.383   5.885   3.441
 2452SOL     OW 8254   1.050   2.820   3.860
 2452SOL    HW1 8255   1.037   2.904   3.912
 2452SOL    HW2 8256   1.004   2.828   3.771
 2453SOL     OW 8257   6.562   4.807   1.467
 2453SOL    HW1 8258   6.657   4.780   1.477
 2453SOL    HW2 8259   6.556   4.887   1.407
 2454SOL     OW 8260   3.105   0.895   1.819
 2454SOL    HW1 8261   3.115   0.801   1.854
 2454SOL    HW2 8262   3.066   0.953   1.891
 2455SOL     OW 8263   5.495   5.657   0.305
 2455SOL    HW1 8264   5.501   5.756   0.296
 2455SOL    HW2 8265   5.534   5.629   0.392
 2456SOL     OW 8266   5.149   5.793   1.738
 2456SOL    HW1 8267   5.141   5.695   1.720
 2456SOL    HW2 8268   5.174   5.808   1.833
 2457SOL     OW 8269   5.346   6.453   1.271
 2457SOL    HW1 8270   5.275   6.479   1.206
 2457SOL    HW2 8271   5.414   6.396   1.225
 2458SOL     OW 8272   0.979   5.348   2.966
 2458SOL    HW1 8273   1.070   5.375   2.997
 2458SOL    HW2 8274   0.971   5.249   2.967
 2459SOL     OW 8275   1.885   0.136   0.663
 2459SOL    HW1 8276   1.898   0.052   0.611
 2459SOL    HW2 8277   1.968   0.156   0.716
 2460SOL     OW 8278   3.206   5.703   1.565
 2460SOL    HW1 8279   3.295   5.736   1.597
 2460SOL    HW2 8280   3.181   5.620   1.614
 2461SOL     OW 8281   5.353   0.585   2.305
 2461SOL    HW1 8282   5.325   0.523   2.379
 2461SOL    HW2 8283   5.357   0.535   2.219
 2462SOL     OW 8284   1.823   5.328   6.639
 2462SOL    HW1 8285   1.801   5.374   6.553
 2462SOL    HW2 8286   1.776   5.240   6.642
 2463SOL     OW 8287   6.158   2.122   4.178
 2463SOL    HW1 8288   6.087   2.181   4.139
 2463SOL    HW2 8289   6.196   2.063   4.106
 2464SOL     OW 8290   1.380   3.309   1.255
 2464SOL    HW1 8291   1.316   3.258   1.198
 2464SOL    HW2 8292   1.430   3.374   1.198
 2465SOL     OW 8293   6.388   5.998   3.134
 2465SOL    HW1 8294   6.468   6.032   3.183
 2465SOL    HW2 8295   6.366   6.061   3.059
 2466SOL     OW 8296   3.641   1.803   2.535
 2466SOL    HW1 8297   3.619   1.897   2.559
 2466SOL    HW2 8298   3.565   1.763   2.484
 2467SOL     OW 8299   6.902   0.782   6.328
 2467SOL    HW1 8300   6.873   0.693   6.364
 2467SOL    HW2 8301   6.836   0.852   6.354
 2468SOL     OW 8302   0.260   5.331   1.141
 2468SOL    HW1 8303   0.205   5.276   1.204
 2468SOL    HW2 8304   0.202   5.401   1.098
 2469SOL     OW 8305   2.315   2.671   5.745
 2469SOL    HW1 8306   2.384   2.743   5.740
 2469SOL    HW2 8307   2.230   2.704   5.704
 2470SOL     OW 8308   5.088   2.993   0.277
 2470SOL    HW1 8309   5.040   2.907   0.295
 2470SOL    HW2 8310   5.054   3.033   0.192
 2471SOL     OW 8311   1.490   0.450   2.723
 2471SOL    HW1 8312   1.487   0.439   2.822
 2471SOL    HW2 8313   1.437   0.531   2.696
 2472SOL     OW 8314   6.166   1.640   3.329
 2472SOL    HW1 8315   6.084   1.696   3.337
 2472SOL    HW2 8316   6.159   1.580   3.249
 2473SOL     OW 8317   1.100   6.106   4.921
 2473SOL    HW1 8318   1.120   6.021   4.970
 2473SOL    HW2 8319   1.013   6.144   4.955
 2474SOL     OW 8320   6.546   4.888   4.859
 2474SOL    HW1 8321   6.617   4.952   4.831
 2474SOL    HW2 8322   6.534   4.893   4.958
 2475SOL     OW 8323   4.572   1.991   0.082
 2475SOL    HW1 8324   4.617   1.913   0.040
 2475SOL    HW2 8325   4.489   1.960   0.129
 2476SOL     OW 8326   1.085   1.929   4.202
 2476SOL    HW1 8327   1.034   1.858   4.154
 2476SOL    HW2 8328   1.176   1.895   4.225
 2477SOL     OW 8329   4.354   4.741   1.137
 2477SOL    HW1 8330   4.269   4.786   1.165
 2477SOL    HW2 8331   4.399   4.796   1.066
 2478SOL     OW 8332   6.745   6.857   3.325
 2478SOL    HW1 8333   6.731   6.935   3.385
 2478SOL    HW2 8334   6.659   6.807   3.314
 2479SOL     OW 8335   0.447   3.155   0.650
 2479SOL    HW1 8336   0.460   3.254   0.662
 2479SOL    HW2 8337   0.498   3.124   0.570
 2480SOL     OW 8338   0.167   3.197   1.205
 2480SOL    HW1 8339   0.131   3.121   1.151
 2480SOL    HW2 8340   0.115   3.280   1.185
 2481SOL     OW 8341   4.439   5.157   2.301
 2481SOL    HW1 8342   4.531   5.136   2.269
 2481SOL    HW2 8343   4.426   5.256   2.307
 2482SOL     OW 8344   5.221   2.128   4.692
 2482SOL    HW1 8345   5.124   2.112   4.673
 2482SOL    HW2 8346   5.229   2.194   4.767
 2483SOL     OW 8347   1.046   2.220   6.663
 2483SOL    HW1 8348   1.137   2.180   6.674
 2483SOL    HW2 8349   1.027   2.281   6.739
 2484SOL     OW 8350   3.108   2.108   6.183
 2484SOL    HW1 8351   3.077   2.112   6.088
 2484SOL    HW2 8352   3.144   2.198   6.210
 2485SOL     OW 8353   0.218   6.240   1.995
 2485SOL    HW1 8354   0.154   6.223   1.921
 2485SOL    HW2 8355   0.186   6.318   2.049
 2486SOL     OW 8356   1.265   5.448   3.294
 2486SOL    HW1 8357   1.177   5.447   3.248
 2486SOL    HW2 8358   1.330   5.503   3.241
 2487SOL     OW 8359   3.354   1.303   0.688
 2487SOL    HW1 8360   3.417   1.258   0.625
 2487SOL    HW2 8361   3.363   1.402   0.678
 2488SOL     OW 8362   3.191   6.239   6.842
 2488SOL    HW1 8363   3.268   6.180   6.868
 2488SOL    HW2 8364   3.154   6.283   6.923
 2489SOL     OW 8365   0.260   5.686   4.612
 2489SOL    HW1 8366   0.359   5.683   4.595
 2489SOL    HW2 8367   0.212   5.694   4.525
 2490SOL     OW 8368   4.980   3.371   1.629
 2490SOL    HW1 8369   5.056   3.429   1.659
 2490SOL    HW2 8370   4.950   3.313   1.705
 2491SOL     OW 8371   1.435   4.470   2.118
 2491SOL    HW1 8372   1.432   4.381   2.164
 2491SOL    HW2 8373   1.344   4.495   2.086
 2492SOL     OW 8374   4.186   3.053   6.462
 2492SOL    HW1 8375   4.225   3.058   6.370
 2492SOL    HW2 8376   4.190   3.143   6.505
 2493SOL     OW 8377   6.564   2.160   3.835
 2493SOL    HW1 8378   6.478   2.120   3.801
 2493SOL    HW2 8379   6.641   2.107   3.799
 2494SOL     OW 8380   5.170   3.518   1.758
 2494SOL    HW1 8381   5.097   3.548   1.819
 2494SOL    HW2 8382   5.252   3.496   1.812
 2495SOL     OW 8383   6.155   1.361   4.369
 2495SOL    HW1 8384   6.236   1.350   4.426
 2495SOL    HW2 8385   6.162   1.301   4.289
 2496SOL     OW 8386   0.890   6.482   0.104
 2496SOL    HW1 8387   0.948   6.424   0.161
 2496SOL    HW2 8388   0.795   6.473   0.133
 2497SOL     OW 8389   5.014   1.864   6.206
 2497SOL    HW1 8390   5.043   1.878   6.111
 2497SOL    HW2 8391   5.030   1.768   6.231
 2498SOL     OW 8392   1.657   3.968   4.706
 2498SOL    HW1 8393   1.593   3.952   4.631
 2498SOL    HW2 8394   1.731   3.900   4.702
 2499SOL     OW 8395   5.854   0.380   5.350
 2499SOL    HW1 8396   5.884   0.474   5.330
 2499SOL    HW2 8397   5.773   0.384   5.409
 2500SOL     OW 8398   4.934   2.943   6.178
 2500SOL    HW1 8399   4.975   3.033   6.193
 2500SOL    HW2 8400   4.835   2.953   6.168
 2501SOL     OW 8401   6.267   4.300   0.125
 2501SOL    HW1 8402   6.299   4.269   0.214
 2501SOL    HW2 8403   6.339   4.287   0.057
 2502SOL     OW 8404   1.836   6.781   2.834
 2502SOL    HW1 8405   1.835   6.880   2.819
 2502SOL    HW2 8406   1.797   6.761   2.924
 2503SOL     OW 8407   4.544   5.413   4.854
 2503SOL    HW1 8408   4.514   5.455   4.940
 2503SOL    HW2 8409   4.572   5.485   4.790
 2504SOL     OW 8410   2.069   4.223   3.902
 2504SOL    HW1 8411   2.134   4.253   3.972
 2504SOL    HW2 8412   2.112   4.157   3.841
 2505SOL     OW 8413   4.548   5.624   3.875
 2505SOL    HW1 8414   4.569   5.622   3.973
 2505SOL    HW2 8415   4.476   5.691   3.859
 2506SOL     OW 8416   0.284   2.077   6.579
 2506SOL    HW1 8417   0.200   2.024   6.593
 2506SOL    HW2 8418   0.289   2.107   6.484
 2507SOL     OW 8419   0.222   5.762   0.687
 2507SOL    HW1 8420   0.249   5.850   0.724
 2507SOL    HW2 8421   0.195   5.772   0.591
 2508SOL     OW 8422   2.459   2.602   2.424
 2508SOL    HW1 8423   2.421   2.542   2.494
 2508SOL    HW2 8424   2.392   2.673   2.400
 2509SOL     OW 8425   5.361   1.996   3.693
 2509SOL    HW1 8426   5.280   2.000   3.634
 2509SOL    HW2 8427   5.387   2.089   3.719
 2510SOL     OW 8428   3.623   5.749   1.067
 2510SOL    HW1 8429   3.637   5.659   1.027
 2510SOL    HW2 8430   3.646   5.746   1.165
 2511SOL     OW 8431   1.585   0.341   4.092
 2511SOL    HW1 8432   1.583   0.440   4.094
 2511SOL    HW2 8433   1.664   0.308   4.143
 2512SOL     OW 8434   4.724   2.781   4.502
 2512SOL    HW1 8435   4.763   2.840   4.574
 2512SOL    HW2 8436   4.665   2.712   4.544
 2513SOL     OW 8437   0.163   4.161   0.967
 2513SOL    HW1 8438   0.176   4.074   1.015
 2513SOL    HW2 8439   0.068   4.167   0.936
 2514SOL     OW 8440   0.921   1.384   3.631
 2514SOL    HW1 8441   0.958   1.430   3.550
 2514SOL    HW2 8442   0.825   1.410   3.643
 2515SOL     OW 8443   1.341   4.752   0.190
 2515SOL    HW1 8444   1.326   4.699   0.107
 2515SOL    HW2 8445   1.412   4.709   0.246
 2516SOL     OW 8446   4.890   6.366   3.908
 2516SOL    HW1 8447   4.883   6.426   3.828
 2516SOL    HW2 8448   4.985   6.361   3.938
 2517SOL     OW 8449   2.325   4.751   0.392
 2517SOL    HW1 8450   2.402   4.811   0.411
 2517SOL    HW2 8451   2.355   4.656   0.397
 2518SOL     OW 8452   2.416   2.296   6.194
 2518SOL    HW1 8453   2.328   2.285   6.241
 2518SOL    HW2 8454   2.404   2.348   6.110
 2519SOL     OW 8455   4.994   4.213   4.650
 2519SOL    HW1 8456   5.018   4.122   4.617
 2519SOL    HW2 8457   4.897   4.230   4.637
 2520SOL     OW 8458   1.949   4.722   1.978
 2520SOL    HW1 8459   1.962   4.695   1.883
 2520SOL    HW2 8460   1.910   4.815   1.981
 2521SOL     OW 8461   5.519   6.917   5.425
 2521SOL    HW1 8462   5.548   6.852   5.355
 2521SOL    HW2 8463   5.560   7.006   5.407
 2522SOL     OW 8464   1.476   3.034   4.672
 2522SOL    HW1 8465   1.465   3.015   4.574
 2522SOL    HW2 8466   1.464   2.950   4.724
 2523SOL     OW 8467   0.401   2.925   6.730
 2523SOL    HW1 8468   0.385   2.834   6.770
 2523SOL    HW2 8469   0.341   2.991   6.775
 2524SOL     OW 8470   1.274   6.420   4.968
 2524SOL    HW1 8471   1.191   6.395   4.917
 2524SOL    HW2 8472   1.294   6.517   4.953
 2525SOL     OW 8473   1.852   4.207   3.152
 2525SOL    HW1 8474   1.912   4.220   3.230
 2525SOL    HW2 8475   1.833   4.296   3.110
 2526SOL     OW 8476   6.787   1.546   5.373
 2526SOL    HW1 8477   6.726   1.475   5.340
 2526SOL    HW2 8478   6.792   1.620   5.307
 2527SOL     OW 8479   6.373   6.353   3.913
 2527SOL    HW1 8480   6.302   6.317   3.853
 2527SOL    HW2 8481   6.335   6.423   3.972
 2528SOL     OW 8482   6.279   5.675   0.336
 2528SOL    HW1 8483   6.253   5.766   0.368
 2528SOL    HW2 8484   6.197   5.626   0.305
 2529SOL     OW 8485   5.165   3.810   4.951
 2529SOL    HW1 8486   5.264   3.817   4.938
 2529SOL    HW2 8487   5.128   3.737   4.894
 2530SOL     OW 8488   0.589   0.023   4.350
 2530SOL    HW1 8489   0.506   0.052   4.303
 2530SOL    HW2 8490   0.595   0.069   4.439
 2531SOL     OW 8491   4.187   0.819   6.294
 2531SOL    HW1 8492   4.088   0.812   6.285
 2531SOL    HW2 8493   4.209   0.892   6.358
 2532SOL     OW 8494   1.711   4.508   5.937
 2532SOL    HW1 8495   1.793   4.554   5.971
 2532SOL    HW2 8496   1.656   4.573   5.885
 2533SOL     OW 8497   5.652   0.149   5.376
 2533SOL    HW1 8498   5.648   0.162   5.277
 2533SOL    HW2 8499   5.730   0.091   5.399
 2534SOL     OW 8500   0.402   1.710   4.161
 2534SOL    HW1 8501   0.447   1.799   4.164
 2534SOL    HW2 8502   0.451   1.650   4.098
 2535SOL     OW 8503   2.540   1.422   2.476
 2535SOL    HW1 8504   2.470   1.464   2.533
 2535SOL    HW2 8505   2.626   1.416   2.527
 2536SOL     OW 8506   6.424   0.483   3.930
 2536SOL    HW1 8507   6.498   0.431   3.973
 2536SOL    HW2 8508   6.458   0.525   3.846
 2537SOL     OW 8509   3.657   5.131   1.194
 2537SOL    HW1 8510   3.643   5.209   1.254
 2537SOL    HW2 8511   3.713   5.158   1.116
 2538SOL     OW 8512   2.048   4.349   5.059
 2538SOL    HW1 8513   2.083   4.384   4.972
 2538SOL    HW2 8514   2.112   4.373   5.132
 2539SOL     OW 8515   2.698   0.190   5.709
 2539SOL    HW1 8516   2.611   0.232   5.735
 2539SOL    HW2 8517   2.767   0.210   5.779
 2540SOL     OW 8518   5.937   1.668   2.102
 2540SOL    HW1 8519   5.985   1.755   2.092
 2540SOL    HW2 8520   5.998   1.599   2.140
 2541SOL     OW 8521   1.233   6.445   5.323
 2541SOL    HW1 8522   1.304   6.429   5.392
 2541SOL    HW2 8523   1.143   6.449   5.368
 2542SOL     OW 8524   3.378   1.711   4.346
 2542SOL    HW1 8525   3.389   1.612   4.343
 2542SOL    HW2 8526   3.287   1.735   4.312
 2543SOL     OW 8527   0.187   2.034   4.777
 2543SOL    HW1 8528   0.203   2.128   4.808
 2543SOL    HW2 8529   0.274   1.986   4.771
 2544SOL     OW 8530   6.235   5.740   2.307
 2544SOL    HW1 8531   6.300   5.667   2.286
 2544SOL    HW2 8532   6.152   5.728   2.253
 2545SOL     OW 8533   6.322   2.028   1.029
 2545SOL    HW1 8534   6.345   1.930   1.032
 2545SOL    HW2 8535   6.402   2.082   1.055
 2546SOL     OW 8536   6.604   4.163   2.816
 2546SOL    HW1 8537   6.637   4.254   2.843
 2546SOL    HW2 8538   6.517   4.173   2.768
 2547SOL     OW 8539   5.887   3.224   0.878
 2547SOL    HW1 8540   5.848   3.139   0.913
 2547SOL    HW2 8541   5.969   3.204   0.824
 2548SOL     OW 8542   0.026   6.639   5.455
 2548SOL    HW1 8543   6.988   6.722   5.458
 2548SOL    HW2 8544   0.051   6.614   5.549
 2549SOL     OW 8545   2.785   2.611   0.019
 2549SOL    HW1 8546   2.864   2.597   6.979
 2549SOL    HW2 8547   2.769   2.529   0.074
 2550SOL     OW 8548   3.729   6.231   6.655
 2550SOL    HW1 8549   3.777   6.261   6.573
 2550SOL    HW2 8550   3.637   6.270   6.657
 2551SOL     OW 8551   3.110   5.645   0.514
 2551SOL    HW1 8552   3.060   5.628   0.599
 2551SOL    HW2 8553   3.067   5.595   0.439
 2552SOL     OW 8554   2.313   5.845   1.472
 2552SOL    HW1 8555   2.292   5.771   1.408
 2552SOL    HW2 8556   2.262   5.831   1.557
 2553SOL     OW 8557   4.493   0.990   6.488
 2553SOL    HW1 8558   4.543   1.037   6.560
 2553SOL    HW2 8559   4.486   1.050   6.408
 2554SOL     OW 8560   1.736   5.826   1.441
 2554SOL    HW1 8561   1.768   5.732   1.445
 2554SOL    HW2 8562   1.732   5.857   1.346
 2555SOL     OW 8563   5.316   6.754   5.023
 2555SOL    HW1 8564   5.403   6.739   5.069
 2555SOL    HW2 8565   5.315   6.704   4.936
 2556SOL     OW 8566   3.992   0.540   0.459
 2556SOL    HW1 8567   4.050   0.621   0.448
 2556SOL    HW2 8568   3.915   0.563   0.519
 2557SOL     OW 8569   2.981   0.216   6.315
 2557SOL    HW1 8570   2.947   0.295   6.366
 2557SOL    HW2 8571   3.078   0.230   6.293
 2558SOL     OW 8572   5.472   3.512   0.176
 2558SOL    HW1 8573   5.459   3.428   0.123
 2558SOL    HW2 8574   5.543   3.498   0.245
 2559SOL     OW 8575   0.876   4.651   4.690
 2559SOL    HW1 8576   0.819   4.722   4.731
 2559SOL    HW2 8577   0.835   4.562   4.706
 2560SOL     OW 8578   4.774   2.048   3.797
 2560SOL    HW1 8579   4.752   1.999   3.712
 2560SOL    HW2 8580   4.870   2.034   3.820
 2561SOL     OW 8581   3.693   0.423   4.976
 2561SOL    HW1 8582   3.731   0.401   5.066
 2561SOL    HW2 8583   3.745   0.376   4.905
 2562SOL     OW 8584   3.050   6.510   3.636
 2562SOL    HW1 8585   2.974   6.572   3.656
 2562SOL    HW2 8586   3.028   6.419   3.669
 2563SOL     OW 8587   3.566   2.090   6.511
 2563SOL    HW1 8588   3.568   2.009   6.571
 2563SOL    HW2 8589   3.659   2.110   6.480
 2564SOL     OW 8590   1.642   1.865   6.986
 2564SOL    HW1 8591   1.563   1.877   6.926
 2564SOL    HW2 8592   1.707   1.939   6.970
 2565SOL     OW 8593   0.534   1.455   0.614
 2565SOL    HW1 8594   0.634   1.444   0.609
 2565SOL    HW2 8595   0.506   1.524   0.547
 2566SOL     OW 8596   2.446   0.666   0.565
 2566SOL    HW1 8597   2.429   0.600   0.492
 2566SOL    HW2 8598   2.385   0.744   0.554
 2567SOL     OW 8599   2.170   0.973   6.906
 2567SOL    HW1 8600   2.125   0.894   6.947
 2567SOL    HW2 8601   2.172   1.048   6.973
 2568SOL     OW 8602   3.104   6.299   0.620
 2568SOL    HW1 8603   3.181   6.349   0.659
 2568SOL    HW2 8604   3.132   6.207   0.595
 2569SOL     OW 8605   1.940   0.363   0.901
 2569SOL    HW1 8606   1.940   0.419   0.818
 2569SOL    HW2 8607   1.955   0.268   0.876
 2570SOL     OW 8608   6.749   6.614   5.540
 2570SOL    HW1 8609   6.678   6.598   5.472
 2570SOL    HW2 8610   6.794   6.701   5.521
 2571SOL     OW 8611   3.602   2.916   3.646
 2571SOL    HW1 8612   3.621   2.883   3.738
 2571SOL    HW2 8613   3.541   2.995   3.651
 2572SOL     OW 8614   1.973   5.635   1.793
 2572SOL    HW1 8615   1.924   5.720   1.813
 2572SOL    HW2 8616   1.978   5.579   1.875
 2573SOL     OW 8617   6.705   2.458   5.035
 2573SOL    HW1 8618   6.709   2.502   4.945
 2573SOL    HW2 8619   6.722   2.360   5.025
 2574SOL     OW 8620   0.624   3.822   2.343
 2574SOL    HW1 8621   0.680   3.855   2.267
 2574SOL    HW2 8622   0.600   3.898   2.403
 2575SOL     OW 8623   5.723   3.720   0.400
 2575SOL    HW1 8624   5.695   3.781   0.325
 2575SOL    HW2 8625   5.683   3.752   0.485
 2576SOL     OW 8626   2.399   6.602   3.792
 2576SOL    HW1 8627   2.348   6.576   3.711
 2576SOL    HW2 8628   2.432   6.520   3.839
 2577SOL     OW 8629   2.938   6.102   1.698
 2577SOL    HW1 8630   2.865   6.040   1.726
 2577SOL    HW2 8631   2.986   6.063   1.619
 2578SOL     OW 8632   5.062   1.827   4.143
 2578SOL    HW1 8633   5.140   1.870   4.098
 2578SOL    HW2 8634   5.041   1.740   4.098
 2579SOL     OW 8635   6.902   1.711   6.180
 2579SOL    HW1 8636   6.849   1.702   6.096
 2579SOL    HW2 8637   6.950   1.799   6.179
 2580SOL     OW 8638   1.211   2.662   6.452
 2580SOL    HW1 8639   1.239   2.569   6.430
 2580SOL    HW2 8640   1.120   2.661   6.494
 2581SOL     OW 8641   6.607   6.645   4.049
 2581SOL    HW1 8642   6.620   6.744   4.044
 2581SOL    HW2 8643   6.509   6.625   4.058
 2582SOL     OW 8644   0.502   5.538   2.777
 2582SOL    HW1 8645   0.439   5.473   2.818
 2582SOL    HW2 8646   0.465   5.631   2.786
 2583SOL     OW 8647   2.021   0.896   0.270
 2583SOL    HW1 8648   1.974   0.917   0.355
 2583SOL    HW2 8649   2.119   0.887   0.288
 2584SOL     OW 8650   5.135   6.761   1.865
 2584SOL    HW1 8651   5.222   6.748   1.818
 2584SOL    HW2 8652   5.061   6.762   1.797
 2585SOL     OW 8653   3.947   1.173   1.660
 2585SOL    HW1 8654   3.855   1.138   1.678
 2585SOL    HW2 8655   3.943   1.272   1.648
 2586SOL     OW 8656   6.735   2.575   4.439
 2586SOL    HW1 8657   6.694   2.484   4.434
 2586SOL    HW2 8658   6.742   2.614   4.347
 2587SOL     OW 8659   5.661   6.479   2.933
 2587SOL    HW1 8660   5.610   6.513   2.854
 2587SOL    HW2 8661   5.620   6.395   2.966
 2588SOL     OW 8662   5.495   0.840   1.507
 2588SOL    HW1 8663   5.513   0.907   1.578
 2588SOL    HW2 8664   5.445   0.762   1.546
 2589SOL     OW 8665   6.412   6.545   1.121
 2589SOL    HW1 8666   6.458   6.507   1.201
 2589SOL    HW2 8667   6.314   6.526   1.127
 2590SOL     OW 8668   4.147   6.406   2.321
 2590SOL    HW1 8669   4.203   6.479   2.283
 2590SOL    HW2 8670   4.198   6.361   2.395
 2591SOL     OW 8671   5.833   0.672   1.666
 2591SOL    HW1 8672   5.929   0.643   1.667
 2591SOL    HW2 8673   5.805   0.692   1.572
 2592SOL     OW 8674   3.672   5.766   1.332
 2592SOL    HW1 8675   3.634   5.855   1.356
 2592SOL    HW2 8676   3.689   5.713   1.415
 2593SOL     OW 8677   3.160   6.401   2.434
 2593SOL    HW1 8678   3.123   6.374   2.346
 2593SOL    HW2 8679   3.092   6.384   2.506
 2594SOL     OW 8680   1.143   6.071   6.177
 2594SOL    HW1 8681   1.185   6.051   6.266
 2594SOL    HW2 8682   1.045   6.050   6.181
 2595SOL     OW 8683   6.285   3.872   4.260
 2595SOL    HW1 8684   6.303   3.968   4.239
 2595SOL    HW2 8685   6.297   3.817   4.177
 2596SOL     OW 8686   4.019   2.211   2.110
 2596SOL    HW1 8687   3.941   2.274   2.102
 2596SOL    HW2 8688   4.065   2.205   2.021
 2597SOL     OW 8689   2.088   2.909   6.695
 2597SOL    HW1 8690   2.104   3.000   6.656
 2597SOL    HW2 8691   2.075   2.843   6.620
 2598SOL     OW 8692   6.452   3.057   3.096
 2598SOL    HW1 8693   6.493   3.144   3.124
 2598SOL    HW2 8694   6.497   3.023   3.014
 2599SOL     OW 8695   4.582   4.581   6.787
 2599SOL    HW1 8696   4.671   4.537   6.796
 2599SOL    HW2 8697   4.511   4.517   6.818
 2600SOL     OW 8698   6.446   3.750   3.164
 2600SOL    HW1 8699   6.521   3.684   3.164
 2600SOL    HW2 8700   6.460   3.817   3.237
 2601SOL     OW 8701   3.687   2.719   5.653
 2601SOL    HW1 8702   3.613   2.763   5.603
 2601SOL    HW2 8703   3.770   2.721   5.599
 2602SOL     OW 8704   6.320   6.101   4.904
 2602SOL    HW1 8705   6.288   6.015   4.945
 2602SOL    HW2 8706   6.244   6.165   4.895
 2603SOL     OW 8707   3.068   2.730   0.439
 2603SOL    HW1 8708   3.141   2.768   0.496
 2603SOL    HW2 8709   2.980   2.763   0.473
 2604SOL     OW 8710   6.016   1.063   1.774
 2604SOL    HW1 8711   6.056   1.006   1.702
 2604SOL    HW2 8712   5.919   1.041   1.785
 2605SOL     OW 8713   4.518   4.850   4.193
 2605SOL    HW1 8714   4.526   4.949   4.201
 2605SOL    HW2 8715   4.424   4.822   4.212
 2606SOL     OW 8716   0.090   4.551   1.803
 2606SOL    HW1 8717   0.075   4.491   1.882
 2606SOL    HW2 8718   0.001   4.585   1.771
 2607SOL     OW 8719   0.669   1.326   4.290
 2607SOL    HW1 8720   0.740   1.389   4.321
 2607SOL    HW2 8721   0.579   1.364   4.311
 2608SOL     OW 8722   5.242   0.603   0.575
 2608SOL    HW1 8723   5.194   0.585   0.489
 2608SOL    HW2 8724   5.175   0.627   0.646
 2609SOL     OW 8725   0.449   1.998   4.149
 2609SOL    HW1 8726   0.465   1.996   4.248
 2609SOL    HW2 8727   0.520   2.053   4.105
 2610SOL     OW 8728   6.186   5.596   4.639
 2610SOL    HW1 8729   6.107   5.579   4.698
 2610SOL    HW2 8730   6.193   5.525   4.570
 2611SOL     OW 8731   3.786   6.428   1.329
 2611SOL    HW1 8732   3.761   6.475   1.244
 2611SOL    HW2 8733   3.715   6.442   1.397
 2612SOL     OW 8734   6.341   6.595   4.080
 2612SOL    HW1 8735   6.310   6.552   4.165
 2612SOL    HW2 8736   6.274   6.664   4.051
 2613SOL     OW 8737   3.918   0.536   1.710
 2613SOL    HW1 8738   3.913   0.437   1.722
 2613SOL    HW2 8739   3.836   0.568   1.662
 2614SOL     OW 8740   6.839   6.158   6.634
 2614SOL    HW1 8741   6.774   6.232   6.619
 2614SOL    HW2 8742   6.798   6.089   6.695
 2615SOL     OW 8743   5.920   5.006   2.125
 2615SOL    HW1 8744   5.977   4.944   2.179
 2615SOL    HW2 8745   5.965   5.026   2.038
 2616SOL     OW 8746   3.583   2.842   2.648
 2616SOL    HW1 8747   3.539   2.761   2.686
 2616SOL    HW2 8748   3.536   2.869   2.564
 2617SOL     OW 8749   4.014   0.495   1.409
 2617SOL    HW1 8750   3.993   0.519   1.504
 2617SOL    HW2 8751   4.018   0.578   1.354
 2618SOL     OW 8752   1.020   0.618   0.913
 2618SOL    HW1 8753   1.066   0.538   0.954
 2618SOL    HW2 8754   0.923   0.615   0.937
 2619SOL     OW 8755   4.622   1.860   1.863
 2619SOL    HW1 8756   4.637   1.908   1.777
 2619SOL    HW2 8757   4.532   1.816   1.862
 2620SOL     OW 8758   1.617   4.154   4.136
 2620SOL    HW1 8759   1.677   4.214   4.189
 2620SOL    HW2 8760   1.667   4.119   4.057
 2621SOL     OW 8761   1.032   4.868   3.988
 2621SOL    HW1 8762   0.946   4.869   3.937
 2621SOL    HW2 8763   1.081   4.783   3.968
 2622SOL     OW 8764   2.766   3.222   6.261
 2622SOL    HW1 8765   2.702   3.288   6.298
 2622SOL    HW2 8766   2.795   3.251   6.169
 2623SOL     OW 8767   3.084   0.738   5.596
 2623SOL    HW1 8768   3.140   0.728   5.514
 2623SOL    HW2 8769   3.023   0.816   5.585
 2624SOL     OW 8770   6.788   2.107   4.041
 2624SOL    HW1 8771   6.694   2.129   4.017
 2624SOL    HW2 8772   6.798   2.008   4.050
 2625SOL     OW 8773   4.146   0.952   5.255
 2625SOL    HW1 8774   4.100   0.999   5.329
 2625SOL    HW2 8775   4.116   0.990   5.167
 2626SOL     OW 8776   2.064   6.689   2.396
 2626SOL    HW1 8777   1.992   6.628   2.363
 2626SOL    HW2 8778   2.063   6.690   2.496
 2627SOL     OW 8779   0.061   6.777   4.229
 2627SOL    HW1 8780   6.986   6.742   4.222
 2627SOL    HW2 8781   0.063   6.856   4.292
 2628SOL     OW 8782   4.175   5.607   6.103
 2628SOL    HW1 8783   4.086   5.643   6.129
 2628SOL    HW2 8784   4.190   5.518   6.147
 2629SOL     OW 8785   3.568   4.036   1.258
 2629SOL    HW1 8786   3.555   3.940   1.233
 2629SOL    HW2 8787   3.508   4.058   1.335
 2630SOL     OW 8788   2.697   2.391   2.417
 2630SOL    HW1 8789   2.767   2.458   2.444
 2630SOL    HW2 8790   2.628   2.436   2.361
 2631SOL     OW 8791   4.629   6.199   4.402
 2631SOL    HW1 8792   4.557   6.249   4.451
 2631SOL    HW2 8793   4.643   6.241   4.312
 2632SOL     OW 8794   4.946   1.945   0.593
 2632SOL    HW1 8795   4.908   1.951   0.501
 2632SOL    HW2 8796   4.897   1.875   0.645
 2633SOL     OW 8797   6.031   2.405   6.628
 2633SOL    HW1 8798   6.130   2.423   6.635
 2633SOL    HW2 8799   6.017   2.307   6.617
 2634SOL     OW 8800   2.493   5.095   1.191
 2634SOL    HW1 8801   2.531   5.184   1.216
 2634SOL    HW2 8802   2.560   5.045   1.136
 2635SOL     OW 8803   5.037   4.484   4.221
 2635SOL    HW1 8804   5.026   4.387   4.242
 2635SOL    HW2 8805   5.093   4.494   4.139
 2636SOL     OW 8806   5.844   0.520   4.941
 2636SOL    HW1 8807   5.798   0.607   4.920
 2636SOL    HW2 8808   5.924   0.509   4.882
 2637SOL     OW 8809   5.082   6.597   2.578
 2637SOL    HW1 8810   4.982   6.599   2.576
 2637SOL    HW2 8811   5.118   6.656   2.506
 2638SOL     OW 8812   5.680   6.104   0.891
 2638SOL    HW1 8813   5.649   6.067   0.978
 2638SOL    HW2 8814   5.778   6.124   0.896
 2639SOL     OW 8815   6.411   6.151   0.424
 2639SOL    HW1 8816   6.470   6.088   0.475
 2639SOL    HW2 8817   6.367   6.213   0.488
 2640SOL     OW 8818   6.933   6.819   5.875
 2640SOL    HW1 8819   7.005   6.880   5.843
 2640SOL    HW2 8820   6.946   6.728   5.836
 2641SOL     OW 8821   5.744   4.992   0.509
 2641SOL    HW1 8822   5.692   4.929   0.450
 2641SOL    HW2 8823   5.803   5.049   0.452
 2642SOL     OW 8824   5.711   6.781   3.829
 2642SOL    HW1 8825   5.668   6.769   3.740
 2642SOL    HW2 8826   5.775   6.857   3.826
 2643SOL     OW 8827   0.853   0.361   2.081
 2643SOL    HW1 8828   0.788   0.300   2.127
 2643SOL    HW2 8829   0.843   0.351   1.982
 2644SOL     OW 8830   0.372   4.702   6.343
 2644SOL    HW1 8831   0.376   4.800   6.359
 2644SOL    HW2 8832   0.322   4.658   6.418
 2645SOL     OW 8833   5.427   5.877   5.585
 2645SOL    HW1 8834   5.525   5.894   5.573
 2645SOL    HW2 8835   5.394   5.817   5.512
 2646SOL     OW 8836   6.353   6.601   0.343
 2646SOL    HW1 8837   6.373   6.506   0.322
 2646SOL    HW2 8838   6.254   6.614   0.346
 2647SOL     OW 8839   3.822   1.483   0.979
 2647SOL    HW1 8840   3.743   1.525   0.933
 2647SOL    HW2 8841   3.793   1.448   1.068
 2648SOL     OW 8842   4.603   0.544   2.413
 2648SOL    HW1 8843   4.701   0.533   2.392
 2648SOL    HW2 8844   4.583   0.496   2.498
 2649SOL     OW 8845   3.222   1.712   5.891
 2649SOL    HW1 8846   3.218   1.744   5.796
 2649SOL    HW2 8847   3.192   1.616   5.895
 2650SOL     OW 8848   0.500   5.933   2.325
 2650SOL    HW1 8849   0.487   5.951   2.422
 2650SOL    HW2 8850   0.586   5.973   2.294
 2651SOL     OW 8851   6.684   0.757   3.301
 2651SOL    HW1 8852   6.724   0.699   3.372
 2651SOL    HW2 8853   6.744   0.835   3.283
 2652SOL     OW 8854   3.029   3.408   2.732
 2652SOL    HW1 8855   3.022   3.308   2.730
 2652SOL    HW2 8856   2.975   3.446   2.656
 2653SOL     OW 8857   6.398   6.720   6.650
 2653SOL    HW1 8858   6.491   6.709   6.686
 2653SOL    HW2 8859   6.399   6.787   6.576
 2654SOL     OW 8860   5.481   2.880   5.925
 2654SOL    HW1 8861   5.530   2.959   5.891
 2654SOL    HW2 8862   5.511   2.798   5.877
 2655SOL     OW 8863   4.884   6.273   5.001
 2655SOL    HW1 8864   4.860   6.176   5.010
 2655SOL    HW2 8865   4.940   6.301   5.079
 2656SOL     OW 8866   5.746   3.402   3.902
 2656SOL    HW1 8867   5.669   3.417   3.965
 2656SOL    HW2 8868   5.804   3.330   3.938
 2657SOL     OW 8869   2.133   3.466   6.598
 2657SOL    HW1 8870   2.108   3.434   6.506
 2657SOL    HW2 8871   2.144   3.565   6.596
 2658SOL     OW 8872   5.974   3.862   6.103
 2658SOL    HW1 8873   5.978   3.783   6.165
 2658SOL    HW2 8874   5.940   3.942   6.152
 2659SOL     OW 8875   6.835   3.071   3.819
 2659SOL    HW1 8876   6.866   2.987   3.773
 2659SOL    HW2 8877   6.765   3.048   3.886
 2660SOL     OW 8878   6.953   2.534   3.327
 2660SOL    HW1 8879   6.975   2.533   3.230
 2660SOL    HW2 8880   6.884   2.464   3.346
 2661SOL     OW 8881   4.252   6.187   0.802
 2661SOL    HW1 8882   4.349   6.183   0.778
 2661SOL    HW2 8883   4.211   6.271   0.765
 2662SOL     OW 8884   3.290   0.042   3.782
 2662SOL    HW1 8885   3.380   7.018   3.772
 2662SOL    HW2 8886   3.269   0.053   3.879
 2663SOL     OW 8887   1.322   4.471   2.445
 2663SOL    HW1 8888   1.235   4.438   2.407
 2663SOL    HW2 8889   1.318   4.466   2.544
 2664SOL     OW 8890   4.116   3.720   2.035
 2664SOL    HW1 8891   4.073   3.673   2.112
 2664SOL    HW2 8892   4.159   3.804   2.067
 2665SOL     OW 8893   3.930   1.371   4.504
 2665SOL    HW1 8894   3.898   1.447   4.560
 2665SOL    HW2 8895   3.989   1.312   4.559
 2666SOL     OW 8896   5.263   5.529   1.581
 2666SOL    HW1 8897   5.317   5.603   1.540
 2666SOL    HW2 8898   5.323   5.451   1.599
 2667SOL     OW 8899   1.836   5.473   3.877
 2667SOL    HW1 8900   1.929   5.509   3.867
 2667SOL    HW2 8901   1.840   5.378   3.908
 2668SOL     OW 8902   0.399   2.952   5.694
 2668SOL    HW1 8903   0.309   2.909   5.690
 2668SOL    HW2 8904   0.389   3.051   5.703
 2669SOL     OW 8905   4.185   4.860   5.106
 2669SOL    HW1 8906   4.216   4.782   5.160
 2669SOL    HW2 8907   4.208   4.845   5.010
 2670SOL     OW 8908   1.528   1.160   6.669
 2670SOL    HW1 8909   1.440   1.114   6.656
 2670SOL    HW2 8910   1.553   1.209   6.586
 2671SOL     OW 8911   1.888   3.277   6.003
 2671SOL    HW1 8912   1.947   3.335   5.948
 2671SOL    HW2 8913   1.937   3.194   6.029
 2672SOL     OW 8914   1.414   5.321   1.230
 2672SOL    HW1 8915   1.477   5.390   1.266
 2672SOL    HW2 8916   1.332   5.319   1.287
 2673SOL     OW 8917   3.752   2.143   2.823
 2673SOL    HW1 8918   3.848   2.163   2.845
 2673SOL    HW2 8919   3.706   2.107   2.904
 2674SOL     OW 8920   5.055   5.096   5.492
 2674SOL    HW1 8921   5.102   5.125   5.576
 2674SOL    HW2 8922   5.067   4.998   5.480
 2675SOL     OW 8923   0.247   4.770   5.346
 2675SOL    HW1 8924   0.312   4.847   5.350
 2675SOL    HW2 8925   0.247   4.723   5.434
 2676SOL     OW 8926   4.127   0.886   1.984
 2676SOL    HW1 8927   4.160   0.809   2.039
 2676SOL    HW2 8928   4.086   0.851   1.900
 2677SOL     OW 8929   2.475   5.094   1.930
 2677SOL    HW1 8930   2.511   5.055   1.846
 2677SOL    HW2 8931   2.467   5.023   2.000
 2678SOL     OW 8932   0.321   4.718   5.611
 2678SOL    HW1 8933   0.355   4.812   5.604
 2678SOL    HW2 8934   0.324   4.688   5.707
 2679SOL     OW 8935   3.098   4.294   0.817
 2679SOL    HW1 8936   3.043   4.372   0.847
 2679SOL    HW2 8937   3.151   4.258   0.894
 2680SOL     OW 8938   1.138   2.055   1.890
 2680SOL    HW1 8939   1.078   2.030   1.814
 2680SOL    HW2 8940   1.216   2.106   1.855
 2681SOL     OW 8941   1.480   2.511   3.033
 2681SOL    HW1 8942   1.549   2.544   2.968
 2681SOL    HW2 8943   1.502   2.545   3.124
 2682SOL     OW 8944   5.419   2.411   2.859
 2682SOL    HW1 8945   5.515   2.413   2.887
 2682SOL    HW2 8946   5.378   2.501   2.875
 2683SOL     OW 8947   1.146   6.287   1.324
 2683SOL    HW1 8948   1.177   6.201   1.282
 2683SOL    HW2 8949   1.110   6.268   1.416
 2684SOL     OW 8950   2.449   6.549   2.615
 2684SOL    HW1 8951   2.544   6.563   2.645
 2684SOL    HW2 8952   2.387   6.586   2.685
 2685SOL     OW 8953   5.409   5.685   5.361
 2685SOL    HW1 8954   5.504   5.689   5.329
 2685SOL    HW2 8955   5.348   5.711   5.286
 2686SOL     OW 8956   2.299   2.890   4.377
 2686SOL    HW1 8957   2.276   2.965   4.439
 2686SOL    HW2 8958   2.247   2.899   4.292
 2687SOL     OW 8959   4.386   5.646   2.534
 2687SOL    HW1 8960   4.406   5.599   2.448
 2687SOL    HW2 8961   4.288   5.637   2.554
 2688SOL     OW 8962   3.991   4.269   6.207
 2688SOL    HW1 8963   4.065   4.217   6.248
 2688SOL    HW2 8964   4.026   4.328   6.135
 2689SOL     OW 8965   6.962   3.744   4.018
 2689SOL    HW1 8966   6.939   3.811   3.948
 2689SOL    HW2 8967   0.039   3.717   4.009
 2690SOL     OW 8968   3.985   3.894   3.589
 2690SOL    HW1 8969   3.937   3.932   3.668
 2690SOL    HW2 8970   4.016   3.801   3.611
 2691SOL     OW 8971   1.844   6.120   1.892
 2691SOL    HW1 8972   1.878   6.194   1.835
 2691SOL    HW2 8973   1.881   6.033   1.860
 2692SOL     OW 8974   0.236   6.547   3.999
 2692SOL    HW1 8975   0.155   6.503   4.039
 2692SOL    HW2 8976   0.315   6.487   4.007
 2693SOL     OW 8977   1.706   4.124   2.910
 2693SOL    HW1 8978   1.782   4.156   2.966
 2693SOL    HW2 8979   1.732   4.038   2.865
 2694SOL     OW 8980   1.786   6.703   3.092
 2694SOL    HW1 8981   1.777   6.621   3.149
 2694SOL    HW2 8982   1.746   6.781   3.139
 2695SOL     OW 8983   4.284   2.221   3.482
 2695SOL    HW1 8984   4.312   2.125   3.483
 2695SOL    HW2 8985   4.215   2.236   3.553
 2696SOL     OW 8986   3.890   3.846   5.477
 2696SOL    HW1 8987   3.965   3.845   5.542
 2696SOL    HW2 8988   3.900   3.923   5.414
 2697SOL     OW 8989   2.684   1.657   4.172
 2697SOL    HW1 8990   2.631   1.710   4.237
 2697SOL    HW2 8991   2.704   1.567   4.210
 2698SOL     OW 8992   2.239   3.515   0.488
 2698SOL    HW1 8993   2.304   3.540   0.416
 2698SOL    HW2 8994   2.255   3.573   0.568
 2699SOL     OW 8995   3.606   6.068   1.847
 2699SOL    HW1 8996   3.653   6.043   1.932
 2699SOL    HW2 8997   3.643   6.015   1.771
 2700SOL     OW 8998   1.942   3.525   2.660
 2700SOL    HW1 8999   2.005   3.459   2.700
 2700SOL    HW2 9000   1.952   3.614   2.705
 2701SOL     OW 9001   4.129   6.991   6.822
 2701SOL    HW1 9002   4.052   0.018   6.777
 2701SOL    HW2 9003   4.095   6.923   6.886
 2702SOL     OW 9004   6.798   0.344   3.737
 2702SOL    HW1 9005   6.732   0.315   3.668
 2702SOL    HW2 9006   6.749   0.371   3.820
 2703SOL     OW 9007   1.666   1.961   2.434
 2703SOL    HW1 9008   1.726   1.883   2.453
 2703SOL    HW2 9009   1.708   2.019   2.364
 2704SOL     OW 9010   2.119   4.870   1.330
 2704SOL    HW1 9011   2.191   4.840   1.393
 2704SOL    HW2 9012   2.043   4.806   1.334
 2705SOL     OW 9013   6.472   5.351   3.505
 2705SOL    HW1 9014   6.427   5.429   3.548
 2705SOL    HW2 9015   6.466   5.360   3.405
 2706SOL     OW 9016   6.818   1.150   2.002
 2706SOL    HW1 9017   6.856   1.067   1.961
 2706SOL    HW2 9018   6.834   1.147   2.101
 2707SOL     OW 9019   2.268   1.430   5.872
 2707SOL    HW1 9020   2.231   1.363   5.937
 2707SOL    HW2 9021   2.331   1.385   5.810
 2708SOL     OW 9022   1.730   2.716   1.302
 2708SOL    HW1 9023   1.797   2.643   1.291
 2708SOL    HW2 9024   1.777   2.801   1.329
 2709SOL     OW 9025   4.511   6.283   0.521
 2709SOL    HW1 9026   4.427   6.253   0.475
 2709SOL    HW2 9027   4.570   6.330   0.455
 2710SOL     OW 9028   6.618   3.960   2.993
 2710SOL    HW1 9029   6.609   3.990   3.088
 2710SOL    HW2 9030   6.606   4.038   2.932
 2711SOL     OW 9031   1.430   0.597   2.275
 2711SOL    HW1 9032   1.423   0.684   2.324
 2711SOL    HW2 9033   1.386   0.605   2.186
 2712SOL     OW 9034   2.953   3.979   0.255
 2712SOL    HW1 9035   2.913   3.939   0.173
 2712SOL    HW2 9036   2.972   4.076   0.240
 2713SOL     OW 9037   2.376   3.174   5.425
 2713SOL    HW1 9038   2.425   3.146   5.342
 2713SOL    HW2 9039   2.324   3.096   5.461
 2714SOL     OW 9040   5.004   6.885   5.576
 2714SOL    HW1 9041   4.999   6.808   5.640
 2714SOL    HW2 9042   5.067   6.864   5.502
 2715SOL     OW 9043   6.015   1.403   6.607
 2715SOL    HW1 9044   5.972   1.354   6.683
 2715SOL    HW2 9045   5.945   1.451   6.554
 2716SOL     OW 9046   0.295   6.670   2.655
 2716SOL    HW1 9047   0.252   6.680   2.565
 2716SOL    HW2 9048   0.386   6.711   2.652
 2717SOL     OW 9049   0.783   0.826   2.605
 2717SOL    HW1 9050   0.685   0.842   2.610
 2717SOL    HW2 9051   0.832   0.896   2.657
 2718SOL     OW 9052   2.046   4.745   3.821
 2718SOL    HW1 9053   2.069   4.762   3.725
 2718SOL    HW2 9054   2.011   4.652   3.830
 2719SOL     OW 9055   4.057   5.244   1.680
 2719SOL    HW1 9056   4.115   5.174   1.722
 2719SOL    HW2 9057   4.081   5.333   1.719
 2720SOL     OW 9058   1.481   6.482   3.719
 2720SOL    HW1 9059   1.570   6.480   3.674
 2720SOL    HW2 9060   1.487   6.536   3.803
 2721SOL     OW 9061   3.853   0.015   4.015
 2721SOL    HW1 9062   3.896   6.944   4.002
 2721SOL    HW2 9063   3.835   0.057   3.926
 2722SOL     OW 9064   1.226   6.034   2.047
 2722SOL    HW1 9065   1.215   6.126   2.010
 2722SOL    HW2 9066   1.275   6.038   2.134
 2723SOL     OW 9067   1.730   1.538   5.860
 2723SOL    HW1 9068   1.702   1.496   5.774
 2723SOL    HW2 9069   1.758   1.633   5.843
 2724SOL     OW 9070   3.956   5.432   6.543
 2724SOL    HW1 9071   4.020   5.508   6.548
 2724SOL    HW2 9072   3.966   5.373   6.623
 2725SOL     OW 9073   3.331   5.006   3.911
 2725SOL    HW1 9074   3.391   4.999   3.991
 2725SOL    HW2 9075   3.384   4.987   3.828
 2726SOL     OW 9076   4.386   5.365   2.052
 2726SOL    HW1 9077   4.415   5.460   2.062
 2726SOL    HW2 9078   4.457   5.313   2.006
 2727SOL     OW 9079   1.863   5.622   2.511
 2727SOL    HW1 9080   1.816   5.564   2.577
 2727SOL    HW2 9081   1.846   5.718   2.533
 2728SOL     OW 9082   3.124   6.782   5.686
 2728SOL    HW1 9083   3.062   6.704   5.680
 2728SOL    HW2 9084   3.133   6.824   5.595
 2729SOL     OW 9085   5.514   5.223   2.975
 2729SOL    HW1 9086   5.585   5.192   2.911
 2729SOL    HW2 9087   5.557   5.269   3.053
 2730SOL     OW 9088   1.831   6.161   1.237
 2730SOL    HW1 9089   1.823   6.081   1.177
 2730SOL    HW2 9090   1.886   6.137   1.317
 2731SOL     OW 9091   3.129   3.995   1.839
 2731SOL    HW1 9092   3.228   4.009   1.851
 2731SOL    HW2 9093   3.092   3.952   1.921
 2732SOL     OW 9094   5.959   1.921   2.290
 2732SOL    HW1 9095   5.998   1.890   2.377
 2732SOL    HW2 9096   6.023   1.900   2.216
 2733SOL     OW 9097   1.384   6.794   6.485
 2733SOL    HW1 9098   1.461   6.823   6.429
 2733SOL    HW2 9099   1.301   6.792   6.429
 2734SOL     OW 9100   2.130   5.527   3.821
 2734SOL    HW1 9101   2.200   5.508   3.889
 2734SOL    HW2 9102   2.171   5.573   3.742
 2735SOL     OW 9103   1.510   5.103   2.436
 2735SOL    HW1 9104   1.563   5.179   2.398
 2735SOL    HW2 9105   1.534   5.019   2.388
 2736SOL     OW 9106   4.191   0.439   5.155
 2736SOL    HW1 9107   4.263   0.472   5.093
 2736SOL    HW2 9108   4.148   0.358   5.115
 2737SOL     OW 9109   4.505   3.668   6.493
 2737SOL    HW1 9110   4.584   3.627   6.540
 2737SOL    HW2 9111   4.537   3.736   6.427
 2738SOL     OW 9112   5.570   5.317   4.350
 2738SOL    HW1 9113   5.624   5.399   4.366
 2738SOL    HW2 9114   5.606   5.268   4.271
 2739SOL     OW 9115   5.837   2.995   0.556
 2739SOL    HW1 9116   5.874   2.982   0.464
 2739SOL    HW2 9117   5.820   2.905   0.598
 2740SOL     OW 9118   5.669   2.204   3.390
 2740SOL    HW1 9119   5.621   2.233   3.308
 2740SOL    HW2 9120   5.768   2.214   3.376
 2741SOL     OW 9121   0.318   2.228   6.363
 2741SOL    HW1 9122   0.248   2.247   6.294
 2741SOL    HW2 9123   0.407   2.260   6.329
 2742SOL     OW 9124   1.930   6.628   6.492
 2742SOL    HW1 9125   1.907   6.571   6.413
 2742SOL    HW2 9126   1.887   6.718   6.483
 2743SOL     OW 9127   5.590   5.062   0.909
 2743SOL    HW1 9128   5.517   5.037   0.973
 2743SOL    HW2 9129   5.630   4.978   0.871
 2744SOL     OW 9130   4.047   1.322   6.084
 2744SOL    HW1 9131   4.002   1.385   6.020
 2744SOL    HW2 9132   3.996   1.236   6.088
 2745SOL     OW 9133   2.518   6.347   0.659
 2745SOL    HW1 9134   2.616   6.340   0.641
 2745SOL    HW2 9135   2.477   6.256   0.653
 2746SOL     OW 9136   1.780   2.251   6.272
 2746SOL    HW1 9137   1.707   2.278   6.335
 2746SOL    HW2 9138   1.771   2.154   6.249
 2747SOL     OW 9139   4.149   6.230   4.358
 2747SOL    HW1 9140   4.164   6.133   4.376
 2747SOL    HW2 9141   4.062   6.258   4.398
 2748SOL     OW 9142   3.929   1.114   3.693
 2748SOL    HW1 9143   3.847   1.151   3.735
 2748SOL    HW2 9144   3.910   1.091   3.598
 2749SOL     OW 9145   4.534   5.466   3.655
 2749SOL    HW1 9146   4.481   5.391   3.694
 2749SOL    HW2 9147   4.567   5.525   3.729
 2750SOL     OW 9148   0.618   5.690   2.383
 2750SOL    HW1 9149   0.669   5.675   2.468
 2750SOL    HW2 9150   0.591   5.786   2.377
 2751SOL     OW 9151   1.441   0.074   6.367
 2751SOL    HW1 9152   1.358   0.065   6.423
 2751SOL    HW2 9153   1.518   0.030   6.414
 2752SOL     OW 9154   6.268   6.233   5.674
 2752SOL    HW1 9155   6.219   6.197   5.595
 2752SOL    HW2 9156   6.216   6.214   5.757
 2753SOL     OW 9157   2.584   5.362   5.588
 2753SOL    HW1 9158   2.672   5.399   5.559
 2753SOL    HW2 9159   2.570   5.272   5.547
 2754SOL     OW 9160   1.193   0.116   3.916
 2754SOL    HW1 9161   1.292   0.123   3.904
 2754SOL    HW2 9162   1.174   0.084   4.009
 2755SOL     OW 9163   3.404   6.213   2.291
 2755SOL    HW1 9164   3.331   6.148   2.310
 2755SOL    HW2 9165   3.366   6.300   2.261
 2756SOL     OW 9166   0.573   3.290   6.013
 2756SOL    HW1 9167   0.568   3.380   5.971
 2756SOL    HW2 9168   0.668   3.258   6.012
 2757SOL     OW 9169   4.422   3.193   6.798
 2757SOL    HW1 9170   4.508   3.200   6.848
 2757SOL    HW2 9171   4.425   3.253   6.718
 2758SOL     OW 9172   6.688   5.816   2.395
 2758SOL    HW1 9173   6.653   5.726   2.422
 2758SOL    HW2 9174   6.770   5.804   2.339
 2759SOL     OW 9175   3.002   3.734   5.973
 2759SOL    HW1 9176   3.055   3.809   6.012
 2759SOL    HW2 9177   3.028   3.721   5.877
 2760SOL     OW 9178   5.277   6.342   2.923
 2760SOL    HW1 9179   5.196   6.284   2.928
 2760SOL    HW2 9180   5.327   6.321   2.839
 2761SOL     OW 9181   1.263   2.684   3.376
 2761SOL    HW1 9182   1.283   2.754   3.445
 2761SOL    HW2 9183   1.349   2.651   3.337
 2762SOL     OW 9184   2.410   2.510   0.429
 2762SOL    HW1 9185   2.391   2.607   0.418
 2762SOL    HW2 9186   2.502   2.498   0.468
 2763SOL     OW 9187   5.829   1.954   4.624
 2763SOL    HW1 9188   5.898   1.990   4.562
 2763SOL    HW2 9189   5.839   1.996   4.714
 2764SOL     OW 9190   0.679   3.579   2.488
 2764SOL    HW1 9191   0.777   3.586   2.503
 2764SOL    HW2 9192   0.646   3.662   2.441
 2765SOL     OW 9193   6.711   6.743   0.007
 2765SOL    HW1 9194   6.767   6.790   0.076
 2765SOL    HW2 9195   6.763   6.666   6.989
 2766SOL     OW 9196   5.077   0.937   6.465
 2766SOL    HW1 9197   5.158   0.988   6.436
 2766SOL    HW2 9198   5.098   0.882   6.546
 2767SOL     OW 9199   6.138   5.552   6.533
 2767SOL    HW1 9200   6.191   5.568   6.450
 2767SOL    HW2 9201   6.040   5.561   6.513
 2768SOL     OW 9202   4.218   0.184   1.079
 2768SOL    HW1 9203   4.128   0.156   1.045
 2768SOL    HW2 9204   4.225   0.284   1.077
 2769SOL     OW 9205   0.513   4.439   5.823
 2769SOL    HW1 9206   0.414   4.426   5.818
 2769SOL    HW2 9207   0.547   4.401   5.910
 2770SOL     OW 9208   3.314   6.460   0.646
 2770SOL    HW1 9209   3.299   6.559   0.651
 2770SOL    HW2 9210   3.396   6.436   0.698
 2771SOL     OW 9211   4.452   6.895   4.864
 2771SOL    HW1 9212   4.476   6.798   4.868
 2771SOL    HW2 9213   4.438   6.922   4.769
 2772SOL     OW 9214   4.787   0.123   3.372
 2772SOL    HW1 9215   4.697   0.091   3.403
 2772SOL    HW2 9216   4.852   0.119   3.448
 2773SOL     OW 9217   5.692   2.760   5.074
 2773SOL    HW1 9218   5.695   2.660   5.066
 2773SOL    HW2 9219   5.629   2.785   5.147
 2774SOL     OW 9220   6.122   2.044   4.417
 2774SOL    HW1 9221   6.157   2.064   4.325
 2774SOL    HW2 9222   6.193   1.995   4.469
 2775SOL     OW 9223   0.287   3.818   4.038
 2775SOL    HW1 9224   0.367   3.809   4.097
 2775SOL    HW2 9225   0.255   3.913   4.039
 2776SOL     OW 9226   4.977   4.356   6.133
 2776SOL    HW1 9227   4.896   4.365   6.190
 2776SOL    HW2 9228   4.951   4.357   6.037
 2777SOL     OW 9229   2.855   2.065   6.271
 2777SOL    HW1 9230   2.845   1.984   6.329
 2777SOL    HW2 9231   2.949   2.067   6.234
 2778SOL     OW 9232   2.994   0.063   6.053
 2778SOL    HW1 9233   2.972   0.053   6.150
 2778SOL    HW2 9234   2.924   0.120   6.010
 2779SOL     OW 9235   5.297   0.628   1.605
 2779SOL    HW1 9236   5.220   0.638   1.543
 2779SOL    HW2 9237   5.284   0.688   1.684
 2780SOL     OW 9238   6.738   2.184   4.807
 2780SOL    HW1 9239   6.734   2.177   4.707
 2780SOL    HW2 9240   6.650   2.155   4.845
 2781SOL     OW 9241   5.862   1.488   3.293
 2781SOL    HW1 9242   5.860   1.432   3.376
 2781SOL    HW2 9243   5.873   1.428   3.213
 2782SOL     OW 9244   5.095   0.196   6.016
 2782SOL    HW1 9245   5.146   0.153   6.090
 2782SOL    HW2 9246   5.154   0.263   5.970
 2783SOL     OW 9247   5.764   4.470   1.570
 2783SOL    HW1 9248   5.749   4.410   1.492
 2783SOL    HW2 9249   5.798   4.559   1.537
 2784SOL     OW 9250   1.095   2.065   1.546
 2784SOL    HW1 9251   1.187   2.081   1.580
 2784SOL    HW2 9252   1.061   1.978   1.583
 2785SOL     OW 9253   6.048   2.931   1.565
 2785SOL    HW1 9254   5.976   2.998   1.587
 2785SOL    HW2 9255   6.075   2.941   1.469
 2786SOL     OW 9256   6.906   5.880   6.923
 2786SOL    HW1 9257   6.938   5.972   6.943
 2786SOL    HW2 9258   6.896   5.868   6.824
 2787SOL     OW 9259   6.422   5.454   6.558
 2787SOL    HW1 9260   6.331   5.473   6.595
 2787SOL    HW2 9261   6.465   5.383   6.614
 2788SOL     OW 9262   3.016   6.114   5.901
 2788SOL    HW1 9263   3.065   6.198   5.922
 2788SOL    HW2 9264   3.050   6.040   5.959
 2789SOL     OW 9265   1.107   2.094   5.119
 2789SOL    HW1 9266   1.190   2.038   5.126
 2789SOL    HW2 9267   1.081   2.104   5.023
 2790SOL     OW 9268   1.428   5.427   2.171
 2790SOL    HW1 9269   1.490   5.350   2.189
 2790SOL    HW2 9270   1.375   5.408   2.088
 2791SOL     OW 9271   0.358   4.042   3.120
 2791SOL    HW1 9272   0.277   3.984   3.113
 2791SOL    HW2 9273   0.332   4.137   3.103
 2792SOL     OW 9274   3.440   1.156   5.982
 2792SOL    HW1 9275   3.486   1.187   6.065
 2792SOL    HW2 9276   3.484   1.072   5.949
 2793SOL     OW 9277   3.673   3.754   0.433
 2793SOL    HW1 9278   3.690   3.678   0.495
 2793SOL    HW2 9279   3.582   3.793   0.451
 2794SOL     OW 9280   0.971   2.561   0.193
 2794SOL    HW1 9281   0.910   2.499   0.243
 2794SOL    HW2 9282   0.918   2.632   0.148
 2795SOL     OW 9283   0.885   5.540   1.587
 2795SOL    HW1 9284   0.828   5.466   1.624
 2795SOL    HW2 9285   0.970   5.545   1.639
 2796SOL     OW 9286   1.975   5.610   6.327
 2796SOL    HW1 9287   2.033   5.591   6.406
 2796SOL    HW2 9288   1.991   5.704   6.295
 2797SOL     OW 9289   5.118   5.984   3.409
 2797SOL    HW1 9290   5.041   5.932   3.447
 2797SOL    HW2 9291   5.138   6.062   3.468
 2798SOL     OW 9292   4.684   0.522   1.737
 2798SOL    HW1 9293   4.703   0.491   1.830
 2798SOL    HW2 9294   4.591   0.558   1.732
 2799SOL     OW 9295   3.669   6.125   5.178
 2799SOL    HW1 9296   3.689   6.034   5.213
 2799SOL    HW2 9297   3.587   6.121   5.121
 2800SOL     OW 9298   5.914   0.033   6.470
 2800SOL    HW1 9299   5.899   0.125   6.506
 2800SOL    HW2 9300   5.828   7.000   6.472
 2801SOL     OW 9301   0.712   4.799   4.848
 2801SOL    HW1 9302   0.700   4.872   4.915
 2801SOL    HW2 9303   0.636   4.802   4.782
 2802SOL     OW 9304   1.644   5.300   5.384
 2802SOL    HW1 9305   1.716   5.346   5.332
 2802SOL    HW2 9306   1.680   5.217   5.426
 2803SOL     OW 9307   3.628   2.161   5.934
 2803SOL    HW1 9308   3.553   2.209   5.889
 2803SOL    HW2 9309   3.601   2.137   6.027
 2804SOL     OW 9310   0.296   2.563   4.086
 2804SOL    HW1 9311   0.237   2.490   4.051
 2804SOL    HW2 9312   0.244   2.649   4.090
 2805SOL     OW 9313   3.581   3.176   0.951
 2805SOL    HW1 9314   3.542   3.266   0.929
 2805SOL    HW2 9315   3.679   3.176   0.928
 2806SOL     OW 9316   0.294   4.272   6.324
 2806SOL    HW1 9317   0.333   4.272   6.416
 2806SOL    HW2 9318   0.319   4.357   6.277
 2807SOL     OW 9319   3.980   0.308   3.860
 2807SOL    HW1 9320   4.065   0.256   3.860
 2807SOL    HW2 9321   3.907   0.254   3.903
 2808SOL     OW 9322   0.189   5.472   5.587
 2808SOL    HW1 9323   0.159   5.514   5.501
 2808SOL    HW2 9324   0.124   5.494   5.659
 2809SOL     OW 9325   6.861   5.520   1.585
 2809SOL    HW1 9326   6.936   5.515   1.520
 2809SOL    HW2 9327   6.897   5.518   1.679
 2810SOL     OW 9328   2.387   6.775   2.794
 2810SOL    HW1 9329   2.465   6.825   2.756
 2810SOL    HW2 9330   2.361   6.815   2.882
 2811SOL     OW 9331   1.173   1.376   1.378
 2811SOL    HW1 9332   1.241   1.382   1.304
 2811SOL    HW2 9333   1.096   1.320   1.347
 2812SOL     OW 9334   0.537   1.743   0.937
 2812SOL    HW1 9335   0.625   1.698   0.916
 2812SOL    HW2 9336   0.551   1.811   1.009
 2813SOL     OW 9337   0.752   2.852   1.194
 2813SOL    HW1 9338   0.707   2.771   1.156
 2813SOL    HW2 9339   0.706   2.934   1.161
 2814SOL     OW 9340   2.533   4.538   0.337
 2814SOL    HW1 9341   2.539   4.450   0.386
 2814SOL    HW2 9342   2.540   4.521   0.239
 2815SOL     OW 9343   0.630   5.020   5.037
 2815SOL    HW1 9344   0.633   4.949   5.108
 2815SOL    HW2 9345   0.617   5.109   5.080
 2816SOL     OW 9346   0.974   6.175   5.556
 2816SOL    HW1 9347   0.898   6.120   5.522
 2816SOL    HW2 9348   1.027   6.122   5.623
 2817SOL     OW 9349   4.359   0.675   2.423
 2817SOL    HW1 9350   4.433   0.609   2.407
 2817SOL    HW2 9351   4.395   0.768   2.414
 2818SOL     OW 9352   1.594   0.288   0.363
 2818SOL    HW1 9353   1.601   0.265   0.460
 2818SOL    HW2 9354   1.611   0.385   0.350
 2819SOL     OW 9355   0.942   0.581   0.329
 2819SOL    HW1 9356   0.976   0.491   0.357
 2819SOL    HW2 9357   1.005   0.621   0.262
 2820SOL     OW 9358   1.792   2.673   0.135
 2820SOL    HW1 9359   1.805   2.772   0.134
 2820SOL    HW2 9360   1.835   2.634   0.216
 2821SOL     OW 9361   3.145   3.097   6.056
 2821SOL    HW1 9362   3.210   3.120   6.128
 2821SOL    HW2 9363   3.059   3.067   6.097
 2822SOL     OW 9364   4.253   2.334   0.731
 2822SOL    HW1 9365   4.212   2.369   0.647
 2822SOL    HW2 9366   4.321   2.264   0.708
 2823SOL     OW 9367   5.112   2.416   1.784
 2823SOL    HW1 9368   5.120   2.355   1.863
 2823SOL    HW2 9369   5.201   2.427   1.740
 2824SOL     OW 9370   1.345   3.610   4.705
 2824SOL    HW1 9371   1.263   3.634   4.654
 2824SOL    HW2 9372   1.324   3.537   4.770
 2825SOL     OW 9373   5.415   1.964   5.875
 2825SOL    HW1 9374   5.336   2.022   5.853
 2825SOL    HW2 9375   5.486   2.020   5.918
 2826SOL     OW 9376   2.539   2.444   6.630
 2826SOL    HW1 9377   2.572   2.538   6.635
 2826SOL    HW2 9378   2.568   2.395   6.712
 2827SOL     OW 9379   5.847   0.960   6.412
 2827SOL    HW1 9380   5.919   1.028   6.426
 2827SOL    HW2 9381   5.769   0.982   6.471
 2828SOL     OW 9382   1.950   3.649   0.863
 2828SOL    HW1 9383   1.884   3.720   0.886
 2828SOL    HW2 9384   1.916   3.560   0.893
 2829SOL     OW 9385   2.984   3.792   2.461
 2829SOL    HW1 9386   2.983   3.799   2.560
 2829SOL    HW2 9387   3.020   3.877   2.422
 2830SOL     OW 9388   3.243   5.613   5.596
 2830SOL    HW1 9389   3.218   5.638   5.502
 2830SOL    HW2 9390   3.342   5.608   5.604
 2831SOL     OW 9391   5.742   1.834   1.840
 2831SOL    HW1 9392   5.704   1.893   1.910
 2831SOL    HW2 9393   5.787   1.756   1.883
 2832SOL     OW 9394   0.716   3.826   2.013
 2832SOL    HW1 9395   0.745   3.888   1.940
 2832SOL    HW2 9396   0.762   3.851   2.098
 2833SOL     OW 9397   2.035   2.610   2.087
 2833SOL    HW1 9398   2.127   2.588   2.120
 2833SOL    HW2 9399   2.038   2.623   1.988
 2834SOL     OW 9400   3.355   5.973   5.465
 2834SOL    HW1 9401   3.304   6.001   5.547
 2834SOL    HW2 9402   3.453   5.980   5.484
 2835SOL     OW 9403   6.935   0.721   0.550
 2835SOL    HW1 9404   6.946   0.629   0.512
 2835SOL    HW2 9405   6.994   0.732   0.630
 2836SOL     OW 9406   3.691   5.828   2.301
 2836SOL    HW1 9407   3.702   5.734   2.331
 2836SOL    HW2 9408   3.631   5.877   2.364
 2837SOL     OW 9409   5.301   4.480   1.565
 2837SOL    HW1 9410   5.379   4.421   1.587
 2837SOL    HW2 9411   5.242   4.434   1.498
 2838SOL     OW 9412   6.045   5.054   6.420
 2838SOL    HW1 9413   6.082   5.034   6.511
 2838SOL    HW2 9414   5.950   5.084   6.430
 2839SOL     OW 9415   6.443   3.333   4.701
 2839SOL    HW1 9416   6.363   3.393   4.703
 2839SOL    HW2 9417   6.441   3.273   4.780
 2840SOL     OW 9418   0.016   6.394   4.108
 2840SOL    HW1 9419   0.020   6.353   4.199
 2840SOL    HW2 9420   6.960   6.352   4.055
 2841SOL     OW 9421   6.022   4.133   2.536
 2841SOL    HW1 9422   5.927   4.106   2.553
 2841SOL    HW2 9423   6.076   4.118   2.618
 2842SOL     OW 9424   1.218   0.215   3.441
 2842SOL    HW1 9425   1.243   0.296   3.496
 2842SOL    HW2 9426   1.126   0.228   3.404
 2843SOL     OW 9427   2.046   2.530   3.933
 2843SOL    HW1 9428   2.089   2.445   3.902
 2843SOL    HW2 9429   2.116   2.589   3.972
 2844SOL     OW 9430   4.990   3.941   7.017
 2844SOL    HW1 9431   5.080   3.943   0.042
 2844SOL    HW2 9432   4.991   4.000   6.936
 2845SOL     OW 9433   3.218   1.903   2.859
 2845SOL    HW1 9434   3.258   1.990   2.830
 2845SOL    HW2 9435   3.119   1.904   2.842
 2846SOL     OW 9436   6.340   0.008   0.132
 2846SOL    HW1 9437   6.416   0.005   0.066
 2846SOL    HW2 9438   6.263   6.973   0.096
 2847SOL     OW 9439   4.515   4.469   1.641
 2847SOL    HW1 9440   4.541   4.382   1.683
 2847SOL    HW2 9441   4.476   4.452   1.550
 2848SOL     OW 9442   0.376   3.936   5.452
 2848SOL    HW1 9443   0.346   3.842   5.467
 2848SOL    HW2 9444   0.421   3.944   5.363
 2849SOL     OW 9445   4.790   0.252   1.672
 2849SOL    HW1 9446   4.817   0.344   1.701
 2849SOL    HW2 9447   4.866   0.189   1.683
 2850SOL     OW 9448   2.056   0.584   2.042
 2850SOL    HW1 9449   2.134   0.646   2.042
 2850SOL    HW2 9450   2.029   0.564   2.136
 2851SOL     OW 9451   3.346   2.876   1.507
 2851SOL    HW1 9452   3.365   2.904   1.601
 2851SOL    HW2 9453   3.266   2.815   1.506
 2852SOL     OW 9454   6.446   4.728   6.811
 2852SOL    HW1 9455   6.522   4.677   6.771
 2852SOL    HW2 9456   6.360   4.700   6.767
 2853SOL     OW 9457   6.873   4.364   5.781
 2853SOL    HW1 9458   6.885   4.274   5.823
 2853SOL    HW2 9459   6.884   4.356   5.682
 2854SOL     OW 9460   3.994   0.639   5.508
 2854SOL    HW1 9461   4.078   0.682   5.541
 2854SOL    HW2 9462   3.993   0.638   5.408
 2855SOL     OW 9463   2.409   2.008   5.369
 2855SOL    HW1 9464   2.321   2.039   5.407
 2855SOL    HW2 9465   2.393   1.956   5.285
 2856SOL     OW 9466   0.997   5.149   4.035
 2856SOL    HW1 9467   1.013   5.174   3.939
 2856SOL    HW2 9468   0.987   5.050   4.042
 2857SOL     OW 9469   6.749   4.333   0.914
 2857SOL    HW1 9470   6.719   4.354   0.821
 2857SOL    HW2 9471   6.669   4.316   0.972
 2858SOL     OW 9472   4.641   4.774   2.116
 2858SOL    HW1 9473   4.628   4.742   2.023
 2858SOL    HW2 9474   4.603   4.708   2.180
 2859SOL     OW 9475   5.382   5.169   0.735
 2859SOL    HW1 9476   5.324   5.225   0.793
 2859SOL    HW2 9477   5.445   5.116   0.792
 2860SOL     OW 9478   0.824   6.984   2.256
 2860SOL    HW1 9479   0.769   0.049   2.258
 2860SOL    HW2 9480   0.796   6.924   2.330
 2861SOL     OW 9481   4.661   5.042   5.824
 2861SOL    HW1 9482   4.627   5.028   5.731
 2861SOL    HW2 9483   4.595   5.097   5.876
 2862SOL     OW 9484   4.197   2.697   0.405
 2862SOL    HW1 9485   4.142   2.780   0.397
 2862SOL    HW2 9486   4.218   2.662   0.313
 2863SOL     OW 9487   5.927   0.644   5.260
 2863SOL    HW1 9488   5.923   0.729   5.312
 2863SOL    HW2 9489   5.967   0.662   5.170
 2864SOL     OW 9490   3.717   4.835   0.223
 2864SOL    HW1 9491   3.664   4.904   0.273
 2864SOL    HW2 9492   3.805   4.873   0.195
 2865SOL     OW 9493   5.563   5.209   4.914
 2865SOL    HW1 9494   5.471   5.225   4.876
 2865SOL    HW2 9495   5.609   5.296   4.929
 2866SOL     OW 9496   4.405   4.279   0.751
 2866SOL    HW1 9497   4.495   4.281   0.707
 2866SOL    HW2 9498   4.365   4.188   0.741
 2867SOL     OW 9499   4.906   6.311   1.784
 2867SOL    HW1 9500   4.982   6.317   1.850
 2867SOL    HW2 9501   4.911   6.224   1.736
 2868SOL     OW 9502   1.247   0.705   5.255
 2868SOL    HW1 9503   1.176   0.637   5.273
 2868SOL    HW2 9504   1.333   0.659   5.233
 2869SOL     OW 9505   6.277   5.466   4.399
 2869SOL    HW1 9506   6.362   5.482   4.449
 2869SOL    HW2 9507   6.284   5.382   4.347
 2870SOL     OW 9508   6.817   2.339   2.086
 2870SOL    HW1 9509   6.854   2.394   2.010
 2870SOL    HW2 9510   6.892   2.289   2.130
 2871SOL     OW 9511   5.771   1.806   2.586
 2871SOL    HW1 9512   5.858   1.810   2.537
 2871SOL    HW2 9513   5.749   1.896   2.622
 2872SOL     OW 9514   3.024   2.171   2.612
 2872SOL    HW1 9515   3.060   2.153   2.520
 2872SOL    HW2 9516   2.932   2.210   2.605
 2873SOL     OW 9517   1.189   6.871   1.158
 2873SOL    HW1 9518   1.220   6.892   1.250
 2873SOL    HW2 9519   1.104   6.818   1.162
 2874SOL     OW 9520   2.672   1.164   2.949
 2874SOL    HW1 9521   2.573   1.152   2.942
 2874SOL    HW2 9522   2.718   1.086   2.908
 2875SOL     OW 9523   2.052   6.772   2.668
 2875SOL    HW1 9524   2.114   6.833   2.717
 2875SOL    HW2 9525   1.965   6.767   2.718
 2876SOL     OW 9526   1.669   0.490   2.167
 2876SOL    HW1 9527   1.600   0.531   2.226
 2876SOL    HW2 9528   1.737   0.559   2.141
 2877SOL     OW 9529   1.538   2.547   6.863
 2877SOL    HW1 9530   1.597   2.628   6.860
 2877SOL    HW2 9531   1.442   2.575   6.856
 2878SOL     OW 9532   4.000   3.164   3.978
 2878SOL    HW1 9533   4.076   3.101   3.963
 2878SOL    HW2 9534   3.952   3.140   4.062
 2879SOL     OW 9535   4.249   3.895   0.366
 2879SOL    HW1 9536   4.188   3.829   0.323
 2879SOL    HW2 9537   4.314   3.929   0.298
 2880SOL     OW 9538   2.461   0.945   3.450
 2880SOL    HW1 9539   2.458   0.985   3.542
 2880SOL    HW2 9540   2.368   0.929   3.418
 2881SOL     OW 9541   4.711   5.735   6.873
 2881SOL    HW1 9542   4.703   5.686   6.961
 2881SOL    HW2 9543   4.679   5.829   6.885
 2882SOL     OW 9544   4.920   6.179   0.385
 2882SOL    HW1 9545   4.900   6.102   0.324
 2882SOL    HW2 9546   4.855   6.253   0.367
 2883SOL     OW 9547   5.807   5.857   3.853
 2883SOL    HW1 9548   5.742   5.811   3.914
 2883SOL    HW2 9549   5.900   5.826   3.875
 2884SOL     OW 9550   6.570   5.267   4.330
 2884SOL    HW1 9551   6.578   5.357   4.286
 2884SOL    HW2 9552   6.600   5.196   4.266
 2885SOL     OW 9553   1.155   2.096   3.573
 2885SOL    HW1 9554   1.212   2.145   3.639
 2885SOL    HW2 9555   1.173   2.132   3.481
 2886SOL     OW 9556   2.385   4.355   5.873
 2886SOL    HW1 9557   2.314   4.285   5.864
 2886SOL    HW2 9558   2.391   4.408   5.788
 2887SOL     OW 9559   0.410   5.697   3.190
 2887SOL    HW1 9560   0.505   5.708   3.161
 2887SOL    HW2 9561   0.351   5.698   3.110
 2888SOL     OW 9562   5.959   6.874   6.891
 2888SOL    HW1 9563   6.031   6.939   6.869
 2888SOL    HW2 9564   5.967   6.793   6.832
 2889SOL     OW 9565   3.401   6.505   2.322
 2889SOL    HW1 9566   3.486   6.497   2.374
 2889SOL    HW2 9567   3.323   6.507   2.385
 2890SOL     OW 9568   1.248   1.679   1.645
 2890SOL    HW1 9569   1.267   1.685   1.547
 2890SOL    HW2 9570   1.267   1.586   1.677
 2891SOL     OW 9571   0.682   2.396   4.468
 2891SOL    HW1 9572   0.720   2.488   4.479
 2891SOL    HW2 9573   0.644   2.387   4.375
 2892SOL     OW 9574   6.133   4.108   2.830
 2892SOL    HW1 9575   6.185   4.108   2.916
 2892SOL    HW2 9576   6.182   4.054   2.762
 2893SOL     OW 9577   6.343   5.603   4.991
 2893SOL    HW1 9578   6.408   5.533   4.961
 2893SOL    HW2 9579   6.344   5.679   4.927
 2894SOL     OW 9580   2.123   6.064   2.243
 2894SOL    HW1 9581   2.129   6.157   2.280
 2894SOL    HW2 9582   2.048   6.015   2.288
 2895SOL     OW 9583   4.127   6.833   6.562
 2895SOL    HW1 9584   4.177   6.874   6.638
 2895SOL    HW2 9585   4.117   6.901   6.489
 2896SOL     OW 9586   5.724   6.048   4.959
 2896SOL    HW1 9587   5.705   6.068   5.055
 2896SOL    HW2 9588   5.819   6.020   4.949
 2897SOL     OW 9589   4.099   4.998   3.139
 2897SOL    HW1 9590   4.000   5.000   3.157
 2897SOL    HW2 9591   4.114   4.992   3.040
 2898SOL     OW 9592   5.242   2.631   2.579
 2898SOL    HW1 9593   5.338   2.606   2.563
 2898SOL    HW2 9594   5.196   2.648   2.492
 2899SOL     OW 9595   6.796   4.016   0.700
 2899SOL    HW1 9596   6.869   4.084   0.701
 2899SOL    HW2 9597   6.740   4.025   0.783
 2900SOL     OW 9598   2.501   2.749   6.033
 2900SOL    HW1 9599   2.526   2.751   5.936
 2900SOL    HW2 9600   2.412   2.792   6.046
 2901SOL     OW 9601   0.963   4.223   3.514
 2901SOL    HW1 9602   0.885   4.162   3.502
 2901SOL    HW2 9603   1.047   4.170   3.520
 2902SOL     OW 9604   6.974   6.073   3.733
 2902SOL    HW1 9605   0.009   6.020   3.667
 2902SOL    HW2 9606   6.983   6.170   3.713
 2903SOL     OW 9607   4.776   4.766   0.318
 2903SOL    HW1 9608   4.803   4.786   0.224
 2903SOL    HW2 9609   4.682   4.798   0.333
 2904SOL     OW 9610   2.631   3.932   5.365
 2904SOL    HW1 9611   2.682   4.018   5.376
 2904SOL    HW2 9612   2.588   3.930   5.275
 2905SOL     OW 9613   1.136   6.040   1.717
 2905SOL    HW1 9614   1.076   6.029   1.797
 2905SOL    HW2 9615   1.106   6.119   1.664
 2906SOL     OW 9616   6.542   6.301   4.143
 2906SOL    HW1 9617   6.552   6.202   4.130
 2906SOL    HW2 9618   6.490   6.339   4.067
 2907SOL     OW 9619   0.769   1.037   4.233
 2907SOL    HW1 9620   0.776   1.134   4.209
 2907SOL    HW2 9621   0.851   1.009   4.282
 2908SOL     OW 9622   4.280   6.326   2.884
 2908SOL    HW1 9623   4.263   6.303   2.788
 2908SOL    HW2 9624   4.239   6.257   2.943
 2909SOL     OW 9625   0.484   6.565   1.537
 2909SOL    HW1 9626   0.480   6.477   1.490
 2909SOL    HW2 9627   0.462   6.553   1.633
 2910SOL     OW 9628   6.979   0.770   4.144
 2910SOL    HW1 9629   0.044   0.788   4.092
 2910SOL    HW2 9630   6.917   0.848   4.137
 2911SOL     OW 9631   6.953   4.594   5.335
 2911SOL    HW1 9632   6.959   4.612   5.433
 2911SOL    HW2 9633   6.979   4.499   5.317
 2912SOL     OW 9634   0.496   1.011   1.572
 2912SOL    HW1 9635   0.545   1.061   1.501
 2912SOL    HW2 9636   0.559   0.989   1.646
 2913SOL     OW 9637   2.763   6.953   1.628
 2913SOL    HW1 9638   2.713   7.004   1.558
 2913SOL    HW2 9639   2.794   6.866   1.590
 2914SOL     OW 9640   4.207   5.066   0.787
 2914SOL    HW1 9641   4.300   5.031   0.798
 2914SOL    HW2 9642   4.193   5.096   0.693
 2915SOL     OW 9643   2.057   0.482   2.585
 2915SOL    HW1 9644   2.130   0.548   2.566
 2915SOL    HW2 9645   2.086   0.391   2.557
 2916SOL     OW 9646   1.305   6.657   0.296
 2916SOL    HW1 9647   1.283   6.709   0.379
 2916SOL    HW2 9648   1.399   6.622   0.303
 2917SOL     OW 9649   2.646   5.902   3.789
 2917SOL    HW1 9650   2.642   5.996   3.821
 2917SOL    HW2 9651   2.696   5.846   3.855
 2918SOL     OW 9652   4.961   2.638   1.778
 2918SOL    HW1 9653   5.016   2.554   1.778
 2918SOL    HW2 9654   5.009   2.710   1.827
 2919SOL     OW 9655   0.886   5.639   4.790
 2919SOL    HW1 9656   0.828   5.709   4.749
 2919SOL    HW2 9657   0.932   5.677   4.871
 2920SOL     OW 9658   1.186   2.561   2.773
 2920SOL    HW1 9659   1.279   2.597   2.772
 2920SOL    HW2 9660   1.129   2.613   2.710
 2921SOL     OW 9661   0.991   6.943   3.825
 2921SOL    HW1 9662   0.919   6.932   3.894
 2921SOL    HW2 9663   1.051   7.018   3.852
 2922SOL     OW 9664   3.533   6.648   3.559
 2922SOL    HW1 9665   3.505   6.741   3.582
 2922SOL    HW2 9666   3.454   6.596   3.526
 2923SOL     OW 9667   6.621   6.073   5.030
 2923SOL    HW1 9668   6.555   6.006   4.995
 2923SOL    HW2 9669   6.618   6.074   5.130
 2924SOL     OW 9670   5.878   2.098   4.855
 2924SOL    HW1 9671   5.838   2.186   4.827
 2924SOL    HW2 9672   5.870   2.088   4.954
 2925SOL     OW 9673   4.889   6.312   6.094
 2925SOL    HW1 9674   4.960   6.244   6.115
 2925SOL    HW2 9675   4.827   6.320   6.173
 2926SOL     OW 9676   6.763   3.032   4.321
 2926SOL    HW1 9677   6.722   3.050   4.231
 2926SOL    HW2 9678   6.733   3.103   4.386
 2927SOL     OW 9679   0.831   1.862   2.032
 2927SOL    HW1 9680   0.917   1.879   2.081
 2927SOL    HW2 9681   0.757   1.912   2.076
 2928SOL     OW 9682   6.571   2.947   0.063
 2928SOL    HW1 9683   6.642   2.958   7.013
 2928SOL    HW2 9684   6.535   3.037   0.089
 2929SOL     OW 9685   2.392   2.257   4.387
 2929SOL    HW1 9686   2.352   2.288   4.301
 2929SOL    HW2 9687   2.415   2.336   4.445
 2930SOL     OW 9688   0.122   4.263   4.388
 2930SOL    HW1 9689   0.058   4.328   4.346
 2930SOL    HW2 9690   0.213   4.277   4.350
 2931SOL     OW 9691   4.857   3.709   5.512
 2931SOL    HW1 9692   4.902   3.773   5.450
 2931SOL    HW2 9693   4.901   3.712   5.602
 2932SOL     OW 9694   6.426   5.357   0.639
 2932SOL    HW1 9695   6.351   5.399   0.690
 2932SOL    HW2 9696   6.514   5.390   0.675
 2933SOL     OW 9697   1.228   0.456   0.241
 2933SOL    HW1 9698   1.270   0.493   0.324
 2933SOL    HW2 9699   1.187   0.530   0.188
 2934SOL     OW 9700   3.662   4.642   0.432
 2934SOL    HW1 9701   3.683   4.707   0.359
 2934SOL    HW2 9702   3.565   4.645   0.452
 2935SOL     OW 9703   0.420   1.816   6.140
 2935SOL    HW1 9704   0.432   1.746   6.070
 2935SOL    HW2 9705   0.466   1.900   6.111
 2936SOL     OW 9706   4.834   6.210   0.915
 2936SOL    HW1 9707   4.921   6.250   0.944
 2936SOL    HW2 9708   4.846   6.158   0.831
 2937SOL     OW 9709   5.214   4.517   2.729
 2937SOL    HW1 9710   5.223   4.603   2.678
 2937SOL    HW2 9711   5.120   4.486   2.725
 2938SOL     OW 9712   0.118   5.638   6.465
 2938SOL    HW1 9713   0.019   5.637   6.453
 2938SOL    HW2 9714   0.155   5.725   6.432
 2939SOL     OW 9715   0.248   6.316   1.707
 2939SOL    HW1 9716   0.281   6.403   1.743
 2939SOL    HW2 9717   0.247   6.320   1.607
 2940SOL     OW 9718   4.028   6.429   3.457
 2940SOL    HW1 9719   3.940   6.436   3.505
 2940SOL    HW2 9720   4.030   6.345   3.403
 2941SOL     OW 9721   1.905   4.384   3.564
 2941SOL    HW1 9722   1.927   4.470   3.518
 2941SOL    HW2 9723   1.835   4.400   3.634
 2942SOL     OW 9724   3.530   1.498   0.987
 2942SOL    HW1 9725   3.480   1.516   1.071
 2942SOL    HW2 9726   3.512   1.571   0.921
 2943SOL     OW 9727   5.905   3.946   2.971
 2943SOL    HW1 9728   5.842   3.899   2.909
 2943SOL    HW2 9729   5.954   4.017   2.920
 2944SOL     OW 9730   2.123   6.233   2.479
 2944SOL    HW1 9731   2.174   6.302   2.428
 2944SOL    HW2 9732   2.033   6.269   2.503
 2945SOL     OW 9733   5.054   4.065   1.179
 2945SOL    HW1 9734   5.053   4.048   1.081
 2945SOL    HW2 9735   4.972   4.025   1.221
 2946SOL     OW 9736   3.997   3.526   5.469
 2946SOL    HW1 9737   3.966   3.581   5.392
 2946SOL    HW2 9738   3.977   3.574   5.555
 2947SOL     OW 9739   6.198   6.795   0.768
 2947SOL    HW1 9740   6.146   6.710   0.757
 2947SOL    HW2 9741   6.204   6.817   0.865
 2948SOL     OW 9742   6.974   3.899   1.714
 2948SOL    HW1 9743   7.011   3.885   1.805
 2948SOL    HW2 9744   6.924   3.985   1.711
 2949SOL     OW 9745   1.168   6.722   0.880
 2949SOL    HW1 9746   1.113   6.705   0.799
 2949SOL    HW2 9747   1.140   6.807   0.924
 2950SOL     OW 9748   5.911   5.104   3.457
 2950SOL    HW1 9749   6.007   5.104   3.431
 2950SOL    HW2 9750   5.880   5.198   3.471
 2951SOL     OW 9751   6.675   1.410   2.015
 2951SOL    HW1 9752   6.698   1.313   2.029
 2951SOL    HW2 9753   6.586   1.417   1.970
 2952SOL     OW 9754   6.584   1.996   4.923
 2952SOL    HW1 9755   6.487   2.020   4.927
 2952SOL    HW2 9756   6.597   1.904   4.961
 2953SOL     OW 9757   1.273   5.362   4.072
 2953SOL    HW1 9758   1.193   5.356   4.131
 2953SOL    HW2 9759   1.341   5.294   4.100
 2954SOL     OW 9760   6.975   4.472   6.072
 2954SOL    HW1 9761   6.887   4.515   6.051
 2954SOL    HW2 9762   6.980   4.383   6.028
 2955SOL     OW 9763   1.809   3.867   6.107
 2955SOL    HW1 9764   1.849   3.787   6.064
 2955SOL    HW2 9765   1.786   3.935   6.036
 2956SOL     OW 9766   5.631   5.086   3.707
 2956SOL    HW1 9767   5.578   5.168   3.730
 2956SOL    HW2 9768   5.576   5.028   3.646
 2957SOL     OW 9769   2.110   5.061   0.911
 2957SOL    HW1 9770   2.158   5.030   0.993
 2957SOL    HW2 9771   2.139   5.006   0.833
 2958SOL     OW 9772   1.502   5.512   2.671
 2958SOL    HW1 9773   1.449   5.499   2.587
 2958SOL    HW2 9774   1.590   5.466   2.663
 2959SOL     OW 9775   6.662   3.675   2.642
 2959SOL    HW1 9776   6.683   3.767   2.610
 2959SOL    HW2 9777   6.645   3.677   2.740
 2960SOL     OW 9778   5.678   0.312   0.557
 2960SOL    HW1 9779   5.599   0.369   0.576
 2960SOL    HW2 9780   5.648   0.221   0.528
 2961SOL     OW 9781   5.557   3.636   2.156
 2961SOL    HW1 9782   5.541   3.607   2.250
 2961SOL    HW2 9783   5.568   3.735   2.153
 2962SOL     OW 9784   6.845   0.344   3.362
 2962SOL    HW1 9785   6.793   0.374   3.282
 2962SOL    HW2 9786   6.883   0.253   3.345
 2963SOL     OW 9787   1.729   1.053   5.150
 2963SOL    HW1 9788   1.635   1.056   5.118
 2963SOL    HW2 9789   1.732   1.010   5.240
 2964SOL     OW 9790   1.045   1.587   6.794
 2964SOL    HW1 9791   1.014   1.546   6.708
 2964SOL    HW2 9792   0.991   1.551   6.870
 2965SOL     OW 9793   0.213   6.607   5.254
 2965SOL    HW1 9794   0.136   6.616   5.317
 2965SOL    HW2 9795   0.263   6.523   5.275
 2966SOL     OW 9796   3.042   5.844   2.231
 2966SOL    HW1 9797   3.142   5.847   2.239
 2966SOL    HW2 9798   3.002   5.895   2.307
 2967SOL     OW 9799   5.214   0.454   4.710
 2967SOL    HW1 9800   5.126   0.500   4.698
 2967SOL    HW2 9801   5.200   0.366   4.755
 2968SOL     OW 9802   1.858   3.666   1.575
 2968SOL    HW1 9803   1.871   3.589   1.513
 2968SOL    HW2 9804   1.790   3.643   1.644
 2969SOL     OW 9805   5.205   3.331   5.102
 2969SOL    HW1 9806   5.192   3.236   5.074
 2969SOL    HW2 9807   5.117   3.372   5.123
 2970SOL     OW 9808   2.668   1.619   4.650
 2970SOL    HW1 9809   2.593   1.555   4.633
 2970SOL    HW2 9810   2.732   1.579   4.715
 2971SOL     OW 9811   5.363   2.789   6.160
 2971SOL    HW1 9812   5.372   2.809   6.063
 2971SOL    HW2 9813   5.306   2.859   6.203
 2972SOL     OW 9814   6.054   5.498   0.265
 2972SOL    HW1 9815   6.019   5.506   0.359
 2972SOL    HW2 9816   6.078   5.402   0.247
 2973SOL     OW 9817   4.370   1.041   3.279
 2973SOL    HW1 9818   4.366   1.078   3.186
 2973SOL    HW2 9819   4.336   1.109   3.343
 2974SOL     OW 9820   4.600   6.977   2.263
 2974SOL    HW1 9821   4.504   6.948   2.253
 2974SOL    HW2 9822   4.650   6.956   2.179
 2975SOL     OW 9823   4.630   4.420   3.937
 2975SOL    HW1 9824   4.588   4.388   4.022
 2975SOL    HW2 9825   4.669   4.342   3.888
 2976SOL     OW 9826   4.478   1.345   2.421
 2976SOL    HW1 9827   4.429   1.431   2.405
 2976SOL    HW2 9828   4.447   1.276   2.355
 2977SOL     OW 9829   1.388   1.001   1.422
 2977SOL    HW1 9830   1.330   1.060   1.366
 2977SOL    HW2 9831   1.420   1.053   1.501
 2978SOL     OW 9832   4.582   5.059   6.607
 2978SOL    HW1 9833   4.600   5.147   6.650
 2978SOL    HW2 9834   4.545   5.074   6.515
 2979SOL     OW 9835   3.313   0.958   3.919
 2979SOL    HW1 9836   3.360   0.924   3.838
 2979SOL    HW2 9837   3.367   0.936   4.001
 2980SOL     OW 9838   3.616   3.810   5.036
 2980SOL    HW1 9839   3.552   3.770   5.101
 2980SOL    HW2 9840   3.609   3.762   4.948
 2981SOL     OW 9841   2.061   1.548   1.623
 2981SOL    HW1 9842   2.125   1.621   1.646
 2981SOL    HW2 9843   1.990   1.543   1.693
 2982SOL     OW 9844   1.459   0.191   1.274
 2982SOL    HW1 9845   1.467   0.145   1.362
 2982SOL    HW2 9846   1.501   0.282   1.279
 2983SOL     OW 9847   6.361   3.582   5.573
 2983SOL    HW1 9848   6.431   3.622   5.632
 2983SOL    HW2 9849   6.283   3.553   5.629
 2984SOL     OW 9850   0.600   5.308   1.433
 2984SOL    HW1 9851   0.698   5.326   1.442
 2984SOL    HW2 9852   0.571   5.325   1.339
 2985SOL     OW 9853   0.148   6.964   5.803
 2985SOL    HW1 9854   0.113   7.014   5.723
 2985SOL    HW2 9855   0.180   0.011   5.871
 2986SOL     OW 9856   3.355   3.573   2.289
 2986SOL    HW1 9857   3.394   3.481   2.281
 2986SOL    HW2 9858   3.407   3.625   2.357
 2987SOL     OW 9859   1.794   6.513   5.198
 2987SOL    HW1 9860   1.820   6.609   5.194
 2987SOL    HW2 9861   1.698   6.502   5.174
 2988SOL     OW 9862   0.309   1.286   6.330
 2988SOL    HW1 9863   0.291   1.375   6.289
 2988SOL    HW2 9864   0.377   1.297   6.403
 2989SOL     OW 9865   4.919   3.395   4.531
 2989SOL    HW1 9866   4.979   3.473   4.516
 2989SOL    HW2 9867   4.926   3.365   4.626
 2990SOL     OW 9868   5.637   1.650   4.253
 2990SOL    HW1 9869   5.615   1.616   4.344
 2990SOL    HW2 9870   5.714   1.599   4.216
 2991SOL     OW 9871   0.815   4.181   0.989
 2991SOL    HW1 9872   0.806   4.249   1.062
 2991SOL    HW2 9873   0.807   4.226   0.900
 2992SOL     OW 9874   7.006   4.046   5.750
 2992SOL    HW1 9875   0.035   4.060   5.663
 2992SOL    HW2 9876   6.952   3.962   5.745
 2993SOL     OW 9877   2.174   3.284   1.078
 2993SOL    HW1 9878   2.167   3.329   1.167
 2993SOL    HW2 9879   2.221   3.344   1.014
 2994SOL     OW 9880   3.867   5.664   5.926
 2994SOL    HW1 9881   3.782   5.709   5.899
 2994SOL    HW2 9882   3.845   5.586   5.985
 2995SOL     OW 9883   5.027   1.018   0.636
 2995SOL    HW1 9884   4.975   1.080   0.578
 2995SOL    HW2 9885   5.027   0.926   0.595
 2996SOL     OW 9886   6.739   0.518   4.417
 2996SOL    HW1 9887   6.700   0.608   4.440
 2996SOL    HW2 9888   6.824   0.504   4.468
 2997SOL     OW 9889   4.985   6.333   4.349
 2997SOL    HW1 9890   4.907   6.278   4.321
 2997SOL    HW2 9891   5.012   6.394   4.274
 2998SOL     OW 9892   2.596   1.524   2.936
 2998SOL    HW1 9893   2.667   1.460   2.906
 2998SOL    HW2 9894   2.638   1.601   2.984
 2999SOL     OW 9895   3.073   3.813   0.884
 2999SOL    HW1 9896   3.074   3.732   0.943
 2999SOL    HW2 9897   3.167   3.833   0.854
 3000SOL     OW 9898   3.009   4.099   5.101
 3000SOL    HW1 9899   2.980   4.014   5.144
 3000SOL    HW2 9900   3.027   4.168   5.172
 3001SOL     OW 9901   5.636   0.788   5.689
 3001SOL    HW1 9902   5.602   0.839   5.768
 3001SOL    HW2 9903   5.575   0.711   5.670
 3002SOL     OW 9904   1.553   2.166   1.946
 3002SOL    HW1 9905   1.578   2.213   2.031
 3002SOL    HW2 9906   1.493   2.089   1.967
 3003SOL     OW 9907   1.702   6.372   0.176
 3003SOL    HW1 9908   1.781   6.417   0.135
 3003SOL    HW2 9909   1.646   6.441   0.223
 3004SOL     OW 9910   2.599   6.199   3.770
 3004SOL    HW1 9911   2.504   6.218   3.794
 3004SOL    HW2 9912   2.660   6.246   3.834
 3005SOL     OW 9913   0.820   1.992   6.922
 3005SOL    HW1 9914   0.796   1.952   7.010
 3005SOL    HW2 9915   0.863   2.082   6.936
 3006SOL     OW 9916   4.971   1.545   5.934
 3006SOL    HW1 9917   4.873   1.549   5.917
 3006SOL    HW2 9918   5.011   1.470   5.880
 3007SOL     OW 9919   5.135   5.476   0.224
 3007SOL    HW1 9920   5.105   5.496   0.130
 3007SOL    HW2 9921   5.234   5.463   0.225
 3008SOL     OW 9922   5.251   3.312   5.691
 3008SOL    HW1 9923   5.331   3.252   5.699
 3008SOL    HW2 9924   5.169   3.261   5.717
 3009SOL     OW 9925   0.487   3.203   1.918
 3009SOL    HW1 9926   0.449   3.186   1.827
 3009SOL    HW2 9927   0.412   3.221   1.982
 3010SOL     OW 9928   4.167   5.764   0.582
 3010SOL    HW1 9929   4.090   5.707   0.552
 3010SOL    HW2 9930   4.132   5.843   0.632
 3011SOL     OW 9931   6.749   0.619   1.312
 3011SOL    HW1 9932   6.659   0.583   1.339
 3011SOL    HW2 9933   6.807   0.543   1.284
 3012SOL     OW 9934   2.200   2.331   5.404
 3012SOL    HW1 9935   2.200   2.293   5.312
 3012SOL    HW2 9936   2.214   2.430   5.399
 3013SOL     OW 9937   1.187   4.572   5.390
 3013SOL    HW1 9938   1.145   4.510   5.323
 3013SOL    HW2 9939   1.237   4.643   5.341
 3014SOL     OW 9940   5.155   6.656   6.271
 3014SOL    HW1 9941   5.208   6.715   6.333
 3014SOL    HW2 9942   5.148   6.700   6.181
 3015SOL     OW 9943   1.206   0.988   6.810
 3015SOL    HW1 9944   1.270   1.041   6.865
 3015SOL    HW2 9945   1.241   0.980   6.716
 3016SOL     OW 9946   1.911   5.925   4.072
 3016SOL    HW1 9947   1.820   5.911   4.112
 3016SOL    HW2 9948   1.921   5.865   3.992
 3017SOL     OW 9949   1.063   4.774   0.521
 3017SOL    HW1 9950   1.034   4.820   0.437
 3017SOL    HW2 9951   1.113   4.839   0.579
 3018SOL     OW 9952   3.507   6.963   0.994
 3018SOL    HW1 9953   3.523   6.873   1.035
 3018SOL    HW2 9954   3.453   0.001   1.057
 3019SOL     OW 9955   2.092   0.992   5.975
 3019SOL    HW1 9956   2.127   0.957   6.062
 3019SOL    HW2 9957   2.137   0.946   5.900
 3020SOL     OW 9958   6.473   3.722   6.786
 3020SOL    HW1 9959   6.529   3.755   6.710
 3020SOL    HW2 9960   6.407   3.793   6.812
 3021SOL     OW 9961   4.174   0.202   4.976
 3021SOL    HW1 9962   4.149   0.225   4.882
 3021SOL    HW2 9963   4.185   0.103   4.984
 3022SOL     OW 9964   3.595   5.921   3.551
 3022SOL    HW1 9965   3.595   5.968   3.640
 3022SOL    HW2 9966   3.572   5.987   3.479
 3023SOL     OW 9967   4.895   5.936   4.206
 3023SOL    HW1 9968   4.929   5.922   4.113
 3023SOL    HW2 9969   4.795   5.935   4.204
 3024SOL     OW 9970   0.568   6.687   0.442
 3024SOL    HW1 9971   0.487   6.669   0.386
 3024SOL    HW2 9972   0.644   6.630   0.411
 3025SOL     OW 9973   4.013   5.196   0.305
 3025SOL    HW1 9974   4.055   5.182   0.394
 3025SOL    HW2 9975   3.915   5.214   0.316
 3026SOL     OW 9976   6.799   0.936   2.411
 3026SOL    HW1 9977   6.756   0.846   2.416
 3026SOL    HW2 9978   6.885   0.929   2.360
 3027SOL     OW 9979   4.354   0.831   0.608
 3027SOL    HW1 9980   4.337   0.902   0.676
 3027SOL    HW2 9981   4.423   0.767   0.643
 3028SOL     OW 9982   3.052   3.009   5.579
 3028SOL    HW1 9983   3.078   2.958   5.661
 3028SOL    HW2 9984   2.962   3.051   5.592
 3029SOL     OW 9985   0.214   3.170   4.422
 3029SOL    HW1 9986   0.156   3.109   4.368
 3029SOL    HW2 9987   0.168   3.190   4.509
 3030SOL     OW 9988   2.325   2.962   6.793
 3030SOL    HW1 9989   2.288   3.046   6.831
 3030SOL    HW2 9990   2.251   2.904   6.760
 3031SOL     OW 9991   0.880   6.255   0.590
 3031SOL    HW1 9992   0.881   6.187   0.517
 3031SOL    HW2 9993   0.974   6.284   0.610
 3032SOL     OW 9994   2.579   0.473   2.824
 3032SOL    HW1 9995   2.660   0.449   2.879
 3032SOL    HW2 9996   2.511   0.401   2.834
 3033SOL     OW 9997   0.563   1.550   5.182
 3033SOL    HW1 9998   0.629   1.582   5.250
 3033SOL    HW2 9999   0.485   1.613   5.179
 3034SOL     OW10000   6.324   4.732   3.161
 3034SOL    HW110001   6.245   4.682   3.195
 3034SOL    HW210002   6.399   4.724   3.227
 3035SOL     OW10003   0.631   2.842   0.704
 3035SOL    HW110004   0.592   2.855   0.612
 3035SOL    HW210005   0.629   2.929   0.753
 3036SOL     OW10006   3.422   2.191   5.490
 3036SOL    HW110007   3.393   2.155   5.402
 3036SOL    HW210008   3.437   2.116   5.554
 3037SOL     OW10009   0.779   6.029   6.902
 3037SOL    HW110010   0.755   6.061   6.810
 3037SOL    HW210011   0.854   6.084   6.937
 3038SOL     OW10012   6.240   4.649   6.652
 3038SOL    HW110013   6.244   4.572   6.589
 3038SOL    HW210014   6.146   4.664   6.682
 3039SOL     OW10015   6.846   3.530   6.419
 3039SOL    HW110016   6.910   3.492   6.353
 3039SOL    HW210017   6.838   3.629   6.405
 3040SOL     OW10018   5.296   4.639   5.999
 3040SOL    HW110019   5.388   4.675   6.014
 3040SOL    HW210020   5.293   4.543   6.026
 3041SOL     OW10021   1.565   4.677   5.797
 3041SOL    HW110022   1.487   4.735   5.773
 3041SOL    HW210023   1.561   4.593   5.744
 3042SOL     OW10024   6.695   5.048   3.728
 3042SOL    HW110025   6.708   5.118   3.797
 3042SOL    HW210026   6.784   5.015   3.697
 3043SOL     OW10027   2.696   5.117   0.647
 3043SOL    HW110028   2.777   5.125   0.705
 3043SOL    HW210029   2.621   5.169   0.688
 3044SOL     OW10030   3.757   3.679   4.486
 3044SOL    HW110031   3.779   3.645   4.394
 3044SOL    HW210032   3.824   3.645   4.551
 3045SOL     OW10033   4.146   1.748   2.377
 3045SOL    HW110034   4.166   1.820   2.311
 3045SOL    HW210035   4.058   1.767   2.421
 3046SOL     OW10036   5.343   6.237   0.912
 3046SOL    HW110037   5.331   6.183   0.829
 3046SOL    HW210038   5.354   6.177   0.991
 3047SOL     OW10039   5.939   1.481   4.988
 3047SOL    HW110040   5.925   1.402   4.928
 3047SOL    HW210041   5.967   1.450   5.078
 3048SOL     OW10042   3.753   4.565   0.962
 3048SOL    HW110043   3.659   4.594   0.975
 3048SOL    HW210044   3.788   4.602   0.876
 3049SOL     OW10045   1.166   1.354   2.777
 3049SOL    HW110046   1.220   1.273   2.802
 3049SOL    HW210047   1.070   1.340   2.803
 3050SOL     OW10048   3.675   2.119   0.507
 3050SOL    HW110049   3.586   2.113   0.552
 3050SOL    HW210050   3.716   2.028   0.503
 3051SOL     OW10051   2.331   5.337   5.512
 3051SOL    HW110052   2.429   5.346   5.529
 3051SOL    HW210053   2.280   5.391   5.580
 3052SOL     OW10054   6.999   0.110   2.323
 3052SOL    HW110055   0.055   0.048   2.350
 3052SOL    HW210056   0.012   0.205   2.331
 3053SOL     OW10057   1.430   4.083   0.615
 3053SOL    HW110058   1.426   4.178   0.647
 3053SOL    HW210059   1.342   4.057   0.576
 3054SOL     OW10060   5.500   0.635   2.552
 3054SOL    HW110061   5.417   0.595   2.513
 3054SOL    HW210062   5.573   0.636   2.483
 3055SOL     OW10063   6.123   6.280   6.343
 3055SOL    HW110064   6.046   6.274   6.279
 3055SOL    HW210065   6.204   6.238   6.301
 3056SOL     OW10066   5.089   1.327   5.814
 3056SOL    HW110067   5.017   1.269   5.852
 3056SOL    HW210068   5.122   1.287   5.728
 3057SOL     OW10069   5.081   3.902   2.875
 3057SOL    HW110070   5.168   3.853   2.889
 3057SOL    HW210071   5.064   3.961   2.954
 3058SOL     OW10072   6.819   4.156   6.279
 3058SOL    HW110073   6.913   4.192   6.281
 3058SOL    HW210074   6.777   4.178   6.191
 3059SOL     OW10075   1.603   1.684   3.380
 3059SOL    HW110076   1.599   1.754   3.452
 3059SOL    HW210077   1.669   1.711   3.310
 3060SOL     OW10078   5.623   4.973   4.764
 3060SOL    HW110079   5.642   5.003   4.671
 3060SOL    HW210080   5.616   5.052   4.825
 3061SOL     OW10081   5.828   6.553   4.880
 3061SOL    HW110082   5.742   6.599   4.903
 3061SOL    HW210083   5.833   6.466   4.928
 3062SOL     OW10084   4.104   4.326   1.064
 3062SOL    HW110085   4.095   4.410   1.011
 3062SOL    HW210086   4.157   4.345   1.147
 3063SOL     OW10087   0.870   4.469   2.660
 3063SOL    HW110088   0.776   4.490   2.688
 3063SOL    HW210089   0.908   4.547   2.610
 3064SOL     OW10090   4.625   2.242   6.635
 3064SOL    HW110091   4.563   2.283   6.568
 3064SOL    HW210092   4.714   2.227   6.594
 3065SOL     OW10093   5.950   1.444   0.129
 3065SOL    HW110094   5.898   1.509   0.184
 3065SOL    HW210095   5.927   1.351   0.156
 3066SOL     OW10096   5.078   6.608   5.000
 3066SOL    HW110097   5.150   6.668   5.036
 3066SOL    HW210098   5.073   6.525   5.056
 3067SOL     OW10099   1.290   2.450   5.636
 3067SOL    HW110100   1.336   2.535   5.663
 3067SOL    HW210101   1.270   2.453   5.538
 3068SOL     OW10102   0.190   0.521   0.646
 3068SOL    HW110103   0.196   0.615   0.678
 3068SOL    HW210104   0.213   0.517   0.549
 3069SOL     OW10105   5.644   0.047   3.048
 3069SOL    HW110106   5.628   0.135   3.094
 3069SOL    HW210107   5.556   0.002   3.033
 3070SOL     OW10108   2.276   0.891   0.534
 3070SOL    HW110109   2.184   0.896   0.574
 3070SOL    HW210110   2.326   0.975   0.556
 3071SOL     OW10111   5.825   4.668   5.514
 3071SOL    HW110112   5.864   4.724   5.587
 3071SOL    HW210113   5.809   4.725   5.433
 3072SOL     OW10114   1.958   6.607   6.065
 3072SOL    HW110115   2.017   6.559   5.999
 3072SOL    HW210116   1.894   6.666   6.015
 3073SOL     OW10117   6.846   4.806   1.463
 3073SOL    HW110118   6.830   4.715   1.502
 3073SOL    HW210119   6.914   4.799   1.390
 3074SOL     OW10120   3.016   2.871   1.403
 3074SOL    HW110121   3.016   2.772   1.417
 3074SOL    HW210122   3.024   2.917   1.491
 3075SOL     OW10123   3.609   5.488   1.980
 3075SOL    HW110124   3.707   5.472   1.974
 3075SOL    HW210125   3.585   5.512   2.073
 3076SOL     OW10126   0.697   0.661   5.119
 3076SOL    HW110127   0.683   0.744   5.065
 3076SOL    HW210128   0.752   0.683   5.200
 3077SOL     OW10129   0.192   4.162   2.472
 3077SOL    HW110130   0.287   4.131   2.484
 3077SOL    HW210131   0.130   4.086   2.489
 3078SOL     OW10132   0.219   3.469   1.995
 3078SOL    HW110133   0.222   3.479   2.095
 3078SOL    HW210134   0.284   3.533   1.954
 3079SOL     OW10135   1.951   3.779   5.454
 3079SOL    HW110136   1.967   3.826   5.541
 3079SOL    HW210137   1.991   3.833   5.379
 3080SOL     OW10138   3.727   4.381   0.730
 3080SOL    HW110139   3.655   4.359   0.664
 3080SOL    HW210140   3.746   4.479   0.726
 3081SOL     OW10141   1.137   3.478   0.936
 3081SOL    HW110142   1.221   3.430   0.908
 3081SOL    HW210143   1.159   3.542   1.009
 3082SOL     OW10144   4.438   5.318   4.545
 3082SOL    HW110145   4.452   5.222   4.568
 3082SOL    HW210146   4.469   5.335   4.452
 3083SOL     OW10147   3.993   6.033   1.635
 3083SOL    HW110148   4.026   6.073   1.549
 3083SOL    HW210149   4.070   6.014   1.695
 3084SOL     OW10150   0.074   4.121   4.630
 3084SOL    HW110151   0.069   4.165   4.541
 3084SOL    HW210152   0.167   4.089   4.647
 3085SOL     OW10153   5.938   5.163   0.414
 3085SOL    HW110154   5.959   5.247   0.464
 3085SOL    HW210155   5.940   5.181   0.316
 3086SOL     OW10156   6.129   6.759   6.128
 3086SOL    HW110157   6.102   6.834   6.188
 3086SOL    HW210158   6.217   6.779   6.086
 3087SOL     OW10159   3.221   6.957   2.030
 3087SOL    HW110160   3.314   6.921   2.026
 3087SOL    HW210161   3.160   6.896   1.980
 3088SOL     OW10162   2.011   2.957   5.864
 3088SOL    HW110163   1.929   2.993   5.819
 3088SOL    HW210164   2.090   3.013   5.837
 3089SOL     OW10165   4.447   5.457   5.833
 3089SOL    HW110166   4.351   5.484   5.846
 3089SOL    HW210167   4.455   5.406   5.748
 3090SOL     OW10168   0.564   2.860   2.439
 3090SOL    HW110169   0.468   2.831   2.435
 3090SOL    HW210170   0.611   2.829   2.356
 3091SOL     OW10171   0.863   2.675   1.497
 3091SOL    HW110172   0.860   2.775   1.494
 3091SOL    HW210173   0.920   2.646   1.574
 3092SOL     OW10174   5.888   1.388   2.538
 3092SOL    HW110175   5.816   1.364   2.472
 3092SOL    HW210176   5.846   1.419   2.624
 3093SOL     OW10177   5.846   5.768   0.327
 3093SOL    HW110178   5.887   5.694   0.273
 3093SOL    HW210179   5.782   5.729   0.393
 3094SOL     OW10180   2.465   1.968   6.400
 3094SOL    HW110181   2.523   2.039   6.439
 3094SOL    HW210182   2.519   1.910   6.338
 3095SOL     OW10183   1.790   3.638   5.159
 3095SOL    HW110184   1.741   3.679   5.235
 3095SOL    HW210185   1.726   3.585   5.103
 3096SOL     OW10186   0.482   3.513   4.062
 3096SOL    HW110187   0.403   3.485   4.006
 3096SOL    HW210188   0.565   3.507   4.007
 3097SOL     OW10189   5.812   2.508   5.251
 3097SOL    HW110190   5.808   2.489   5.153
 3097SOL    HW210191   5.903   2.542   5.275
 3098SOL     OW10192   1.771   3.265   2.939
 3098SOL    HW110193   1.737   3.175   2.966
 3098SOL    HW210194   1.716   3.300   2.863
 3099SOL     OW10195   0.468   6.186   4.725
 3099SOL    HW110196   0.396   6.203   4.792
 3099SOL    HW210197   0.554   6.166   4.772
 3100SOL     OW10198   5.650   5.131   1.845
 3100SOL    HW110199   5.628   5.034   1.850
 3100SOL    HW210200   5.743   5.142   1.809
 3101SOL     OW10201   4.158   6.758   5.717
 3101SOL    HW110202   4.084   6.739   5.653
 3101SOL    HW210203   4.120   6.777   5.808
 3102SOL     OW10204   0.018   4.758   1.271
 3102SOL    HW110205   7.006   4.683   1.211
 3102SOL    HW210206   0.060   4.830   1.216
 3103SOL     OW10207   3.112   1.428   1.698
 3103SOL    HW110208   3.191   1.488   1.688
 3103SOL    HW210209   3.144   1.335   1.718
 3104SOL     OW10210   4.815   1.530   5.296
 3104SOL    HW110211   4.760   1.575   5.367
 3104SOL    HW210212   4.840   1.598   5.226
 3105SOL     OW10213   5.956   3.614   0.481
 3105SOL    HW110214   5.875   3.669   0.460
 3105SOL    HW210215   5.932   3.542   0.546
 3106SOL     OW10216   6.136   0.874   6.033
 3106SOL    HW110217   6.068   0.839   6.096
 3106SOL    HW210218   6.183   0.798   5.988
 3107SOL     OW10219   3.448   1.980   5.642
 3107SOL    HW110220   3.440   2.036   5.724
 3107SOL    HW210221   3.374   1.913   5.640
 3108SOL     OW10222   2.285   4.152   3.756
 3108SOL    HW110223   2.242   4.087   3.694
 3108SOL    HW210224   2.245   4.243   3.742
 3109SOL     OW10225   6.596   6.267   4.416
 3109SOL    HW110226   6.561   6.312   4.333
 3109SOL    HW210227   6.570   6.171   4.414
 3110SOL     OW10228   1.052   4.432   2.880
 3110SOL    HW110229   1.023   4.442   2.975
 3110SOL    HW210230   0.985   4.475   2.819
 3111SOL     OW10231   6.064   4.737   3.690
 3111SOL    HW110232   6.069   4.798   3.769
 3111SOL    HW210233   5.977   4.752   3.642
 3112SOL     OW10234   3.621   1.441   5.992
 3112SOL    HW110235   3.545   1.472   5.934
 3112SOL    HW210236   3.636   1.507   6.065
 3113SOL     OW10237   2.113   6.176   3.131
 3113SOL    HW110238   2.207   6.162   3.161
 3113SOL    HW210239   2.077   6.260   3.172
 3114SOL     OW10240   4.803   0.985   5.357
 3114SOL    HW110241   4.703   0.982   5.359
 3114SOL    HW210242   4.833   1.073   5.322
 3115SOL     OW10243   4.369   5.764   5.191
 3115SOL    HW110244   4.442   5.814   5.236
 3115SOL    HW210245   4.318   5.711   5.259
 3116SOL     OW10246   0.239   0.865   0.350
 3116SOL    HW110247   0.182   0.785   0.371
 3116SOL    HW210248   0.267   0.909   0.435
 3117SOL     OW10249   4.913   0.751   6.309
 3117SOL    HW110250   4.966   0.835   6.323
 3117SOL    HW210251   4.973   0.672   6.317
 3118SOL     OW10252   1.116   1.205   3.395
 3118SOL    HW110253   1.021   1.223   3.368
 3118SOL    HW210254   1.164   1.291   3.405
 3119SOL     OW10255   4.410   5.217   4.989
 3119SOL    HW110256   4.462   5.270   4.921
 3119SOL    HW210257   4.316   5.249   4.992
 3120SOL     OW10258   2.044   5.622   5.577
 3120SOL    HW110259   2.070   5.685   5.504
 3120SOL    HW210260   1.950   5.642   5.606
 3121SOL     OW10261   3.869   1.421   4.188
 3121SOL    HW110262   3.822   1.503   4.156
 3121SOL    HW210263   3.817   1.381   4.264
 3122SOL     OW10264   4.909   5.181   4.408
 3122SOL    HW110265   4.952   5.264   4.373
 3122SOL    HW210266   4.814   5.177   4.375
 3123SOL     OW10267   2.351   1.227   3.585
 3123SOL    HW110268   2.314   1.317   3.562
 3123SOL    HW210269   2.448   1.236   3.608
 3124SOL     OW10270   4.804   0.113   4.349
 3124SOL    HW110271   4.725   0.108   4.288
 3124SOL    HW210272   4.837   0.208   4.353
 3125SOL     OW10273   1.560   1.048   4.844
 3125SOL    HW110274   1.507   1.127   4.815
 3125SOL    HW210275   1.516   1.007   4.925
 3126SOL     OW10276   5.667   5.683   5.319
 3126SOL    HW110277   5.744   5.740   5.348
 3126SOL    HW210278   5.697   5.588   5.311
 3127SOL     OW10279   0.525   1.285   5.199
 3127SOL    HW110280   0.543   1.383   5.192
 3127SOL    HW210281   0.435   1.271   5.242
 3128SOL     OW10282   4.293   0.392   0.673
 3128SOL    HW110283   4.208   0.366   0.626
 3128SOL    HW210284   4.271   0.445   0.754
 3129SOL     OW10285   4.461   3.506   0.373
 3129SOL    HW110286   4.450   3.459   0.286
 3129SOL    HW210287   4.558   3.522   0.391
 3130SOL     OW10288   0.190   4.560   2.207
 3130SOL    HW110289   0.101   4.532   2.244
 3130SOL    HW210290   0.178   4.639   2.147
 3131SOL     OW10291   6.175   4.461   2.910
 3131SOL    HW110292   6.243   4.393   2.937
 3131SOL    HW210293   6.222   4.543   2.877
 3132SOL     OW10294   4.386   4.469   6.947
 3132SOL    HW110295   4.300   4.467   6.896
 3132SOL    HW210296   4.385   4.397   7.017
 3133SOL     OW10297   3.946   0.012   4.540
 3133SOL    HW110298   3.928   6.935   4.564
 3133SOL    HW210299   3.929   0.025   4.442
 3134SOL     OW10300   4.972   4.729   2.327
 3134SOL    HW110301   4.902   4.796   2.304
 3134SOL    HW210302   4.995   4.675   2.246
 3135SOL     OW10303   4.755   5.632   6.629
 3135SOL    HW110304   4.855   5.631   6.631
 3135SOL    HW210305   4.721   5.686   6.706
 3136SOL     OW10306   6.667   1.712   2.958
 3136SOL    HW110307   6.645   1.725   3.055
 3136SOL    HW210308   6.585   1.727   2.903
 3137SOL     OW10309   5.958   6.601   6.738
 3137SOL    HW110310   5.919   6.609   6.647
 3137SOL    HW210311   6.058   6.606   6.733
 3138SOL     OW10312   5.892   6.092   3.982
 3138SOL    HW110313   5.869   6.098   4.079
 3138SOL    HW210314   5.854   6.008   3.943
 3139SOL     OW10315   2.632   4.745   1.325
 3139SOL    HW110316   2.660   4.686   1.401
 3139SOL    HW210317   2.589   4.828   1.360
 3140SOL     OW10318   6.452   6.939   6.458
 3140SOL    HW110319   6.542   6.956   6.418
 3140SOL    HW210320   6.410   0.007   6.484
 3141SOL     OW10321   6.964   2.198   6.101
 3141SOL    HW110322   6.943   2.266   6.031
 3141SOL    HW210323   0.044   2.198   6.119
 3142SOL     OW10324   4.455   0.751   3.529
 3142SOL    HW110325   4.409   0.834   3.562
 3142SOL    HW210326   4.395   0.673   3.542
 3143SOL     OW10327   6.419   1.109   0.698
 3143SOL    HW110328   6.388   1.026   0.745
 3143SOL    HW210329   6.494   1.150   0.750
 3144SOL     OW10330   3.900   3.886   0.384
 3144SOL    HW110331   3.957   3.850   0.311
 3144SOL    HW210332   3.807   3.851   0.374
 3145SOL     OW10333   0.101   6.502   0.469
 3145SOL    HW110334   0.074   6.568   0.538
 3145SOL    HW210335   0.178   6.447   0.504
 3146SOL     OW10336   0.269   0.245   5.113
 3146SOL    HW110337   0.305   0.332   5.147
 3146SOL    HW210338   0.176   0.233   5.147
 3147SOL     OW10339   3.935   5.268   0.590
 3147SOL    HW110340   4.027   5.230   0.580
 3147SOL    HW210341   3.933   5.361   0.555
 3148SOL     OW10342   0.053   5.566   2.138
 3148SOL    HW110343   0.032   5.483   2.087
 3148SOL    HW210344   0.125   5.547   2.205
 3149SOL     OW10345   3.059   1.819   6.866
 3149SOL    HW110346   3.112   1.897   6.831
 3149SOL    HW210347   2.970   1.852   6.900
 3150SOL     OW10348   6.632   5.676   5.177
 3150SOL    HW110349   6.601   5.724   5.096
 3150SOL    HW210350   6.584   5.588   5.185
 3151SOL     OW10351   6.919   0.735   5.838
 3151SOL    HW110352   6.864   0.729   5.922
 3151SOL    HW210353   6.877   0.681   5.766
 3152SOL     OW10354   1.396   3.501   6.002
 3152SOL    HW110355   1.455   3.433   5.958
 3152SOL    HW210356   1.414   3.591   5.964
 3153SOL     OW10357   6.454   4.612   0.766
 3153SOL    HW110358   6.542   4.565   0.764
 3153SOL    HW210359   6.463   4.698   0.816
 3154SOL     OW10360   4.415   1.011   0.074
 3154SOL    HW110361   4.485   0.965   0.128
 3154SOL    HW210362   4.325   0.992   0.114
 3155SOL     OW10363   1.296   5.106   0.929
 3155SOL    HW110364   1.295   5.205   0.945
 3155SOL    HW210365   1.375   5.065   0.975
 3156SOL     OW10366   3.647   4.158   1.853
 3156SOL    HW110367   3.666   4.246   1.808
 3156SOL    HW210368   3.713   4.143   1.926
 3157SOL     OW10369   0.704   1.390   5.755
 3157SOL    HW110370   0.730   1.411   5.661
 3157SOL    HW210371   0.606   1.407   5.766
 3158SOL     OW10372   1.707   1.196   5.819
 3158SOL    HW110373   1.703   1.274   5.756
 3158SOL    HW210374   1.726   1.228   5.912
 3159SOL     OW10375   5.873   0.233   0.339
 3159SOL    HW110376   5.831   0.152   0.298
 3159SOL    HW210377   5.802   0.301   0.358
 3160SOL     OW10378   1.699   6.990   6.455
 3160SOL    HW110379   1.686   6.951   6.546
 3160SOL    HW210380   1.756   0.053   6.461
 3161SOL     OW10381   2.376   2.068   2.368
 3161SOL    HW110382   2.359   2.166   2.358
 3161SOL    HW210383   2.445   2.054   2.440
 3162SOL     OW10384   2.480   5.224   0.758
 3162SOL    HW110385   2.554   5.259   0.815
 3162SOL    HW210386   2.457   5.292   0.688
 3163SOL     OW10387   4.343   4.269   0.126
 3163SOL    HW110388   4.260   4.217   0.108
 3163SOL    HW210389   4.368   4.261   0.223
 3164SOL     OW10390   2.659   6.461   2.946
 3164SOL    HW110391   2.692   6.506   2.863
 3164SOL    HW210392   2.573   6.414   2.926
 3165SOL     OW10393   0.714   6.707   6.705
 3165SOL    HW110394   0.779   6.649   6.753
 3165SOL    HW210395   0.698   6.791   6.757
 3166SOL     OW10396   4.980   0.576   4.696
 3166SOL    HW110397   4.920   0.497   4.680
 3166SOL    HW210398   4.927   0.649   4.740
 3167SOL     OW10399   5.773   2.957   0.931
 3167SOL    HW110400   5.693   3.007   0.899
 3167SOL    HW210401   5.817   2.911   0.854
 3168SOL     OW10402   5.212   2.011   0.574
 3168SOL    HW110403   5.244   2.067   0.650
 3168SOL    HW210404   5.113   1.999   0.582
 3169SOL     OW10405   1.963   4.262   2.113
 3169SOL    HW110406   1.929   4.210   2.192
 3169SOL    HW210407   1.891   4.325   2.082
 3170SOL     OW10408   2.695   4.690   3.417
 3170SOL    HW110409   2.636   4.613   3.439
 3170SOL    HW210410   2.673   4.724   3.325
 3171SOL     OW10411   5.101   2.339   3.846
 3171SOL    HW110412   5.162   2.400   3.795
 3171SOL    HW210413   5.012   2.382   3.855
 3172SOL     OW10414   6.225   4.650   1.806
 3172SOL    HW110415   6.273   4.731   1.773
 3172SOL    HW210416   6.129   4.671   1.820
 3173SOL     OW10417   4.404   2.504   1.162
 3173SOL    HW110418   4.358   2.415   1.156
 3173SOL    HW210419   4.472   2.511   1.089
 3174SOL     OW10420   2.898   3.655   6.205
 3174SOL    HW110421   2.801   3.631   6.205
 3174SOL    HW210422   2.937   3.633   6.116
 3175SOL     OW10423   5.514   0.761   4.002
 3175SOL    HW110424   5.537   0.815   4.083
 3175SOL    HW210425   5.460   0.682   4.029
 3176SOL     OW10426   1.048   4.806   4.985
 3176SOL    HW110427   1.066   4.892   4.937
 3176SOL    HW210428   1.091   4.731   4.936
 3177SOL     OW10429   5.642   3.801   3.643
 3177SOL    HW110430   5.732   3.760   3.633
 3177SOL    HW210431   5.572   3.736   3.613
 3178SOL     OW10432   7.001   0.718   1.577
 3178SOL    HW110433   7.008   0.638   1.637
 3178SOL    HW210434   6.940   0.696   1.501
 3179SOL     OW10435   1.058   1.636   2.255
 3179SOL    HW110436   0.967   1.664   2.283
 3179SOL    HW210437   1.089   1.693   2.179
 3180SOL     OW10438   6.917   5.947   0.228
 3180SOL    HW110439   6.948   5.868   0.174
 3180SOL    HW210440   6.974   5.956   0.309
 3181SOL     OW10441   1.627   7.006   4.491
 3181SOL    HW110442   1.697   6.939   4.516
 3181SOL    HW210443   1.540   6.960   4.478
 3182SOL     OW10444   2.507   1.260   0.312
 3182SOL    HW110445   2.487   1.226   0.404
 3182SOL    HW210446   2.597   1.228   0.283
 3183SOL     OW10447   4.182   3.870   1.154
 3183SOL    HW110448   4.240   3.788   1.148
 3183SOL    HW210449   4.113   3.857   1.225
 3184SOL     OW10450   0.863   2.478   5.336
 3184SOL    HW110451   0.914   2.462   5.421
 3184SOL    HW210452   0.861   2.394   5.283
 3185SOL     OW10453   0.544   5.265   5.892
 3185SOL    HW110454   0.563   5.171   5.865
 3185SOL    HW210455   0.630   5.315   5.903
 3186SOL     OW10456   0.481   1.596   6.533
 3186SOL    HW110457   0.420   1.662   6.490
 3186SOL    HW210458   0.428   1.520   6.570
 3187SOL     OW10459   3.967   5.891   2.282
 3187SOL    HW110460   3.870   5.865   2.285
 3187SOL    HW210461   3.976   5.987   2.311
 3188SOL     OW10462   2.234   5.157   5.924
 3188SOL    HW110463   2.137   5.181   5.927
 3188SOL    HW210464   2.245   5.066   5.885
 3189SOL     OW10465   3.341   2.079   5.891
 3189SOL    HW110466   3.342   2.029   5.977
 3189SOL    HW210467   3.247   2.095   5.863
 3190SOL     OW10468   6.021   5.732   5.041
 3190SOL    HW110469   5.929   5.697   5.061
 3190SOL    HW210470   6.087   5.658   5.049
 3191SOL     OW10471   4.235   5.548   1.399
 3191SOL    HW110472   4.328   5.512   1.405
 3191SOL    HW210473   4.220   5.614   1.472
 3192SOL     OW10474   5.607   2.101   2.537
 3192SOL    HW110475   5.683   2.118   2.599
 3192SOL    HW210476   5.521   2.115   2.585
 3193SOL     OW10477   3.624   6.972   5.184
 3193SOL    HW110478   3.601   0.032   5.243
 3193SOL    HW210479   3.707   6.993   5.132
 3194SOL     OW10480   1.415   0.873   6.313
 3194SOL    HW110481   1.430   0.901   6.218
 3194SOL    HW210482   1.503   0.848   6.355
 3195SOL     OW10483   0.289   2.270   1.196
 3195SOL    HW110484   0.374   2.225   1.226
 3195SOL    HW210485   0.223   2.201   1.167
 3196SOL     OW10486   6.234   0.287   4.346
 3196SOL    HW110487   6.305   0.351   4.375
 3196SOL    HW210488   6.257   0.195   4.377
 3197SOL     OW10489   1.637   0.813   6.479
 3197SOL    HW110490   1.678   0.732   6.522
 3197SOL    HW210491   1.707   0.883   6.466
 3198SOL     OW10492   5.550   2.883   2.867
 3198SOL    HW110493   5.645   2.869   2.839
 3198SOL    HW210494   5.529   2.981   2.864
 3199SOL     OW10495   5.372   4.249   3.491
 3199SOL    HW110496   5.402   4.169   3.542
 3199SOL    HW210497   5.337   4.220   3.402
 3200SOL     OW10498   5.661   3.149   3.734
 3200SOL    HW110499   5.657   3.243   3.702
 3200SOL    HW210500   5.577   3.127   3.785
 3201SOL     OW10501   5.904   4.262   2.810
 3201SOL    HW110502   5.839   4.257   2.886
 3201SOL    HW210503   5.995   4.239   2.843
 3202SOL     OW10504   1.869   3.863   6.839
 3202SOL    HW110505   1.841   3.891   6.931
 3202SOL    HW210506   1.794   3.814   6.795
 3203SOL     OW10507   3.400   0.117   1.440
 3203SOL    HW110508   3.306   0.088   1.457
 3203SOL    HW210509   3.422   0.196   1.497
 3204SOL     OW10510   2.611   1.643   3.254
 3204SOL    HW110511   2.659   1.556   3.264
 3204SOL    HW210512   2.514   1.630   3.278
 3205SOL     OW10513   5.227   3.333   5.425
 3205SOL    HW110514   5.248   3.326   5.523
 3205SOL    HW210515   5.229   3.429   5.397
 3206SOL     OW10516   3.005   3.236   1.361
 3206SOL    HW110517   2.979   3.252   1.266
 3206SOL    HW210518   2.937   3.177   1.405
 3207SOL     OW10519   1.780   5.660   5.617
 3207SOL    HW110520   1.718   5.603   5.564
 3207SOL    HW210521   1.746   5.669   5.710
 3208SOL     OW10522   6.106   5.308   6.112
 3208SOL    HW110523   6.179   5.294   6.179
 3208SOL    HW210524   6.028   5.351   6.157
 3209SOL     OW10525   4.989   5.889   6.722
 3209SOL    HW110526   4.939   5.866   6.806
 3209SOL    HW210527   4.979   5.986   6.702
 3210SOL     OW10528   6.249   5.252   1.482
 3210SOL    HW110529   6.157   5.250   1.521
 3210SOL    HW210530   6.278   5.158   1.460
 3211SOL     OW10531   0.745   5.119   6.390
 3211SOL    HW110532   0.828   5.172   6.374
 3211SOL    HW210533   0.671   5.154   6.332
 3212SOL     OW10534   2.078   0.470   3.192
 3212SOL    HW110535   2.044   0.381   3.162
 3212SOL    HW210536   2.100   0.466   3.289
 3213SOL     OW10537   1.307   0.533   6.385
 3213SOL    HW110538   1.356   0.581   6.457
 3213SOL    HW210539   1.363   0.458   6.351
 3214SOL     OW10540   3.310   0.919   2.660
 3214SOL    HW110541   3.224   0.950   2.701
 3214SOL    HW210542   3.291   0.845   2.595
 3215SOL     OW10543   1.928   2.781   0.914
 3215SOL    HW110544   2.001   2.786   0.982
 3215SOL    HW210545   1.942   2.851   0.844
 3216SOL     OW10546   5.862   4.295   0.527
 3216SOL    HW110547   5.777   4.284   0.579
 3216SOL    HW210548   5.866   4.224   0.456
 3217SOL     OW10549   0.513   6.019   2.567
 3217SOL    HW110550   0.612   6.011   2.562
 3217SOL    HW210551   0.486   6.115   2.554
 3218SOL     OW10552   5.721   0.795   3.076
 3218SOL    HW110553   5.747   0.754   2.988
 3218SOL    HW210554   5.804   0.825   3.124
 3219SOL     OW10555   5.849   0.965   5.633
 3219SOL    HW110556   5.888   0.991   5.721
 3219SOL    HW210557   5.761   0.918   5.648
 3220SOL     OW10558   6.955   4.281   6.764
 3220SOL    HW110559   6.913   4.203   6.808
 3220SOL    HW210560   7.008   4.333   6.831
 3221SOL     OW10561   3.638   0.617   1.406
 3221SOL    HW110562   3.628   0.620   1.506
 3221SOL    HW210563   3.658   0.523   1.377
 3222SOL     OW10564   3.308   1.438   3.079
 3222SOL    HW110565   3.254   1.367   3.033
 3222SOL    HW210566   3.394   1.452   3.029
 3223SOL     OW10567   1.411   6.626   0.972
 3223SOL    HW110568   1.313   6.643   0.955
 3223SOL    HW210569   1.461   6.712   0.967
 3224SOL     OW10570   3.955   1.901   4.066
 3224SOL    HW110571   3.944   1.945   4.155
 3224SOL    HW210572   3.932   1.966   3.993
 3225SOL     OW10573   4.207   0.550   3.764
 3225SOL    HW110574   4.187   0.452   3.763
 3225SOL    HW210575   4.169   0.593   3.683
 3226SOL     OW10576   0.187   0.127   1.238
 3226SOL    HW110577   0.226   0.218   1.244
 3226SOL    HW210578   0.146   0.102   1.326
 3227SOL     OW10579   5.030   3.577   5.159
 3227SOL    HW110580   5.097   3.640   5.121
 3227SOL    HW210581   4.937   3.610   5.140
 3228SOL     OW10582   2.339   3.906   0.411
 3228SOL    HW110583   2.242   3.882   0.422
 3228SOL    HW210584   2.378   3.930   0.500
 3229SOL     OW10585   1.629   1.579   0.888
 3229SOL    HW110586   1.597   1.657   0.942
 3229SOL    HW210587   1.617   1.495   0.941
 3230SOL     OW10588   2.452   6.028   5.613
 3230SOL    HW110589   2.542   6.059   5.581
 3230SOL    HW210590   2.433   6.065   5.703
 3231SOL     OW10591   2.608   1.853   2.062
 3231SOL    HW110592   2.515   1.888   2.057
 3231SOL    HW210593   2.673   1.929   2.068
 3232SOL     OW10594   3.929   5.682   3.950
 3232SOL    HW110595   3.952   5.598   3.900
 3232SOL    HW210596   3.870   5.739   3.893
 3233SOL     OW10597   0.392   2.254   0.503
 3233SOL    HW110598   0.313   2.258   0.441
 3233SOL    HW210599   0.425   2.347   0.520
 3234SOL     OW10600   2.479   2.965   0.367
 3234SOL    HW110601   2.537   2.917   0.302
 3234SOL    HW210602   2.416   3.025   0.317
 3235SOL     OW10603   1.105   0.152   2.272
 3235SOL    HW110604   1.143   0.244   2.284
 3235SOL    HW210605   1.005   0.156   2.277
 3236SOL     OW10606   3.489   2.633   0.316
 3236SOL    HW110607   3.488   2.534   0.327
 3236SOL    HW210608   3.486   2.656   0.219
 3237SOL     OW10609   5.941   1.239   4.860
 3237SOL    HW110610   5.843   1.230   4.849
 3237SOL    HW210611   5.987   1.214   4.775
 3238SOL     OW10612   6.995   5.476   1.173
 3238SOL    HW110613   7.015   5.554   1.233
 3238SOL    HW210614   0.006   5.392   1.219
 3239SOL     OW10615   6.565   6.775   4.460
 3239SOL    HW110616   6.576   6.689   4.411
 3239SOL    HW210617   6.574   6.759   4.558
 3240SOL     OW10618   0.508   0.938   6.730
 3240SOL    HW110619   0.567   0.857   6.740
 3240SOL    HW210620   0.422   0.911   6.687
 3241SOL     OW10621   6.066   1.833   5.905
 3241SOL    HW110622   6.050   1.754   5.847
 3241SOL    HW210623   6.155   1.824   5.951
 3242SOL     OW10624   5.515   4.646   4.930
 3242SOL    HW110625   5.563   4.642   5.018
 3242SOL    HW210626   5.579   4.673   4.858
 3243SOL     OW10627   5.341   5.255   5.519
 3243SOL    HW110628   5.290   5.341   5.513
 3243SOL    HW210629   5.316   5.196   5.443
 3244SOL     OW10630   5.149   6.688   6.882
 3244SOL    HW110631   5.073   6.624   6.877
 3244SOL    HW210632   5.224   6.647   6.934
 3245SOL     OW10633   3.905   1.087   4.884
 3245SOL    HW110634   3.955   1.125   4.962
 3245SOL    HW210635   3.944   1.122   4.799
 3246SOL     OW10636   6.673   0.414   3.153
 3246SOL    HW110637   6.682   0.512   3.135
 3246SOL    HW210638   6.578   0.392   3.175
 3247SOL     OW10639   0.573   4.556   2.691
 3247SOL    HW110640   0.487   4.517   2.657
 3247SOL    HW210641   0.585   4.648   2.653
 3248SOL     OW10642   5.398   2.242   3.781
 3248SOL    HW110643   5.469   2.292   3.831
 3248SOL    HW210644   5.324   2.305   3.757
 3249SOL     OW10645   2.982   3.851   3.967
 3249SOL    HW110646   2.924   3.772   3.946
 3249SOL    HW210647   3.046   3.827   4.039
 3250SOL     OW10648   4.897   5.426   2.217
 3250SOL    HW110649   4.863   5.370   2.142
 3250SOL    HW210650   4.988   5.392   2.245
 3251SOL     OW10651   2.565   1.175   3.319
 3251SOL    HW110652   2.535   1.107   3.385
 3251SOL    HW210653   2.490   1.193   3.254
 3252SOL     OW10654   2.323   1.546   3.563
 3252SOL    HW110655   2.413   1.521   3.598
 3252SOL    HW210656   2.309   1.645   3.574
 3253SOL     OW10657   6.603   3.307   0.299
 3253SOL    HW110658   6.681   3.275   0.246
 3253SOL    HW210659   6.527   3.244   0.287
 3254SOL     OW10660   6.117   0.323   1.213
 3254SOL    HW110661   6.067   0.256   1.158
 3254SOL    HW210662   6.184   0.276   1.269
 3255SOL     OW10663   5.046   5.509   1.390
 3255SOL    HW110664   5.141   5.518   1.421
 3255SOL    HW210665   5.040   5.541   1.295
 3256SOL     OW10666   4.913   1.514   1.206
 3256SOL    HW110667   4.967   1.457   1.143
 3256SOL    HW210668   4.970   1.539   1.285
 3257SOL     OW10669   2.708   2.289   3.062
 3257SOL    HW110670   2.689   2.342   3.144
 3257SOL    HW210671   2.807   2.275   3.054
 3258SOL     OW10672   1.991   6.075   3.449
 3258SOL    HW110673   2.052   6.039   3.378
 3258SOL    HW210674   1.944   5.999   3.495
 3259SOL     OW10675   4.675   4.595   3.427
 3259SOL    HW110676   4.686   4.605   3.328
 3259SOL    HW210677   4.580   4.612   3.453
 3260SOL     OW10678   1.316   4.733   2.443
 3260SOL    HW110679   1.400   4.780   2.416
 3260SOL    HW210680   1.329   4.634   2.433
 3261SOL     OW10681   5.325   6.852   3.927
 3261SOL    HW110682   5.364   6.882   3.839
 3261SOL    HW210683   5.226   6.858   3.923
 3262SOL     OW10684   3.267   2.135   2.761
 3262SOL    HW110685   3.192   2.165   2.703
 3262SOL    HW210686   3.298   2.212   2.817
 3263SOL     OW10687   0.649   1.237   2.433
 3263SOL    HW110688   0.724   1.300   2.449
 3263SOL    HW210689   0.605   1.259   2.346
 3264SOL     OW10690   1.848   5.839   0.717
 3264SOL    HW110691   1.819   5.801   0.629
 3264SOL    HW210692   1.814   5.933   0.724
 3265SOL     OW10693   5.695   4.914   6.096
 3265SOL    HW110694   5.640   4.836   6.126
 3265SOL    HW210695   5.650   4.958   6.019
 3266SOL     OW10696   3.347   5.047   6.505
 3266SOL    HW110697   3.274   5.107   6.538
 3266SOL    HW210698   3.349   5.050   6.405
 3267SOL     OW10699   4.116   0.114   0.724
 3267SOL    HW110700   4.167   0.193   0.690
 3267SOL    HW210701   4.170   0.067   0.793
 3268SOL     OW10702   6.565   5.298   1.775
 3268SOL    HW110703   6.528   5.212   1.809
 3268SOL    HW210704   6.584   5.290   1.677
 3269SOL     OW10705   1.808   4.720   2.297
 3269SOL    HW110706   1.837   4.814   2.278
 3269SOL    HW210707   1.886   4.668   2.333
 3270SOL     OW10708   0.621   2.511   5.153
 3270SOL    HW110709   0.575   2.443   5.096
 3270SOL    HW210710   0.606   2.603   5.115
 3271SOL     OW10711   0.314   3.398   2.767
 3271SOL    HW110712   0.303   3.347   2.682
 3271SOL    HW210713   0.411   3.402   2.792
 3272SOL     OW10714   4.163   6.421   0.694
 3272SOL    HW110715   4.104   6.454   0.768
 3272SOL    HW210716   4.114   6.427   0.607
 3273SOL     OW10717   4.674   2.564   6.757
 3273SOL    HW110718   4.683   2.656   6.794
 3273SOL    HW210719   4.764   2.520   6.755
 3274SOL     OW10720   5.740   0.461   0.272
 3274SOL    HW110721   5.655   0.448   0.222
 3274SOL    HW210722   5.812   0.492   0.210
 3275SOL     OW10723   5.100   0.204   1.157
 3275SOL    HW110724   5.061   0.155   1.235
 3275SOL    HW210725   5.052   0.291   1.145
 3276SOL     OW10726   4.923   6.869   0.311
 3276SOL    HW110727   5.017   6.876   0.343
 3276SOL    HW210728   4.862   6.914   0.377
 3277SOL     OW10729   3.939   1.789   1.854
 3277SOL    HW110730   3.901   1.697   1.862
 3277SOL    HW210731   3.908   1.845   1.931
 3278SOL     OW10732   6.754   0.156   6.984
 3278SOL    HW110733   6.686   0.087   6.959
 3278SOL    HW210734   6.837   0.110   7.016
 3279SOL     OW10735   3.718   0.072   1.363
 3279SOL    HW110736   3.624   0.066   1.331
 3279SOL    HW210737   3.719   0.095   1.461
 3280SOL     OW10738   5.708   3.614   4.354
 3280SOL    HW110739   5.771   3.692   4.348
 3280SOL    HW210740   5.615   3.646   4.335
 3281SOL     OW10741   6.214   3.473   1.526
 3281SOL    HW110742   6.157   3.391   1.532
 3281SOL    HW210743   6.229   3.511   1.617
 3282SOL     OW10744   0.444   4.952   4.409
 3282SOL    HW110745   0.464   5.015   4.335
 3282SOL    HW210746   0.381   4.881   4.376
 3283SOL     OW10747   3.768   1.831   0.513
 3283SOL    HW110748   3.747   1.816   0.417
 3283SOL    HW210749   3.866   1.819   0.529
 3284SOL     OW10750   1.430   5.922   4.531
 3284SOL    HW110751   1.461   5.853   4.465
 3284SOL    HW210752   1.365   5.984   4.487
 3285SOL     OW10753   4.697   1.617   4.443
 3285SOL    HW110754   4.630   1.682   4.409
 3285SOL    HW210755   4.789   1.653   4.427
 3286SOL     OW10756   2.850   1.535   1.093
 3286SOL    HW110757   2.776   1.474   1.122
 3286SOL    HW210758   2.938   1.494   1.118
 3287SOL     OW10759   1.873   0.173   6.481
 3287SOL    HW110760   1.803   0.228   6.527
 3287SOL    HW210761   1.935   0.135   6.550
 3288SOL     OW10762   2.131   6.730   1.481
 3288SOL    HW110763   2.141   6.654   1.417
 3288SOL    HW210764   2.161   6.700   1.572
 3289SOL     OW10765   4.185   1.503   6.780
 3289SOL    HW110766   4.142   1.528   6.867
 3289SOL    HW210767   4.266   1.559   6.765
 3290SOL     OW10768   0.044   5.034   0.515
 3290SOL    HW110769   7.002   5.049   0.593
 3290SOL    HW210770   7.013   4.982   0.445
 3291SOL     OW10771   4.700   6.494   5.251
 3291SOL    HW110772   4.682   6.396   5.246
 3291SOL    HW210773   4.616   6.544   5.233
 3292SOL     OW10774   6.742   2.262   1.485
 3292SOL    HW110775   6.789   2.340   1.443
 3292SOL    HW210776   6.650   2.289   1.512
 3293SOL     OW10777   5.740   5.057   3.224
 3293SOL    HW110778   5.764   5.067   3.320
 3293SOL    HW210779   5.691   5.139   3.193
 3294SOL     OW10780   5.290   2.313   4.907
 3294SOL    HW110781   5.344   2.335   4.987
 3294SOL    HW210782   5.205   2.366   4.908
 3295SOL     OW10783   1.118   3.297   2.369
 3295SOL    HW110784   1.142   3.344   2.284
 3295SOL    HW210785   1.044   3.233   2.352
 3296SOL     OW10786   1.247   0.164   5.955
 3296SOL    HW110787   1.224   0.067   5.947
 3296SOL    HW210788   1.313   0.188   5.883
 3297SOL     OW10789   3.117   1.475   4.816
 3297SOL    HW110790   3.093   1.434   4.728
 3297SOL    HW210791   3.202   1.527   4.806
 3298SOL     OW10792   5.570   4.258   5.874
 3298SOL    HW110793   5.659   4.223   5.902
 3298SOL    HW210794   5.509   4.181   5.854
 3299SOL     OW10795   2.961   4.888   4.399
 3299SOL    HW110796   2.951   4.832   4.316
 3299SOL    HW210797   2.873   4.893   4.446
 3300SOL     OW10798   1.782   6.951   3.810
 3300SOL    HW110799   1.794   6.987   3.902
 3300SOL    HW210800   1.845   6.999   3.748
 3301SOL     OW10801   2.003   1.754   2.828
 3301SOL    HW110802   1.906   1.775   2.840
 3301SOL    HW210803   2.025   1.758   2.730
 3302SOL     OW10804   2.440   5.048   6.335
 3302SOL    HW110805   2.478   5.008   6.418
 3302SOL    HW210806   2.514   5.067   6.270
 3303SOL     OW10807   3.633   3.013   0.240
 3303SOL    HW110808   3.612   3.101   0.197
 3303SOL    HW210809   3.549   2.971   0.274
 3304SOL     OW10810   2.827   5.045   6.418
 3304SOL    HW110811   2.882   5.128   6.413
 3304SOL    HW210812   2.886   4.967   6.444
 3305SOL     OW10813   3.463   1.678   0.773
 3305SOL    HW110814   3.471   1.775   0.796
 3305SOL    HW210815   3.379   1.663   0.721
 3306SOL     OW10816   1.913   0.538   6.618
 3306SOL    HW110817   1.903   0.463   6.683
 3306SOL    HW210818   1.903   0.625   6.666
 3307SOL     OW10819   1.789   6.853   4.721
 3307SOL    HW110820   1.841   6.810   4.795
 3307SOL    HW210821   1.715   6.792   4.692
 3308SOL     OW10822   3.747   4.221   1.163
 3308SOL    HW110823   3.683   4.153   1.197
 3308SOL    HW210824   3.811   4.246   1.235
 3309SOL     OW10825   6.029   3.627   3.663
 3309SOL    HW110826   5.967   3.680   3.720
 3309SOL    HW210827   5.992   3.621   3.570
 3310SOL     OW10828   6.335   5.437   5.854
 3310SOL    HW110829   6.246   5.482   5.856
 3310SOL    HW210830   6.402   5.498   5.811
 3311SOL     OW10831   3.417   3.482   0.286
 3311SOL    HW110832   3.511   3.515   0.299
 3311SOL    HW210833   3.361   3.509   0.364
 3312SOL     OW10834   4.464   2.548   5.722
 3312SOL    HW110835   4.426   2.615   5.657
 3312SOL    HW210836   4.403   2.539   5.800
 3313SOL     OW10837   0.923   1.111   3.051
 3313SOL    HW110838   0.954   1.142   2.961
 3313SOL    HW210839   0.950   1.016   3.065
 3314SOL     OW10840   2.509   5.529   2.576
 3314SOL    HW110841   2.489   5.542   2.479
 3314SOL    HW210842   2.566   5.604   2.609
 3315SOL     OW10843   0.302   5.108   5.135
 3315SOL    HW110844   0.387   5.160   5.132
 3315SOL    HW210845   0.321   5.014   5.163
 3316SOL     OW10846   3.338   1.859   6.085
 3316SOL    HW110847   3.279   1.868   6.165
 3316SOL    HW210848   3.295   1.799   6.018
 3317SOL     OW10849   5.227   2.643   3.238
 3317SOL    HW110850   5.170   2.687   3.168
 3317SOL    HW210851   5.313   2.613   3.197
 3318SOL     OW10852   3.130   2.207   0.484
 3318SOL    HW110853   3.126   2.280   0.553
 3318SOL    HW210854   3.102   2.120   0.526
 3319SOL     OW10855   6.952   6.316   3.525
 3319SOL    HW110856   7.014   6.385   3.561
 3319SOL    HW210857   6.977   6.295   3.430
 3320SOL     OW10858   6.476   0.273   1.327
 3320SOL    HW110859   6.395   0.216   1.312
 3320SOL    HW210860   6.542   0.258   1.254
 3321SOL     OW10861   4.871   1.186   7.009
 3321SOL    HW110862   4.897   1.156   6.917
 3321SOL    HW210863   4.775   1.162   0.007
 3322SOL     OW10864   6.543   3.769   0.934
 3322SOL    HW110865   6.609   3.843   0.949
 3322SOL    HW210866   6.558   3.697   1.002
 3323SOL     OW10867   1.384   1.951   2.063
 3323SOL    HW110868   1.291   1.949   2.099
 3323SOL    HW210869   1.445   1.903   2.127
 3324SOL     OW10870   5.152   5.661   5.688
 3324SOL    HW110871   5.248   5.640   5.673
 3324SOL    HW210872   5.144   5.754   5.725
 3325SOL     OW10873   1.799   3.522   6.650
 3325SOL    HW110874   1.758   3.431   6.641
 3325SOL    HW210875   1.837   3.550   6.562
 3326SOL     OW10876   4.808   0.694   2.754
 3326SOL    HW110877   4.710   0.696   2.735
 3326SOL    HW210878   4.831   0.770   2.815
 3327SOL     OW10879   1.655   5.457   1.001
 3327SOL    HW110880   1.574   5.509   0.975
 3327SOL    HW210881   1.671   5.385   0.933
 3328SOL     OW10882   4.793   2.106   0.124
 3328SOL    HW110883   4.858   2.065   0.061
 3328SOL    HW210884   4.700   2.082   0.097
 3329SOL     OW10885   6.089   5.417   5.629
 3329SOL    HW110886   6.129   5.336   5.671
 3329SOL    HW210887   5.990   5.406   5.623
 3330SOL     OW10888   6.516   3.566   2.460
 3330SOL    HW110889   6.574   3.596   2.535
 3330SOL    HW210890   6.497   3.468   2.470
 3331SOL     OW10891   2.154   2.505   1.325
 3331SOL    HW110892   2.230   2.541   1.271
 3331SOL    HW210893   2.169   2.527   1.422
 3332SOL     OW10894   6.140   4.565   0.791
 3332SOL    HW110895   6.235   4.589   0.771
 3332SOL    HW210896   6.079   4.609   0.725
 3333SOL     OW10897   4.351   4.784   5.815
 3333SOL    HW110898   4.268   4.729   5.825
 3333SOL    HW210899   4.403   4.752   5.736
 3334SOL     OW10900   2.521   4.318   1.638
 3334SOL    HW110901   2.540   4.288   1.545
 3334SOL    HW210902   2.423   4.335   1.648
 3335SOL     OW10903   4.952   4.384   5.173
 3335SOL    HW110904   4.914   4.302   5.131
 3335SOL    HW210905   5.002   4.359   5.256
 3336SOL     OW10906   3.403   4.750   6.188
 3336SOL    HW110907   3.441   4.663   6.154
 3336SOL    HW210908   3.441   4.826   6.136
 3337SOL     OW10909   3.412   2.141   1.014
 3337SOL    HW110910   3.455   2.110   1.099
 3337SOL    HW210911   3.457   2.224   0.982
 3338SOL     OW10912   0.032   4.581   0.842
 3338SOL    HW110913   0.100   4.510   0.820
 3338SOL    HW210914   6.967   4.566   0.789
 3339SOL     OW10915   6.864   5.827   6.650
 3339SOL    HW110916   6.862   5.727   6.654
 3339SOL    HW210917   6.825   5.857   6.563
 3340SOL     OW10918   3.350   6.358   1.354
 3340SOL    HW110919   3.446   6.381   1.338
 3340SOL    HW210920   3.345   6.273   1.407
 3341SOL     OW10921   0.487   0.860   2.779
 3341SOL    HW110922   0.447   0.947   2.751
 3341SOL    HW210923   0.536   0.872   2.865
 3342SOL     OW10924   2.226   6.709   4.311
 3342SOL    HW110925   2.310   6.745   4.270
 3342SOL    HW210926   2.249   6.663   4.397
 3343SOL     OW10927   5.292   2.788   0.907
 3343SOL    HW110928   5.234   2.841   0.844
 3343SOL    HW210929   5.256   2.695   0.915
 3344SOL     OW10930   6.637   3.392   5.826
 3344SOL    HW110931   6.661   3.334   5.903
 3344SOL    HW210932   6.651   3.342   5.741
 3345SOL     OW10933   3.169   3.311   5.873
 3345SOL    HW110934   3.174   3.290   5.775
 3345SOL    HW210935   3.150   3.228   5.924
 3346SOL     OW10936   0.810   0.391   1.806
 3346SOL    HW110937   0.893   0.447   1.799
 3346SOL    HW210938   0.824   0.306   1.755
 3347SOL     OW10939   5.902   3.811   5.114
 3347SOL    HW110940   5.867   3.786   5.204
 3347SOL    HW210941   6.002   3.818   5.117
 3348SOL     OW10942   3.921   3.022   4.192
 3348SOL    HW110943   4.010   2.991   4.226
 3348SOL    HW210944   3.852   2.951   4.208
 3349SOL     OW10945   6.187   3.763   4.656
 3349SOL    HW110946   6.205   3.733   4.750
 3349SOL    HW210947   6.089   3.757   4.637
 3350SOL     OW10948   1.175   1.509   0.923
 3350SOL    HW110949   1.189   1.419   0.882
 3350SOL    HW210950   1.186   1.579   0.853
 3351SOL     OW10951   5.354   1.683   1.570
 3351SOL    HW110952   5.272   1.737   1.550
 3351SOL    HW210953   5.414   1.736   1.630
 3352SOL     OW10954   0.237   3.686   1.303
 3352SOL    HW110955   0.209   3.762   1.243
 3352SOL    HW210956   0.208   3.706   1.397
 3353SOL     OW10957   2.266   0.082   5.845
 3353SOL    HW110958   2.247   0.024   5.766
 3353SOL    HW210959   2.304   0.027   5.919
 3354SOL     OW10960   0.940   2.526   3.154
 3354SOL    HW110961   0.881   2.607   3.147
 3354SOL    HW210962   1.035   2.556   3.158
 3355SOL     OW10963   6.608   1.355   2.790
 3355SOL    HW110964   6.518   1.394   2.810
 3355SOL    HW210965   6.597   1.273   2.735
 3356SOL     OW10966   2.553   3.392   0.288
 3356SOL    HW110967   2.634   3.334   0.297
 3356SOL    HW210968   2.569   3.479   0.335
 3357SOL     OW10969   2.626   5.301   1.806
 3357SOL    HW110970   2.645   5.398   1.822
 3357SOL    HW210971   2.630   5.252   1.894
 3358SOL     OW10972   5.042   5.090   2.155
 3358SOL    HW110973   4.974   5.144   2.104
 3358SOL    HW210974   5.009   5.076   2.249
 3359SOL     OW10975   2.355   1.453   2.680
 3359SOL    HW110976   2.402   1.514   2.743
 3359SOL    HW210977   2.364   1.358   2.712
 3360SOL     OW10978   1.080   0.644   0.102
 3360SOL    HW110979   1.022   0.584   0.048
 3360SOL    HW210980   1.131   0.705   0.040
 3361SOL     OW10981   6.056   6.632   2.960
 3361SOL    HW110982   6.137   6.690   2.963
 3361SOL    HW210983   5.974   6.689   2.960
 3362SOL     OW10984   1.602   0.947   5.765
 3362SOL    HW110985   1.632   1.035   5.802
 3362SOL    HW210986   1.503   0.948   5.754
 3363SOL     OW10987   0.435   1.316   6.623
 3363SOL    HW110988   0.405   1.267   6.706
 3363SOL    HW210989   0.497   1.390   6.649
 3364SOL     OW10990   1.801   4.684   6.279
 3364SOL    HW110991   1.862   4.745   6.227
 3364SOL    HW210992   1.800   4.594   6.236
 3365SOL     OW10993   6.369   1.788   5.345
 3365SOL    HW110994   6.317   1.807   5.429
 3365SOL    HW210995   6.321   1.718   5.292
 3366SOL     OW10996   5.348   0.951   5.668
 3366SOL    HW110997   5.398   0.951   5.755
 3366SOL    HW210998   5.277   0.881   5.670
 3367SOL     OW10999   1.034   1.100   1.933
 3367SOL    HW111000   0.998   1.009   1.911
 3367SOL    HW211001   0.971   1.148   1.993
 3368SOL     OW11002   6.439   6.099   5.942
 3368SOL    HW111003   6.521   6.047   5.967
 3368SOL    HW211004   6.459   6.156   5.863
 3369SOL     OW11005   4.039   0.607   6.792
 3369SOL    HW111006   4.019   0.523   6.741
 3369SOL    HW211007   4.098   0.585   6.870
 3370SOL     OW11008   6.128   6.757   5.621
 3370SOL    HW111009   6.160   6.809   5.700
 3370SOL    HW211010   6.029   6.767   5.612
 3371SOL     OW11011   0.386   5.504   1.803
 3371SOL    HW111012   0.461   5.516   1.867
 3371SOL    HW211013   0.349   5.593   1.777
 3372SOL     OW11014   0.817   1.052   2.758
 3372SOL    HW111015   0.872   1.123   2.802
 3372SOL    HW211016   0.721   1.080   2.759
 3373SOL     OW11017   6.523   2.138   5.170
 3373SOL    HW111018   6.596   2.142   5.102
 3373SOL    HW211019   6.538   2.209   5.238
 3374SOL     OW11020   3.071   5.154   5.638
 3374SOL    HW111021   3.088   5.242   5.683
 3374SOL    HW211022   2.997   5.164   5.572
 3375SOL     OW11023   4.339   4.740   5.322
 3375SOL    HW111024   4.260   4.689   5.358
 3375SOL    HW211025   4.348   4.826   5.371
 3376SOL     OW11026   3.277   3.820   2.097
 3376SOL    HW111027   3.290   3.722   2.112
 3376SOL    HW211028   3.183   3.844   2.120
 3377SOL     OW11029   1.480   6.128   5.338
 3377SOL    HW111030   1.432   6.140   5.251
 3377SOL    HW211031   1.491   6.216   5.382
 3378SOL     OW11032   6.707   2.016   1.326
 3378SOL    HW111033   6.792   2.022   1.275
 3378SOL    HW211034   6.708   2.082   1.401
 3379SOL     OW11035   0.377   4.443   5.502
 3379SOL    HW111036   0.363   4.536   5.537
 3379SOL    HW211037   0.304   4.383   5.535
 3380SOL     OW11038   6.720   4.001   6.459
 3380SOL    HW111039   6.786   3.970   6.528
 3380SOL    HW211040   6.765   4.061   6.394
 3381SOL     OW11041   3.321   2.360   0.107
 3381SOL    HW111042   3.356   2.346   0.199
 3381SOL    HW211043   3.397   2.381   0.045
 3382SOL     OW11044   6.885   1.658   1.240
 3382SOL    HW111045   6.835   1.576   1.212
 3382SOL    HW211046   6.820   1.730   1.265
 3383SOL     OW11047   5.999   4.950   3.074
 3383SOL    HW111048   5.941   4.918   3.000
 3383SOL    HW211049   5.972   5.043   3.100
 3384SOL     OW11050   3.780   3.260   4.305
 3384SOL    HW111051   3.817   3.269   4.398
 3384SOL    HW211052   3.810   3.173   4.265
 3385SOL     OW11053   6.184   3.872   3.199
 3385SOL    HW111054   6.170   3.877   3.100
 3385SOL    HW211055   6.274   3.908   3.222
 3386SOL     OW11056   5.999   4.514   5.692
 3386SOL    HW111057   5.963   4.429   5.731
 3386SOL    HW211058   5.962   4.527   5.601
 3387SOL     OW11059   2.263   2.299   3.166
 3387SOL    HW111060   2.178   2.255   3.196
 3387SOL    HW211061   2.242   2.366   3.094
 3388SOL     OW11062   5.809   2.067   1.689
 3388SOL    HW111063   5.823   2.159   1.724
 3388SOL    HW211064   5.803   2.003   1.765
 3389SOL     OW11065   5.635   4.385   3.597
 3389SOL    HW111066   5.557   4.337   3.556
 3389SOL    HW211067   5.684   4.437   3.527
 3390SOL     OW11068   4.776   2.523   5.573
 3390SOL    HW111069   4.772   2.594   5.503
 3390SOL    HW211070   4.763   2.565   5.663
 3391SOL     OW11071   3.876   2.120   4.788
 3391SOL    HW111072   3.953   2.145   4.729
 3391SOL    HW211073   3.794   2.109   4.732
 3392SOL     OW11074   3.839   0.464   4.167
 3392SOL    HW111075   3.843   0.563   4.170
 3392SOL    HW211076   3.930   0.426   4.188
 3393SOL     OW11077   6.701   6.996   0.238
 3393SOL    HW111078   6.639   6.996   0.316
 3393SOL    HW211079   6.796   7.003   0.270
 3394SOL     OW11080   6.381   2.885   1.201
 3394SOL    HW111081   6.420   2.798   1.171
 3394SOL    HW211082   6.384   2.951   1.127
 3395SOL     OW11083   1.272   3.348   4.769
 3395SOL    HW111084   1.258   3.269   4.829
 3395SOL    HW211085   1.211   3.342   4.690
 3396SOL     OW11086   6.989   4.379   3.883
 3396SOL    HW111087   7.008   4.419   3.973
 3396SOL    HW211088   0.023   4.429   3.813
 3397SOL     OW11089   3.578   6.650   6.199
 3397SOL    HW111090   3.640   6.611   6.267
 3397SOL    HW211091   3.485   6.652   6.236
 3398SOL     OW11092   1.447   6.828   4.157
 3398SOL    HW111093   1.464   6.729   4.166
 3398SOL    HW211094   1.376   6.844   4.090
 3399SOL     OW11095   5.308   4.799   3.705
 3399SOL    HW111096   5.266   4.720   3.751
 3399SOL    HW211097   5.401   4.774   3.675
 3400SOL     OW11098   4.963   2.394   0.104
 3400SOL    HW111099   4.934   2.314   0.157
 3400SOL    HW211100   4.980   2.367   0.009
 3401SOL     OW11101   6.045   3.975   0.669
 3401SOL    HW111102   6.098   4.045   0.718
 3401SOL    HW211103   5.973   3.940   0.729
 3402SOL     OW11104   5.868   5.666   1.279
 3402SOL    HW111105   5.861   5.749   1.223
 3402SOL    HW211106   5.944   5.610   1.246
 3403SOL     OW11107   3.669   0.595   5.217
 3403SOL    HW111108   3.696   0.680   5.261
 3403SOL    HW211109   3.672   0.607   5.117
 3404SOL     OW11110   4.722   0.922   0.552
 3404SOL    HW111111   4.772   0.872   0.480
 3404SOL    HW211112   4.646   0.971   0.511
 3405SOL     OW11113   6.576   3.509   6.427
 3405SOL    HW111114   6.562   3.607   6.443
 3405SOL    HW211115   6.669   3.494   6.395
 3406SOL     OW11116   1.881   3.915   2.606
 3406SOL    HW111117   1.790   3.923   2.563
 3406SOL    HW211118   1.910   4.005   2.638
 3407SOL     OW11119   1.074   5.537   2.313
 3407SOL    HW111120   1.092   5.592   2.232
 3407SOL    HW211121   1.070   5.441   2.289
 3408SOL     OW11122   5.249   3.976   2.586
 3408SOL    HW111123   5.230   3.877   2.592
 3408SOL    HW211124   5.188   4.025   2.648
 3409SOL     OW11125   3.439   0.432   5.955
 3409SOL    HW111126   3.412   0.421   5.860
 3409SOL    HW211127   3.504   0.360   5.980
 3410SOL     OW11128   6.666   6.947   0.654
 3410SOL    HW111129   6.645   6.861   0.608
 3410SOL    HW211130   6.604   6.960   0.731
 3411SOL     OW11131   4.895   1.601   3.141
 3411SOL    HW111132   4.817   1.662   3.152
 3411SOL    HW211133   4.980   1.650   3.163
 3412SOL     OW11134   3.729   4.446   0.154
 3412SOL    HW111135   3.668   4.370   0.174
 3412SOL    HW211136   3.802   4.448   0.222
 3413SOL     OW11137   3.438   1.659   3.510
 3413SOL    HW111138   3.393   1.727   3.452
 3413SOL    HW211139   3.408   1.568   3.483
 3414SOL     OW11140   3.028   2.322   5.363
 3414SOL    HW111141   2.986   2.412   5.376
 3414SOL    HW211142   3.103   2.329   5.297
 3415SOL     OW11143   0.534   4.789   3.742
 3415SOL    HW111144   0.472   4.792   3.820
 3415SOL    HW211145   0.560   4.694   3.724
 3416SOL     OW11146   0.950   5.370   5.194
 3416SOL    HW111147   1.029   5.358   5.254
 3416SOL    HW211148   0.941   5.290   5.134
 3417SOL     OW11149   6.852   6.688   2.661
 3417SOL    HW111150   6.900   6.735   2.735
 3417SOL    HW211151   6.916   6.672   2.585
 3418SOL     OW11152   3.057   1.509   5.463
 3418SOL    HW111153   3.021   1.537   5.552
 3418SOL    HW211154   3.010   1.427   5.432
 3419SOL     OW11155   4.130   4.462   6.872
 3419SOL    HW111156   4.047   4.408   6.868
 3419SOL    HW211157   4.158   4.489   6.780
 3420SOL     OW11158   4.226   2.364   3.849
 3420SOL    HW111159   4.189   2.305   3.776
 3420SOL    HW211160   4.203   2.324   3.938
 3421SOL     OW11161   6.874   5.745   5.783
 3421SOL    HW111162   6.807   5.762   5.711
 3421SOL    HW211163   6.863   5.814   5.855
 3422SOL     OW11164   3.360   0.922   1.378
 3422SOL    HW111165   3.390   0.896   1.470
 3422SOL    HW211166   3.292   0.995   1.385
 3423SOL     OW11167   2.477   0.715   0.846
 3423SOL    HW111168   2.489   0.685   0.752
 3423SOL    HW211169   2.454   0.812   0.848
 3424SOL     OW11170   4.476   0.780   2.698
 3424SOL    HW111171   4.456   0.809   2.791
 3424SOL    HW211172   4.417   0.704   2.672
 3425SOL     OW11173   4.739   4.467   1.868
 3425SOL    HW111174   4.761   4.442   1.962
 3425SOL    HW211175   4.686   4.552   1.867
 3426SOL     OW11176   3.921   3.513   0.516
 3426SOL    HW111177   3.975   3.435   0.486
 3426SOL    HW211178   3.974   3.568   0.581
 3427SOL     OW11179   0.214   1.025   0.574
 3427SOL    HW111180   0.114   1.017   0.575
 3427SOL    HW211181   0.240   1.121   0.582
 3428SOL     OW11182   4.231   4.667   2.127
 3428SOL    HW111183   4.276   4.618   2.052
 3428SOL    HW211184   4.144   4.705   2.096
 3429SOL     OW11185   1.601   3.278   0.867
 3429SOL    HW111186   1.678   3.340   0.853
 3429SOL    HW211187   1.622   3.190   0.825
 3430SOL     OW11188   1.330   0.013   0.309
 3430SOL    HW111189   1.337   6.987   0.220
 3430SOL    HW211190   1.360   0.108   0.302
 3431SOL     OW11191   0.950   5.644   0.726
 3431SOL    HW111192   0.887   5.572   0.696
 3431SOL    HW211193   0.902   5.732   0.724
 3432SOL     OW11194   3.350   1.366   5.832
 3432SOL    HW111195   3.268   1.404   5.876
 3432SOL    HW211196   3.395   1.303   5.896
 3433SOL     OW11197   3.394   0.425   4.814
 3433SOL    HW111198   3.338   0.505   4.834
 3433SOL    HW211199   3.422   0.381   4.899
 3434SOL     OW11200   4.827   2.805   2.071
 3434SOL    HW111201   4.777   2.885   2.038
 3434SOL    HW211202   4.797   2.783   2.164
 3435SOL     OW11203   6.893   1.846   2.226
 3435SOL    HW111204   6.849   1.801   2.304
 3435SOL    HW211205   6.954   1.918   2.260
 3436SOL     OW11206   4.336   6.644   4.655
 3436SOL    HW111207   4.304   6.588   4.732
 3436SOL    HW211208   4.401   6.592   4.600
 3437SOL     OW11209   4.243   6.958   5.040
 3437SOL    HW111210   4.232   6.890   5.112
 3437SOL    HW211211   4.324   6.937   4.986
 3438SOL     OW11212   0.931   2.623   6.496
 3438SOL    HW111213   0.931   2.539   6.441
 3438SOL    HW211214   0.916   2.600   6.592
 3439SOL     OW11215   2.607   6.469   4.385
 3439SOL    HW111216   2.674   6.395   4.375
 3439SOL    HW211217   2.518   6.438   4.353
 3440SOL     OW11218   4.827   3.296   0.975
 3440SOL    HW111219   4.783   3.245   0.901
 3440SOL    HW211220   4.870   3.232   1.039
 3441SOL     OW11221   3.008   0.028   3.564
 3441SOL    HW111222   3.065   0.110   3.572
 3441SOL    HW211223   2.997   7.004   3.654
 3442SOL     OW11224   1.892   5.124   3.623
 3442SOL    HW111225   1.974   5.177   3.643
 3442SOL    HW211226   1.813   5.169   3.666
 3443SOL     OW11227   5.930   1.725   2.911
 3443SOL    HW111228   5.878   1.759   2.833
 3443SOL    HW211229   5.939   1.626   2.904
 3444SOL     OW11230   4.941   5.242   0.240
 3444SOL    HW111231   4.998   5.324   0.245
 3444SOL    HW211232   4.845   5.268   0.237
 3445SOL     OW11233   6.671   4.778   4.099
 3445SOL    HW111234   6.674   4.678   4.091
 3445SOL    HW211235   6.764   4.814   4.093
 3446SOL     OW11236   3.991   0.173   2.866
 3446SOL    HW111237   4.073   0.132   2.825
 3446SOL    HW211238   3.988   0.270   2.844
 3447SOL     OW11239   5.460   6.283   0.174
 3447SOL    HW111240   5.524   6.256   0.102
 3447SOL    HW211241   5.367   6.259   0.147
 3448SOL     OW11242   3.650   1.119   1.650
 3448SOL    HW111243   3.669   1.042   1.589
 3448SOL    HW211244   3.625   1.199   1.596
 3449SOL     OW11245   6.563   0.248   2.407
 3449SOL    HW111246   6.603   0.207   2.489
 3449SOL    HW211247   6.634   0.262   2.339
 3450SOL     OW11248   0.672   1.851   1.777
 3450SOL    HW111249   0.751   1.843   1.838
 3450SOL    HW211250   0.589   1.821   1.825
 3451SOL     OW11251   1.131   5.958   3.915
 3451SOL    HW111252   1.198   5.973   3.988
 3451SOL    HW211253   1.179   5.940   3.829
 3452SOL     OW11254   6.228   1.138   0.511
 3452SOL    HW111255   6.307   1.119   0.569
 3452SOL    HW211256   6.181   1.053   0.490
 3453SOL     OW11257   5.721   5.684   4.661
 3453SOL    HW111258   5.623   5.701   4.655
 3453SOL    HW211259   5.770   5.771   4.671
 3454SOL     OW11260   1.163   1.265   0.790
 3454SOL    HW111261   1.239   1.200   0.788
 3454SOL    HW211262   1.110   1.258   0.705
 3455SOL     OW11263   1.464   2.578   4.319
 3455SOL    HW111264   1.512   2.519   4.384
 3455SOL    HW211265   1.525   2.649   4.286
 3456SOL     OW11266   5.630   6.780   1.546
 3456SOL    HW111267   5.712   6.808   1.595
 3456SOL    HW211268   5.627   6.827   1.457
 3457SOL     OW11269   2.544   4.961   3.473
 3457SOL    HW111270   2.638   4.934   3.497
 3457SOL    HW211271   2.547   5.043   3.416
 3458SOL     OW11272   5.777   6.951   0.892
 3458SOL    HW111273   5.827   0.009   0.850
 3458SOL    HW211274   5.799   6.946   0.989
 3459SOL     OW11275   0.301   4.921   3.568
 3459SOL    HW111276   0.347   4.852   3.624
 3459SOL    HW211277   0.226   4.878   3.518
 3460SOL     OW11278   4.238   2.590   0.172
 3460SOL    HW111279   4.297   2.537   0.110
 3460SOL    HW211280   4.143   2.558   0.162
 3461SOL     OW11281   3.806   5.523   4.178
 3461SOL    HW111282   3.806   5.424   4.192
 3461SOL    HW211283   3.892   5.550   4.136
 3462SOL     OW11284   4.993   3.815   2.569
 3462SOL    HW111285   4.999   3.848   2.663
 3462SOL    HW211286   4.973   3.891   2.508
 3463SOL     OW11287   2.179   2.785   1.457
 3463SOL    HW111288   2.208   2.740   1.541
 3463SOL    HW211289   2.086   2.821   1.469
 3464SOL     OW11290   5.181   2.944   6.319
 3464SOL    HW111291   5.176   2.919   6.415
 3464SOL    HW211292   5.096   2.917   6.273
 3465SOL     OW11293   2.184   3.766   1.876
 3465SOL    HW111294   2.173   3.687   1.936
 3465SOL    HW211295   2.207   3.846   1.931
 3466SOL     OW11296   5.287   4.644   5.159
 3466SOL    HW111297   5.378   4.612   5.187
 3466SOL    HW211298   5.271   4.619   5.063
 3467SOL     OW11299   2.599   2.383   1.009
 3467SOL    HW111300   2.684   2.431   1.030
 3467SOL    HW211301   2.611   2.285   1.024
 3468SOL     OW11302   4.634   1.502   1.558
 3468SOL    HW111303   4.586   1.483   1.644
 3468SOL    HW211304   4.567   1.519   1.486
 3469SOL     OW11305   4.600   6.827   5.862
 3469SOL    HW111306   4.518   6.770   5.861
 3469SOL    HW211307   4.640   6.828   5.770
 3470SOL     OW11308   6.989   2.658   2.166
 3470SOL    HW111309   6.898   2.629   2.195
 3470SOL    HW211310   0.006   2.727   2.230
 3471SOL     OW11311   4.577   4.340   2.957
 3471SOL    HW111312   4.503   4.405   2.939
 3471SOL    HW211313   4.626   4.320   2.872
 3472SOL     OW11314   4.500   2.322   3.339
 3472SOL    HW111315   4.425   2.285   3.394
 3472SOL    HW211316   4.587   2.293   3.378
 3473SOL     OW11317   0.017   4.104   3.510
 3473SOL    HW111318   0.019   4.144   3.602
 3473SOL    HW211319   6.952   4.049   3.500
 3474SOL     OW11320   6.505   5.227   4.718
 3474SOL    HW111321   6.578   5.164   4.745
 3474SOL    HW211322   6.451   5.185   4.645
 3475SOL     OW11323   0.212   4.744   4.331
 3475SOL    HW111324   0.146   4.805   4.376
 3475SOL    HW211325   0.257   4.687   4.400
 3476SOL     OW11326   1.345   1.603   3.298
 3476SOL    HW111327   1.304   1.667   3.233
 3476SOL    HW211328   1.433   1.638   3.330
 3477SOL     OW11329   0.551   3.818   1.467
 3477SOL    HW111330   0.610   3.863   1.400
 3477SOL    HW211331   0.470   3.873   1.483
 3478SOL     OW11332   2.384   0.105   0.185
 3478SOL    HW111333   2.473   0.073   0.218
 3478SOL    HW211334   2.334   0.028   0.144
 3479SOL     OW11335   0.781   3.397   3.518
 3479SOL    HW111336   0.716   3.415   3.592
 3479SOL    HW211337   0.875   3.407   3.552
 3480SOL     OW11338   0.968   5.816   6.966
 3480SOL    HW111339   1.060   5.843   6.994
 3480SOL    HW211340   0.944   5.863   6.881
 3481SOL     OW11341   6.064   0.396   6.535
 3481SOL    HW111342   6.076   0.495   6.531
 3481SOL    HW211343   6.118   0.359   6.610
 3482SOL     OW11344   5.785   3.357   4.297
 3482SOL    HW111345   5.825   3.299   4.368
 3482SOL    HW211346   5.742   3.437   4.339
 3483SOL     OW11347   4.649   2.276   3.808
 3483SOL    HW111348   4.705   2.194   3.795
 3483SOL    HW211349   4.565   2.253   3.857
 3484SOL     OW11350   1.831   3.619   6.401
 3484SOL    HW111351   1.739   3.648   6.428
 3484SOL    HW211352   1.825   3.559   6.321
 3485SOL     OW11353   0.020   1.654   5.527
 3485SOL    HW111354   0.089   1.712   5.484
 3485SOL    HW211355   6.975   1.620   5.457
 3486SOL     OW11356   2.295   0.303   4.657
 3486SOL    HW111357   2.378   0.251   4.636
 3486SOL    HW211358   2.293   0.385   4.599
 3487SOL     OW11359   6.004   1.762   6.516
 3487SOL    HW111360   6.094   1.806   6.518
 3487SOL    HW211361   6.001   1.690   6.586
 3488SOL     OW11362   5.977   0.370   4.382
 3488SOL    HW111363   6.073   0.342   4.377
 3488SOL    HW211364   5.918   0.292   4.358
 3489SOL     OW11365   3.054   0.336   0.919
 3489SOL    HW111366   2.975   0.338   0.857
 3489SOL    HW211367   3.076   0.429   0.948
 3490SOL     OW11368   3.886   4.863   0.641
 3490SOL    HW111369   3.846   4.942   0.688
 3490SOL    HW211370   3.930   4.893   0.557
 3491SOL     OW11371   5.239   3.936   0.124
 3491SOL    HW111372   5.310   3.985   0.174
 3491SOL    HW211373   5.190   3.875   0.186
 3492SOL     OW11374   5.757   4.204   2.579
 3492SOL    HW111375   5.681   4.146   2.611
 3492SOL    HW211376   5.809   4.236   2.658
 3493SOL     OW11377   6.087   3.632   4.325
 3493SOL    HW111378   6.017   3.697   4.296
 3493SOL    HW211379   6.171   3.681   4.348
 3494SOL     OW11380   3.386   1.766   2.453
 3494SOL    HW111381   3.331   1.844   2.423
 3494SOL    HW211382   3.356   1.683   2.406
 3495SOL     OW11383   1.187   3.641   2.245
 3495SOL    HW111384   1.235   3.687   2.320
 3495SOL    HW211385   1.241   3.563   2.214
 3496SOL     OW11386   6.770   4.995   0.681
 3496SOL    HW111387   6.680   4.956   0.660
 3496SOL    HW211388   6.761   5.063   0.754
 3497SOL     OW11389   4.289   0.318   2.856
 3497SOL    HW111390   4.267   0.225   2.829
 3497SOL    HW211391   4.206   0.374   2.853
 3498SOL     OW11392   2.272   1.695   1.685
 3498SOL    HW111393   2.316   1.629   1.625
 3498SOL    HW211394   2.341   1.756   1.724
 3499SOL     OW11395   6.005   5.638   5.345
 3499SOL    HW111396   6.074   5.617   5.275
 3499SOL    HW211397   6.026   5.587   5.429
 3500SOL     OW11398   1.386   1.506   3.696
 3500SOL    HW111399   1.394   1.430   3.761
 3500SOL    HW211400   1.476   1.547   3.681
 3501SOL     OW11401   2.144   6.978   6.344
 3501SOL    HW111402   2.059   6.927   6.327
 3501SOL    HW211403   2.134   0.052   6.309
 3502SOL     OW11404   5.557   3.295   1.712
 3502SOL    HW111405   5.474   3.277   1.660
 3502SOL    HW211406   5.551   3.249   1.801
 3503SOL     OW11407   6.567   6.064   6.362
 3503SOL    HW111408   6.514   6.038   6.281
 3503SOL    HW211409   6.555   6.162   6.379
 3504SOL     OW11410   1.288   1.152   2.071
 3504SOL    HW111411   1.279   1.218   2.145
 3504SOL    HW211412   1.201   1.144   2.022
 3505SOL     OW11413   5.644   5.240   5.443
 3505SOL    HW111414   5.679   5.175   5.511
 3505SOL    HW211415   5.544   5.244   5.449
 3506SOL     OW11416   5.200   4.692   4.524
 3506SOL    HW111417   5.265   4.765   4.546
 3506SOL    HW211418   5.186   4.690   4.425
 3507SOL     OW11419   2.284   0.570   0.073
 3507SOL    HW111420   2.316   0.618   0.154
 3507SOL    HW211421   2.222   0.497   0.099
 3508SOL     OW11422   3.279   2.572   5.311
 3508SOL    HW111423   3.250   2.493   5.257
 3508SOL    HW211424   3.199   2.627   5.334
 3509SOL     OW11425   4.524   6.022   0.279
 3509SOL    HW111426   4.486   5.951   0.221
 3509SOL    HW211427   4.461   6.100   0.282
 3510SOL     OW11428   1.883   0.700   1.226
 3510SOL    HW111429   1.950   0.728   1.158
 3510SOL    HW211430   1.831   0.780   1.257
 3511SOL     OW11431   2.311   4.539   1.519
 3511SOL    HW111432   2.253   4.465   1.553
 3511SOL    HW211433   2.256   4.621   1.505
 3512SOL     OW11434   1.033   4.241   0.140
 3512SOL    HW111435   0.943   4.274   0.112
 3512SOL    HW211436   1.037   4.234   0.240
 3513SOL     OW11437   6.265   2.241   0.543
 3513SOL    HW111438   6.356   2.240   0.501
 3513SOL    HW211439   6.271   2.203   0.636
 3514SOL     OW11440   5.212   0.580   2.725
 3514SOL    HW111441   5.258   0.650   2.779
 3514SOL    HW211442   5.130   0.550   2.773
 3515SOL     OW11443   5.705   6.019   4.555
 3515SOL    HW111444   5.611   6.042   4.578
 3515SOL    HW211445   5.707   5.974   4.465
 3516SOL     OW11446   5.318   0.306   1.331
 3516SOL    HW111447   5.298   0.244   1.255
 3516SOL    HW211448   5.407   0.348   1.316
 3517SOL     OW11449   6.757   1.425   0.465
 3517SOL    HW111450   6.731   1.516   0.431
 3517SOL    HW211451   6.850   1.404   0.436
 3518SOL     OW11452   6.160   1.931   4.814
 3518SOL    HW111453   6.194   1.945   4.721
 3518SOL    HW211454   6.125   2.017   4.850
 3519SOL     OW11455   3.231   1.104   0.329
 3519SOL    HW111456   3.296   1.177   0.305
 3519SOL    HW211457   3.154   1.106   0.266
 3520SOL     OW11458   2.861   5.487   5.515
 3520SOL    HW111459   2.828   5.580   5.530
 3520SOL    HW211460   2.936   5.467   5.578
 3521SOL     OW11461   3.262   3.232   6.998
 3521SOL    HW111462   3.248   3.158   0.046
 3521SOL    HW211463   3.210   3.312   0.007
 3522SOL     OW11464   6.615   5.604   6.466
 3522SOL    HW111465   6.559   5.532   6.505
 3522SOL    HW211466   6.593   5.691   6.508
 3523SOL     OW11467   1.795   4.823   5.462
 3523SOL    HW111468   1.703   4.807   5.427
 3523SOL    HW211469   1.802   4.791   5.556
 3524SOL     OW11470   5.940   2.206   3.298
 3524SOL    HW111471   5.905   2.194   3.205
 3524SOL    HW211472   5.991   2.125   3.325
 3525SOL     OW11473   6.481   4.833   4.300
 3525SOL    HW111474   6.564   4.783   4.278
 3525SOL    HW211475   6.405   4.769   4.308
 3526SOL     OW11476   1.275   6.006   3.422
 3526SOL    HW111477   1.268   6.003   3.522
 3526SOL    HW211478   1.362   6.048   3.396
 3527SOL     OW11479   6.142   2.483   5.842
 3527SOL    HW111480   6.239   2.461   5.831
 3527SOL    HW211481   6.098   2.413   5.898
 3528SOL     OW11482   2.569   6.551   5.407
 3528SOL    HW111483   2.620   6.568   5.491
 3528SOL    HW211484   2.629   6.567   5.328
 3529SOL     OW11485   4.937   5.762   0.208
 3529SOL    HW111486   4.870   5.823   0.251
 3529SOL    HW211487   5.009   5.740   0.273
 3530SOL     OW11488   6.977   5.839   2.118
 3530SOL    HW111489   6.982   5.740   2.105
 3530SOL    HW211490   0.016   5.886   2.051
 3531SOL     OW11491   4.826   1.815   2.076
 3531SOL    HW111492   4.749   1.849   2.022
 3531SOL    HW211493   4.813   1.842   2.172
 3532SOL     OW11494   2.185   1.052   2.157
 3532SOL    HW111495   2.100   1.098   2.182
 3532SOL    HW211496   2.170   0.997   2.075
 3533SOL     OW11497   6.583   1.579   2.469
 3533SOL    HW111498   6.555   1.502   2.525
 3533SOL    HW211499   6.504   1.617   2.422
 3534SOL     OW11500   0.490   2.295   2.484
 3534SOL    HW111501   0.589   2.280   2.489
 3534SOL    HW211502   0.469   2.385   2.522
 3535SOL     OW11503   2.964   5.006   5.192
 3535SOL    HW111504   2.965   4.913   5.229
 3535SOL    HW211505   2.918   5.006   5.104
 3536SOL     OW11506   3.344   1.849   3.339
 3536SOL    HW111507   3.407   1.919   3.373
 3536SOL    HW211508   3.353   1.841   3.240
 3537SOL     OW11509   1.182   5.781   2.884
 3537SOL    HW111510   1.206   5.815   2.975
 3537SOL    HW211511   1.214   5.686   2.874
 3538SOL     OW11512   3.105   5.728   5.215
 3538SOL    HW111513   3.041   5.801   5.241
 3538SOL    HW211514   3.060   5.640   5.222
 3539SOL     OW11515   3.334   4.045   4.497
 3539SOL    HW111516   3.357   4.050   4.400
 3539SOL    HW211517   3.323   3.949   4.524
 3540SOL     OW11518   2.014   1.693   4.022
 3540SOL    HW111519   2.101   1.724   3.983
 3540SOL    HW211520   1.961   1.773   4.050
 3541SOL     OW11521   3.320   3.169   5.297
 3541SOL    HW111522   3.363   3.112   5.228
 3541SOL    HW211523   3.337   3.266   5.277
 3542SOL     OW11524   1.647   4.840   3.029
 3542SOL    HW111525   1.738   4.804   3.011
 3542SOL    HW211526   1.616   4.809   3.119
 3543SOL     OW11527   5.366   2.463   4.166
 3543SOL    HW111528   5.274   2.471   4.205
 3543SOL    HW211529   5.403   2.554   4.151
 3544SOL     OW11530   2.066   3.971   6.711
 3544SOL    HW111531   2.130   3.959   6.787
 3544SOL    HW211532   1.975   3.939   6.739
 3545SOL     OW11533   4.264   5.340   6.234
 3545SOL    HW111534   4.179   5.306   6.275
 3545SOL    HW211535   4.323   5.378   6.305
 3546SOL     OW11536   0.420   5.458   3.313
 3546SOL    HW111537   0.388   5.480   3.405
 3546SOL    HW211538   0.408   5.537   3.253
 3547SOL     OW11539   3.763   5.239   3.762
 3547SOL    HW111540   3.811   5.213   3.679
 3547SOL    HW211541   3.759   5.160   3.824
 3548SOL     OW11542   4.800   2.070   5.656
 3548SOL    HW111543   4.861   2.147   5.638
 3548SOL    HW211544   4.709   2.090   5.618
 3549SOL     OW11545   6.483   4.771   3.378
 3549SOL    HW111546   6.570   4.741   3.416
 3549SOL    HW211547   6.429   4.817   3.449
 3550SOL     OW11548   4.977   2.242   3.464
 3550SOL    HW111549   5.022   2.155   3.481
 3550SOL    HW211550   5.021   2.314   3.518
 3551SOL     OW11551   3.497   5.931   2.467
 3551SOL    HW111552   3.431   5.927   2.392
 3551SOL    HW211553   3.451   5.906   2.553
 3552SOL     OW11554   5.333   6.038   2.902
 3552SOL    HW111555   5.240   6.056   2.934
 3552SOL    HW211556   5.381   5.982   2.969
 3553SOL     OW11557   5.380   2.306   2.357
 3553SOL    HW111558   5.424   2.344   2.438
 3553SOL    HW211559   5.282   2.295   2.374
 3554SOL     OW11560   4.368   3.986   6.408
 3554SOL    HW111561   4.274   3.991   6.375
 3554SOL    HW211562   4.403   4.079   6.424
 3555SOL     OW11563   0.789   3.526   2.947
 3555SOL    HW111564   0.774   3.622   2.971
 3555SOL    HW211565   0.704   3.487   2.911
 3556SOL     OW11566   3.134   0.345   5.210
 3556SOL    HW111567   3.209   0.409   5.190
 3556SOL    HW211568   3.049   0.382   5.174
 3557SOL     OW11569   1.585   0.182   4.700
 3557SOL    HW111570   1.641   0.260   4.728
 3557SOL    HW211571   1.616   0.149   4.611
 3558SOL     OW11572   0.183   6.030   1.677
 3558SOL    HW111573   0.222   5.956   1.623
 3558SOL    HW211574   0.236   6.113   1.663
 3559SOL     OW11575   0.469   0.526   4.634
 3559SOL    HW111576   0.530   0.603   4.655
 3559SOL    HW211577   0.434   0.487   4.719
 3560SOL     OW11578   1.046   5.910   0.898
 3560SOL    HW111579   1.038   5.918   0.998
 3560SOL    HW211580   0.957   5.925   0.856
 3561SOL     OW11581   4.936   4.245   5.627
 3561SOL    HW111582   4.882   4.162   5.618
 3561SOL    HW211583   4.993   4.257   5.545
 3562SOL     OW11584   5.503   0.077   3.745
 3562SOL    HW111585   5.556   0.112   3.668
 3562SOL    HW211586   5.556   0.088   3.829
 3563SOL     OW11587   5.152   1.179   0.953
 3563SOL    HW111588   5.226   1.117   0.928
 3563SOL    HW211589   5.140   1.178   1.053
 3564SOL     OW11590   0.601   4.218   4.738
 3564SOL    HW111591   0.559   4.211   4.648
 3564SOL    HW211592   0.678   4.155   4.745
 3565SOL     OW11593   2.373   0.763   4.666
 3565SOL    HW111594   2.310   0.702   4.715
 3565SOL    HW211595   2.364   0.856   4.703
 3566SOL     OW11596   6.910   3.216   6.115
 3566SOL    HW111597   6.930   3.152   6.190
 3566SOL    HW211598   6.811   3.226   6.105
 3567SOL     OW11599   0.477   3.555   1.367
 3567SOL    HW111600   0.379   3.568   1.351
 3567SOL    HW211601   0.517   3.640   1.400
 3568SOL     OW11602   4.552   4.491   2.540
 3568SOL    HW111603   4.501   4.482   2.626
 3568SOL    HW211604   4.488   4.516   2.466
 3569SOL     OW11605   2.870   3.624   4.575
 3569SOL    HW111606   2.914   3.707   4.543
 3569SOL    HW211607   2.797   3.598   4.512
 3570SOL     OW11608   6.520   1.767   5.691
 3570SOL    HW111609   6.570   1.853   5.702
 3570SOL    HW211610   6.584   1.690   5.699
 3571SOL     OW11611   1.845   6.926   5.047
 3571SOL    HW111612   1.784   6.987   4.997
 3571SOL    HW211613   1.890   6.864   4.984
 3572SOL     OW11614   5.144   4.359   1.382
 3572SOL    HW111615   5.070   4.294   1.400
 3572SOL    HW211616   5.171   4.353   1.286
 3573SOL     OW11617   6.502   4.293   2.059
 3573SOL    HW111618   6.580   4.276   1.999
 3573SOL    HW211619   6.424   4.237   2.030
 3574SOL     OW11620   2.580   3.046   5.903
 3574SOL    HW111621   2.594   3.132   5.855
 3574SOL    HW211622   2.561   3.065   6.000
 3575SOL     OW11623   4.869   6.504   0.622
 3575SOL    HW111624   4.961   6.465   0.612
 3575SOL    HW211625   4.875   6.588   0.675
 3576SOL     OW11626   0.312   3.185   0.187
 3576SOL    HW111627   0.400   3.138   0.178
 3576SOL    HW211628   0.250   3.128   0.242
 3577SOL     OW11629   2.211   2.628   5.433
 3577SOL    HW111630   2.173   2.685   5.506
 3577SOL    HW211631   2.277   2.681   5.379
 3578SOL     OW11632   3.101   2.818   6.791
 3578SOL    HW111633   3.137   2.726   6.771
 3578SOL    HW211634   3.177   2.883   6.794
 3579SOL     OW11635   0.227   3.652   2.762
 3579SOL    HW111636   0.127   3.658   2.756
 3579SOL    HW211637   0.254   3.557   2.770
 3580SOL     OW11638   0.258   3.860   1.573
 3580SOL    HW111639   0.320   3.850   1.651
 3580SOL    HW211640   0.186   3.792   1.578
 3581SOL     OW11641   0.627   0.268   2.563
 3581SOL    HW111642   0.576   0.228   2.639
 3581SOL    HW211643   0.708   0.315   2.597
 3582SOL     OW11644   3.479   3.686   5.863
 3582SOL    HW111645   3.477   3.784   5.843
 3582SOL    HW211646   3.431   3.669   5.949
 3583SOL     OW11647   0.267   4.604   1.368
 3583SOL    HW111648   0.185   4.659   1.353
 3583SOL    HW211649   0.258   4.555   1.455
 3584SOL     OW11650   5.239   4.590   4.899
 3584SOL    HW111651   5.326   4.638   4.890
 3584SOL    HW211652   5.216   4.546   4.812
 3585SOL     OW11653   2.683   1.967   4.271
 3585SOL    HW111654   2.691   1.926   4.362
 3585SOL    HW211655   2.774   1.982   4.233
 3586SOL     OW11656   6.476   3.065   3.666
 3586SOL    HW111657   6.511   3.020   3.749
 3586SOL    HW211658   6.426   2.998   3.610
 3587SOL     OW11659   3.681   6.719   6.593
 3587SOL    HW111660   3.665   6.818   6.593
 3587SOL    HW211661   3.672   6.684   6.686
 3588SOL     OW11662   6.813   4.472   4.625
 3588SOL    HW111663   6.743   4.408   4.594
 3588SOL    HW211664   6.835   4.453   4.721
 3589SOL     OW11665   0.021   6.834   6.335
 3589SOL    HW111666   6.967   6.900   6.356
 3589SOL    HW211667   0.061   6.799   6.420
 3590SOL     OW11668   0.297   4.472   0.830
 3590SOL    HW111669   0.326   4.378   0.813
 3590SOL    HW211670   0.292   4.489   0.928
 3591SOL     OW11671   5.329   2.322   6.464
 3591SOL    HW111672   5.376   2.276   6.390
 3591SOL    HW211673   5.238   2.352   6.433
 3592SOL     OW11674   1.590   0.253   1.766
 3592SOL    HW111675   1.639   0.244   1.680
 3592SOL    HW211676   1.620   0.182   1.829
 3593SOL     OW11677   5.460   3.140   5.720
 3593SOL    HW111678   5.542   3.114   5.769
 3593SOL    HW211679   5.419   3.058   5.678
 3594SOL     OW11680   4.033   5.194   4.141
 3594SOL    HW111681   4.095   5.174   4.066
 3594SOL    HW211682   4.057   5.138   4.221
 3595SOL     OW11683   5.694   5.927   6.060
 3595SOL    HW111684   5.765   5.861   6.035
 3595SOL    HW211685   5.629   5.937   5.985
 3596SOL     OW11686   3.569   1.089   3.214
 3596SOL    HW111687   3.469   1.084   3.209
 3596SOL    HW211688   3.597   1.185   3.202
 3597SOL     OW11689   2.239   3.407   5.480
 3597SOL    HW111690   2.274   3.325   5.434
 3597SOL    HW211691   2.159   3.441   5.431
 3598SOL     OW11692   1.742   5.546   4.603
 3598SOL    HW111693   1.763   5.523   4.508
 3598SOL    HW211694   1.647   5.524   4.623
 3599SOL     OW11695   4.995   1.494   5.503
 3599SOL    HW111696   4.960   1.447   5.584
 3599SOL    HW211697   4.920   1.514   5.440
 3600SOL     OW11698   3.334   3.425   0.765
 3600SOL    HW111699   3.310   3.401   0.859
 3600SOL    HW211700   3.257   3.405   0.704
 3601SOL     OW11701   4.848   0.873   5.120
 3601SOL    HW111702   4.851   0.922   5.208
 3601SOL    HW211703   4.894   0.785   5.130
 3602SOL     OW11704   2.432   2.261   1.209
 3602SOL    HW111705   2.456   2.350   1.171
 3602SOL    HW211706   2.406   2.199   1.135
 3603SOL     OW11707   3.284   1.026   5.760
 3603SOL    HW111708   3.327   1.103   5.808
 3603SOL    HW211709   3.198   1.056   5.719
 3604SOL     OW11710   6.659   0.228   3.521
 3604SOL    HW111711   6.582   0.284   3.490
 3604SOL    HW211712   6.733   0.234   3.454
 3605SOL     OW11713   0.859   5.735   3.595
 3605SOL    HW111714   0.863   5.805   3.523
 3605SOL    HW211715   0.781   5.752   3.654
 3606SOL     OW11716   2.390   6.736   1.362
 3606SOL    HW111717   2.373   6.686   1.447
 3606SOL    HW211718   2.304   6.774   1.327
 3607SOL     OW11719   4.934   2.364   2.759
 3607SOL    HW111720   4.892   2.330   2.843
 3607SOL    HW211721   4.987   2.447   2.778
 3608SOL     OW11722   3.454   2.113   4.619
 3608SOL    HW111723   3.433   2.134   4.714
 3608SOL    HW211724   3.550   2.085   4.611
 3609SOL     OW11725   2.278   6.906   4.051
 3609SOL    HW111726   2.369   6.906   4.011
 3609SOL    HW211727   2.269   6.985   4.112
 3610SOL     OW11728   2.226   6.745   4.845
 3610SOL    HW111729   2.271   6.798   4.917
 3610SOL    HW211730   2.239   6.790   4.757
 3611SOL     OW11731   5.474   4.669   3.398
 3611SOL    HW111732   5.517   4.641   3.312
 3611SOL    HW211733   5.386   4.622   3.409
 3612SOL     OW11734   5.762   1.518   6.775
 3612SOL    HW111735   5.783   1.486   6.867
 3612SOL    HW211736   5.730   1.613   6.779
 3613SOL     OW11737   3.117   5.050   0.797
 3613SOL    HW111738   3.159   5.101   0.872
 3613SOL    HW211739   3.148   5.088   0.710
 3614SOL     OW11740   3.753   4.140   6.180
 3614SOL    HW111741   3.839   4.186   6.202
 3614SOL    HW211742   3.751   4.118   6.083
 3615SOL     OW11743   6.090   2.551   5.372
 3615SOL    HW111744   6.156   2.609   5.420
 3615SOL    HW211745   6.138   2.498   5.301
 3616SOL     OW11746   1.564   1.776   6.605
 3616SOL    HW111747   1.659   1.784   6.572
 3616SOL    HW211748   1.540   1.680   6.613
 3617SOL     OW11749   3.846   6.326   6.438
 3617SOL    HW111750   3.849   6.424   6.418
 3617SOL    HW211751   3.863   6.274   6.355
 3618SOL     OW11752   1.873   3.796   4.746
 3618SOL    HW111753   1.881   3.818   4.843
 3618SOL    HW211754   1.939   3.724   4.723
 3619SOL     OW11755   6.123   2.970   1.285
 3619SOL    HW111756   6.197   2.905   1.272
 3619SOL    HW211757   6.042   2.938   1.235
 3620SOL     OW11758   6.123   6.490   5.104
 3620SOL    HW111759   6.189   6.429   5.148
 3620SOL    HW211760   6.144   6.585   5.129
 3621SOL     OW11761   3.157   3.246   3.583
 3621SOL    HW111762   3.063   3.279   3.598
 3621SOL    HW211763   3.157   3.182   3.506
 3622SOL     OW11764   0.932   0.001   0.129
 3622SOL    HW111765   0.983   6.953   0.075
 3622SOL    HW211766   0.842   6.984   0.151
 3623SOL     OW11767   0.981   4.716   6.076
 3623SOL    HW111768   0.978   4.683   6.170
 3623SOL    HW211769   1.075   4.718   6.044
 3624SOL     OW11770   3.248   0.684   2.541
 3624SOL    HW111771   3.246   0.584   2.531
 3624SOL    HW211772   3.165   0.714   2.588
 3625SOL     OW11773   0.110   2.312   0.356
 3625SOL    HW111774   0.022   2.323   0.403
 3625SOL    HW211775   0.131   2.396   0.306
 3626SOL     OW11776   1.040   2.137   4.842
 3626SOL    HW111777   0.976   2.213   4.856
 3626SOL    HW211778   1.117   2.169   4.786
 3627SOL     OW11779   4.075   2.280   1.608
 3627SOL    HW111780   4.143   2.212   1.579
 3627SOL    HW211781   3.984   2.249   1.583
 3628SOL     OW11782   6.800   1.868   1.937
 3628SOL    HW111783   6.717   1.812   1.939
 3628SOL    HW211784   6.827   1.890   2.031
 3629SOL     OW11785   1.548   1.583   4.585
 3629SOL    HW111786   1.630   1.633   4.615
 3629SOL    HW211787   1.564   1.545   4.494
 3630SOL     OW11788   6.751   2.339   3.705
 3630SOL    HW111789   6.670   2.292   3.740
 3630SOL    HW211790   6.732   2.437   3.696
 3631SOL     OW11791   1.528   6.757   2.047
 3631SOL    HW111792   1.438   6.715   2.059
 3631SOL    HW211793   1.585   6.737   2.126
 3632SOL     OW11794   4.903   3.599   1.341
 3632SOL    HW111795   4.820   3.549   1.316
 3632SOL    HW211796   4.958   3.543   1.404
 3633SOL     OW11797   3.826   2.999   6.041
 3633SOL    HW111798   3.730   2.986   6.068
 3633SOL    HW211799   3.856   2.921   5.986
 3634SOL     OW11800   3.144   5.229   6.557
 3634SOL    HW111801   3.161   5.257   6.651
 3634SOL    HW211802   3.046   5.228   6.540
 3635SOL     OW11803   3.011   0.338   1.421
 3635SOL    HW111804   3.001   0.317   1.324
 3635SOL    HW211805   2.939   0.402   1.448
 3636SOL     OW11806   1.330   4.903   6.717
 3636SOL    HW111807   1.302   4.807   6.712
 3636SOL    HW211808   1.429   4.908   6.716
 3637SOL     OW11809   6.945   2.579   6.651
 3637SOL    HW111810   6.981   2.486   6.662
 3637SOL    HW211811   6.876   2.596   6.722
 3638SOL     OW11812   5.525   4.452   2.690
 3638SOL    HW111813   5.471   4.534   2.677
 3638SOL    HW211814   5.536   4.404   2.603
 3639SOL     OW11815   3.278   3.763   4.628
 3639SOL    HW111816   3.365   3.724   4.598
 3639SOL    HW211817   3.266   3.748   4.726
 3640SOL     OW11818   5.539   1.896   0.724
 3640SOL    HW111819   5.457   1.946   0.697
 3640SOL    HW211820   5.531   1.801   0.694
 3641SOL     OW11821   6.379   3.847   2.418
 3641SOL    HW111822   6.443   3.775   2.444
 3641SOL    HW211823   6.321   3.814   2.343
 3642SOL     OW11824   6.309   2.958   6.439
 3642SOL    HW111825   6.322   3.044   6.488
 3642SOL    HW211826   6.237   2.905   6.483
 3643SOL     OW11827   3.725   5.515   5.214
 3643SOL    HW111828   3.699   5.587   5.150
 3643SOL    HW211829   3.794   5.456   5.172
 3644SOL     OW11830   2.879   0.673   2.214
 3644SOL    HW111831   2.951   0.725   2.260
 3644SOL    HW211832   2.800   0.666   2.274
 3645SOL     OW11833   1.825   4.089   3.944
 3645SOL    HW111834   1.780   4.054   3.861
 3645SOL    HW211835   1.910   4.135   3.919
 3646SOL     OW11836   2.221   4.151   4.740
 3646SOL    HW111837   2.171   4.082   4.793
 3646SOL    HW211838   2.320   4.137   4.752
 3647SOL     OW11839   3.167   0.146   0.410
 3647SOL    HW111840   3.205   0.209   0.342
 3647SOL    HW211841   3.084   0.104   0.372
 3648SOL     OW11842   4.210   5.481   3.651
 3648SOL    HW111843   4.271   5.520   3.582
 3648SOL    HW211844   4.244   5.504   3.742
 3649SOL     OW11845   5.871   2.517   0.189
 3649SOL    HW111846   5.843   2.422   0.205
 3649SOL    HW211847   5.797   2.578   0.216
 3650SOL     OW11848   5.612   5.212   0.116
 3650SOL    HW111849   5.566   5.295   0.146
 3650SOL    HW211850   5.564   5.132   0.152
 3651SOL     OW11851   0.804   2.758   5.882
 3651SOL    HW111852   0.857   2.714   5.954
 3651SOL    HW211853   0.770   2.847   5.915
 3652SOL     OW11854   4.713   1.564   2.343
 3652SOL    HW111855   4.795   1.505   2.340
 3652SOL    HW211856   4.635   1.510   2.372
 3653SOL     OW11857   0.625   1.590   1.338
 3653SOL    HW111858   0.544   1.555   1.292
 3653SOL    HW211859   0.598   1.650   1.413
 3654SOL     OW11860   5.446   0.247   1.004
 3654SOL    HW111861   5.371   0.234   0.939
 3654SOL    HW211862   5.502   0.324   0.976
 3655SOL     OW11863   1.943   2.316   4.330
 3655SOL    HW111864   1.886   2.389   4.367
 3655SOL    HW211865   2.033   2.353   4.307
 3656SOL     OW11866   7.007   6.776   1.968
 3656SOL    HW111867   0.055   6.733   1.907
 3656SOL    HW211868   6.999   6.873   1.945
 3657SOL     OW11869   4.817   6.020   4.866
 3657SOL    HW111870   4.903   5.971   4.851
 3657SOL    HW211871   4.796   6.076   4.786
 3658SOL     OW11872   1.486   4.716   6.135
 3658SOL    HW111873   1.448   4.751   6.221
 3658SOL    HW211874   1.583   4.697   6.147
 3659SOL     OW11875   6.752   1.429   6.365
 3659SOL    HW111876   6.844   1.441   6.326
 3659SOL    HW211877   6.760   1.382   6.453
 3660SOL     OW11878   5.536   5.203   6.115
 3660SOL    HW111879   5.530   5.116   6.066
 3660SOL    HW211880   5.444   5.242   6.124
 3661SOL     OW11881   6.941   1.981   4.778
 3661SOL    HW111882   6.901   2.071   4.795
 3661SOL    HW211883   0.022   1.990   4.769
 3662SOL     OW11884   3.014   1.085   5.611
 3662SOL    HW111885   2.936   1.023   5.609
 3662SOL    HW211886   3.004   1.153   5.539
 3663SOL     OW11887   2.306   2.397   6.472
 3663SOL    HW111888   2.395   2.395   6.519
 3663SOL    HW211889   2.241   2.338   6.520
 3664SOL     OW11890   4.092   1.000   2.477
 3664SOL    HW111891   4.135   1.088   2.496
 3664SOL    HW211892   4.163   0.930   2.466
 3665SOL     OW11893   0.913   5.853   6.016
 3665SOL    HW111894   0.886   5.949   6.022
 3665SOL    HW211895   1.013   5.847   6.011
 3666SOL     OW11896   2.093   2.371   5.011
 3666SOL    HW111897   2.035   2.378   4.930
 3666SOL    HW211898   2.175   2.428   4.998
 3667SOL     OW11899   1.805   0.626   2.571
 3667SOL    HW111900   1.716   0.582   2.582
 3667SOL    HW211901   1.877   0.562   2.598
 3668SOL     OW11902   0.260   0.777   1.782
 3668SOL    HW111903   0.270   0.826   1.696
 3668SOL    HW211904   0.185   0.817   1.835
 3669SOL     OW11905   0.001   1.110   3.889
 3669SOL    HW111906   0.085   1.075   3.930
 3669SOL    HW211907   6.965   1.158   3.958
 3670SOL     OW11908   3.352   5.508   1.867
 3670SOL    HW111909   3.437   5.509   1.920
 3670SOL    HW211910   3.284   5.453   1.915
 3671SOL     OW11911   6.511   7.013   3.540
 3671SOL    HW111912   6.537   0.089   3.560
 3671SOL    HW211913   6.539   6.954   3.616
 3672SOL     OW11914   4.238   6.532   2.651
 3672SOL    HW111915   4.141   6.514   2.637
 3672SOL    HW211916   4.280   6.557   2.564
 3673SOL     OW11917   4.457   6.001   1.041
 3673SOL    HW111918   4.495   5.957   1.122
 3673SOL    HW211919   4.368   6.040   1.062
 3674SOL     OW11920   1.305   4.959   6.158
 3674SOL    HW111921   1.289   4.877   6.213
 3674SOL    HW211922   1.401   4.987   6.166
 3675SOL     OW11923   0.946   0.981   3.799
 3675SOL    HW111924   1.007   1.047   3.756
 3675SOL    HW211925   0.856   1.022   3.812
 3676SOL     OW11926   3.965   1.524   3.916
 3676SOL    HW111927   3.971   1.446   3.977
 3676SOL    HW211928   3.959   1.492   3.821
 3677SOL     OW11929   2.284   0.319   4.265
 3677SOL    HW111930   2.258   0.391   4.329
 3677SOL    HW211931   2.249   0.340   4.174
 3678SOL     OW11932   1.244   0.776   3.529
 3678SOL    HW111933   1.155   0.755   3.570
 3678SOL    HW211934   1.237   0.861   3.477
 3679SOL     OW11935   4.662   0.796   2.485
 3679SOL    HW111936   4.598   0.811   2.560
 3679SOL    HW211937   4.647   0.705   2.447
 3680SOL     OW11938   4.082   1.575   4.337
 3680SOL    HW111939   4.145   1.533   4.272
 3680SOL    HW211940   3.992   1.534   4.327
 3681SOL     OW11941   1.833   6.128   4.702
 3681SOL    HW111942   1.927   6.149   4.675
 3681SOL    HW211943   1.829   6.039   4.746
 3682SOL     OW11944   5.593   1.604   1.393
 3682SOL    HW111945   5.509   1.615   1.447
 3682SOL    HW211946   5.669   1.649   1.440
 3683SOL     OW11947   5.801   1.328   5.738
 3683SOL    HW111948   5.736   1.253   5.748
 3683SOL    HW211949   5.885   1.307   5.788
 3684SOL     OW11950   2.289   6.673   5.579
 3684SOL    HW111951   2.323   6.739   5.512
 3684SOL    HW211952   2.322   6.699   5.670
 3685SOL     OW11953   2.008   6.581   5.616
 3685SOL    HW111954   2.089   6.629   5.583
 3685SOL    HW211955   1.941   6.648   5.650
 3686SOL     OW11956   1.066   4.421   3.891
 3686SOL    HW111957   1.089   4.325   3.908
 3686SOL    HW211958   1.022   4.459   3.973
 3687SOL     OW11959   5.681   5.548   4.420
 3687SOL    HW111960   5.748   5.613   4.457
 3687SOL    HW211961   5.600   5.597   4.389
 3688SOL     OW11962   5.836   2.762   0.724
 3688SOL    HW111963   5.788   2.688   0.676
 3688SOL    HW211964   5.900   2.722   0.790
 3689SOL     OW11965   1.757   6.467   5.852
 3689SOL    HW111966   1.728   6.550   5.804
 3689SOL    HW211967   1.677   6.423   5.893
 3690SOL     OW11968   5.111   5.160   1.219
 3690SOL    HW111969   5.031   5.138   1.275
 3690SOL    HW211970   5.120   5.093   1.146
 3691SOL     OW11971   1.971   2.305   0.422
 3691SOL    HW111972   2.038   2.233   0.440
 3691SOL    HW211973   1.881   2.275   0.453
 3692SOL     OW11974   0.599   3.462   5.819
 3692SOL    HW111975   0.572   3.554   5.790
 3692SOL    HW211976   0.660   3.422   5.750
 3693SOL     OW11977   0.006   1.382   2.397
 3693SOL    HW111978   6.938   1.403   2.351
 3693SOL    HW211979   0.059   1.465   2.409
 3694SOL     OW11980   6.578   1.053   1.816
 3694SOL    HW111981   6.671   1.029   1.845
 3694SOL    HW211982   6.518   1.059   1.896
 3695SOL     OW11983   6.303   3.045   2.250
 3695SOL    HW111984   6.299   3.062   2.152
 3695SOL    HW211985   6.398   3.053   2.281
 3696SOL     OW11986   4.126   0.933   4.554
 3696SOL    HW111987   4.203   0.880   4.522
 3696SOL    HW211988   4.042   0.901   4.510
 3697SOL     OW11989   0.021   6.223   3.252
 3697SOL    HW111990   0.120   6.207   3.244
 3697SOL    HW211991   6.990   6.147   3.209
 3698SOL     OW11992   1.749   0.530   2.983
 3698SOL    HW111993   1.667   0.578   2.952
 3698SOL    HW211994   1.770   0.455   2.919
 3699SOL     OW11995   2.494   2.551   3.753
 3699SOL    HW111996   2.463   2.643   3.729
 3699SOL    HW211997   2.507   2.546   3.852
 3700SOL     OW11998   1.253   4.713   4.382
 3700SOL    HW111999   1.159   4.680   4.385
 3700SOL    HW212000   1.309   4.660   4.445
 3701SOL     OW12001   2.076   1.110   2.710
 3701SOL    HW112002   2.007   1.176   2.678
 3701SOL    HW212003   2.060   1.021   2.666
 3702SOL     OW12004   5.230   4.334   3.705
 3702SOL    HW112005   5.226   4.241   3.741
 3702SOL    HW212006   5.295   4.338   3.629
 3703SOL     OW12007   1.137   1.444   4.189
 3703SOL    HW112008   1.150   1.500   4.108
 3703SOL    HW212009   1.048   1.465   4.230
 3704SOL     OW12010   6.460   2.288   0.844
 3704SOL    HW112011   6.480   2.338   0.928
 3704SOL    HW212012   6.521   2.320   0.771
 3705SOL     OW12013   5.178   4.860   2.891
 3705SOL    HW112014   5.203   4.804   2.970
 3705SOL    HW212015   5.248   4.851   2.820
 3706SOL     OW12016   0.630   3.633   0.460
 3706SOL    HW112017   0.604   3.544   0.423
 3706SOL    HW212018   0.616   3.633   0.559
 3707SOL     OW12019   1.214   5.231   3.814
 3707SOL    HW112020   1.236   5.272   3.903
 3707SOL    HW212021   1.221   5.300   3.743
 3708SOL     OW12022   3.529   6.731   0.788
 3708SOL    HW112023   3.567   6.816   0.825
 3708SOL    HW212024   3.597   6.658   0.792
 3709SOL     OW12025   1.630   1.492   2.277
 3709SOL    HW112026   1.541   1.527   2.249
 3709SOL    HW212027   1.673   1.557   2.340
 3710SOL     OW12028   6.787   4.798   5.703
 3710SOL    HW112029   6.807   4.849   5.620
 3710SOL    HW212030   6.763   4.862   5.776
 3711SOL     OW12031   1.695   5.940   4.266
 3711SOL    HW112032   1.672   6.011   4.333
 3711SOL    HW212033   1.622   5.872   4.264
 3712SOL     OW12034   2.147   5.082   4.565
 3712SOL    HW112035   2.090   5.031   4.502
 3712SOL    HW212036   2.129   5.052   4.659
 3713SOL     OW12037   5.789   6.822   4.431
 3713SOL    HW112038   5.797   6.808   4.529
 3713SOL    HW212039   5.697   6.800   4.401
 3714SOL     OW12040   0.578   4.515   1.035
 3714SOL    HW112041   0.485   4.486   1.056
 3714SOL    HW212042   0.578   4.611   1.006
 3715SOL     OW12043   5.671   5.490   3.446
 3715SOL    HW112044   5.756   5.472   3.396
 3715SOL    HW212045   5.631   5.576   3.413
 3716SOL     OW12046   5.049   5.667   4.047
 3716SOL    HW112047   5.018   5.760   4.025
 3716SOL    HW212048   5.048   5.611   3.964
 3717SOL     OW12049   4.425   1.278   0.951
 3717SOL    HW112050   4.383   1.347   1.009
 3717SOL    HW212051   4.496   1.229   1.003
 3718SOL     OW12052   6.978   0.196   5.690
 3718SOL    HW112053   6.978   0.292   5.719
 3718SOL    HW212054   6.886   0.158   5.699
 3719SOL     OW12055   3.686   4.051   6.437
 3719SOL    HW112056   3.702   4.113   6.513
 3719SOL    HW212057   3.718   4.093   6.352
 3720SOL     OW12058   0.237   2.835   1.424
 3720SOL    HW112059   0.311   2.875   1.369
 3720SOL    HW212060   0.275   2.769   1.488
 3721SOL     OW12061   6.426   5.260   6.017
 3721SOL    HW112062   6.437   5.294   6.110
 3721SOL    HW212063   6.366   5.321   5.965
 3722SOL     OW12064   4.770   6.405   3.350
 3722SOL    HW112065   4.786   6.501   3.330
 3722SOL    HW212066   4.836   6.373   3.418
 3723SOL     OW12067   4.776   3.899   0.174
 3723SOL    HW112068   4.847   3.930   0.111
 3723SOL    HW212069   4.715   3.835   0.128
 3724SOL     OW12070   1.467   4.720   5.023
 3724SOL    HW112071   1.523   4.794   4.984
 3724SOL    HW212072   1.441   4.657   4.950
 3725SOL     OW12073   0.790   5.683   6.749
 3725SOL    HW112074   0.754   5.595   6.721
 3725SOL    HW212075   0.815   5.680   6.846
 3726SOL     OW12076   6.390   3.857   4.521
 3726SOL    HW112077   6.326   3.812   4.583
 3726SOL    HW212078   6.349   3.863   4.430
 3727SOL     OW12079   6.500   3.734   3.839
 3727SOL    HW112080   6.455   3.811   3.794
 3727SOL    HW212081   6.433   3.684   3.894
 3728SOL     OW12082   3.247   3.041   0.173
 3728SOL    HW112083   3.167   2.996   0.133
 3728SOL    HW212084   3.305   2.974   0.219
 3729SOL     OW12085   0.451   0.198   5.384
 3729SOL    HW112086   0.461   0.129   5.312
 3729SOL    HW212087   0.461   0.155   5.473
 3730SOL     OW12088   3.633   5.896   4.445
 3730SOL    HW112089   3.543   5.932   4.420
 3730SOL    HW212090   3.653   5.920   4.540
 3731SOL     OW12091   0.447   2.145   6.770
 3731SOL    HW112092   0.484   2.079   6.835
 3731SOL    HW212093   0.383   2.099   6.708
 3732SOL     OW12094   3.081   1.976   6.576
 3732SOL    HW112095   3.169   1.958   6.622
 3732SOL    HW212096   3.035   2.052   6.622
 3733SOL     OW12097   2.076   1.410   3.560
 3733SOL    HW112098   2.047   1.407   3.465
 3733SOL    HW212099   2.175   1.427   3.564
 3734SOL     OW12100   4.321   6.929   0.691
 3734SOL    HW112101   4.398   6.917   0.754
 3734SOL    HW212102   4.305   6.844   0.642
 3735SOL     OW12103   4.312   6.844   2.248
 3735SOL    HW112104   4.226   6.874   2.289
 3735SOL    HW212105   4.341   6.758   2.290
 3736SOL     OW12106   6.683   1.314   1.429
 3736SOL    HW112107   6.686   1.361   1.517
 3736SOL    HW212108   6.720   1.222   1.439
 3737SOL     OW12109   0.005   2.891   2.928
 3737SOL    HW112110   0.050   2.931   3.007
 3737SOL    HW212111   6.942   2.840   2.957
 3738SOL     OW12112   6.800   6.688   1.222
 3738SOL    HW112113   6.858   6.622   1.173
 3738SOL    HW212114   6.780   6.766   1.163
 3739SOL     OW12115   2.929   3.869   0.650
 3739SOL    HW112116   2.942   3.852   0.747
 3739SOL    HW212117   2.972   3.956   0.626
 3740SOL     OW12118   5.102   5.248   6.475
 3740SOL    HW112119   5.125   5.209   6.386
 3740SOL    HW212120   5.066   5.341   6.463
 3741SOL     OW12121   5.021   3.675   6.943
 3741SOL    HW112122   5.116   3.660   6.971
 3741SOL    HW212123   5.001   3.773   6.946
 3742SOL     OW12124   4.176   5.566   0.064
 3742SOL    HW112125   4.268   5.583   0.028
 3742SOL    HW212126   4.157   5.468   0.064
 3743SOL     OW12127   4.175   3.242   1.612
 3743SOL    HW112128   4.240   3.315   1.630
 3743SOL    HW212129   4.122   3.224   1.695
 3744SOL     OW12130   0.479   0.051   2.168
 3744SOL    HW112131   0.535   0.101   2.102
 3744SOL    HW212132   0.393   0.100   2.182
 3745SOL     OW12133   4.862   3.811   2.135
 3745SOL    HW112134   4.813   3.896   2.119
 3745SOL    HW212135   4.893   3.773   2.047
 3746SOL     OW12136   6.285   0.468   4.660
 3746SOL    HW112137   6.217   0.402   4.693
 3746SOL    HW212138   6.238   0.550   4.626
 3747SOL     OW12139   3.403   6.416   5.851
 3747SOL    HW112140   3.397   6.496   5.910
 3747SOL    HW212141   3.409   6.445   5.756
 3748SOL     OW12142   5.519   1.526   3.009
 3748SOL    HW112143   5.547   1.489   3.097
 3748SOL    HW212144   5.421   1.546   3.010
 3749SOL     OW12145   0.063   6.742   2.827
 3749SOL    HW112146   0.092   6.770   2.918
 3749SOL    HW212147   0.135   6.686   2.785
 3750SOL     OW12148   5.513   4.019   0.574
 3750SOL    HW112149   5.573   3.940   0.580
 3750SOL    HW212150   5.567   4.103   0.586
 3751SOL     OW12151   2.209   3.933   2.383
 3751SOL    HW112152   2.182   3.843   2.348
 3751SOL    HW212153   2.205   4.000   2.310
 3752SOL     OW12154   0.753   6.367   6.644
 3752SOL    HW112155   0.663   6.394   6.678
 3752SOL    HW212156   0.752   6.271   6.617
 3753SOL     OW12157   6.461   6.481   4.622
 3753SOL    HW112158   6.378   6.525   4.588
 3753SOL    HW212159   6.500   6.424   4.550
 3754SOL     OW12160   6.639   6.217   1.319
 3754SOL    HW112161   6.738   6.232   1.322
 3754SOL    HW212162   6.591   6.303   1.333
 3755SOL     OW12163   5.363   3.965   3.336
 3755SOL    HW112164   5.326   3.951   3.427
 3755SOL    HW212165   5.288   3.979   3.271
 3756SOL     OW12166   3.152   0.655   6.737
 3756SOL    HW112167   3.232   0.683   6.790
 3756SOL    HW212168   3.177   0.643   6.641
 3757SOL     OW12169   2.861   5.329   6.692
 3757SOL    HW112170   2.767   5.308   6.720
 3757SOL    HW212171   2.896   5.403   6.749
 3758SOL     OW12172   2.503   1.311   4.274
 3758SOL    HW112173   2.496   1.232   4.336
 3758SOL    HW212174   2.412   1.335   4.240
 3759SOL     OW12175   4.847   4.856   6.240
 3759SOL    HW112176   4.876   4.893   6.151
 3759SOL    HW212177   4.818   4.931   6.299
 3760SOL     OW12178   1.391   2.458   4.792
 3760SOL    HW112179   1.461   2.449   4.721
 3760SOL    HW212180   1.324   2.527   4.764
 3761SOL     OW12181   0.116   6.160   4.242
 3761SOL    HW112182   0.098   6.170   4.144
 3761SOL    HW212183   0.031   6.138   4.290
 3762SOL     OW12184   0.469   4.001   0.744
 3762SOL    HW112185   0.423   4.089   0.759
 3762SOL    HW212186   0.411   3.927   0.779
 3763SOL     OW12187   6.907   3.216   6.806
 3763SOL    HW112188   6.872   3.173   6.723
 3763SOL    HW212189   6.932   3.311   6.786
 3764SOL     OW12190   2.672   6.714   3.511
 3764SOL    HW112191   2.592   6.766   3.541
 3764SOL    HW212192   2.702   6.747   3.422
 3765SOL     OW12193   5.879   0.740   4.545
 3765SOL    HW112194   5.857   0.646   4.571
 3765SOL    HW212195   5.968   0.765   4.585
 3766SOL     OW12196   1.135   0.586   4.586
 3766SOL    HW112197   1.081   0.615   4.507
 3766SOL    HW212198   1.223   0.633   4.586
 3767SOL     OW12199   1.577   5.136   1.079
 3767SOL    HW112200   1.625   5.193   1.012
 3767SOL    HW212201   1.557   5.190   1.160
 3768SOL     OW12202   4.796   6.633   0.197
 3768SOL    HW112203   4.724   6.685   0.151
 3768SOL    HW212204   4.841   6.691   0.265
 3769SOL     OW12205   4.568   6.503   5.496
 3769SOL    HW112206   4.648   6.480   5.440
 3769SOL    HW212207   4.597   6.536   5.585
 3770SOL     OW12208   1.973   1.755   6.771
 3770SOL    HW112209   1.967   1.740   6.673
 3770SOL    HW212210   1.974   1.853   6.789
 3771SOL     OW12211   5.480   2.409   5.974
 3771SOL    HW112212   5.384   2.408   5.945
 3771SOL    HW212213   5.527   2.330   5.935
 3772SOL     OW12214   5.522   1.223   1.737
 3772SOL    HW112215   5.456   1.266   1.676
 3772SOL    HW212216   5.576   1.294   1.783
 3773SOL     OW12217   6.591   2.594   6.340
 3773SOL    HW112218   6.644   2.534   6.400
 3773SOL    HW212219   6.561   2.674   6.393
 3774SOL     OW12220   0.386   0.749   1.179
 3774SOL    HW112221   0.483   0.760   1.155
 3774SOL    HW212222   0.379   0.694   1.263
 3775SOL     OW12223   5.837   4.041   3.874
 3775SOL    HW112224   5.895   4.122   3.887
 3775SOL    HW212225   5.765   4.040   3.943
 3776SOL     OW12226   2.447   3.582   1.072
 3776SOL    HW112227   2.419   3.660   1.015
 3776SOL    HW212228   2.417   3.497   1.029
 3777SOL     OW12229   2.360   4.361   4.438
 3777SOL    HW112230   2.407   4.422   4.501
 3777SOL    HW212231   2.408   4.359   4.351
 3778SOL     OW12232   2.991   5.758   1.771
 3778SOL    HW112233   3.067   5.787   1.830
 3778SOL    HW212234   3.028   5.710   1.691
 3779SOL     OW12235   2.731   5.098   6.172
 3779SOL    HW112236   2.801   5.062   6.111
 3779SOL    HW212237   2.773   5.119   6.261
 3780SOL     OW12238   3.168   6.295   5.323
 3780SOL    HW112239   3.208   6.204   5.318
 3780SOL    HW212240   3.141   6.325   5.232
 3781SOL     OW12241   2.928   6.046   4.601
 3781SOL    HW112242   3.005   6.040   4.664
 3781SOL    HW212243   2.960   6.077   4.512
 3782SOL     OW12244   2.268   1.424   3.957
 3782SOL    HW112245   2.180   1.417   3.911
 3782SOL    HW212246   2.289   1.520   3.976
 3783SOL     OW12247   5.314   6.223   5.389
 3783SOL    HW112248   5.369   6.154   5.342
 3783SOL    HW212249   5.264   6.180   5.464
 3784SOL     OW12250   5.018   1.137   3.042
 3784SOL    HW112251   5.026   1.057   2.982
 3784SOL    HW212252   5.109   1.164   3.074
 3785SOL     OW12253   2.250   1.783   1.263
 3785SOL    HW112254   2.272   1.841   1.342
 3785SOL    HW212255   2.195   1.836   1.198
 3786SOL     OW12256   3.337   5.065   3.009
 3786SOL    HW112257   3.367   5.095   2.918
 3786SOL    HW212258   3.263   4.999   2.999
 3787SOL     OW12259   4.116   1.285   3.663
 3787SOL    HW112260   4.059   1.209   3.694
 3787SOL    HW212261   4.061   1.368   3.656
 3788SOL     OW12262   5.638   2.985   2.485
 3788SOL    HW112263   5.545   2.999   2.450
 3788SOL    HW212264   5.666   3.064   2.538
 3789SOL     OW12265   1.688   5.339   3.423
 3789SOL    HW112266   1.638   5.261   3.461
 3789SOL    HW212267   1.742   5.309   3.345
 3790SOL     OW12268   2.097   3.036   3.722
 3790SOL    HW112269   2.035   2.996   3.791
 3790SOL    HW212270   2.090   3.135   3.725
 3791SOL     OW12271   4.554   6.950   1.405
 3791SOL    HW112272   4.571   6.965   1.502
 3791SOL    HW212273   4.474   7.003   1.377
 3792SOL     OW12274   6.304   6.879   5.452
 3792SOL    HW112275   6.240   6.823   5.503
 3792SOL    HW212276   6.284   6.976   5.468
 3793SOL     OW12277   2.153   1.066   2.983
 3793SOL    HW112278   2.142   1.156   3.025
 3793SOL    HW212279   2.129   1.072   2.886
 3794SOL     OW12280   4.453   5.977   1.765
 3794SOL    HW112281   4.474   6.071   1.789
 3794SOL    HW212282   4.525   5.940   1.706
 3795SOL     OW12283   5.389   6.742   6.463
 3795SOL    HW112284   5.433   6.763   6.376
 3795SOL    HW212285   5.343   6.824   6.498
 3796SOL     OW12286   1.402   2.716   1.751
 3796SOL    HW112287   1.445   2.800   1.719
 3796SOL    HW212288   1.314   2.704   1.705
 3797SOL     OW12289   0.428   4.859   3.025
 3797SOL    HW112290   0.443   4.932   2.958
 3797SOL    HW212291   0.466   4.773   2.989
 3798SOL     OW12292   1.885   5.257   2.258
 3798SOL    HW112293   1.904   5.251   2.356
 3798SOL    HW212294   1.968   5.288   2.210
 3799SOL     OW12295   1.781   0.708   5.403
 3799SOL    HW112296   1.781   0.650   5.485
 3799SOL    HW212297   1.757   0.802   5.428
 3800SOL     OW12298   4.682   2.384   4.246
 3800SOL    HW112299   4.706   2.481   4.242
 3800SOL    HW212300   4.660   2.360   4.341
 3801SOL     OW12301   0.099   6.679   6.147
 3801SOL    HW112302   0.017   6.647   6.099
 3801SOL    HW212303   0.073   6.744   6.218
 3802SOL     OW12304   1.245   1.585   5.442
 3802SOL    HW112305   1.262   1.495   5.402
 3802SOL    HW212306   1.282   1.656   5.382
 3803SOL     OW12307   3.443   1.084   1.807
 3803SOL    HW112308   3.522   1.108   1.751
 3803SOL    HW212309   3.468   1.087   1.904
 3804SOL     OW12310   5.126   2.278   4.382
 3804SOL    HW112311   5.193   2.216   4.341
 3804SOL    HW212312   5.035   2.238   4.372
 3805SOL     OW12313   2.878   4.235   1.611
 3805SOL    HW112314   2.900   4.324   1.653
 3805SOL    HW212315   2.805   4.191   1.664
 3806SOL     OW12316   2.605   1.926   0.206
 3806SOL    HW112317   2.538   1.996   0.182
 3806SOL    HW212318   2.558   1.838   0.218
 3807SOL     OW12319   1.477   6.647   3.242
 3807SOL    HW112320   1.451   6.717   3.175
 3807SOL    HW212321   1.554   6.680   3.296
 3808SOL     OW12322   3.492   0.281   1.622
 3808SOL    HW112323   3.426   0.248   1.689
 3808SOL    HW212324   3.577   0.229   1.630
 3809SOL     OW12325   5.558   1.349   6.651
 3809SOL    HW112326   5.627   1.419   6.669
 3809SOL    HW212327   5.508   1.372   6.568
 3810SOL     OW12328   3.411   2.974   5.075
 3810SOL    HW112329   3.334   2.949   5.016
 3810SOL    HW212330   3.446   2.893   5.121
 3811SOL     OW12331   0.535   5.266   5.173
 3811SOL    HW112332   0.581   5.269   5.263
 3811SOL    HW212333   0.494   5.355   5.153
 3812SOL     OW12334   5.756   1.615   5.283
 3812SOL    HW112335   5.681   1.580   5.228
 3812SOL    HW212336   5.748   1.582   5.377
 3813SOL     OW12337   3.092   5.270   0.474
 3813SOL    HW112338   3.098   5.286   0.573
 3813SOL    HW212339   3.172   5.309   0.429
 3814SOL     OW12340   0.277   6.094   2.257
 3814SOL    HW112341   0.361   6.045   2.233
 3814SOL    HW212342   0.241   6.141   2.176
 3815SOL     OW12343   5.184   2.042   1.578
 3815SOL    HW112344   5.239   2.006   1.503
 3815SOL    HW212345   5.114   1.975   1.603
 3816SOL     OW12346   1.213   0.333   1.379
 3816SOL    HW112347   1.265   0.272   1.318
 3816SOL    HW212348   1.266   0.350   1.462
 3817SOL     OW12349   5.057   2.026   5.103
 3817SOL    HW112350   5.148   2.044   5.065
 3817SOL    HW212351   5.062   1.947   5.165
 3818SOL     OW12352   4.555   5.554   1.737
 3818SOL    HW112353   4.601   5.480   1.786
 3818SOL    HW212354   4.485   5.515   1.677
 3819SOL     OW12355   5.331   4.933   0.605
 3819SOL    HW112356   5.360   5.025   0.631
 3819SOL    HW212357   5.248   4.939   0.549
 3820SOL     OW12358   4.929   6.410   4.635
 3820SOL    HW112359   4.876   6.341   4.684
 3820SOL    HW212360   4.938   6.383   4.539
 3821SOL     OW12361   1.431   3.840   2.047
 3821SOL    HW112362   1.361   3.910   2.061
 3821SOL    HW212363   1.404   3.781   1.971
 3822SOL     OW12364   2.924   5.879   1.322
 3822SOL    HW112365   2.966   5.902   1.410
 3822SOL    HW212366   2.887   5.786   1.326
 3823SOL     OW12367   3.282   2.687   5.608
 3823SOL    HW112368   3.219   2.610   5.612
 3823SOL    HW212369   3.250   2.760   5.667
 3824SOL     OW12370   6.889   2.323   5.852
 3824SOL    HW112371   6.983   2.324   5.818
 3824SOL    HW212372   6.848   2.414   5.838
 3825SOL     OW12373   6.680   6.692   6.734
 3825SOL    HW112374   6.772   6.659   6.715
 3825SOL    HW212375   6.685   6.781   6.780
 3826SOL     OW12376   6.617   3.250   1.729
 3826SOL    HW112377   6.555   3.173   1.713
 3826SOL    HW212378   6.710   3.215   1.742
 3827SOL     OW12379   3.970   3.186   1.212
 3827SOL    HW112380   3.927   3.097   1.227
 3827SOL    HW212381   3.972   3.236   1.298
 3828SOL     OW12382   4.500   1.338   3.074
 3828SOL    HW112383   4.542   1.413   3.023
 3828SOL    HW212384   4.572   1.278   3.109
 3829SOL     OW12385   2.179   4.904   4.234
 3829SOL    HW112386   2.257   4.872   4.287
 3829SOL    HW212387   2.167   4.846   4.154
 3830SOL     OW12388   2.751   0.843   5.326
 3830SOL    HW112389   2.763   0.749   5.297
 3830SOL    HW212390   2.795   0.905   5.261
 3831SOL     OW12391   3.958   1.591   2.126
 3831SOL    HW112392   4.010   1.647   2.190
 3831SOL    HW212393   4.010   1.509   2.103
 3832SOL     OW12394   6.656   0.677   2.179
 3832SOL    HW112395   6.634   0.770   2.151
 3832SOL    HW212396   6.718   0.636   2.113
 3833SOL     OW12397   1.626   4.609   0.157
 3833SOL    HW112398   1.649   4.600   0.254
 3833SOL    HW212399   1.635   4.521   0.112
 3834SOL     OW12400   2.842   1.995   6.920
 3834SOL    HW112401   2.848   2.027   7.014
 3834SOL    HW212402   2.755   2.026   6.880
 3835SOL     OW12403   3.623   5.136   5.289
 3835SOL    HW112404   3.654   5.073   5.361
 3835SOL    HW212405   3.685   5.130   5.211
 3836SOL     OW12406   0.880   4.199   6.337
 3836SOL    HW112407   0.851   4.137   6.264
 3836SOL    HW212408   0.960   4.162   6.383
 3837SOL     OW12409   3.450   3.032   0.631
 3837SOL    HW112410   3.442   3.011   0.728
 3837SOL    HW212411   3.544   3.012   0.600
 3838SOL     OW12412   6.123   3.058   5.133
 3838SOL    HW112413   6.080   3.078   5.045
 3838SOL    HW212414   6.060   3.083   5.207
 3839SOL     OW12415   5.935   6.664   5.956
 3839SOL    HW112416   6.014   6.690   6.012
 3839SOL    HW212417   5.916   6.566   5.968
 3840SOL     OW12418   1.448   1.067   3.970
 3840SOL    HW112419   1.521   1.001   3.954
 3840SOL    HW212420   1.387   1.033   4.041
 3841SOL     OW12421   0.487   3.732   5.078
 3841SOL    HW112422   0.575   3.727   5.126
 3841SOL    HW212423   0.501   3.712   4.981
 3842SOL     OW12424   0.935   4.785   6.650
 3842SOL    HW112425   1.003   4.716   6.671
 3842SOL    HW212426   0.940   4.859   6.718
 3843SOL     OW12427   5.586   2.728   1.083
 3843SOL    HW112428   5.682   2.713   1.108
 3843SOL    HW212429   5.569   2.826   1.074
 3844SOL     OW12430   1.959   4.633   6.505
 3844SOL    HW112431   1.913   4.654   6.419
 3844SOL    HW212432   2.055   4.612   6.488
 3845SOL     OW12433   3.413   4.143   3.997
 3845SOL    HW112434   3.365   4.134   3.909
 3845SOL    HW212435   3.463   4.229   3.999
 3846SOL     OW12436   0.303   4.901   4.930
 3846SOL    HW112437   0.272   4.856   4.846
 3846SOL    HW212438   0.233   4.965   4.961
 3847SOL     OW12439   0.817   0.222   0.467
 3847SOL    HW112440   0.749   0.253   0.401
 3847SOL    HW212441   0.908   0.253   0.438
 3848SOL     OW12442   2.745   5.524   0.969
 3848SOL    HW112443   2.674   5.594   0.966
 3848SOL    HW212444   2.705   5.437   0.997
 3849SOL     OW12445   1.000   2.129   5.936
 3849SOL    HW112446   1.054   2.213   5.947
 3849SOL    HW212447   1.051   2.065   5.878
 3850SOL     OW12448   2.824   3.876   1.533
 3850SOL    HW112449   2.892   3.843   1.598
 3850SOL    HW212450   2.850   3.967   1.500
 3851SOL     OW12451   2.273   2.302   2.286
 3851SOL    HW112452   2.176   2.324   2.283
 3851SOL    HW212453   2.326   2.382   2.257
 3852SOL     OW12454   3.759   0.892   4.735
 3852SOL    HW112455   3.817   0.954   4.788
 3852SOL    HW212456   3.707   0.833   4.797
 3853SOL     OW12457   1.448   3.075   1.857
 3853SOL    HW112458   1.508   3.055   1.779
 3853SOL    HW212459   1.476   3.020   1.936
 3854SOL     OW12460   1.273   3.374   4.192
 3854SOL    HW112461   1.347   3.381   4.125
 3854SOL    HW212462   1.203   3.310   4.159
 3855SOL     OW12463   6.768   2.464   5.551
 3855SOL    HW112464   6.737   2.511   5.468
 3855SOL    HW212465   6.862   2.435   5.539
 3856SOL     OW12466   0.803   6.137   5.955
 3856SOL    HW112467   0.716   6.179   5.979
 3856SOL    HW212468   0.796   6.095   5.864
 3857SOL     OW12469   0.558   6.953   5.309
 3857SOL    HW112470   0.494   6.966   5.233
 3857SOL    HW212471   0.623   6.881   5.286
 3858SOL     OW12472   2.345   5.399   6.958
 3858SOL    HW112473   2.418   5.393   0.007
 3858SOL    HW212474   2.384   5.405   6.866
 3859SOL     OW12475   0.310   2.698   2.365
 3859SOL    HW112476   0.239   2.759   2.330
 3859SOL    HW212477   0.356   2.653   2.289
 3860SOL     OW12478   2.197   6.501   5.343
 3860SOL    HW112479   2.195   6.596   5.313
 3860SOL    HW212480   2.147   6.444   5.277
 3861SOL     OW12481   4.225   4.503   0.747
 3861SOL    HW112482   4.289   4.426   0.755
 3861SOL    HW212483   4.215   4.547   0.836
 3862SOL     OW12484   1.168   5.890   5.962
 3862SOL    HW112485   1.261   5.854   5.973
 3862SOL    HW212486   1.167   5.988   5.982
 3863SOL     OW12487   3.234   3.104   1.366
 3863SOL    HW112488   3.143   3.146   1.368
 3863SOL    HW212489   3.240   3.035   1.438
 3864SOL     OW12490   3.718   2.303   0.288
 3864SOL    HW112491   3.721   2.226   0.352
 3864SOL    HW212492   3.779   2.375   0.320
 3865SOL     OW12493   4.688   0.141   2.697
 3865SOL    HW112494   4.621   0.168   2.767
 3865SOL    HW212495   4.779   0.134   2.739
 3866SOL     OW12496   4.193   6.560   6.489
 3866SOL    HW112497   4.250   6.545   6.569
 3866SOL    HW212498   4.150   6.650   6.495
 3867SOL     OW12499   1.788   3.049   3.673
 3867SOL    HW112500   1.774   2.981   3.745
 3867SOL    HW212501   1.708   3.050   3.612
 3868SOL     OW12502   1.767   5.907   2.552
 3868SOL    HW112503   1.686   5.861   2.591
 3868SOL    HW212504   1.792   5.985   2.610
 3869SOL     OW12505   1.191   2.148   3.324
 3869SOL    HW112506   1.107   2.161   3.271
 3869SOL    HW212507   1.251   2.083   3.278
 3870SOL     OW12508   2.952   4.961   0.410
 3870SOL    HW112509   2.930   5.058   0.413
 3870SOL    HW212510   2.961   4.926   0.503
 3871SOL     OW12511   2.542   1.001   3.709
 3871SOL    HW112512   2.615   1.021   3.774
 3871SOL    HW212513   2.455   0.992   3.759
 3872SOL     OW12514   4.289   3.313   0.206
 3872SOL    HW112515   4.256   3.267   0.123
 3872SOL    HW212516   4.311   3.245   0.276
 3873SOL     OW12517   5.283   5.060   2.054
 3873SOL    HW112518   5.261   5.039   1.959
 3873SOL    HW212519   5.199   5.073   2.106
 3874SOL     OW12520   4.350   6.658   6.143
 3874SOL    HW112521   4.347   6.687   6.047
 3874SOL    HW212522   4.290   6.580   6.157
 3875SOL     OW12523   2.149   4.347   0.638
 3875SOL    HW112524   2.194   4.383   0.721
 3875SOL    HW212525   2.211   4.284   0.592
 3876SOL     OW12526   4.904   4.060   2.451
 3876SOL    HW112527   4.955   4.075   2.366
 3876SOL    HW212528   4.829   4.126   2.457
 3877SOL     OW12529   5.276   1.251   2.155
 3877SOL    HW112530   5.283   1.298   2.067
 3877SOL    HW212531   5.332   1.298   2.223
 3878SOL     OW12532   3.215   6.030   5.256
 3878SOL    HW112533   3.228   5.978   5.171
 3878SOL    HW212534   3.268   5.986   5.329
 3879SOL     OW12535   3.939   6.024   1.006
 3879SOL    HW112536   3.917   6.114   0.969
 3879SOL    HW212537   4.034   6.023   1.037
 3880SOL     OW12538   5.337   2.859   4.044
 3880SOL    HW112539   5.412   2.806   4.083
 3880SOL    HW212540   5.326   2.836   3.948
 3881SOL     OW12541   0.924   4.711   0.744
 3881SOL    HW112542   0.972   4.717   0.831
 3881SOL    HW212543   0.986   4.738   0.670
 3882SOL     OW12544   0.245   0.187   6.205
 3882SOL    HW112545   0.286   0.099   6.229
 3882SOL    HW212546   0.302   0.233   6.137
 3883SOL     OW12547   3.250   0.845   5.977
 3883SOL    HW112548   3.283   0.890   5.894
 3883SOL    HW212549   3.316   0.858   6.051
 3884SOL     OW12550   1.825   4.756   5.715
 3884SOL    HW112551   1.732   4.724   5.732
 3884SOL    HW212552   1.888   4.708   5.775
 3885SOL     OW12553   0.468   1.755   4.787
 3885SOL    HW112554   0.486   1.759   4.689
 3885SOL    HW212555   0.516   1.676   4.827
 3886SOL     OW12556   0.001   6.014   5.286
 3886SOL    HW112557   0.036   6.104   5.310
 3886SOL    HW212558   0.033   5.947   5.353
 3887SOL     OW12559   4.950   2.310   5.207
 3887SOL    HW112560   4.977   2.357   5.124
 3887SOL    HW212561   4.976   2.213   5.201
 3888SOL     OW12562   5.745   1.744   1.565
 3888SOL    HW112563   5.741   1.752   1.664
 3888SOL    HW212564   5.735   1.835   1.524
 3889SOL     OW12565   0.175   5.446   6.825
 3889SOL    HW112566   0.150   5.529   6.875
 3889SOL    HW212567   0.269   5.420   6.849
 3890SOL     OW12568   6.039   3.734   1.343
 3890SOL    HW112569   6.003   3.822   1.372
 3890SOL    HW212570   6.002   3.662   1.402
 3891SOL     OW12571   5.588   5.070   5.864
 3891SOL    HW112572   5.535   4.989   5.839
 3891SOL    HW212573   5.661   5.083   5.796
 3892SOL     OW12574   5.445   6.580   3.945
 3892SOL    HW112575   5.465   6.678   3.941
 3892SOL    HW212576   5.354   6.563   3.907
 3893SOL     OW12577   2.929   5.922   3.845
 3893SOL    HW112578   2.972   6.010   3.824
 3893SOL    HW212579   2.912   5.917   3.944
 3894SOL     OW12580   5.099   4.703   0.069
 3894SOL    HW112581   5.041   4.763   0.013
 3894SOL    HW212582   5.041   4.638   0.119
 3895SOL     OW12583   1.798   1.806   5.789
 3895SOL    HW112584   1.879   1.839   5.839
 3895SOL    HW212585   1.788   1.859   5.705
 3896SOL     OW12586   6.711   2.534   5.810
 3896SOL    HW112587   6.720   2.632   5.830
 3896SOL    HW212588   6.701   2.521   5.712
 3897SOL     OW12589   3.655   6.464   2.432
 3897SOL    HW112590   3.680   6.367   2.430
 3897SOL    HW212591   3.710   6.512   2.500
 3898SOL     OW12592   3.517   4.182   4.692
 3898SOL    HW112593   3.478   4.273   4.696
 3898SOL    HW212594   3.452   4.119   4.647
 3899SOL     OW12595   5.332   1.621   5.211
 3899SOL    HW112596   5.397   1.587   5.143
 3899SOL    HW212597   5.239   1.610   5.177
 3900SOL     OW12598   6.833   2.362   4.178
 3900SOL    HW112599   6.812   2.273   4.137
 3900SOL    HW212600   6.748   2.415   4.187
 3901SOL     OW12601   2.609   5.712   5.051
 3901SOL    HW112602   2.515   5.677   5.047
 3901SOL    HW212603   2.673   5.639   5.025
 3902SOL     OW12604   3.990   4.832   1.705
 3902SOL    HW112605   3.904   4.871   1.738
 3902SOL    HW212606   3.988   4.732   1.717
 3903SOL     OW12607   3.962   2.774   6.275
 3903SOL    HW112608   3.891   2.842   6.295
 3903SOL    HW212609   4.000   2.738   6.360
 3904SOL     OW12610   2.502   6.065   0.574
 3904SOL    HW112611   2.439   6.086   0.499
 3904SOL    HW212612   2.566   5.994   0.544
 3905SOL     OW12613   0.409   0.422   5.526
 3905SOL    HW112614   0.430   0.340   5.474
 3905SOL    HW212615   0.325   0.408   5.579
 3906SOL     OW12616   0.998   5.823   5.019
 3906SOL    HW112617   1.075   5.874   5.057
 3906SOL    HW212618   0.921   5.827   5.083
 3907SOL     OW12619   1.029   1.251   4.858
 3907SOL    HW112620   0.959   1.275   4.790
 3907SOL    HW212621   1.077   1.169   4.828
 3908SOL     OW12622   2.484   0.814   4.219
 3908SOL    HW112623   2.539   0.840   4.140
 3908SOL    HW212624   2.528   0.739   4.268
 3909SOL     OW12625   5.351   2.378   1.652
 3909SOL    HW112626   5.404   2.372   1.568
 3909SOL    HW212627   5.407   2.346   1.729
 3910SOL     OW12628   3.211   2.647   1.308
 3910SOL    HW112629   3.221   2.746   1.304
 3910SOL    HW212630   3.299   2.604   1.290
 3911SOL     OW12631   6.560   0.989   1.345
 3911SOL    HW112632   6.533   1.056   1.276
 3911SOL    HW212633   6.534   0.897   1.314
 3912SOL     OW12634   4.215   3.216   6.985
 3912SOL    HW112635   4.292   3.216   6.921
 3912SOL    HW212636   4.168   3.128   6.980
 3913SOL     OW12637   4.171   5.877   1.330
 3913SOL    HW112638   4.209   5.952   1.383
 3913SOL    HW212639   4.219   5.870   1.243
 3914SOL     OW12640   6.447   1.298   0.025
 3914SOL    HW112641   6.362   1.350   0.019
 3914SOL    HW212642   6.494   1.320   0.110
 3915SOL     OW12643   4.932   6.008   5.216
 3915SOL    HW112644   4.937   5.939   5.288
 3915SOL    HW212645   4.876   6.084   5.247
 3916SOL     OW12646   2.439   1.926   2.891
 3916SOL    HW112647   2.430   2.011   2.943
 3916SOL    HW212648   2.397   1.850   2.943
 3917SOL     OW12649   3.530   4.669   1.126
 3917SOL    HW112650   3.436   4.656   1.158
 3917SOL    HW212651   3.593   4.666   1.204
 3918SOL     OW12652   4.789   0.928   6.660
 3918SOL    HW112653   4.717   0.889   6.717
 3918SOL    HW212654   4.812   0.864   6.587
 3919SOL     OW12655   4.472   6.255   2.341
 3919SOL    HW112656   4.443   6.253   2.245
 3919SOL    HW212657   4.478   6.162   2.376
 3920SOL     OW12658   3.408   1.585   5.326
 3920SOL    HW112659   3.379   1.675   5.359
 3920SOL    HW212660   3.394   1.517   5.398
 3921SOL     OW12661   0.112   2.767   6.766
 3921SOL    HW112662   0.126   2.855   6.721
 3921SOL    HW212663   0.080   2.700   6.699
 3922SOL     OW12664   4.790   4.070   2.997
 3922SOL    HW112665   4.808   4.075   2.899
 3922SOL    HW212666   4.774   4.162   3.032
 3923SOL     OW12667   5.054   1.569   2.046
 3923SOL    HW112668   5.023   1.523   1.963
 3923SOL    HW212669   5.147   1.604   2.032
 3924SOL     OW12670   5.693   5.421   4.077
 3924SOL    HW112671   5.689   5.331   4.119
 3924SOL    HW212672   5.624   5.427   4.004
 3925SOL     OW12673   5.528   5.300   1.089
 3925SOL    HW112674   5.602   5.327   1.151
 3925SOL    HW212675   5.560   5.310   0.994
 3926SOL     OW12676   0.929   5.352   4.648
 3926SOL    HW112677   1.028   5.356   4.661
 3926SOL    HW212678   0.888   5.439   4.675
 3927SOL     OW12679   5.842   1.847   6.069
 3927SOL    HW112680   5.917   1.854   6.003
 3927SOL    HW212681   5.768   1.793   6.030
 3928SOL     OW12682   3.473   5.795   2.021
 3928SOL    HW112683   3.545   5.862   2.032
 3928SOL    HW212684   3.503   5.707   2.059
 3929SOL     OW12685   0.672   2.108   5.530
 3929SOL    HW112686   0.643   2.130   5.437
 3929SOL    HW212687   0.650   2.183   5.591
 3930SOL     OW12688   2.469   4.438   4.171
 3930SOL    HW112689   2.399   4.497   4.210
 3930SOL    HW212690   2.427   4.366   4.116
 3931SOL     OW12691   1.742   2.198   0.525
 3931SOL    HW112692   1.751   2.099   0.538
 3931SOL    HW212693   1.646   2.224   0.535
 3932SOL     OW12694   2.233   4.413   3.636
 3932SOL    HW112695   2.295   4.489   3.617
 3932SOL    HW212696   2.139   4.440   3.618
 3933SOL     OW12697   1.507   6.365   1.451
 3933SOL    HW112698   1.423   6.348   1.502
 3933SOL    HW212699   1.491   6.434   1.381
 3934SOL     OW12700   1.205   6.878   1.420
 3934SOL    HW112701   1.233   6.946   1.486
 3934SOL    HW212702   1.233   6.787   1.451
 3935SOL     OW12703   6.845   3.831   5.667
 3935SOL    HW112704   6.800   3.773   5.735
 3935SOL    HW212705   6.879   3.776   5.592
 3936SOL     OW12706   6.655   4.338   5.343
 3936SOL    HW112707   6.727   4.279   5.308
 3936SOL    HW212708   6.569   4.316   5.297
 3937SOL     OW12709   0.723   6.278   1.321
 3937SOL    HW112710   0.772   6.241   1.242
 3937SOL    HW212711   0.737   6.377   1.325
 3938SOL     OW12712   0.882   3.288   1.613
 3938SOL    HW112713   0.887   3.196   1.651
 3938SOL    HW212714   0.787   3.310   1.589
 3939SOL     OW12715   0.221   0.801   2.919
 3939SOL    HW112716   0.209   0.887   2.968
 3939SOL    HW212717   0.311   0.763   2.940
 3940SOL     OW12718   3.152   6.264   0.317
 3940SOL    HW112719   3.228   6.319   0.354
 3940SOL    HW212720   3.065   6.300   0.352
 3941SOL     OW12721   5.214   5.748   2.227
 3941SOL    HW112722   5.169   5.790   2.306
 3941SOL    HW212723   5.151   5.745   2.150
 3942SOL     OW12724   6.824   6.228   5.543
 3942SOL    HW112725   6.914   6.249   5.583
 3942SOL    HW212726   6.770   6.312   5.538
 3943SOL     OW12727   2.206   2.892   0.323
 3943SOL    HW112728   2.226   2.880   0.226
 3943SOL    HW212729   2.290   2.877   0.376
 3944SOL     OW12730   5.091   2.780   6.856
 3944SOL    HW112731   5.021   2.758   6.925
 3944SOL    HW212732   5.126   2.696   6.816
 3945SOL     OW12733   5.664   0.073   3.963
 3945SOL    HW112734   5.611   0.078   4.048
 3945SOL    HW212735   5.753   0.116   3.977
 3946SOL     OW12736   7.016   3.806   0.770
 3946SOL    HW112737   0.006   3.789   0.672
 3946SOL    HW212738   6.940   3.869   0.786
 3947SOL     OW12739   6.163   5.760   1.965
 3947SOL    HW112740   6.239   5.824   1.973
 3947SOL    HW212741   6.077   5.808   1.981
 3948SOL     OW12742   1.435   2.672   5.816
 3948SOL    HW112743   1.512   2.736   5.811
 3948SOL    HW212744   1.454   2.601   5.883
 3949SOL     OW12745   5.898   0.257   2.484
 3949SOL    HW112746   5.815   0.313   2.478
 3949SOL    HW212747   5.875   0.170   2.528
 3950SOL     OW12748   2.845   4.688   1.663
 3950SOL    HW112749   2.866   4.661   1.757
 3950SOL    HW212750   2.833   4.606   1.607
 3951SOL     OW12751   0.680   2.681   4.571
 3951SOL    HW112752   0.679   2.770   4.525
 3951SOL    HW212753   0.738   2.687   4.652
 3952SOL     OW12754   5.373   4.105   0.325
 3952SOL    HW112755   5.420   4.040   0.385
 3952SOL    HW212756   5.350   4.188   0.376
 3953SOL     OW12757   3.322   3.322   6.698
 3953SOL    HW112758   3.304   3.269   6.781
 3953SOL    HW212759   3.264   3.403   6.697
 3954SOL     OW12760   0.737   3.121   5.067
 3954SOL    HW112761   0.756   3.024   5.056
 3954SOL    HW212762   0.732   3.143   5.165
 3955SOL     OW12763   6.712   3.419   0.516
 3955SOL    HW112764   6.663   3.505   0.526
 3955SOL    HW212765   6.664   3.360   0.451
 3956SOL     OW12766   6.860   2.778   5.914
 3956SOL    HW112767   6.822   2.812   6.001
 3956SOL    HW212768   6.948   2.822   5.897
 3957SOL     OW12769   0.902   1.333   2.858
 3957SOL    HW112770   0.866   1.352   2.949
 3957SOL    HW212771   0.852   1.385   2.790
 3958SOL     OW12772   5.309   6.565   0.064
 3958SOL    HW112773   5.224   6.561   0.118
 3958SOL    HW212774   5.377   6.504   0.106
 3959SOL     OW12775   2.330   6.297   1.314
 3959SOL    HW112776   2.260   6.230   1.339
 3959SOL    HW212777   2.421   6.256   1.327
 3960SOL     OW12778   5.307   3.290   1.571
 3960SOL    HW112779   5.227   3.341   1.603
 3960SOL    HW212780   5.277   3.200   1.537
 3961SOL     OW12781   5.615   0.437   0.878
 3961SOL    HW112782   5.574   0.522   0.912
 3961SOL    HW212783   5.558   0.400   0.805
 3962SOL     OW12784   0.913   6.769   5.370
 3962SOL    HW112785   0.848   6.694   5.367
 3962SOL    HW212786   0.999   6.742   5.326
 3963SOL     OW12787   4.605   4.793   2.467
 3963SOL    HW112788   4.516   4.773   2.427
 3963SOL    HW212789   4.622   4.729   2.543
 3964SOL     OW12790   6.148   6.183   6.585
 3964SOL    HW112791   6.096   6.230   6.656
 3964SOL    HW212792   6.126   6.222   6.495
 3965SOL     OW12793   3.709   2.930   1.060
 3965SOL    HW112794   3.649   3.008   1.045
 3965SOL    HW212795   3.655   2.851   1.091
 3966SOL     OW12796   6.356   3.953   5.306
 3966SOL    HW112797   6.427   4.008   5.350
 3966SOL    HW212798   6.279   3.941   5.369
 3967SOL     OW12799   1.646   6.928   6.715
 3967SOL    HW112800   1.628   0.007   6.721
 3967SOL    HW212801   1.563   6.877   6.741
 3968SOL     OW12802   5.044   0.834   1.556
 3968SOL    HW112803   5.117   0.877   1.608
 3968SOL    HW212804   4.956   0.850   1.602
 3969SOL     OW12805   0.718   6.191   1.595
 3969SOL    HW112806   0.620   6.181   1.612
 3969SOL    HW212807   0.737   6.171   1.499
 3970SOL     OW12808   4.613   4.281   4.231
 3970SOL    HW112809   4.610   4.250   4.326
 3970SOL    HW212810   4.673   4.220   4.178
 3971SOL     OW12811   0.985   6.028   3.572
 3971SOL    HW112812   1.014   6.096   3.639
 3971SOL    HW212813   1.029   6.047   3.484
 3972SOL     OW12814   1.053   0.444   6.702
 3972SOL    HW112815   0.977   0.486   6.751
 3972SOL    HW212816   1.139   0.488   6.728
 3973SOL     OW12817   3.491   3.164   3.595
 3973SOL    HW112818   3.499   3.208   3.684
 3973SOL    HW212819   3.394   3.146   3.576
 3974SOL     OW12820   5.461   0.072   6.351
 3974SOL    HW112821   5.371   0.032   6.335
 3974SOL    HW212822   5.529   0.024   6.296
 3975SOL     OW12823   6.851   6.458   5.325
 3975SOL    HW112824   6.854   6.514   5.407
 3975SOL    HW212825   6.783   6.385   5.336
 3976SOL     OW12826   1.029   3.069   0.179
 3976SOL    HW112827   1.074   3.145   0.228
 3976SOL    HW212828   1.084   3.044   0.099
 3977SOL     OW12829   3.529   5.141   6.061
 3977SOL    HW112830   3.543   5.089   5.977
 3977SOL    HW212831   3.616   5.151   6.109
 3978SOL     OW12832   6.348   3.970   6.557
 3978SOL    HW112833   6.296   3.912   6.619
 3978SOL    HW212834   6.337   4.066   6.585
 3979SOL     OW12835   1.336   6.579   2.871
 3979SOL    HW112836   1.249   6.531   2.860
 3979SOL    HW212837   1.344   6.613   2.964
 3980SOL     OW12838   4.955   3.544   4.840
 3980SOL    HW112839   4.954   3.444   4.836
 3980SOL    HW212840   4.897   3.574   4.916
 3981SOL     OW12841   6.569   1.992   5.459
 3981SOL    HW112842   6.506   2.059   5.499
 3981SOL    HW212843   6.517   1.925   5.406
 3982SOL     OW12844   2.283   2.690   4.007
 3982SOL    HW112845   2.253   2.724   4.096
 3982SOL    HW212846   2.362   2.630   4.019
 3983SOL     OW12847   3.732   0.153   3.494
 3983SOL    HW112848   3.635   0.130   3.491
 3983SOL    HW212849   3.745   0.238   3.545
 3984SOL     OW12850   2.030   0.125   1.495
 3984SOL    HW112851   2.126   0.103   1.512
 3984SOL    HW212852   1.989   0.056   1.436
 3985SOL     OW12853   1.878   3.378   1.640
 3985SOL    HW112854   1.896   3.283   1.617
 3985SOL    HW212855   1.941   3.407   1.713
 3986SOL     OW12856   1.781   2.360   2.144
 3986SOL    HW112857   1.752   2.423   2.072
 3986SOL    HW212858   1.876   2.380   2.169
 3987SOL     OW12859   1.649   4.259   5.736
 3987SOL    HW112860   1.662   4.219   5.827
 3987SOL    HW212861   1.691   4.200   5.668
 3988SOL     OW12862   4.610   1.135   6.948
 3988SOL    HW112863   4.566   1.223   6.925
 3988SOL    HW212864   4.540   1.069   6.975
 3989SOL     OW12865   4.135   0.210   6.155
 3989SOL    HW112866   4.219   0.249   6.192
 3989SOL    HW212867   4.156   0.123   6.110
 3990SOL     OW12868   1.081   2.656   4.040
 3990SOL    HW112869   1.181   2.644   4.043
 3990SOL    HW212870   1.057   2.717   3.964
 3991SOL     OW12871   0.575   1.260   4.017
 3991SOL    HW112872   0.483   1.298   4.011
 3991SOL    HW212873   0.605   1.260   4.112
 3992SOL     OW12874   5.750   3.842   6.841
 3992SOL    HW112875   5.835   3.857   6.891
 3992SOL    HW212876   5.696   3.772   6.888
 3993SOL     OW12877   1.597   0.605   4.116
 3993SOL    HW112878   1.573   0.634   4.208
 3993SOL    HW212879   1.549   0.662   4.049
 3994SOL     OW12880   2.793   2.168   3.375
 3994SOL    HW112881   2.838   2.099   3.318
 3994SOL    HW212882   2.732   2.123   3.441
 3995SOL     OW12883   1.085   3.512   2.628
 3995SOL    HW112884   1.049   3.504   2.535
 3995SOL    HW212885   1.041   3.445   2.687
 3996SOL     OW12886   6.125   6.763   4.012
 3996SOL    HW112887   6.066   6.725   4.084
 3996SOL    HW212888   6.089   6.851   3.983
 3997SOL     OW12889   5.082   3.582   2.452
 3997SOL    HW112890   5.026   3.533   2.384
 3997SOL    HW212891   5.049   3.676   2.461
 3998SOL     OW12892   5.294   2.356   3.116
 3998SOL    HW112893   5.314   2.381   3.021
 3998SOL    HW212894   5.195   2.344   3.127
 3999SOL     OW12895   4.627   2.385   1.585
 3999SOL    HW112896   4.614   2.480   1.615
 3999SOL    HW212897   4.719   2.355   1.608
 4000SOL     OW12898   2.984   5.228   2.187
 4000SOL    HW112899   2.924   5.294   2.231
 4000SOL    HW212900   2.929   5.155   2.145
 4001SOL     OW12901   1.357   4.907   4.198
 4001SOL    HW112902   1.305   4.822   4.201
 4001SOL    HW212903   1.364   4.944   4.291
 4002SOL     OW12904   3.729   4.069   3.485
 4002SOL    HW112905   3.793   4.052   3.560
 4002SOL    HW212906   3.641   4.097   3.523
 4003SOL     OW12907   1.725   0.967   5.483
 4003SOL    HW112908   1.770   1.026   5.550
 4003SOL    HW212909   1.631   0.998   5.469
 4004SOL     OW12910   0.771   3.955   3.538
 4004SOL    HW112911   0.698   4.019   3.513
 4004SOL    HW212912   0.735   3.889   3.604
 4005SOL     OW12913   4.746   3.233   0.201
 4005SOL    HW112914   4.827   3.206   0.149
 4005SOL    HW212915   4.735   3.332   0.196
 4006SOL     OW12916   5.272   5.360   2.827
 4006SOL    HW112917   5.303   5.275   2.869
 4006SOL    HW212918   5.273   5.351   2.728
 4007SOL     OW12919   6.751   0.959   3.006
 4007SOL    HW112920   6.789   0.960   3.099
 4007SOL    HW212921   6.823   0.984   2.941
 4008SOL     OW12922   3.557   1.160   0.554
 4008SOL    HW112923   3.540   1.063   0.539
 4008SOL    HW212924   3.653   1.174   0.576
 4009SOL     OW12925   4.969   1.691   0.885
 4009SOL    HW112926   4.977   1.603   0.931
 4009SOL    HW212927   5.061   1.726   0.864
 4010SOL     OW12928   3.069   5.229   1.800
 4010SOL    HW112929   3.156   5.200   1.761
 4010SOL    HW212930   3.014   5.148   1.821
 4011SOL     OW12931   5.074   6.166   6.547
 4011SOL    HW112932   5.160   6.143   6.592
 4011SOL    HW212933   5.006   6.190   6.617
 4012SOL     OW12934   4.748   6.512   2.891
 4012SOL    HW112935   4.657   6.525   2.849
 4012SOL    HW212936   4.809   6.585   2.859
 4013SOL     OW12937   0.037   1.183   5.741
 4013SOL    HW112938   6.990   1.224   5.678
 4013SOL    HW212939   0.056   1.246   5.816
 4014SOL     OW12940   3.252   4.864   2.740
 4014SOL    HW112941   3.258   4.872   2.839
 4014SOL    HW212942   3.158   4.844   2.714
 4015SOL     OW12943   4.491   4.789   6.086
 4015SOL    HW112944   4.450   4.773   5.997
 4015SOL    HW212945   4.586   4.756   6.086
 4016SOL     OW12946   4.217   5.123   5.266
 4016SOL    HW112947   4.214   5.049   5.200
 4016SOL    HW212948   4.162   5.099   5.346
 4017SOL     OW12949   0.636   4.674   5.649
 4017SOL    HW112950   0.574   4.751   5.634
 4017SOL    HW212951   0.583   4.593   5.673
 4018SOL     OW12952   4.551   5.901   1.280
 4018SOL    HW112953   4.601   5.987   1.292
 4018SOL    HW212954   4.516   5.871   1.369
 4019SOL     OW12955   5.318   3.774   2.892
 4019SOL    HW112956   5.414   3.760   2.865
 4019SOL    HW212957   5.300   3.723   2.975
 4020SOL     OW12958   6.916   5.510   4.394
 4020SOL    HW112959   7.007   5.551   4.398
 4020SOL    HW212960   6.849   5.579   4.369
 4021SOL     OW12961   4.201   3.340   6.434
 4021SOL    HW112962   4.140   3.342   6.354
 4021SOL    HW212963   4.296   3.343   6.403
 4022SOL     OW12964   2.381   0.271   1.186
 4022SOL    HW112965   2.381   0.322   1.272
 4022SOL    HW212966   2.291   0.280   1.143
 4023SOL     OW12967   0.438   1.327   4.917
 4023SOL    HW112968   0.463   1.389   4.991
 4023SOL    HW212969   0.379   1.255   4.953
 4024SOL     OW12970   0.620   5.999   4.506
 4024SOL    HW112971   0.666   5.975   4.421
 4024SOL    HW212972   0.523   6.013   4.489
 4025SOL     OW12973   6.976   5.747   3.640
 4025SOL    HW112974   6.887   5.772   3.601
 4025SOL    HW212975   7.002   5.656   3.608
 4026SOL     OW12976   6.584   6.876   3.780
 4026SOL    HW112977   6.587   6.892   3.879
 4026SOL    HW212978   6.585   6.778   3.762
 4027SOL     OW12979   2.654   3.993   6.199
 4027SOL    HW112980   2.572   4.047   6.176
 4027SOL    HW212981   2.690   3.950   6.116
 4028SOL     OW12982   4.472   1.719   3.390
 4028SOL    HW112983   4.477   1.657   3.468
 4028SOL    HW212984   4.466   1.813   3.424
 4029SOL     OW12985   1.879   5.792   0.128
 4029SOL    HW112986   1.856   5.799   0.031
 4029SOL    HW212987   1.933   5.871   0.155
 4030SOL     OW12988   7.014   1.090   2.878
 4030SOL    HW112989   6.998   1.171   2.821
 4030SOL    HW212990   6.973   1.104   2.968
 4031SOL     OW12991   6.091   6.509   0.800
 4031SOL    HW112992   6.034   6.544   0.875
 4031SOL    HW212993   6.151   6.437   0.835
 4032SOL     OW12994   5.433   0.800   2.009
 4032SOL    HW112995   5.351   0.817   2.064
 4032SOL    HW212996   5.512   0.795   2.069
 4033SOL     OW12997   1.640   2.882   2.693
 4033SOL    HW112998   1.595   2.965   2.726
 4033SOL    HW212999   1.684   2.900   2.606
 4034SOL     OW13000   0.128   3.408   5.149
 4034SOL    HW113001   0.127   3.308   5.156
 4034SOL    HW213002   0.218   3.442   5.177
 4035SOL     OW13003   4.718   1.943   2.290
 4035SOL    HW113004   4.693   2.036   2.262
 4035SOL    HW213005   4.652   1.909   2.357
 4036SOL     OW13006   2.724   5.822   2.912
 4036SOL    HW113007   2.779   5.851   2.833
 4036SOL    HW213008   2.717   5.898   2.977
 4037SOL     OW13009   2.745   1.153   6.150
 4037SOL    HW113010   2.828   1.106   6.120
 4037SOL    HW213011   2.667   1.120   6.096
 4038SOL     OW13012   3.647   3.523   6.119
 4038SOL    HW113013   3.710   3.505   6.044
 4038SOL    HW213014   3.656   3.619   6.148
 4039SOL     OW13015   6.284   4.981   1.377
 4039SOL    HW113016   6.367   4.984   1.321
 4039SOL    HW213017   6.226   4.905   1.349
 4040SOL     OW13018   3.063   6.396   4.822
 4040SOL    HW113019   2.985   6.336   4.837
 4040SOL    HW213020   3.148   6.345   4.835
 4041SOL     OW13021   2.286   6.477   0.719
 4041SOL    HW113022   2.377   6.438   0.702
 4041SOL    HW213023   2.229   6.466   0.638
 4042SOL     OW13024   6.289   0.986   3.085
 4042SOL    HW113025   6.303   0.921   3.160
 4042SOL    HW213026   6.378   1.018   3.052
 4043SOL     OW13027   5.432   3.306   0.012
 4043SOL    HW113028   5.360   3.337   6.969
 4043SOL    HW213029   5.414   3.211   0.039
 4044SOL     OW13030   4.558   5.404   2.949
 4044SOL    HW113031   4.657   5.411   2.958
 4044SOL    HW213032   4.530   5.429   2.857
 4045SOL     OW13033   5.117   0.595   5.346
 4045SOL    HW113034   5.120   0.499   5.377
 4045SOL    HW213035   5.195   0.644   5.383
 4046SOL     OW13036   6.032   2.030   2.799
 4046SOL    HW113037   5.939   2.043   2.765
 4046SOL    HW213038   6.094   2.093   2.752
 4047SOL     OW13039   2.683   3.424   0.046
 4047SOL    HW113040   2.729   3.512   0.056
 4047SOL    HW213041   2.623   3.409   0.124
 4048SOL     OW13042   4.353   1.671   2.609
 4048SOL    HW113043   4.351   1.770   2.623
 4048SOL    HW213044   4.362   1.651   2.511
 4049SOL     OW13045   3.712   4.228   6.641
 4049SOL    HW113046   3.715   4.328   6.633
 4049SOL    HW213047   3.757   4.200   6.726
 4050SOL     OW13048   0.810   5.713   2.185
 4050SOL    HW113049   0.889   5.741   2.239
 4050SOL    HW213050   0.735   5.686   2.246
 4051SOL     OW13051   5.485   1.176   5.188
 4051SOL    HW113052   5.499   1.261   5.239
 4051SOL    HW213053   5.431   1.196   5.105
 4052SOL     OW13054   6.228   2.018   3.942
 4052SOL    HW113055   6.209   2.059   3.853
 4052SOL    HW213056   6.283   1.935   3.929
 4053SOL     OW13057   1.101   5.259   4.252
 4053SOL    HW113058   1.024   5.312   4.286
 4053SOL    HW213059   1.072   5.205   4.172
 4054SOL     OW13060   4.293   3.784   0.611
 4054SOL    HW113061   4.286   3.821   0.518
 4054SOL    HW213062   4.306   3.859   0.676
 4055SOL     OW13063   0.501   4.831   1.444
 4055SOL    HW113064   0.482   4.770   1.367
 4055SOL    HW213065   0.580   4.888   1.422
 4056SOL     OW13066   5.228   3.300   1.019
 4056SOL    HW113067   5.211   3.314   0.921
 4056SOL    HW213068   5.220   3.387   1.067
 4057SOL     OW13069   6.855   2.895   6.980
 4057SOL    HW113070   6.869   2.931   0.054
 4057SOL    HW213071   6.916   2.942   6.916
 4058SOL     OW13072   3.009   6.568   5.945
 4058SOL    HW113073   3.015   6.554   5.846
 4058SOL    HW213074   2.912   6.575   5.971
 4059SOL     OW13075   0.696   1.726   3.998
 4059SOL    HW113076   0.684   1.633   3.963
 4059SOL    HW213077   0.642   1.789   3.942
 4060SOL     OW13078   6.348   5.888   5.520
 4060SOL    HW113079   6.291   5.936   5.587
 4060SOL    HW213080   6.303   5.887   5.431
 4061SOL     OW13081   2.194   5.886   0.963
 4061SOL    HW113082   2.267   5.951   0.982
 4061SOL    HW213083   2.134   5.879   1.043
 4062SOL     OW13084   1.380   2.349   1.822
 4062SOL    HW113085   1.452   2.297   1.869
 4062SOL    HW213086   1.360   2.432   1.874
 4063SOL     OW13087   4.689   0.767   0.063
 4063SOL    HW113088   4.767   0.778   0.002
 4063SOL    HW213089   4.617   0.715   0.016
 4064SOL     OW13090   2.141   2.076   5.518
 4064SOL    HW113091   2.170   2.171   5.508
 4064SOL    HW213092   2.073   2.054   5.448
 4065SOL     OW13093   2.556   6.739   1.035
 4065SOL    HW113094   2.562   6.735   0.936
 4065SOL    HW213095   2.480   6.799   1.062
 4066SOL     OW13096   0.241   4.319   3.576
 4066SOL    HW113097   0.182   4.393   3.607
 4066SOL    HW213098   0.272   4.266   3.655
 4067SOL     OW13099   4.760   4.969   1.042
 4067SOL    HW113100   4.730   4.882   1.004
 4067SOL    HW213101   4.679   5.026   1.063
 4068SOL     OW13102   1.911   2.655   5.285
 4068SOL    HW113103   1.970   2.721   5.331
 4068SOL    HW213104   1.905   2.572   5.341
 4069SOL     OW13105   4.079   0.318   6.662
 4069SOL    HW113106   4.029   0.232   6.651
 4069SOL    HW213107   4.038   0.389   6.604
 4070SOL     OW13108   1.930   3.301   3.525
 4070SOL    HW113109   1.839   3.335   3.499
 4070SOL    HW213110   1.920   3.229   3.593
 4071SOL     OW13111   0.803   0.563   3.779
 4071SOL    HW113112   0.715   0.611   3.784
 4071SOL    HW213113   0.822   0.521   3.867
 4072SOL     OW13114   2.473   5.793   3.085
 4072SOL    HW113115   2.562   5.781   3.040
 4072SOL    HW213116   2.467   5.886   3.120
 4073SOL     OW13117   2.879   4.795   0.227
 4073SOL    HW113118   2.918   4.860   0.292
 4073SOL    HW213119   2.831   4.845   0.154
 4074SOL     OW13120   1.317   5.994   2.751
 4074SOL    HW113121   1.394   5.985   2.814
 4074SOL    HW213122   1.240   5.941   2.786
 4075SOL     OW13123   6.118   0.907   0.430
 4075SOL    HW113124   6.024   0.874   0.436
 4075SOL    HW213125   6.181   0.831   0.448
 4076SOL     OW13126   2.998   3.896   5.310
 4076SOL    HW113127   2.922   3.857   5.259
 4076SOL    HW213128   2.963   3.942   5.392
 4077SOL     OW13129   2.953   1.373   1.969
 4077SOL    HW113130   3.046   1.380   2.003
 4077SOL    HW213131   2.954   1.370   1.869
 4078SOL     OW13132   2.646   4.675   2.680
 4078SOL    HW113133   2.580   4.619   2.631
 4078SOL    HW213134   2.728   4.686   2.624
 4079SOL     OW13135   1.151   2.340   4.481
 4079SOL    HW113136   1.055   2.312   4.475
 4079SOL    HW213137   1.163   2.428   4.436
 4080SOL     OW13138   6.138   1.722   4.967
 4080SOL    HW113139   6.144   1.789   4.893
 4080SOL    HW213140   6.062   1.659   4.949
 4081SOL     OW13141   1.688   3.445   3.497
 4081SOL    HW113142   1.729   3.524   3.542
 4081SOL    HW213143   1.627   3.476   3.424
 4082SOL     OW13144   1.006   3.226   1.382
 4082SOL    HW113145   1.102   3.236   1.407
 4082SOL    HW213146   0.951   3.292   1.433
 4083SOL     OW13147   5.668   2.473   5.002
 4083SOL    HW113148   5.667   2.421   4.916
 4083SOL    HW213149   5.593   2.441   5.060
 4084SOL     OW13150   0.316   1.343   3.969
 4084SOL    HW113151   0.232   1.390   3.944
 4084SOL    HW213152   0.298   1.245   3.980
 4085SOL     OW13153   3.364   6.686   0.483
 4085SOL    HW113154   3.321   6.732   0.560
 4085SOL    HW213155   3.335   6.730   0.398
 4086SOL     OW13156   1.764   4.327   0.963
 4086SOL    HW113157   1.691   4.394   0.947
 4086SOL    HW213158   1.809   4.346   1.050
 4087SOL     OW13159   1.731   1.451   3.034
 4087SOL    HW113160   1.772   1.360   3.030
 4087SOL    HW213161   1.677   1.460   3.117
 4088SOL     OW13162   6.578   1.673   1.256
 4088SOL    HW113163   6.563   1.642   1.350
 4088SOL    HW213164   6.557   1.599   1.193
 4089SOL     OW13165   1.099   0.427   4.190
 4089SOL    HW113166   1.081   0.412   4.093
 4089SOL    HW213167   1.098   0.339   4.238
 4090SOL     OW13168   2.127   4.152   6.223
 4090SOL    HW113169   2.092   4.202   6.303
 4090SOL    HW213170   2.118   4.054   6.238
 4091SOL     OW13171   4.371   5.746   0.404
 4091SOL    HW113172   4.302   5.717   0.471
 4091SOL    HW213173   4.327   5.801   0.333
 4092SOL     OW13174   0.253   2.969   4.744
 4092SOL    HW113175   0.243   2.910   4.663
 4092SOL    HW213176   0.229   3.063   4.720
 4093SOL     OW13177   5.450   0.354   3.846
 4093SOL    HW113178   5.446   0.260   3.881
 4093SOL    HW213179   5.375   0.407   3.884
 4094SOL     OW13180   1.956   4.187   5.276
 4094SOL    HW113181   2.020   4.112   5.291
 4094SOL    HW213182   1.985   4.241   5.197
 4095SOL     OW13183   1.179   3.508   6.211
 4095SOL    HW113184   1.098   3.567   6.219
 4095SOL    HW213185   1.190   3.479   6.116
 4096SOL     OW13186   3.785   4.152   0.341
 4096SOL    HW113187   3.872   4.199   0.354
 4096SOL    HW213188   3.798   4.073   0.281
 4097SOL     OW13189   3.581   3.194   5.980
 4097SOL    HW113190   3.584   3.103   6.022
 4097SOL    HW213191   3.523   3.254   6.036
 4098SOL     OW13192   0.418   2.147   3.174
 4098SOL    HW113193   0.372   2.204   3.106
 4098SOL    HW213194   0.425   2.198   3.260
 4099SOL     OW13195   3.922   5.887   1.933
 4099SOL    HW113196   3.889   5.795   1.912
 4099SOL    HW213197   3.985   5.917   1.861
 4100SOL     OW13198   3.841   6.157   3.596
 4100SOL    HW113199   3.800   6.246   3.578
 4100SOL    HW213200   3.779   6.103   3.653
 4101SOL     OW13201   5.960   1.688   6.260
 4101SOL    HW113202   5.881   1.733   6.219
 4101SOL    HW213203   5.968   1.715   6.356
 4102SOL     OW13204   5.847   1.191   0.191
 4102SOL    HW113205   5.784   1.115   0.207
 4102SOL    HW213206   5.940   1.163   0.218
 4103SOL     OW13207   0.473   0.494   2.188
 4103SOL    HW113208   0.431   0.528   2.104
 4103SOL    HW213209   0.531   0.565   2.227
 4104SOL     OW13210   1.393   4.670   2.735
 4104SOL    HW113211   1.339   4.714   2.663
 4104SOL    HW213212   1.355   4.580   2.755
 4105SOL     OW13213   4.089   4.628   0.049
 4105SOL    HW113214   4.129   4.564   7.001
 4105SOL    HW213215   4.092   4.588   0.140
 4106SOL     OW13216   6.993   3.713   4.470
 4106SOL    HW113217   6.983   3.774   4.392
 4106SOL    HW213218   6.964   3.760   4.553
 4107SOL     OW13219   0.145   0.456   1.401
 4107SOL    HW113220   0.120   0.379   1.459
 4107SOL    HW213221   0.069   0.478   1.340
 4108SOL     OW13222   6.179   3.555   6.328
 4108SOL    HW113223   6.178   3.518   6.421
 4108SOL    HW213224   6.236   3.637   6.325
 4109SOL     OW13225   3.298   6.508   3.483
 4109SOL    HW113226   3.327   6.413   3.472
 4109SOL    HW213227   3.216   6.511   3.541
 4110SOL     OW13228   5.137   3.565   5.954
 4110SOL    HW113229   5.155   3.592   5.859
 4110SOL    HW213230   5.088   3.639   6.000
 4111SOL     OW13231   4.326   2.831   6.840
 4111SOL    HW113232   4.326   2.930   6.824
 4111SOL    HW213233   4.283   2.812   6.928
 4112SOL     OW13234   3.300   1.409   3.662
 4112SOL    HW113235   3.337   1.497   3.691
 4112SOL    HW213236   3.210   1.395   3.702
 4113SOL     OW13237   3.411   4.805   5.220
 4113SOL    HW113238   3.328   4.786   5.167
 4113SOL    HW213239   3.401   4.893   5.267
 4114SOL     OW13240   2.678   1.819   3.030
 4114SOL    HW113241   2.594   1.846   2.983
 4114SOL    HW213242   2.656   1.775   3.117
 4115SOL     OW13243   4.789   4.931   1.529
 4115SOL    HW113244   4.842   4.928   1.444
 4115SOL    HW213245   4.756   4.839   1.550
 4116SOL     OW13246   3.828   1.477   1.645
 4116SOL    HW113247   3.856   1.559   1.594
 4116SOL    HW213248   3.785   1.506   1.731
 4117SOL     OW13249   1.183   5.575   1.424
 4117SOL    HW113250   1.228   5.491   1.455
 4117SOL    HW213251   1.215   5.598   1.332
 4118SOL     OW13252   1.105   6.549   0.480
 4118SOL    HW113253   1.170   6.498   0.537
 4118SOL    HW213254   1.119   6.524   0.384
 4119SOL     OW13255   3.263   0.669   4.164
 4119SOL    HW113256   3.197   0.735   4.128
 4119SOL    HW213257   3.339   0.718   4.207
 4120SOL     OW13258   3.849   0.337   1.237
 4120SOL    HW113259   3.912   0.394   1.291
 4120SOL    HW213260   3.830   0.252   1.286
 4121SOL     OW13261   0.013   2.936   4.303
 4121SOL    HW113262   6.942   2.982   4.301
 4121SOL    HW213263   0.003   2.846   4.346
 4122SOL     OW13264   1.432   5.520   5.929
 4122SOL    HW113265   1.425   5.424   5.956
 4122SOL    HW213266   1.406   5.530   5.833
 4123SOL     OW13267   5.270   3.814   6.259
 4123SOL    HW113268   5.337   3.747   6.228
 4123SOL    HW213269   5.184   3.801   6.209
 4124SOL     OW13270   5.647   6.497   4.370
 4124SOL    HW113271   5.634   6.497   4.271
 4124SOL    HW213272   5.619   6.585   4.408
 4125SOL     OW13273   4.359   0.997   0.821
 4125SOL    HW113274   4.430   0.952   0.874
 4125SOL    HW213275   4.287   1.031   0.883
 4126SOL     OW13276   2.099   3.951   4.875
 4126SOL    HW113277   2.019   3.926   4.930
 4126SOL    HW213278   2.182   3.928   4.926
 4127SOL     OW13279   5.595   3.538   5.438
 4127SOL    HW113280   5.610   3.458   5.380
 4127SOL    HW213281   5.588   3.508   5.534
 4128SOL     OW13282   1.672   3.113   2.206
 4128SOL    HW113283   1.703   3.056   2.130
 4128SOL    HW213284   1.685   3.209   2.182
 4129SOL     OW13285   5.762   2.152   5.652
 4129SOL    HW113286   5.847   2.101   5.663
 4129SOL    HW213287   5.781   2.242   5.613
 4130SOL     OW13288   6.550   3.938   6.993
 4130SOL    HW113289   6.588   4.025   6.961
 4130SOL    HW213290   6.454   3.952   7.017
 4131SOL     OW13291   6.617   5.069   4.127
 4131SOL    HW113292   6.612   5.087   4.029
 4131SOL    HW213293   6.595   4.973   4.145
 4132SOL     OW13294   5.066   2.968   3.406
 4132SOL    HW113295   5.034   2.886   3.454
 4132SOL    HW213296   5.164   2.981   3.425
 4133SOL     OW13297   2.674   1.333   1.135
 4133SOL    HW113298   2.641   1.274   1.208
 4133SOL    HW213299   2.686   1.279   1.052
 4134SOL     OW13300   1.842   2.049   6.955
 4134SOL    HW113301   1.875   2.078   0.026
 4134SOL    HW213302   1.916   2.058   6.888
 4135SOL     OW13303   2.428   1.577   2.283
 4135SOL    HW113304   2.464   1.530   2.364
 4135SOL    HW213305   2.486   1.655   2.261
 4136SOL     OW13306   0.104   2.077   4.387
 4136SOL    HW113307   0.064   2.164   4.418
 4136SOL    HW213308   0.032   2.008   4.383
 4137SOL     OW13309   3.211   3.589   6.543
 4137SOL    HW113310   3.136   3.560   6.482
 4137SOL    HW213311   3.189   3.563   6.637
 4138SOL     OW13312   4.065   4.759   3.346
 4138SOL    HW113313   4.078   4.784   3.442
 4138SOL    HW213314   4.134   4.807   3.290
 4139SOL     OW13315   1.781   1.990   6.129
 4139SOL    HW113316   1.695   1.958   6.088
 4139SOL    HW213317   1.858   1.956   6.075
 4140SOL     OW13318   4.524   1.335   5.049
 4140SOL    HW113319   4.562   1.243   5.061
 4140SOL    HW213320   4.574   1.382   4.976
 4141SOL     OW13321   5.641   5.596   0.543
 4141SOL    HW113322   5.652   5.500   0.568
 4141SOL    HW213323   5.582   5.641   0.611
 4142SOL     OW13324   0.014   4.327   1.248
 4142SOL    HW113325   0.090   4.291   1.302
 4142SOL    HW213326   7.002   4.257   1.184
 4143SOL     OW13327   6.784   2.891   0.829
 4143SOL    HW113328   6.823   2.973   0.788
 4143SOL    HW213329   6.771   2.905   0.927
 4144SOL     OW13330   5.157   1.224   2.553
 4144SOL    HW113331   5.203   1.211   2.641
 4144SOL    HW213332   5.060   1.244   2.568
 4145SOL     OW13333   2.180   6.899   1.256
 4145SOL    HW113334   2.098   6.875   1.309
 4145SOL    HW213335   2.157   6.902   1.159
 4146SOL     OW13336   4.874   6.995   0.054
 4146SOL    HW113337   4.882   6.950   0.143
 4146SOL    HW213338   4.960   6.985   0.004
 4147SOL     OW13339   3.252   1.813   5.597
 4147SOL    HW113340   3.195   1.837   5.518
 4147SOL    HW213341   3.263   1.714   5.601
 4148SOL     OW13342   6.440   0.379   3.473
 4148SOL    HW113343   6.425   0.478   3.475
 4148SOL    HW213344   6.369   0.334   3.527
 4149SOL     OW13345   5.817   4.216   1.947
 4149SOL    HW113346   5.894   4.263   1.991
 4149SOL    HW213347   5.731   4.251   1.985
 4150SOL     OW13348   5.493   0.055   6.887
 4150SOL    HW113349   5.567   0.015   6.941
 4150SOL    HW213350   5.491   0.013   6.796
 4151SOL     OW13351   0.177   5.440   0.481
 4151SOL    HW113352   0.258   5.469   0.430
 4151SOL    HW213353   0.194   5.351   0.522
 4152SOL     OW13354   3.885   4.557   1.706
 4152SOL    HW113355   3.949   4.527   1.634
 4152SOL    HW213356   3.808   4.494   1.709
 4153SOL     OW13357   6.457   4.838   6.310
 4153SOL    HW113358   6.431   4.741   6.318
 4153SOL    HW213359   6.418   4.876   6.227
 4154SOL     OW13360   6.197   3.125   5.749
 4154SOL    HW113361   6.232   3.203   5.801
 4154SOL    HW213362   6.206   3.143   5.651
 4155SOL     OW13363   1.042   3.269   1.966
 4155SOL    HW113364   1.008   3.348   1.915
 4155SOL    HW213365   1.091   3.208   1.903
 4156SOL     OW13366   5.621   6.846   5.707
 4156SOL    HW113367   5.591   6.751   5.694
 4156SOL    HW213368   5.553   6.908   5.667
 4157SOL     OW13369   4.036   0.524   4.530
 4157SOL    HW113370   4.086   0.535   4.615
 4157SOL    HW213371   4.069   0.590   4.462
 4158SOL     OW13372   0.470   5.956   3.277
 4158SOL    HW113373   0.565   5.947   3.308
 4158SOL    HW213374   0.434   5.866   3.251
 4159SOL     OW13375   1.142   2.668   4.425
 4159SOL    HW113376   1.078   2.694   4.353
 4159SOL    HW213377   1.236   2.669   4.388
 4160SOL     OW13378   0.381   0.584   1.436
 4160SOL    HW113379   0.285   0.558   1.428
 4160SOL    HW213380   0.397   0.625   1.525
 4161SOL     OW13381   0.329   1.880   0.356
 4161SOL    HW113382   0.422   1.898   0.324
 4161SOL    HW213383   0.265   1.941   0.310
 4162SOL     OW13384   5.714   7.014   5.053
 4162SOL    HW113385   5.814   7.016   5.054
 4162SOL    HW213386   5.679   0.087   5.073
 4163SOL     OW13387   5.598   1.509   3.886
 4163SOL    HW113388   5.536   1.496   3.963
 4163SOL    HW213389   5.684   1.549   3.918
 4164SOL     OW13390   1.696   0.424   6.484
 4164SOL    HW113391   1.676   0.432   6.386
 4164SOL    HW213392   1.785   0.465   6.503
 4165SOL     OW13393   3.739   6.743   1.484
 4165SOL    HW113394   3.651   6.789   1.471
 4165SOL    HW213395   3.804   6.776   1.416
 4166SOL     OW13396   4.767   2.851   0.766
 4166SOL    HW113397   4.693   2.798   0.807
 4166SOL    HW213398   4.736   2.945   0.751
 4167SOL     OW13399   2.570   2.543   1.510
 4167SOL    HW113400   2.553   2.560   1.413
 4167SOL    HW213401   2.488   2.504   1.551
 4168SOL     OW13402   1.238   5.746   1.641
 4168SOL    HW113403   1.199   5.837   1.626
 4168SOL    HW213404   1.236   5.695   1.555
 4169SOL     OW13405   5.440   3.089   3.868
 4169SOL    HW113406   5.356   3.038   3.854
 4169SOL    HW213407   5.456   3.101   3.966
 4170SOL     OW13408   3.959   2.679   5.645
 4170SOL    HW113409   3.914   2.605   5.695
 4170SOL    HW213410   3.976   2.649   5.551
 4171SOL     OW13411   5.183   3.656   1.521
 4171SOL    HW113412   5.183   3.606   1.608
 4171SOL    HW213413   5.134   3.743   1.533
 4172SOL     OW13414   0.936   2.148   1.138
 4172SOL    HW113415   1.029   2.138   1.103
 4172SOL    HW213416   0.887   2.061   1.128
 4173SOL     OW13417   5.080   3.084   4.976
 4173SOL    HW113418   5.133   3.063   4.894
 4173SOL    HW213419   4.986   3.054   4.963
 4174SOL     OW13420   4.616   0.560   4.009
 4174SOL    HW113421   4.630   0.556   3.910
 4174SOL    HW213422   4.525   0.595   4.029
 4175SOL     OW13423   2.791   0.518   3.409
 4175SOL    HW113424   2.747   0.599   3.372
 4175SOL    HW213425   2.741   0.436   3.379
 4176SOL     OW13426   4.848   6.671   3.266
 4176SOL    HW113427   4.902   6.667   3.350
 4176SOL    HW213428   4.845   6.765   3.232
 4177SOL     OW13429   0.402   6.258   2.453
 4177SOL    HW113430   0.345   6.302   2.522
 4177SOL    HW213431   0.345   6.216   2.384
 4178SOL     OW13432   3.697   2.176   5.661
 4178SOL    HW113433   3.681   2.186   5.760
 4178SOL    HW213434   3.725   2.082   5.642
 4179SOL     OW13435   5.697   3.815   5.687
 4179SOL    HW113436   5.634   3.822   5.765
 4179SOL    HW213437   5.770   3.750   5.708
 4180SOL     OW13438   4.582   3.946   1.679
 4180SOL    HW113439   4.565   3.925   1.582
 4180SOL    HW213440   4.508   4.005   1.714
 4181SOL     OW13441   1.083   1.303   0.429
 4181SOL    HW113442   1.109   1.207   0.415
 4181SOL    HW213443   1.165   1.359   0.439
 4182SOL     OW13444   5.744   0.290   2.747
 4182SOL    HW113445   5.722   0.321   2.654
 4182SOL    HW213446   5.659   0.267   2.795
 4183SOL     OW13447   1.459   1.923   1.577
 4183SOL    HW113448   1.557   1.936   1.564
 4183SOL    HW213449   1.439   1.826   1.585
 4184SOL     OW13450   4.210   5.193   0.527
 4184SOL    HW113451   4.271   5.268   0.555
 4184SOL    HW213452   4.256   5.135   0.460
 4185SOL     OW13453   0.344   0.284   3.853
 4185SOL    HW113454   0.268   0.248   3.799
 4185SOL    HW213455   0.423   0.223   3.844
 4186SOL     OW13456   2.620   3.790   1.169
 4186SOL    HW113457   2.665   3.814   1.083
 4186SOL    HW213458   2.605   3.692   1.173
 4187SOL     OW13459   3.858   3.357   6.620
 4187SOL    HW113460   3.929   3.423   6.597
 4187SOL    HW213461   3.797   3.395   6.689
 4188SOL     OW13462   4.202   0.305   4.684
 4188SOL    HW113463   4.191   0.207   4.669
 4188SOL    HW213464   4.248   0.346   4.605
 4189SOL     OW13465   2.279   1.744   4.865
 4189SOL    HW113466   2.363   1.787   4.830
 4189SOL    HW213467   2.200   1.793   4.829
 4190SOL     OW13468   3.552   1.317   0.324
 4190SOL    HW113469   3.583   1.412   0.321
 4190SOL    HW213470   3.571   1.278   0.414
 4191SOL     OW13471   6.603   1.979   2.589
 4191SOL    HW113472   6.623   1.972   2.492
 4191SOL    HW213473   6.687   1.972   2.642
 4192SOL     OW13474   6.318   1.089   3.595
 4192SOL    HW113475   6.341   1.061   3.688
 4192SOL    HW213476   6.234   1.043   3.566
 4193SOL     OW13477   1.980   6.912   1.899
 4193SOL    HW113478   1.922   6.950   1.971
 4193SOL    HW213479   2.051   6.979   1.876
 4194SOL     OW13480   0.286   1.098   4.005
 4194SOL    HW113481   0.334   1.040   4.070
 4194SOL    HW213482   0.299   1.062   3.912
 4195SOL     OW13483   5.145   0.191   1.532
 4195SOL    HW113484   5.162   0.224   1.625
 4195SOL    HW213485   5.213   0.228   1.470
 4196SOL     OW13486   4.976   2.750   3.840
 4196SOL    HW113487   4.878   2.746   3.822
 4196SOL    HW213488   4.992   2.764   3.937
 4197SOL     OW13489   4.799   4.562   4.361
 4197SOL    HW113490   4.879   4.606   4.320
 4197SOL    HW213491   4.789   4.469   4.324
 4198SOL     OW13492   6.511   3.460   7.014
 4198SOL    HW113493   6.580   3.390   6.999
 4198SOL    HW213494   6.449   3.462   6.935
 4199SOL     OW13495   2.933   3.398   5.744
 4199SOL    HW113496   2.969   3.379   5.653
 4199SOL    HW213497   2.993   3.358   5.813
 4200SOL     OW13498   1.834   0.056   6.970
 4200SOL    HW113499   1.767   0.018   0.016
 4200SOL    HW213500   1.877   6.999   6.920
 4201SOL     OW13501   5.504   6.062   3.548
 4201SOL    HW113502   5.516   6.069   3.449
 4201SOL    HW213503   5.594   6.065   3.592
 4202SOL     OW13504   5.345   4.910   4.670
 4202SOL    HW113505   5.418   4.915   4.738
 4202SOL    HW213506   5.259   4.942   4.711
 4203SOL     OW13507   5.254   5.703   3.419
 4203SOL    HW113508   5.265   5.780   3.483
 4203SOL    HW213509   5.174   5.720   3.361
 4204SOL     OW13510   3.199   3.182   1.706
 4204SOL    HW113511   3.110   3.136   1.706
 4204SOL    HW213512   3.198   3.256   1.639
 4205SOL     OW13513   2.435   5.290   3.472
 4205SOL    HW113514   2.527   5.275   3.509
 4205SOL    HW213515   2.398   5.375   3.510
 4206SOL     OW13516   5.140   0.164   4.440
 4206SOL    HW113517   5.169   0.084   4.387
 4206SOL    HW213518   5.107   0.234   4.377
 4207SOL     OW13519   1.144   1.552   1.895
 4207SOL    HW113520   1.076   1.574   1.825
 4207SOL    HW213521   1.213   1.624   1.899
 4208SOL     OW13522   0.848   3.429   0.950
 4208SOL    HW113523   0.943   3.433   0.921
 4208SOL    HW213524   0.811   3.522   0.955
 4209SOL     OW13525   2.888   0.255   4.977
 4209SOL    HW113526   2.919   0.163   4.997
 4209SOL    HW213527   2.894   0.272   4.878
 4210SOL     OW13528   4.459   2.724   0.439
 4210SOL    HW113529   4.507   2.636   0.439
 4210SOL    HW213530   4.362   2.708   0.455
 4211SOL     OW13531   4.530   4.873   3.226
 4211SOL    HW113532   4.457   4.805   3.225
 4211SOL    HW213533   4.573   4.874   3.316
 4212SOL     OW13534   6.155   1.034   2.865
 4212SOL    HW113535   6.170   0.945   2.823
 4212SOL    HW213536   6.207   1.040   2.950
 4213SOL     OW13537   1.166   1.311   2.472
 4213SOL    HW113538   1.116   1.226   2.454
 4213SOL    HW213539   1.156   1.336   2.568
 4214SOL     OW13540   1.076   2.975   4.572
 4214SOL    HW113541   0.999   2.955   4.511
 4214SOL    HW213542   1.157   2.996   4.517
 4215SOL     OW13543   0.730   5.309   4.151
 4215SOL    HW113544   0.801   5.342   4.213
 4215SOL    HW213545   0.756   5.219   4.116
 4216SOL     OW13546   1.304   2.838   4.755
 4216SOL    HW113547   1.243   2.903   4.710
 4216SOL    HW213548   1.266   2.746   4.749
 4217SOL     OW13549   0.135   0.477   3.032
 4217SOL    HW113550   0.208   0.487   2.965
 4217SOL    HW213551   0.063   0.419   2.994
 4218SOL     OW13552   4.428   0.120   2.040
 4218SOL    HW113553   4.358   0.052   2.019
 4218SOL    HW213554   4.454   0.167   1.955
 4219SOL     OW13555   4.109   5.864   3.400
 4219SOL    HW113556   4.073   5.845   3.309
 4219SOL    HW213557   4.088   5.958   3.426
 4220SOL     OW13558   6.237   2.780   3.729
 4220SOL    HW113559   6.269   2.813   3.640
 4220SOL    HW213560   6.154   2.725   3.717
 4221SOL     OW13561   5.623   5.529   5.808
 4221SOL    HW113562   5.669   5.596   5.867
 4221SOL    HW213563   5.618   5.441   5.855
 4222SOL     OW13564   4.711   2.046   1.229
 4222SOL    HW113565   4.790   2.013   1.281
 4222SOL    HW213566   4.728   2.139   1.198
 4223SOL     OW13567   3.826   3.990   2.692
 4223SOL    HW113568   3.893   3.970   2.762
 4223SOL    HW213569   3.864   4.055   2.627
 4224SOL     OW13570   4.416   2.360   5.005
 4224SOL    HW113571   4.451   2.423   4.935
 4224SOL    HW213572   4.317   2.371   5.014
 4225SOL     OW13573   5.483   0.190   4.834
 4225SOL    HW113574   5.547   0.234   4.772
 4225SOL    HW213575   5.398   0.242   4.837
 4226SOL     OW13576   1.092   1.166   3.666
 4226SOL    HW113577   1.115   1.167   3.569
 4226SOL    HW213578   1.017   1.230   3.683
 4227SOL     OW13579   5.684   4.409   0.243
 4227SOL    HW113580   5.691   4.336   0.175
 4227SOL    HW213581   5.681   4.369   0.334
 4228SOL     OW13582   6.181   5.471   2.430
 4228SOL    HW113583   6.222   5.528   2.501
 4228SOL    HW213584   6.112   5.524   2.381
 4229SOL     OW13585   5.271   4.522   5.410
 4229SOL    HW113586   5.264   4.569   5.322
 4229SOL    HW213587   5.365   4.528   5.444
 4230SOL     OW13588   3.129   6.870   4.721
 4230SOL    HW113589   3.070   6.872   4.641
 4230SOL    HW213590   3.178   6.957   4.729
 4231SOL     OW13591   4.733   6.842   5.606
 4231SOL    HW113592   4.825   6.877   5.586
 4231SOL    HW213593   4.678   6.844   5.523
 4232SOL     OW13594   2.167   4.140   2.189
 4232SOL    HW113595   2.095   4.185   2.137
 4232SOL    HW213596   2.243   4.205   2.204
 4233SOL     OW13597   6.478   6.431   0.698
 4233SOL    HW113598   6.463   6.447   0.796
 4233SOL    HW213599   6.536   6.504   0.661
 4234SOL     OW13600   2.837   4.497   5.692
 4234SOL    HW113601   2.816   4.537   5.603
 4234SOL    HW213602   2.833   4.397   5.686
 4235SOL     OW13603   6.557   3.748   5.673
 4235SOL    HW113604   6.627   3.715   5.737
 4235SOL    HW213605   6.522   3.836   5.705
 4236SOL     OW13606   1.246   3.103   4.876
 4236SOL    HW113607   1.194   3.096   4.961
 4236SOL    HW213608   1.323   3.040   4.878
 4237SOL     OW13609   5.315   3.032   4.791
 4237SOL    HW113610   5.380   3.031   4.714
 4237SOL    HW213611   5.365   3.018   4.876
 4238SOL     OW13612   4.172   5.219   3.921
 4238SOL    HW113613   4.243   5.219   3.851
 4238SOL    HW213614   4.181   5.301   3.978
 4239SOL     OW13615   4.888   5.639   5.776
 4239SOL    HW113616   4.843   5.559   5.737
 4239SOL    HW213617   4.983   5.643   5.745
 4240SOL     OW13618   2.448   4.349   6.855
 4240SOL    HW113619   2.355   4.376   6.830
 4240SOL    HW213620   2.476   4.271   6.799
 4241SOL     OW13621   3.906   0.465   6.515
 4241SOL    HW113622   3.963   0.503   6.442
 4241SOL    HW213623   3.825   0.523   6.528
 4242SOL     OW13624   2.253   0.720   2.568
 4242SOL    HW113625   2.227   0.795   2.507
 4242SOL    HW213626   2.230   0.744   2.662
 4243SOL     OW13627   1.770   2.877   3.201
 4243SOL    HW113628   1.799   2.961   3.246
 4243SOL    HW213629   1.671   2.872   3.199
 4244SOL     OW13630   3.560   6.537   1.462
 4244SOL    HW113631   3.532   6.500   1.550
 4244SOL    HW213632   3.616   6.619   1.476
 4245SOL     OW13633   6.115   3.671   0.922
 4245SOL    HW113634   6.133   3.597   0.858
 4245SOL    HW213635   6.026   3.657   0.967
 4246SOL     OW13636   5.228   1.554   3.801
 4246SOL    HW113637   5.192   1.606   3.879
 4246SOL    HW213638   5.293   1.611   3.751
 4247SOL     OW13639   1.442   5.074   5.702
 4247SOL    HW113640   1.378   5.150   5.699
 4247SOL    HW213641   1.392   4.988   5.696
 4248SOL     OW13642   1.827   0.877   3.346
 4248SOL    HW113643   1.765   0.811   3.389
 4248SOL    HW213644   1.858   0.841   3.258
 4249SOL     OW13645   6.989   6.883   4.899
 4249SOL    HW113646   6.914   6.846   4.843
 4249SOL    HW213647   0.014   6.958   4.849
 4250SOL     OW13648   0.166   5.634   4.362
 4250SOL    HW113649   0.183   5.573   4.285
 4250SOL    HW213650   0.202   5.725   4.341
 4251SOL     OW13651   6.392   2.196   5.571
 4251SOL    HW113652   6.316   2.200   5.507
 4251SOL    HW213653   6.386   2.271   5.636
 4252SOL     OW13654   6.977   6.451   0.231
 4252SOL    HW113655   6.945   6.357   0.233
 4252SOL    HW213656   0.021   6.467   0.307
 4253SOL     OW13657   4.665   5.744   2.598
 4253SOL    HW113658   4.681   5.840   2.618
 4253SOL    HW213659   4.573   5.733   2.560
 4254SOL     OW13660   1.633   3.358   0.371
 4254SOL    HW113661   1.686   3.404   0.300
 4254SOL    HW213662   1.682   3.276   0.401
 4255SOL     OW13663   1.286   3.528   3.052
 4255SOL    HW113664   1.236   3.605   3.092
 4255SOL    HW213665   1.358   3.562   2.991
 4256SOL     OW13666   0.845   5.746   1.914
 4256SOL    HW113667   0.857   5.741   2.013
 4256SOL    HW213668   0.806   5.834   1.889
 4257SOL     OW13669   6.447   0.437   4.419
 4257SOL    HW113670   6.539   0.473   4.439
 4257SOL    HW213671   6.379   0.495   4.463
 4258SOL     OW13672   3.442   6.117   0.776
 4258SOL    HW113673   3.437   6.209   0.814
 4258SOL    HW213674   3.446   6.123   0.676
 4259SOL     OW13675   1.302   0.599   1.835
 4259SOL    HW113676   1.382   0.547   1.863
 4259SOL    HW213677   1.325   0.654   1.754
 4260SOL     OW13678   5.668   0.969   4.581
 4260SOL    HW113679   5.752   0.917   4.598
 4260SOL    HW213680   5.594   0.930   4.635
 4261SOL     OW13681   1.898   6.203   4.168
 4261SOL    HW113682   1.938   6.226   4.257
 4261SOL    HW213683   1.927   6.111   4.142
 4262SOL     OW13684   1.837   4.143   6.509
 4262SOL    HW113685   1.864   4.049   6.531
 4262SOL    HW213686   1.781   4.142   6.426
 4263SOL     OW13687   2.325   1.581   4.460
 4263SOL    HW113688   2.402   1.531   4.500
 4263SOL    HW213689   2.243   1.524   4.463
 4264SOL     OW13690   5.112   1.530   5.019
 4264SOL    HW113691   5.030   1.579   5.048
 4264SOL    HW213692   5.118   1.530   4.920
 4265SOL     OW13693   3.389   0.707   6.856
 4265SOL    HW113694   3.473   0.746   6.819
 4265SOL    HW213695   3.403   0.609   6.873
 4266SOL     OW13696   1.039   5.525   1.032
 4266SOL    HW113697   1.040   5.625   1.024
 4266SOL    HW213698   0.970   5.488   0.969
 4267SOL     OW13699   1.854   4.617   4.699
 4267SOL    HW113700   1.908   4.700   4.689
 4267SOL    HW213701   1.911   4.544   4.736
 4268SOL     OW13702   1.245   4.170   0.366
 4268SOL    HW113703   1.269   4.263   0.395
 4268SOL    HW213704   1.189   4.126   0.436
 4269SOL     OW13705   3.044   1.433   5.071
 4269SOL    HW113706   3.066   1.444   4.974
 4269SOL    HW213707   3.119   1.467   5.127
 4270SOL     OW13708   4.063   2.659   1.099
 4270SOL    HW113709   4.079   2.585   1.034
 4270SOL    HW213710   4.146   2.675   1.152
 4271SOL     OW13711   0.052   0.989   1.388
 4271SOL    HW113712   0.008   0.903   1.362
 4271SOL    HW213713   0.151   0.981   1.375
 4272SOL     OW13714   7.008   0.920   6.646
 4272SOL    HW113715   6.936   0.950   6.583
 4272SOL    HW213716   6.966   0.877   6.726
 4273SOL     OW13717   3.375   5.997   4.375
 4273SOL    HW113718   3.366   6.083   4.425
 4273SOL    HW213719   3.310   5.995   4.299
 4274SOL     OW13720   6.870   1.578   1.908
 4274SOL    HW113721   6.794   1.521   1.940
 4274SOL    HW213722   6.836   1.669   1.885
 4275SOL     OW13723   6.781   3.119   3.200
 4275SOL    HW113724   6.728   3.198   3.168
 4275SOL    HW213725   6.758   3.100   3.296
 4276SOL     OW13726   2.438   5.716   3.752
 4276SOL    HW113727   2.512   5.782   3.759
 4276SOL    HW213728   2.469   5.637   3.699
 4277SOL     OW13729   5.896   5.700   2.770
 4277SOL    HW113730   5.885   5.601   2.768
 4277SOL    HW213731   5.992   5.723   2.784
 4278SOL     OW13732   1.310   6.743   1.716
 4278SOL    HW113733   1.366   6.661   1.719
 4278SOL    HW213734   1.367   6.821   1.690
 4279SOL     OW13735   0.999   1.511   3.381
 4279SOL    HW113736   1.041   1.472   3.300
 4279SOL    HW213737   1.060   1.580   3.420
 4280SOL     OW13738   0.834   6.946   6.459
 4280SOL    HW113739   0.783   6.972   6.377
 4280SOL    HW213740   0.845   6.847   6.461
 4281SOL     OW13741   5.136   5.500   3.071
 4281SOL    HW113742   5.083   5.509   2.986
 4281SOL    HW213743   5.097   5.562   3.140
 4282SOL     OW13744   3.568   4.078   0.867
 4282SOL    HW113745   3.533   4.054   0.776
 4282SOL    HW213746   3.653   4.027   0.884
 4283SOL     OW13747   4.948   1.302   4.409
 4283SOL    HW113748   4.987   1.384   4.452
 4283SOL    HW213749   4.897   1.329   4.327
 4284SOL     OW13750   4.673   5.693   6.154
 4284SOL    HW113751   4.604   5.724   6.220
 4284SOL    HW213752   4.633   5.690   6.063
 4285SOL     OW13753   3.691   0.422   5.441
 4285SOL    HW113754   3.664   0.475   5.360
 4285SOL    HW213755   3.680   0.479   5.523
 4286SOL     OW13756   5.850   0.723   6.586
 4286SOL    HW113757   5.852   0.808   6.534
 4286SOL    HW213758   5.824   0.647   6.527
 4287SOL     OW13759   4.581   0.386   0.600
 4287SOL    HW113760   4.482   0.395   0.610
 4287SOL    HW213761   4.602   0.337   0.515
 4288SOL     OW13762   6.905   6.164   2.379
 4288SOL    HW113763   6.950   6.075   2.389
 4288SOL    HW213764   6.926   6.221   2.458
 4289SOL     OW13765   0.372   4.219   4.216
 4289SOL    HW113766   0.434   4.166   4.158
 4289SOL    HW213767   0.374   4.315   4.189
 4290SOL     OW13768   0.642   0.928   3.592
 4290SOL    HW113769   0.648   1.012   3.646
 4290SOL    HW213770   0.702   0.935   3.513
 4291SOL     OW13771   4.789   3.460   6.136
 4291SOL    HW113772   4.737   3.403   6.072
 4291SOL    HW213773   4.769   3.556   6.119
 4292SOL     OW13774   6.249   2.416   1.550
 4292SOL    HW113775   6.244   2.369   1.638
 4292SOL    HW213776   6.180   2.487   1.546
 4293SOL     OW13777   3.971   4.184   6.960
 4293SOL    HW113778   3.987   4.188   0.041
 4293SOL    HW213779   3.938   4.272   6.928
 4294SOL     OW13780   1.712   1.912   6.391
 4294SOL    HW113781   1.613   1.918   6.398
 4294SOL    HW213782   1.742   1.951   6.304
 4295SOL     OW13783   4.105   5.934   2.844
 4295SOL    HW113784   4.019   5.962   2.886
 4295SOL    HW213785   4.132   5.845   2.879
 4296SOL     OW13786   2.832   6.048   2.796
 4296SOL    HW113787   2.900   5.976   2.806
 4296SOL    HW213788   2.864   6.130   2.844
 4297SOL     OW13789   5.709   4.861   0.781
 4297SOL    HW113790   5.723   4.927   0.707
 4297SOL    HW213791   5.794   4.849   0.832
 4298SOL     OW13792   1.978   6.882   0.584
 4298SOL    HW113793   2.000   6.801   0.637
 4298SOL    HW213794   2.062   6.930   0.559
 4299SOL     OW13795   0.597   3.103   0.423
 4299SOL    HW113796   0.577   3.069   0.330
 4299SOL    HW213797   0.660   3.180   0.417
 4300SOL     OW13798   2.542   1.025   1.063
 4300SOL    HW113799   2.619   1.086   1.047
 4300SOL    HW213800   2.493   1.009   0.977
 4301SOL     OW13801   2.826   6.659   0.864
 4301SOL    HW113802   2.741   6.662   0.811
 4301SOL    HW213803   2.847   6.750   0.899
 4302SOL     OW13804   2.357   5.491   6.249
 4302SOL    HW113805   2.317   5.522   6.163
 4302SOL    HW213806   2.437   5.434   6.231
 4303SOL     OW13807   6.082   5.368   2.936
 4303SOL    HW113808   6.028   5.337   2.858
 4303SOL    HW213809   6.046   5.455   2.969
 4304SOL     OW13810   3.663   3.598   1.407
 4304SOL    HW113811   3.577   3.595   1.457
 4304SOL    HW213812   3.739   3.610   1.471
 4305SOL     OW13813   1.479   6.981   5.252
 4305SOL    HW113814   1.551   6.978   5.322
 4305SOL    HW213815   1.420   0.041   5.269
 4306SOL     OW13816   5.912   3.626   4.901
 4306SOL    HW113817   5.871   3.679   4.975
 4306SOL    HW213818   5.915   3.530   4.926
 4307SOL     OW13819   0.451   1.419   6.009
 4307SOL    HW113820   0.503   1.334   6.001
 4307SOL    HW213821   0.502   1.494   5.966
 4308SOL     OW13822   4.955   5.935   7.018
 4308SOL    HW113823   4.995   6.026   0.011
 4308SOL    HW213824   5.000   5.871   0.062
 4309SOL     OW13825   1.167   2.304   0.817
 4309SOL    HW113826   1.184   2.381   0.879
 4309SOL    HW213827   1.105   2.334   0.744
 4310SOL     OW13828   0.153   2.071   3.394
 4310SOL    HW113829   0.152   2.171   3.404
 4310SOL    HW213830   0.230   2.034   3.446
 4311SOL     OW13831   0.673   0.275   2.289
 4311SOL    HW113832   0.648   0.234   2.377
 4311SOL    HW213833   0.602   0.339   2.261
 4312SOL     OW13834   0.600   4.797   2.574
 4312SOL    HW113835   0.673   4.823   2.511
 4312SOL    HW213836   0.597   4.862   2.650
 4313SOL     OW13837   6.509   2.303   6.698
 4313SOL    HW113838   6.591   2.267   6.654
 4313SOL    HW213839   6.520   2.298   6.797
 4314SOL     OW13840   0.167   1.836   5.341
 4314SOL    HW113841   0.183   1.891   5.423
 4314SOL    HW213842   0.149   1.896   5.263
 4315SOL     OW13843   2.832   1.233   4.520
 4315SOL    HW113844   2.928   1.206   4.527
 4315SOL    HW213845   2.781   1.200   4.599
 4316SOL     OW13846   5.452   6.511   1.520
 4316SOL    HW113847   5.537   6.564   1.516
 4316SOL    HW213848   5.418   6.498   1.427
 4317SOL     OW13849   4.764   0.918   5.881
 4317SOL    HW113850   4.752   0.835   5.936
 4317SOL    HW213851   4.681   0.973   5.885
 4318SOL     OW13852   0.792   0.466   4.296
 4318SOL    HW113853   0.883   0.495   4.327
 4318SOL    HW213854   0.734   0.448   4.375
 4319SOL     OW13855   1.879   5.139   2.995
 4319SOL    HW113856   1.896   5.218   2.937
 4319SOL    HW213857   1.881   5.055   2.940
 4320SOL     OW13858   3.175   6.506   1.160
 4320SOL    HW113859   3.244   6.467   1.221
 4320SOL    HW213860   3.187   6.605   1.157
 4321SOL     OW13861   6.648   6.624   2.484
 4321SOL    HW113862   6.714   6.644   2.556
 4321SOL    HW213863   6.590   6.547   2.512
 4322SOL     OW13864   0.639   3.420   5.299
 4322SOL    HW113865   0.702   3.483   5.342
 4322SOL    HW213866   0.663   3.326   5.325
 4323SOL     OW13867   4.016   4.925   6.765
 4323SOL    HW113868   4.080   4.951   6.836
 4323SOL    HW213869   3.995   4.827   6.773
 4324SOL     OW13870   6.785   4.598   5.924
 4324SOL    HW113871   6.761   4.683   5.877
 4324SOL    HW213872   6.816   4.531   5.856
 4325SOL     OW13873   2.517   0.836   2.552
 4325SOL    HW113874   2.432   0.801   2.514
 4325SOL    HW213875   2.549   0.914   2.498
 4326SOL     OW13876   5.077   2.310   2.351
 4326SOL    HW113877   4.989   2.309   2.398
 4326SOL    HW213878   5.087   2.226   2.297
 4327SOL     OW13879   2.773   6.234   3.584
 4327SOL    HW113880   2.749   6.322   3.542
 4327SOL    HW213881   2.699   6.204   3.644
 4328SOL     OW13882   6.072   6.829   4.868
 4328SOL    HW113883   5.992   6.806   4.923
 4328SOL    HW213884   6.075   6.772   4.786
 4329SOL     OW13885   0.277   1.528   6.217
 4329SOL    HW113886   0.285   1.619   6.258
 4329SOL    HW213887   0.351   1.514   6.151
 4330SOL     OW13888   3.001   4.830   4.843
 4330SOL    HW113889   3.074   4.859   4.904
 4330SOL    HW213890   2.944   4.762   4.887
 4331SOL     OW13891   6.078   1.197   2.013
 4331SOL    HW113892   6.050   1.137   1.938
 4331SOL    HW213893   6.000   1.251   2.043
 4332SOL     OW13894   0.391   5.087   2.837
 4332SOL    HW113895   0.356   5.180   2.845
 4332SOL    HW213896   0.326   5.032   2.783
 4333SOL     OW13897   3.854   2.442   5.899
 4333SOL    HW113898   3.808   2.504   5.963
 4333SOL    HW213899   3.886   2.361   5.948
 4334SOL     OW13900   0.278   2.824   4.514
 4334SOL    HW113901   0.318   2.744   4.558
 4334SOL    HW213902   0.333   2.849   4.434
 4335SOL     OW13903   2.533   3.891   1.588
 4335SOL    HW113904   2.468   3.820   1.614
 4335SOL    HW213905   2.626   3.855   1.596
 4336SOL     OW13906   2.600   5.107   5.828
 4336SOL    HW113907   2.624   5.080   5.921
 4336SOL    HW213908   2.568   5.202   5.828
 4337SOL     OW13909   1.477   5.385   3.821
 4337SOL    HW113910   1.499   5.472   3.778
 4337SOL    HW213911   1.410   5.400   3.894
 4338SOL     OW13912   3.799   0.826   5.449
 4338SOL    HW113913   3.846   0.914   5.458
 4338SOL    HW213914   3.858   0.754   5.484
 4339SOL     OW13915   3.960   3.609   6.410
 4339SOL    HW113916   3.975   3.541   6.339
 4339SOL    HW213917   3.947   3.699   6.369
 4340SOL     OW13918   6.630   4.049   0.894
 4340SOL    HW113919   6.533   4.028   0.884
 4340SOL    HW213920   6.641   4.128   0.955
 4341SOL     OW13921   0.305   7.015   2.629
 4341SOL    HW113922   0.235   6.958   2.584
 4341SOL    HW213923   0.390   6.963   2.636
 4342SOL     OW13924   4.899   3.519   2.251
 4342SOL    HW113925   4.859   3.469   2.174
 4342SOL    HW213926   4.851   3.606   2.263
 4343SOL     OW13927   3.922   6.835   6.015
 4343SOL    HW113928   3.846   6.894   5.990
 4343SOL    HW213929   3.908   6.744   5.976
 4344SOL     OW13930   0.192   3.529   3.995
 4344SOL    HW113931   0.222   3.619   4.027
 4344SOL    HW213932   0.197   3.464   4.071
 4345SOL     OW13933   3.237   2.929   2.272
 4345SOL    HW113934   3.214   2.999   2.204
 4345SOL    HW213935   3.155   2.909   2.326
 4346SOL     OW13936   0.797   3.006   2.337
 4346SOL    HW113937   0.894   2.981   2.349
 4346SOL    HW213938   0.791   3.103   2.315
 4347SOL     OW13939   5.969   5.947   0.483
 4347SOL    HW113940   5.910   5.899   0.418
 4347SOL    HW213941   6.058   5.965   0.441
 4348SOL     OW13942   5.970   5.363   4.079
 4348SOL    HW113943   5.981   5.312   3.993
 4348SOL    HW213944   5.892   5.425   4.071
 4349SOL     OW13945   6.949   3.903   4.245
 4349SOL    HW113946   6.863   3.908   4.294
 4349SOL    HW213947   6.939   3.841   4.167
 4350SOL     OW13948   4.315   1.588   4.833
 4350SOL    HW113949   4.410   1.576   4.862
 4350SOL    HW213950   4.302   1.544   4.744
 4351SOL     OW13951   0.814   6.710   0.281
 4351SOL    HW113952   0.818   6.654   0.198
 4351SOL    HW213953   0.870   6.668   0.352
 4352SOL     OW13954   3.737   3.687   0.701
 4352SOL    HW113955   3.805   3.615   0.688
 4352SOL    HW213956   3.771   3.772   0.659
 4353SOL     OW13957   2.792   2.884   1.228
 4353SOL    HW113958   2.767   2.980   1.222
 4353SOL    HW213959   2.881   2.875   1.272
 4354SOL     OW13960   5.567   6.725   3.598
 4354SOL    HW113961   5.606   6.783   3.526
 4354SOL    HW213962   5.469   6.713   3.581
 4355SOL     OW13963   1.381   6.180   3.051
 4355SOL    HW113964   1.285   6.174   3.022
 4355SOL    HW213965   1.429   6.247   2.995
 4356SOL     OW13966   5.203   2.393   5.923
 4356SOL    HW113967   5.176   2.447   5.844
 4356SOL    HW213968   5.178   2.441   6.007
 4357SOL     OW13969   5.715   0.643   2.374
 4357SOL    HW113970   5.669   0.694   2.302
 4357SOL    HW213971   5.746   0.555   2.339
 4358SOL     OW13972   1.893   6.840   6.798
 4358SOL    HW113973   1.795   6.846   6.777
 4358SOL    HW213974   1.944   6.901   6.737
 4359SOL     OW13975   2.543   2.312   6.950
 4359SOL    HW113976   2.526   2.214   6.941
 4359SOL    HW213977   2.499   2.345   0.016
 4360SOL     OW13978   1.851   3.684   3.640
 4360SOL    HW113979   1.924   3.736   3.596
 4360SOL    HW213980   1.874   3.670   3.737
 4361SOL     OW13981   6.603   2.025   0.790
 4361SOL    HW113982   6.548   2.102   0.821
 4361SOL    HW213983   6.546   1.942   0.787
 4362SOL     OW13984   1.305   5.837   3.121
 4362SOL    HW113985   1.336   5.756   3.170
 4362SOL    HW213986   1.362   5.915   3.146
 4363SOL     OW13987   4.335   1.114   2.988
 4363SOL    HW113988   4.240   1.139   2.972
 4363SOL    HW213989   4.393   1.195   2.979
 4364SOL     OW13990   4.062   3.184   2.469
 4364SOL    HW113991   4.073   3.092   2.432
 4364SOL    HW213992   3.970   3.218   2.447
 4365SOL     OW13993   2.385   1.925   1.474
 4365SOL    HW113994   2.445   1.924   1.554
 4365SOL    HW213995   2.325   2.005   1.479
 4366SOL     OW13996   4.287   5.813   4.958
 4366SOL    HW113997   4.332   5.808   5.047
 4366SOL    HW213998   4.354   5.798   4.885
 4367SOL     OW13999   2.700   5.606   3.341
 4367SOL    HW114000   2.777   5.547   3.314
 4367SOL    HW214001   2.713   5.697   3.301
 4368SOL     OW14002   4.665   4.334   3.212
 4368SOL    HW114003   4.693   4.429   3.200
 4368SOL    HW214004   4.619   4.301   3.130
 4369SOL     OW14005   4.477   4.654   2.994
 4369SOL    HW114006   4.432   4.637   3.081
 4369SOL    HW214007   4.408   4.658   2.921
 4370SOL     OW14008   3.664   4.393   1.719
 4370SOL    HW114009   3.606   4.357   1.646
 4370SOL    HW214010   3.634   4.485   1.744
 4371SOL     OW14011   3.074   2.020   0.659
 4371SOL    HW114012   3.049   2.012   0.756
 4371SOL    HW214013   3.056   1.933   0.613
 4372SOL     OW14014   1.904   3.070   4.441
 4372SOL    HW114015   1.992   3.110   4.467
 4372SOL    HW214016   1.831   3.112   4.496
 4373SOL     OW14017   4.033   1.365   5.710
 4373SOL    HW114018   4.054   1.404   5.620
 4373SOL    HW214019   4.060   1.269   5.711
 4374SOL     OW14020   2.413   0.950   1.844
 4374SOL    HW114021   2.373   0.907   1.764
 4374SOL    HW214022   2.513   0.951   1.835
 4375SOL     OW14023   4.925   1.330   3.920
 4375SOL    HW114024   5.021   1.315   3.896
 4375SOL    HW214025   4.869   1.258   3.879
 4376SOL     OW14026   1.380   6.184   0.388
 4376SOL    HW114027   1.380   6.227   0.298
 4376SOL    HW214028   1.474   6.176   0.422
 4377SOL     OW14029   6.087   0.027   6.678
 4377SOL    HW114030   6.031   0.028   6.595
 4377SOL    HW214031   6.029   0.047   6.757
 4378SOL     OW14032   2.308   5.741   2.493
 4378SOL    HW114033   2.348   5.826   2.462
 4378SOL    HW214034   2.349   5.664   2.443
 4379SOL     OW14035   1.517   0.891   1.856
 4379SOL    HW114036   1.508   0.838   1.941
 4379SOL    HW214037   1.528   0.988   1.878
 4380SOL     OW14038   2.436   5.367   4.986
 4380SOL    HW114039   2.442   5.369   4.886
 4380SOL    HW214040   2.346   5.332   5.013
 4381SOL     OW14041   4.175   5.981   5.469
 4381SOL    HW114042   4.111   5.924   5.416
 4381SOL    HW214043   4.192   6.066   5.418
 4382SOL     OW14044   4.832   3.916   3.254
 4382SOL    HW114045   4.769   3.918   3.177
 4382SOL    HW214046   4.854   4.010   3.281
 4383SOL     OW14047   1.041   2.738   6.762
 4383SOL    HW114048   0.997   2.788   6.837
 4383SOL    HW214049   0.993   2.758   6.677
 4384SOL     OW14050   4.179   6.122   1.065
 4384SOL    HW114051   4.200   6.171   0.980
 4384SOL    HW214052   4.199   6.181   1.143
 4385SOL     OW14053   6.792   1.731   2.448
 4385SOL    HW114054   6.713   1.672   2.462
 4385SOL    HW214055   6.834   1.752   2.536
 4386SOL     OW14056   0.917   3.395   0.161
 4386SOL    HW114057   0.959   3.392   0.070
 4386SOL    HW214058   0.984   3.367   0.230
 4387SOL     OW14059   0.051   3.398   1.779
 4387SOL    HW114060   0.006   3.483   1.805
 4387SOL    HW214061   0.130   3.382   1.839
 4388SOL     OW14062   3.437   1.300   5.343
 4388SOL    HW114063   3.373   1.270   5.273
 4388SOL    HW214064   3.399   1.282   5.433
 4389SOL     OW14065   4.811   2.324   2.984
 4389SOL    HW114066   4.873   2.313   3.061
 4389SOL    HW214067   4.722   2.286   3.007
 4390SOL     OW14068   4.778   2.713   2.336
 4390SOL    HW114069   4.832   2.681   2.414
 4390SOL    HW214070   4.681   2.695   2.354
 4391SOL     OW14071   0.633   5.563   0.427
 4391SOL    HW114072   0.579   5.603   0.502
 4391SOL    HW214073   0.724   5.540   0.460
 4392SOL     OW14074   5.351   3.409   4.621
 4392SOL    HW114075   5.314   3.452   4.704
 4392SOL    HW214076   5.450   3.397   4.632
 4393SOL     OW14077   4.565   6.456   3.572
 4393SOL    HW114078   4.565   6.428   3.476
 4393SOL    HW214079   4.478   6.501   3.593
 4394SOL     OW14080   4.904   0.613   2.138
 4394SOL    HW114081   4.903   0.592   2.236
 4394SOL    HW214082   4.854   0.698   2.122
 4395SOL     OW14083   5.109   1.709   2.321
 4395SOL    HW114084   5.208   1.699   2.314
 4395SOL    HW214085   5.066   1.683   2.235
 4396SOL     OW14086   1.443   0.414   3.821
 4396SOL    HW114087   1.462   0.392   3.916
 4396SOL    HW214088   1.428   0.329   3.770
 4397SOL     OW14089   6.477   0.482   5.825
 4397SOL    HW114090   6.404   0.524   5.769
 4397SOL    HW214091   6.437   0.443   5.907
 4398SOL     OW14092   6.972   5.143   4.434
 4398SOL    HW114093   6.943   5.135   4.339
 4398SOL    HW214094   6.902   5.191   4.487
 4399SOL     OW14095   2.353   1.379   1.303
 4399SOL    HW114096   2.357   1.451   1.233
 4399SOL    HW214097   2.368   1.419   1.393
 4400SOL     OW14098   3.319   6.283   4.839
 4400SOL    HW114099   3.377   6.205   4.816
 4400SOL    HW214100   3.372   6.368   4.829
 4401SOL     OW14101   5.236   6.063   4.759
 4401SOL    HW114102   5.294   6.077   4.678
 4401SOL    HW214103   5.207   6.152   4.794
 4402SOL     OW14104   6.871   0.026   2.968
 4402SOL    HW114105   6.777   0.057   2.983
 4402SOL    HW214106   6.890   0.023   2.870
 4403SOL     OW14107   0.860   0.352   2.664
 4403SOL    HW114108   0.914   0.299   2.729
 4403SOL    HW214109   0.884   0.449   2.672
 4404SOL     OW14110   1.630   4.162   3.326
 4404SOL    HW114111   1.603   4.247   3.373
 4404SOL    HW214112   1.684   4.184   3.245
 4405SOL     OW14113   3.285   4.208   5.625
 4405SOL    HW114114   3.241   4.287   5.580
 4405SOL    HW214115   3.341   4.159   5.559
 4406SOL     OW14116   5.360   3.699   1.295
 4406SOL    HW114117   5.407   3.615   1.269
 4406SOL    HW214118   5.297   3.680   1.370
 4407SOL     OW14119   6.484   6.610   0.095
 4407SOL    HW114120   6.567   6.664   0.110
 4407SOL    HW214121   6.428   6.612   0.177
 4408SOL     OW14122   4.807   5.515   0.091
 4408SOL    HW114123   4.827   5.598   0.144
 4408SOL    HW214124   4.753   5.452   0.146
 4409SOL     OW14125   3.230   1.091   2.053
 4409SOL    HW114126   3.131   1.077   2.058
 4409SOL    HW214127   3.249   1.182   2.018
 4410SOL     OW14128   2.745   5.572   1.758
 4410SOL    HW114129   2.654   5.593   1.723
 4410SOL    HW214130   2.813   5.630   1.713
 4411SOL     OW14131   3.575   3.149   2.460
 4411SOL    HW114132   3.528   3.064   2.434
 4411SOL    HW214133   3.536   3.183   2.545
 4412SOL     OW14134   3.866   2.450   6.820
 4412SOL    HW114135   3.955   2.413   6.846
 4412SOL    HW214136   3.796   2.379   6.831
 4413SOL     OW14137   4.036   6.206   4.671
 4413SOL    HW114138   4.104   6.275   4.698
 4413SOL    HW214139   3.952   6.220   4.723
 4414SOL     OW14140   3.757   4.934   1.892
 4414SOL    HW114141   3.713   5.021   1.913
 4414SOL    HW214142   3.691   4.860   1.901
 4415SOL     OW14143   5.247   2.840   0.056
 4415SOL    HW114144   5.305   2.907   0.010
 4415SOL    HW214145   5.193   2.790   7.007
 4416SOL     OW14146   3.770   0.738   3.572
 4416SOL    HW114147   3.801   0.647   3.546
 4416SOL    HW214148   3.824   0.807   3.524
 4417SOL     OW14149   6.959   0.032   1.898
 4417SOL    HW114150   0.010   0.049   1.967
 4417SOL    HW214151   6.968   0.098   1.824
 4418SOL     OW14152   4.003   6.711   3.394
 4418SOL    HW114153   4.020   6.614   3.408
 4418SOL    HW214154   4.070   6.748   3.329
 4419SOL     OW14155   0.284   5.007   6.467
 4419SOL    HW114156   0.279   5.071   6.390
 4419SOL    HW214157   0.371   5.018   6.514
 4420SOL     OW14158   5.214   1.865   6.587
 4420SOL    HW114159   5.165   1.778   6.596
 4420SOL    HW214160   5.157   1.938   6.625
 4421SOL     OW14161   1.544   1.724   3.686
 4421SOL    HW114162   1.514   1.773   3.767
 4421SOL    HW214163   1.637   1.690   3.700
 4422SOL     OW14164   2.450   3.419   5.871
 4422SOL    HW114165   2.542   3.420   5.831
 4422SOL    HW214166   2.386   3.463   5.808
 4423SOL     OW14167   0.897   2.351   6.429
 4423SOL    HW114168   0.833   2.284   6.391
 4423SOL    HW214169   0.960   2.304   6.491
 4424SOL     OW14170   6.976   0.131   3.305
 4424SOL    HW114171   0.014   0.104   3.227
 4424SOL    HW214172   7.005   0.080   3.386
 4425SOL     OW14173   4.851   4.253   6.646
 4425SOL    HW114174   4.758   4.229   6.672
 4425SOL    HW214175   4.849   4.333   6.586
 4426SOL     OW14176   0.868   0.423   5.678
 4426SOL    HW114177   0.818   0.371   5.609
 4426SOL    HW214178   0.936   0.364   5.722
 4427SOL     OW14179   1.038   0.062   3.591
 4427SOL    HW114180   1.055   0.016   3.678
 4427SOL    HW214181   1.125   0.077   3.543
 4428SOL     OW14182   2.541   5.353   2.935
 4428SOL    HW114183   2.604   5.426   2.909
 4428SOL    HW214184   2.591   5.266   2.943
 4429SOL     OW14185   4.346   6.920   3.290
 4429SOL    HW114186   4.390   6.852   3.231
 4429SOL    HW214187   4.281   6.973   3.237
 4430SOL     OW14188   1.954   1.571   1.891
 4430SOL    HW114189   1.892   1.549   1.966
 4430SOL    HW214190   2.043   1.530   1.908
 4431SOL     OW14191   1.782   2.166   2.689
 4431SOL    HW114192   1.768   2.232   2.616
 4431SOL    HW214193   1.696   2.154   2.740
 4432SOL     OW14194   3.180   3.919   2.881
 4432SOL    HW114195   3.229   3.998   2.918
 4432SOL    HW214196   3.244   3.844   2.867
 4433SOL     OW14197   6.493   0.083   3.222
 4433SOL    HW114198   6.453   0.020   3.155
 4433SOL    HW214199   6.490   0.040   3.313
 4434SOL     OW14200   5.503   2.233   4.197
 4434SOL    HW114201   5.465   2.186   4.276
 4434SOL    HW214202   5.447   2.313   4.176
 4435SOL     OW14203   3.557   2.709   1.785
 4435SOL    HW114204   3.599   2.799   1.793
 4435SOL    HW214205   3.628   2.641   1.765
 4436SOL     OW14206   4.801   1.487   6.663
 4436SOL    HW114207   4.867   1.417   6.691
 4436SOL    HW214208   4.809   1.566   6.724
 4437SOL     OW14209   3.375   0.339   4.539
 4437SOL    HW114210   3.325   0.423   4.516
 4437SOL    HW214211   3.405   0.345   4.634
 4438SOL     OW14212   4.462   3.300   6.343
 4438SOL    HW114213   4.555   3.265   6.340
 4438SOL    HW214214   4.404   3.248   6.280
 4439SOL     OW14215   2.509   5.520   1.956
 4439SOL    HW114216   2.461   5.434   1.939
 4439SOL    HW214217   2.465   5.595   1.907
 4440SOL     OW14218   0.373   0.351   6.023
 4440SOL    HW114219   0.404   0.446   6.013
 4440SOL    HW214220   0.410   0.297   5.948
 4441SOL     OW14221   6.215   2.691   2.857
 4441SOL    HW114222   6.134   2.711   2.911
 4441SOL    HW214223   6.208   2.598   2.819
 4442SOL     OW14224   2.913   7.011   2.672
 4442SOL    HW114225   2.911   0.085   2.711
 4442SOL    HW214226   2.871   6.947   2.737
 4443SOL     OW14227   2.792   1.704   5.249
 4443SOL    HW114228   2.816   1.711   5.346
 4443SOL    HW214229   2.783   1.796   5.210
 4444SOL     OW14230   5.227   0.761   1.836
 4444SOL    HW114231   5.167   0.838   1.857
 4444SOL    HW214232   5.296   0.752   1.908
 4445SOL     OW14233   1.671   1.200   6.260
 4445SOL    HW114234   1.684   1.263   6.183
 4445SOL    HW214235   1.636   1.113   6.227
 4446SOL     OW14236   6.695   6.521   3.413
 4446SOL    HW114237   6.634   6.558   3.343
 4446SOL    HW214238   6.775   6.480   3.370
 4447SOL     OW14239   5.649   2.652   5.418
 4447SOL    HW114240   5.691   2.608   5.340
 4447SOL    HW214241   5.718   2.671   5.488
 4448SOL     OW14242   2.372   3.299   6.690
 4448SOL    HW114243   2.386   3.226   6.623
 4448SOL    HW214244   2.303   3.363   6.656
 4449SOL     OW14245   1.046   1.315   5.127
 4449SOL    HW114246   1.010   1.286   5.038
 4449SOL    HW214247   1.056   1.414   5.128
 4450SOL     OW14248   3.820   4.081   3.207
 4450SOL    HW114249   3.774   4.109   3.291
 4450SOL    HW214250   3.795   4.144   3.133
 4451SOL     OW14251   5.984   4.414   2.096
 4451SOL    HW114252   6.056   4.470   2.056
 4451SOL    HW214253   5.895   4.451   2.070
 4452SOL     OW14254   6.275   5.882   6.386
 4452SOL    HW114255   6.224   5.930   6.314
 4452SOL    HW214256   6.224   5.886   6.472
 4453SOL     OW14257   5.746   2.033   1.433
 4453SOL    HW114258   5.783   2.044   1.525
 4453SOL    HW214259   5.784   2.103   1.372
 4454SOL     OW14260   4.993   2.934   1.587
 4454SOL    HW114261   4.903   2.953   1.549
 4454SOL    HW214262   4.997   2.965   1.682
 4455SOL     OW14263   4.398   1.152   2.208
 4455SOL    HW114264   4.457   1.159   2.128
 4455SOL    HW214265   4.302   1.157   2.180
 4456SOL     OW14266   0.987   5.807   3.193
 4456SOL    HW114267   1.030   5.898   3.199
 4456SOL    HW214268   0.982   5.780   3.097
 4457SOL     OW14269   5.083   2.377   6.314
 4457SOL    HW114270   5.101   2.425   6.228
 4457SOL    HW214271   4.990   2.339   6.312
 4458SOL     OW14272   3.909   2.166   5.935
 4458SOL    HW114273   3.811   2.163   5.954
 4458SOL    HW214274   3.938   2.080   5.893
 4459SOL     OW14275   4.698   5.636   4.733
 4459SOL    HW114276   4.647   5.715   4.701
 4459SOL    HW214277   4.796   5.650   4.717
 4460SOL     OW14278   1.958   1.515   6.149
 4460SOL    HW114279   2.019   1.573   6.203
 4460SOL    HW214280   1.928   1.564   6.068
 4461SOL     OW14281   2.387   0.201   1.836
 4461SOL    HW114282   2.414   0.289   1.876
 4461SOL    HW214283   2.468   0.149   1.810
 4462SOL     OW14284   0.018   5.753   1.265
 4462SOL    HW114285   6.985   5.831   1.298
 4462SOL    HW214286   0.108   5.750   1.310
 4463SOL     OW14287   0.916   3.585   6.354
 4463SOL    HW114288   0.842   3.650   6.339
 4463SOL    HW214289   0.883   3.492   6.334
 4464SOL     OW14290   5.669   3.374   6.904
 4464SOL    HW114291   5.595   3.313   6.929
 4464SOL    HW214292   5.642   3.469   6.921
 4465SOL     OW14293   1.462   6.277   2.216
 4465SOL    HW114294   1.469   6.289   2.117
 4465SOL    HW214295   1.430   6.184   2.236
 4466SOL     OW14296   0.792   2.189   3.814
 4466SOL    HW114297   0.860   2.152   3.878
 4466SOL    HW214298   0.834   2.261   3.759
 4467SOL     OW14299   0.823   6.651   3.142
 4467SOL    HW114300   0.843   6.645   3.240
 4467SOL    HW214301   0.745   6.592   3.120
 4468SOL     OW14302   1.475   2.243   0.544
 4468SOL    HW114303   1.468   2.342   0.550
 4468SOL    HW214304   1.425   2.210   0.464
 4469SOL     OW14305   4.365   0.312   6.652
 4469SOL    HW114306   4.267   0.333   6.650
 4469SOL    HW214307   4.417   0.389   6.616
 4470SOL     OW14308   4.361   4.582   1.383
 4470SOL    HW114309   4.369   4.644   1.461
 4470SOL    HW214310   4.343   4.635   1.300
 4471SOL     OW14311   6.338   3.510   0.561
 4471SOL    HW114312   6.269   3.438   0.551
 4471SOL    HW214313   6.299   3.598   0.533
 4472SOL     OW14314   2.038   4.370   2.466
 4472SOL    HW114315   2.076   4.460   2.487
 4472SOL    HW214316   1.952   4.380   2.417
 4473SOL     OW14317   0.494   6.748   5.075
 4473SOL    HW114318   0.456   6.838   5.095
 4473SOL    HW214319   0.436   6.677   5.114
 4474SOL     OW14320   4.598   0.563   3.333
 4474SOL    HW114321   4.658   0.605   3.401
 4474SOL    HW214322   4.517   0.525   3.379
 4475SOL     OW14323   1.908   3.985   0.358
 4475SOL    HW114324   1.811   4.005   0.376
 4475SOL    HW214325   1.944   3.927   0.431
 4476SOL     OW14326   4.492   6.266   1.763
 4476SOL    HW114327   4.393   6.250   1.755
 4476SOL    HW214328   4.520   6.333   1.694
 4477SOL     OW14329   1.222   1.804   1.057
 4477SOL    HW114330   1.167   1.859   1.121
 4477SOL    HW214331   1.163   1.770   0.984
 4478SOL     OW14332   2.157   5.814   1.702
 4478SOL    HW114333   2.108   5.895   1.734
 4478SOL    HW214334   2.103   5.732   1.722
 4479SOL     OW14335   0.590   0.188   5.119
 4479SOL    HW114336   0.683   0.178   5.154
 4479SOL    HW214337   0.578   0.133   5.037
 4480SOL     OW14338   0.719   4.590   3.533
 4480SOL    HW114339   0.757   4.665   3.480
 4480SOL    HW214340   0.794   4.536   3.573
 4481SOL     OW14341   1.064   6.594   4.517
 4481SOL    HW114342   1.125   6.556   4.447
 4481SOL    HW214343   0.969   6.579   4.490
 4482SOL     OW14344   0.028   4.523   4.111
 4482SOL    HW114345   0.125   4.524   4.131
 4482SOL    HW214346   6.994   4.542   4.194
 4483SOL     OW14347   5.697   2.793   2.171
 4483SOL    HW114348   5.667   2.758   2.260
 4483SOL    HW214349   5.794   2.818   2.176
 4484SOL     OW14350   4.400   2.748   5.549
 4484SOL    HW114351   4.339   2.749   5.470
 4484SOL    HW214352   4.351   2.784   5.629
 4485SOL     OW14353   5.408   1.929   6.399
 4485SOL    HW114354   5.347   1.915   6.477
 4485SOL    HW214355   5.403   1.849   6.339
 4486SOL     OW14356   6.234   2.889   3.994
 4486SOL    HW114357   6.245   2.899   3.895
 4486SOL    HW214358   6.139   2.904   4.018
 4487SOL     OW14359   3.199   2.908   6.448
 4487SOL    HW114360   3.203   3.000   6.487
 4487SOL    HW214361   3.282   2.858   6.474
 4488SOL     OW14362   0.228   1.422   4.765
 4488SOL    HW114363   0.196   1.496   4.824
 4488SOL    HW214364   0.307   1.377   4.807
 4489SOL     OW14365   5.985   6.638   4.674
 4489SOL    HW114366   5.935   6.595   4.749
 4489SOL    HW214367   6.065   6.582   4.651
 4490SOL     OW14368   6.998   1.990   3.111
 4490SOL    HW114369   0.058   2.022   3.163
 4490SOL    HW214370   7.000   1.890   3.105
 4491SOL     OW14371   0.871   3.030   3.128
 4491SOL    HW114372   0.957   2.991   3.160
 4491SOL    HW214373   0.844   3.105   3.189
 4492SOL     OW14374   4.681   3.217   6.889
 4492SOL    HW114375   4.658   3.238   6.984
 4492SOL    HW214376   4.741   3.137   6.886
 4493SOL     OW14377   5.930   5.153   4.214
 4493SOL    HW114378   5.901   5.190   4.303
 4493SOL    HW214379   5.966   5.228   4.158
 4494SOL     OW14380   6.450   4.374   4.356
 4494SOL    HW114381   6.383   4.442   4.384
 4494SOL    HW214382   6.500   4.341   4.436
 4495SOL     OW14383   5.147   6.582   1.109
 4495SOL    HW114384   5.077   6.645   1.140
 4495SOL    HW214385   5.161   6.592   1.010
 4496SOL     OW14386   4.990   3.877   5.346
 4496SOL    HW114387   4.909   3.901   5.294
 4496SOL    HW214388   5.036   3.960   5.377
 4497SOL     OW14389   6.138   4.688   0.484
 4497SOL    HW114390   6.046   4.708   0.518
 4497SOL    HW214391   6.172   4.766   0.432
 4498SOL     OW14392   0.242   3.465   6.969
 4498SOL    HW114393   0.310   3.401   6.932
 4498SOL    HW214394   0.276   3.558   6.963
 4499SOL     OW14395   6.871   2.925   6.183
 4499SOL    HW114396   6.772   2.925   6.193
 4499SOL    HW214397   6.905   2.832   6.191
 4500SOL     OW14398   3.209   4.140   4.733
 4500SOL    HW114399   3.142   4.215   4.736
 4500SOL    HW214400   3.238   4.126   4.639
 4501SOL     OW14401   0.222   4.052   4.956
 4501SOL    HW114402   0.203   3.971   4.901
 4501SOL    HW214403   0.265   4.122   4.900
 4502SOL     OW14404   0.439   2.807   0.490
 4502SOL    HW114405   0.462   2.874   0.420
 4502SOL    HW214406   0.340   2.804   0.504
 4503SOL     OW14407   1.041   1.375   3.886
 4503SOL    HW114408   0.992   1.382   3.799
 4503SOL    HW214409   1.115   1.442   3.887
 4504SOL     OW14410   5.179   1.785   4.543
 4504SOL    HW114411   5.204   1.839   4.462
 4504SOL    HW214412   5.253   1.789   4.609
 4505SOL     OW14413   1.754   6.081   6.177
 4505SOL    HW114414   1.705   6.163   6.149
 4505SOL    HW214415   1.852   6.093   6.162
 4506SOL     OW14416   4.266   0.475   5.408
 4506SOL    HW114417   4.243   0.571   5.424
 4506SOL    HW214418   4.229   0.447   5.319
 4507SOL     OW14419   6.267   4.471   0.400
 4507SOL    HW114420   6.180   4.427   0.374
 4507SOL    HW214421   6.248   4.558   0.444
 4508SOL     OW14422   1.284   3.821   0.685
 4508SOL    HW114423   1.244   3.729   0.694
 4508SOL    HW214424   1.380   3.819   0.713
 4509SOL     OW14425   2.410   1.798   4.356
 4509SOL    HW114426   2.445   1.863   4.424
 4509SOL    HW214427   2.359   1.726   4.402
 4510SOL     OW14428   4.186   6.502   5.198
 4510SOL    HW114429   4.235   6.428   5.245
 4510SOL    HW214430   4.139   6.466   5.118
 4511SOL     OW14431   6.092   2.349   0.373
 4511SOL    HW114432   6.151   2.309   0.443
 4511SOL    HW214433   6.063   2.441   0.402
 4512SOL     OW14434   2.729   5.191   6.927
 4512SOL    HW114435   2.706   5.112   6.983
 4512SOL    HW214436   2.648   5.220   6.876
 4513SOL     OW14437   4.747   0.760   1.932
 4513SOL    HW114438   4.784   0.851   1.948
 4513SOL    HW214439   4.784   0.723   1.847
 4514SOL     OW14440   3.419   1.422   5.078
 4514SOL    HW114441   3.417   1.485   5.155
 4514SOL    HW214442   3.409   1.473   4.992
 4515SOL     OW14443   0.529   5.375   1.186
 4515SOL    HW114444   0.587   5.313   1.132
 4515SOL    HW214445   0.433   5.353   1.169
 4516SOL     OW14446   0.919   0.794   4.944
 4516SOL    HW114447   0.882   0.855   4.874
 4516SOL    HW214448   0.933   0.845   5.029
 4517SOL     OW14449   3.281   6.662   5.380
 4517SOL    HW114450   3.213   6.733   5.400
 4517SOL    HW214451   3.338   6.691   5.303
 4518SOL     OW14452   1.520   1.961   4.443
 4518SOL    HW114453   1.583   1.919   4.378
 4518SOL    HW214454   1.504   2.056   4.418
 4519SOL     OW14455   6.901   3.363   3.980
 4519SOL    HW114456   6.875   3.288   3.919
 4519SOL    HW214457   6.862   3.449   3.945
 4520SOL     OW14458   6.850   3.845   2.914
 4520SOL    HW114459   6.765   3.896   2.925
 4520SOL    HW214460   6.917   3.902   2.867
 4521SOL     OW14461   5.709   2.174   6.906
 4521SOL    HW114462   5.612   2.195   6.916
 4521SOL    HW214463   5.740   2.199   6.814
 4522SOL     OW14464   6.115   0.207   4.110
 4522SOL    HW114465   6.151   0.273   4.044
 4522SOL    HW214466   6.147   0.231   4.202
 4523SOL     OW14467   3.682   3.464   0.385
 4523SOL    HW114468   3.770   3.492   0.422
 4523SOL    HW214469   3.662   3.370   0.413
 4524SOL     OW14470   5.714   0.041   4.661
 4524SOL    HW114471   5.756   0.106   4.725
 4524SOL    HW214472   5.741   6.967   4.686
 4525SOL     OW14473   6.404   1.388   5.119
 4525SOL    HW114474   6.356   1.338   5.047
 4525SOL    HW214475   6.343   1.458   5.157
 4526SOL     OW14476   5.056   7.012   0.992
 4526SOL    HW114477   5.083   0.070   1.051
 4526SOL    HW214478   5.097   0.006   0.902
 4527SOL     OW14479   4.986   0.821   2.565
 4527SOL    HW114480   4.929   0.756   2.616
 4527SOL    HW214481   4.933   0.862   2.492
 4528SOL     OW14482   6.141   6.814   0.081
 4528SOL    HW114483   6.057   6.831   0.029
 4528SOL    HW214484   6.201   6.754   0.028
 4529SOL     OW14485   3.652   6.271   2.931
 4529SOL    HW114486   3.579   6.337   2.913
 4529SOL    HW214487   3.649   6.199   2.862
 4530SOL     OW14488   0.475   3.383   5.550
 4530SOL    HW114489   0.424   3.314   5.499
 4530SOL    HW214490   0.573   3.368   5.536
 4531SOL     OW14491   0.141   4.067   4.112
 4531SOL    HW114492   0.200   4.105   4.184
 4531SOL    HW214493   0.067   4.016   4.155
 4532SOL     OW14494   5.808   1.449   0.485
 4532SOL    HW114495   5.832   1.516   0.414
 4532SOL    HW214496   5.862   1.468   0.567
 4533SOL     OW14497   2.644   5.768   2.559
 4533SOL    HW114498   2.592   5.790   2.642
 4533SOL    HW214499   2.742   5.778   2.578
 4534SOL     OW14500   6.021   4.111   5.085
 4534SOL    HW114501   6.106   4.068   5.052
 4534SOL    HW214502   5.981   4.054   5.157
 4535SOL     OW14503   5.021   2.881   1.886
 4535SOL    HW114504   5.075   2.956   1.926
 4535SOL    HW214505   4.936   2.871   1.938
 4536SOL     OW14506   6.394   0.811   4.787
 4536SOL    HW114507   6.433   0.724   4.758
 4536SOL    HW214508   6.433   0.885   4.731
 4537SOL     OW14509   3.606   2.743   6.297
 4537SOL    HW114510   3.598   2.678   6.372
 4537SOL    HW214511   3.517   2.753   6.252
 4538SOL     OW14512   2.907   1.294   3.148
 4538SOL    HW114513   2.905   1.215   3.209
 4538SOL    HW214514   2.816   1.336   3.145
 4539SOL     OW14515   2.112   1.508   2.957
 4539SOL    HW114516   2.211   1.504   2.945
 4539SOL    HW214517   2.075   1.585   2.904
 4540SOL     OW14518   3.563   3.109   4.091
 4540SOL    HW114519   3.463   3.104   4.087
 4540SOL    HW214520   3.593   3.105   4.186
 4541SOL     OW14521   4.847   1.647   1.681
 4541SOL    HW114522   4.789   1.603   1.612
 4541SOL    HW214523   4.790   1.691   1.749
 4542SOL     OW14524   4.894   0.344   2.599
 4542SOL    HW114525   4.935   0.382   2.682
 4542SOL    HW214526   4.801   0.312   2.620
 4543SOL     OW14527   5.700   1.392   1.225
 4543SOL    HW114528   5.798   1.377   1.219
 4543SOL    HW214529   5.680   1.453   1.302
 4544SOL     OW14530   3.678   4.844   6.231
 4544SOL    HW114531   3.677   4.943   6.219
 4544SOL    HW214532   3.586   4.813   6.258
 4545SOL     OW14533   3.953   2.006   5.508
 4545SOL    HW114534   3.879   1.961   5.558
 4545SOL    HW214535   4.022   1.938   5.484
 4546SOL     OW14536   1.380   6.304   6.705
 4546SOL    HW114537   1.410   6.389   6.749
 4546SOL    HW214538   1.460   6.248   6.684
 4547SOL     OW14539   5.027   2.057   2.217
 4547SOL    HW114540   5.097   1.987   2.233
 4547SOL    HW214541   4.947   2.038   2.273
 4548SOL     OW14542   1.244   3.806   3.545
 4548SOL    HW114543   1.303   3.821   3.466
 4548SOL    HW214544   1.148   3.816   3.517
 4549SOL     OW14545   6.594   2.937   2.883
 4549SOL    HW114546   6.620   2.965   2.791
 4549SOL    HW214547   6.585   2.837   2.885
 4550SOL     OW14548   1.352   6.198   4.276
 4550SOL    HW114549   1.331   6.105   4.244
 4550SOL    HW214550   1.451   6.209   4.284
 4551SOL     OW14551   0.667   2.919   5.497
 4551SOL    HW114552   0.576   2.886   5.519
 4551SOL    HW214553   0.725   2.843   5.469
 4552SOL     OW14554   0.193   3.533   4.749
 4552SOL    HW114555   0.164   3.453   4.802
 4552SOL    HW214556   0.255   3.503   4.676
 4553SOL     OW14557   4.963   4.533   0.303
 4553SOL    HW114558   4.947   4.628   0.328
 4553SOL    HW214559   4.995   4.482   0.383
 4554SOL     OW14560   5.352   6.943   2.561
 4554SOL    HW114561   5.396   0.006   2.524
 4554SOL    HW214562   5.298   6.968   2.641
 4555SOL     OW14563   5.047   2.093   6.723
 4555SOL    HW114564   5.114   2.167   6.716
 4555SOL    HW214565   4.997   2.102   6.809
 4556SOL     OW14566   4.658   1.290   3.790
 4556SOL    HW114567   4.611   1.375   3.814
 4556SOL    HW214568   4.654   1.276   3.691
 4557SOL     OW14569   5.181   6.800   6.057
 4557SOL    HW114570   5.117   6.762   5.990
 4557SOL    HW214571   5.229   6.878   6.016
 4558SOL     OW14572   6.278   3.235   6.488
 4558SOL    HW114573   6.213   3.305   6.519
 4558SOL    HW214574   6.283   3.237   6.388
 4559SOL     OW14575   0.955   6.748   1.152
 4559SOL    HW114576   0.972   6.669   1.210
 4559SOL    HW214577   0.932   6.718   1.059
 4560SOL     OW14578   4.882   3.444   3.049
 4560SOL    HW114579   4.959   3.381   3.051
 4560SOL    HW214580   4.859   3.465   2.954
 4561SOL     OW14581   3.341   0.582   6.462
 4561SOL    HW114582   3.333   0.574   6.362
 4561SOL    HW214583   3.357   0.491   6.501
 4562SOL     OW14584   2.607   4.895   6.497
 4562SOL    HW114585   2.621   4.799   6.521
 4562SOL    HW214586   2.681   4.925   6.437
 4563SOL     OW14587   6.247   2.453   6.899
 4563SOL    HW114588   6.234   2.354   6.898
 4563SOL    HW214589   6.260   2.486   6.806
 4564SOL     OW14590   1.604   5.837   0.165
 4564SOL    HW114591   1.584   5.818   0.261
 4564SOL    HW214592   1.702   5.827   0.149
 4565SOL     OW14593   2.266   0.524   5.409
 4565SOL    HW114594   2.234   0.551   5.318
 4565SOL    HW214595   2.342   0.583   5.437
 4566SOL     OW14596   6.868   1.460   6.931
 4566SOL    HW114597   6.857   1.468   0.011
 4566SOL    HW214598   6.950   1.406   6.911
 4567SOL     OW14599   6.823   1.023   1.177
 4567SOL    HW114600   6.738   1.071   1.154
 4567SOL    HW214601   6.901   1.083   1.161
 4568SOL     OW14602   3.660   4.431   5.564
 4568SOL    HW114603   3.566   4.416   5.595
 4568SOL    HW214604   3.672   4.526   5.536
 4569SOL     OW14605   0.539   1.914   4.378
 4569SOL    HW114606   0.624   1.877   4.416
 4569SOL    HW214607   0.499   1.979   4.442
 4570SOL     OW14608   0.448   5.307   3.888
 4570SOL    HW114609   0.507   5.226   3.884
 4570SOL    HW214610   0.482   5.370   3.957
 4571SOL     OW14611   3.542   2.857   4.804
 4571SOL    HW114612   3.639   2.843   4.787
 4571SOL    HW214613   3.508   2.784   4.865
 4572SOL     OW14614   1.738   6.670   1.577
 4572SOL    HW114615   1.652   6.644   1.621
 4572SOL    HW214616   1.721   6.697   1.483
 4573SOL     OW14617   5.205   6.901   0.769
 4573SOL    HW114618   5.198   6.955   0.684
 4573SOL    HW214619   5.270   6.827   0.756
 4574SOL     OW14620   0.306   4.667   1.905
 4574SOL    HW114621   0.227   4.635   1.852
 4574SOL    HW214622   0.379   4.696   1.843
 4575SOL     OW14623   6.311   0.415   2.711
 4575SOL    HW114624   6.311   0.319   2.683
 4575SOL    HW214625   6.222   0.439   2.747
 4576SOL     OW14626   3.185   5.641   6.073
 4576SOL    HW114627   3.240   5.663   5.992
 4576SOL    HW214628   3.113   5.576   6.047
 4577SOL     OW14629   0.907   3.085   3.748
 4577SOL    HW114630   0.996   3.086   3.702
 4577SOL    HW214631   0.840   3.037   3.691
 4578SOL     OW14632   6.757   4.252   4.090
 4578SOL    HW114633   6.836   4.305   4.122
 4578SOL    HW214634   6.741   4.176   4.153
 4579SOL     OW14635   5.826   2.241   3.688
 4579SOL    HW114636   5.763   2.206   3.618
 4579SOL    HW214637   5.913   2.265   3.645
 4580SOL     OW14638   6.915   5.715   0.474
 4580SOL    HW114639   6.825   5.670   0.474
 4580SOL    HW214640   6.940   5.738   0.380
 4581SOL     OW14641   3.275   5.694   2.525
 4581SOL    HW114642   3.223   5.778   2.541
 4581SOL    HW214643   3.323   5.669   2.609
 4582SOL     OW14644   5.122   6.254   2.421
 4582SOL    HW114645   5.048   6.284   2.361
 4582SOL    HW214646   5.085   6.234   2.512
 4583SOL     OW14647   4.361   1.557   5.712
 4583SOL    HW114648   4.270   1.594   5.697
 4583SOL    HW214649   4.365   1.463   5.677
 4584SOL     OW14650   0.625   5.599   5.625
 4584SOL    HW114651   0.671   5.625   5.709
 4584SOL    HW214652   0.690   5.550   5.566
 4585SOL     OW14653   3.586   6.130   2.716
 4585SOL    HW114654   3.521   6.159   2.645
 4585SOL    HW214655   3.652   6.067   2.676
 4586SOL     OW14656   3.417   5.252   2.335
 4586SOL    HW114657   3.355   5.329   2.348
 4586SOL    HW214658   3.427   5.234   2.237
 4587SOL     OW14659   2.432   3.902   1.336
 4587SOL    HW114660   2.506   3.853   1.290
 4587SOL    HW214661   2.454   3.915   1.432
 4588SOL     OW14662   4.246   3.560   5.294
 4588SOL    HW114663   4.190   3.615   5.233
 4588SOL    HW214664   4.188   3.521   5.366
 4589SOL     OW14665   6.655   2.543   4.772
 4589SOL    HW114666   6.652   2.545   4.672
 4589SOL    HW214667   6.594   2.470   4.805
 4590SOL     OW14668   4.452   5.406   2.389
 4590SOL    HW114669   4.535   5.458   2.368
 4590SOL    HW214670   4.472   5.342   2.463
 4591SOL     OW14671   5.598   6.348   5.437
 4591SOL    HW114672   5.629   6.424   5.493
 4591SOL    HW214673   5.499   6.339   5.444
 4592SOL     OW14674   3.836   2.159   6.496
 4592SOL    HW114675   3.924   2.145   6.451
 4592SOL    HW214676   3.829   2.253   6.528
 4593SOL     OW14677   3.917   6.463   2.198
 4593SOL    HW114678   4.008   6.430   2.223
 4593SOL    HW214679   3.906   6.557   2.231
 4594SOL     OW14680   2.641   1.509   1.848
 4594SOL    HW114681   2.617   1.425   1.798
 4594SOL    HW214682   2.570   1.529   1.916
 4595SOL     OW14683   3.844   2.798   5.875
 4595SOL    HW114684   3.760   2.750   5.902
 4595SOL    HW214685   3.866   2.776   5.780
 4596SOL     OW14686   5.338   0.043   1.852
 4596SOL    HW114687   5.323   0.134   1.814
 4596SOL    HW214688   5.314   0.042   1.949
 4597SOL     OW14689   5.983   4.734   6.730
 4597SOL    HW114690   5.906   4.733   6.666
 4597SOL    HW214691   5.960   4.791   6.809
 4598SOL     OW14692   2.715   4.461   6.858
 4598SOL    HW114693   2.731   4.516   6.776
 4598SOL    HW214694   2.617   4.440   6.866
 4599SOL     OW14695   1.778   4.757   0.511
 4599SOL    HW114696   1.680   4.761   0.494
 4599SOL    HW214697   1.812   4.848   0.536
 4600SOL     OW14698   3.154   5.653   1.264
 4600SOL    HW114699   3.177   5.688   1.355
 4600SOL    HW214700   3.105   5.723   1.213
 4601SOL     OW14701   2.025   6.377   5.141
 4601SOL    HW114702   1.928   6.403   5.139
 4601SOL    HW214703   2.065   6.391   5.051
 4602SOL     OW14704   2.305   0.832   1.609
 4602SOL    HW114705   2.388   0.847   1.556
 4602SOL    HW214706   2.250   0.761   1.565
 4603SOL     OW14707   3.472   6.863   1.461
 4603SOL    HW114708   3.392   6.804   1.454
 4603SOL    HW214709   3.443   6.954   1.490
 4604SOL     OW14710   3.502   6.932   2.072
 4604SOL    HW114711   3.479   6.873   2.149
 4604SOL    HW214712   3.586   6.898   2.028
 4605SOL     OW14713   5.154   6.867   4.653
 4605SOL    HW114714   5.116   6.790   4.704
 4605SOL    HW214715   5.081   6.914   4.604
 4606SOL     OW14716   0.010   6.291   5.704
 4606SOL    HW114717   0.090   6.233   5.691
 4606SOL    HW214718   6.985   6.269   5.791
 4607SOL     OW14719   3.320   2.114   1.453
 4607SOL    HW114720   3.386   2.189   1.452
 4607SOL    HW214721   3.300   2.087   1.547
 4608SOL     OW14722   1.719   4.048   5.268
 4608SOL    HW114723   1.791   4.118   5.273
 4608SOL    HW214724   1.640   4.077   5.322
 4609SOL     OW14725   4.359   6.569   6.697
 4609SOL    HW114726   4.440   6.530   6.741
 4609SOL    HW214727   4.320   6.641   6.755
 4610SOL     OW14728   0.356   3.300   6.756
 4610SOL    HW114729   0.293   3.242   6.704
 4610SOL    HW214730   0.425   3.338   6.694
 4611SOL     OW14731   0.707   4.158   0.432
 4611SOL    HW114732   0.667   4.068   0.450
 4611SOL    HW214733   0.650   4.228   0.474
 4612SOL     OW14734   2.317   6.743   6.850
 4612SOL    HW114735   2.364   6.801   6.784
 4612SOL    HW214736   2.380   6.716   6.922
 4613SOL     OW14737   3.265   5.498   2.314
 4613SOL    HW114738   3.173   5.498   2.274
 4613SOL    HW214739   3.267   5.562   2.392
 4614SOL     OW14740   1.434   5.522   0.171
 4614SOL    HW114741   1.527   5.529   0.134
 4614SOL    HW214742   1.404   5.612   0.204
 4615SOL     OW14743   0.437   2.548   0.539
 4615SOL    HW114744   0.520   2.492   0.539
 4615SOL    HW214745   0.458   2.638   0.500
 4616SOL     OW14746   5.204   0.771   6.797
 4616SOL    HW114747   5.220   0.868   6.819
 4616SOL    HW214748   5.238   0.753   6.705
 4617SOL     OW14749   0.148   2.868   2.218
 4617SOL    HW114750   0.188   2.959   2.222
 4617SOL    HW214751   0.181   2.821   2.136
 4618SOL     OW14752   0.829   2.467   6.118
 4618SOL    HW114753   0.739   2.510   6.113
 4618SOL    HW214754   0.849   2.443   6.214
 4619SOL     OW14755   3.470   1.004   3.558
 4619SOL    HW114756   3.478   1.099   3.528
 4619SOL    HW214757   3.375   0.974   3.551
 4620SOL     OW14758   2.476   4.381   6.538
 4620SOL    HW114759   2.429   4.397   6.625
 4620SOL    HW214760   2.495   4.469   6.494
 4621SOL     OW14761   0.186   6.333   6.065
 4621SOL    HW114762   0.270   6.384   6.080
 4621SOL    HW214763   0.185   6.253   6.125
 4622SOL     OW14764   1.954   3.787   1.169
 4622SOL    HW114765   1.984   3.766   1.076
 4622SOL    HW214766   2.033   3.819   1.222
 4623SOL     OW14767   6.092   5.037   1.933
 4623SOL    HW114768   6.171   4.999   1.980
 4623SOL    HW214769   6.123   5.097   1.859
 4624SOL     OW14770   4.849   0.127   4.734
 4624SOL    HW114771   4.842   0.109   4.832
 4624SOL    HW214772   4.771   0.085   4.687
 4625SOL     OW14773   0.837   3.659   6.894
 4625SOL    HW114774   0.760   3.599   6.875
 4625SOL    HW214775   0.904   3.651   6.820
 4626SOL     OW14776   6.778   5.543   1.034
 4626SOL    HW114777   6.854   5.512   1.092
 4626SOL    HW214778   6.767   5.641   1.044
 4627SOL     OW14779   3.160   6.323   5.951
 4627SOL    HW114780   3.250   6.354   5.920
 4627SOL    HW214781   3.115   6.398   6.000
 4628SOL     OW14782   0.315   3.961   2.138
 4628SOL    HW114783   0.374   3.881   2.123
 4628SOL    HW214784   0.371   4.043   2.142
 4629SOL     OW14785   2.436   4.673   5.595
 4629SOL    HW114786   2.425   4.574   5.600
 4629SOL    HW214787   2.531   4.698   5.613
 4630SOL     OW14788   1.723   6.574   2.693
 4630SOL    HW114789   1.739   6.495   2.752
 4630SOL    HW214790   1.762   6.656   2.735
 4631SOL     OW14791   3.126   6.690   2.647
 4631SOL    HW114792   3.155   6.781   2.676
 4631SOL    HW214793   3.149   6.677   2.550
 4632SOL     OW14794   5.416   5.738   3.961
 4632SOL    HW114795   5.377   5.696   3.880
 4632SOL    HW214796   5.413   5.838   3.952
 4633SOL     OW14797   6.492   2.331   4.922
 4633SOL    HW114798   6.515   2.390   5.000
 4633SOL    HW214799   6.394   2.312   4.923
 4634SOL     OW14800   3.288   4.338   0.587
 4634SOL    HW114801   3.214   4.293   0.638
 4634SOL    HW214802   3.314   4.422   0.635
 4635SOL     OW14803   5.529   4.033   1.665
 4635SOL    HW114804   5.575   3.957   1.710
 4635SOL    HW214805   5.494   4.004   1.576
 4636SOL     OW14806   2.406   5.364   0.476
 4636SOL    HW114807   2.441   5.450   0.512
 4636SOL    HW214808   2.477   5.318   0.423
 4637SOL     OW14809   1.464   1.341   5.137
 4637SOL    HW114810   1.519   1.321   5.055
 4637SOL    HW214811   1.508   1.414   5.189
 4638SOL     OW14812   5.423   3.193   5.290
 4638SOL    HW114813   5.385   3.126   5.227
 4638SOL    HW214814   5.349   3.251   5.325
 4639SOL     OW14815   6.930   3.630   5.494
 4639SOL    HW114816   7.001   3.693   5.464
 4639SOL    HW214817   6.958   3.586   5.579
 4640SOL     OW14818   5.548   4.007   2.660
 4640SOL    HW114819   5.456   3.996   2.622
 4640SOL    HW214820   5.543   4.011   2.759
 4641SOL     OW14821   2.114   5.347   5.069
 4641SOL    HW114822   2.113   5.260   5.117
 4641SOL    HW214823   2.169   5.413   5.120
 4642SOL     OW14824   5.467   6.268   4.324
 4642SOL    HW114825   5.535   6.331   4.361
 4642SOL    HW214826   5.394   6.320   4.279
 4643SOL     OW14827   4.145   2.165   1.869
 4643SOL    HW114828   4.100   2.085   1.831
 4643SOL    HW214829   4.133   2.243   1.807
 4644SOL     OW14830   2.365   5.725   5.334
 4644SOL    HW114831   2.387   5.787   5.259
 4644SOL    HW214832   2.422   5.747   5.414
 4645SOL     OW14833   2.208   5.693   4.743
 4645SOL    HW114834   2.110   5.682   4.764
 4645SOL    HW214835   2.226   5.652   4.654
 4646SOL     OW14836   4.206   0.421   1.694
 4646SOL    HW114837   4.245   0.440   1.784
 4646SOL    HW214838   4.114   0.383   1.704
 4647SOL     OW14839   6.648   0.237   4.270
 4647SOL    HW114840   6.701   0.288   4.338
 4647SOL    HW214841   6.551   0.262   4.278
 4648SOL     OW14842   2.164   5.901   2.809
 4648SOL    HW114843   2.098   5.951   2.864
 4648SOL    HW214844   2.208   5.963   2.744
 4649SOL     OW14845   5.294   0.387   5.926
 4649SOL    HW114846   5.237   0.435   5.859
 4649SOL    HW214847   5.348   0.454   5.977
 4650SOL     OW14848   6.566   4.636   2.071
 4650SOL    HW114849   6.578   4.733   2.088
 4650SOL    HW214850   6.535   4.591   2.155
 4651SOL     OW14851   0.177   2.460   1.988
 4651SOL    HW114852   0.206   2.500   2.075
 4651SOL    HW214853   0.193   2.526   1.915
 4652SOL     OW14854   6.946   6.499   6.054
 4652SOL    HW114855   0.011   6.448   6.029
 4652SOL    HW214856   6.866   6.443   6.033
 4653SOL     OW14857   0.415   5.926   0.009
 4653SOL    HW114858   0.427   5.948   6.930
 4653SOL    HW214859   0.335   5.974   0.044
 4654SOL     OW14860   1.371   1.134   6.977
 4654SOL    HW114861   1.466   1.147   6.951
 4654SOL    HW214862   1.325   1.223   6.979
 4655SOL     OW14863   6.740   4.604   3.421
 4655SOL    HW114864   6.678   4.552   3.361
 4655SOL    HW214865   6.834   4.594   3.389
 4656SOL     OW14866   2.167   6.663   3.484
 4656SOL    HW114867   2.204   6.578   3.520
 4656SOL    HW214868   2.087   6.643   3.426
 4657SOL     OW14869   5.403   0.217   0.455
 4657SOL    HW114870   5.387   0.236   0.358
 4657SOL    HW214871   5.481   0.155   0.464
 4658SOL     OW14872   5.420   0.526   3.298
 4658SOL    HW114873   5.466   0.453   3.349
 4658SOL    HW214874   5.420   0.610   3.353
 4659SOL     OW14875   1.666   2.615   5.097
 4659SOL    HW114876   1.739   2.577   5.154
 4659SOL    HW214877   1.579   2.574   5.123
 4660SOL     OW14878   0.015   0.408   5.890
 4660SOL    HW114879   0.034   0.447   5.981
 4660SOL    HW214880   6.935   0.404   5.875
 4661SOL     OW14881   3.750   3.989   4.367
 4661SOL    HW114882   3.660   3.972   4.326
 4661SOL    HW214883   3.745   4.070   4.425
 4662SOL     OW14884   4.990   0.364   5.102
 4662SOL    HW114885   4.893   0.353   5.080
 4662SOL    HW214886   5.019   0.290   5.163
 4663SOL     OW14887   0.271   2.175   2.906
 4663SOL    HW114888   0.319   2.262   2.919
 4663SOL    HW214889   0.339   2.102   2.892
 4664SOL     OW14890   2.998   2.169   6.748
 4664SOL    HW114891   2.915   2.134   6.791
 4664SOL    HW214892   2.974   2.236   6.678
 4665SOL     OW14893   5.353   0.573   0.155
 4665SOL    HW114894   5.404   0.618   0.228
 4665SOL    HW214895   5.392   0.599   0.067
 4666SOL     OW14896   2.203   1.280   0.725
 4666SOL    HW114897   2.130   1.305   0.662
 4666SOL    HW214898   2.184   1.319   0.815
 4667SOL     OW14899   0.296   5.283   5.974
 4667SOL    HW114900   0.275   5.381   5.978
 4667SOL    HW214901   0.389   5.271   5.938
 4668SOL     OW14902   6.846   1.483   4.033
 4668SOL    HW114903   6.856   1.536   3.948
 4668SOL    HW214904   6.861   1.542   4.112
 4669SOL     OW14905   1.875   0.268   0.126
 4669SOL    HW114906   1.877   0.234   0.220
 4669SOL    HW214907   1.839   0.198   0.065
 4670SOL     OW14908   2.362   1.624   4.149
 4670SOL    HW114909   2.356   1.539   4.201
 4670SOL    HW214910   2.380   1.700   4.212
 4671SOL     OW14911   5.873   3.685   1.061
 4671SOL    HW114912   5.925   3.675   1.145
 4671SOL    HW214913   5.788   3.735   1.079
 4672SOL     OW14914   1.947   3.643   6.010
 4672SOL    HW114915   1.888   3.584   5.954
 4672SOL    HW214916   2.007   3.586   6.066
 4673SOL     OW14917   4.174   0.705   2.920
 4673SOL    HW114918   4.188   0.685   2.823
 4673SOL    HW214919   4.088   0.756   2.931
 4674SOL     OW14920   4.098   5.878   6.242
 4674SOL    HW114921   4.087   5.935   6.161
 4674SOL    HW214922   4.187   5.832   6.238
 4675SOL     OW14923   0.749   4.324   0.108
 4675SOL    HW114924   0.661   4.367   0.088
 4675SOL    HW214925   0.759   4.310   0.206
 4676SOL     OW14926   0.882   5.861   3.928
 4676SOL    HW114927   0.885   5.763   3.909
 4676SOL    HW214928   0.975   5.898   3.931
 4677SOL     OW14929   1.602   2.946   0.181
 4677SOL    HW114930   1.688   2.975   0.139
 4677SOL    HW214931   1.611   2.951   0.281
 4678SOL     OW14932   2.602   5.060   2.377
 4678SOL    HW114933   2.683   5.007   2.404
 4678SOL    HW214934   2.571   5.114   2.455
 4679SOL     OW14935   5.134   7.017   2.043
 4679SOL    HW114936   5.046   0.046   2.035
 4679SOL    HW214937   5.129   6.930   1.994
 4680SOL     OW14938   2.171   1.196   1.348
 4680SOL    HW114939   2.247   1.258   1.327
 4680SOL    HW214940   2.143   1.209   1.443
 4681SOL     OW14941   5.352   4.634   1.302
 4681SOL    HW114942   5.416   4.697   1.345
 4681SOL    HW214943   5.399   4.547   1.282
 4682SOL     OW14944   3.940   3.533   6.845
 4682SOL    HW114945   3.958   3.476   6.925
 4682SOL    HW214946   4.025   3.550   6.796
 4683SOL     OW14947   6.254   4.230   3.301
 4683SOL    HW114948   6.245   4.158   3.370
 4683SOL    HW214949   6.223   4.317   3.339
 4684SOL     OW14950   4.849   6.394   0.040
 4684SOL    HW114951   4.893   6.442   6.983
 4684SOL    HW214952   4.810   6.461   0.103
 4685SOL     OW14953   2.687   3.278   5.782
 4685SOL    HW114954   2.776   3.323   5.778
 4685SOL    HW214955   2.634   3.301   5.700
 4686SOL     OW14956   2.748   5.636   0.041
 4686SOL    HW114957   2.697   5.550   0.050
 4686SOL    HW214958   2.703   5.706   0.097
 4687SOL     OW14959   3.216   0.607   3.061
 4687SOL    HW114960   3.168   0.625   3.147
 4687SOL    HW214961   3.280   0.681   3.043
 4688SOL     OW14962   5.863   3.341   5.452
 4688SOL    HW114963   5.950   3.292   5.442
 4688SOL    HW214964   5.789   3.285   5.416
 4689SOL     OW14965   5.967   1.200   1.444
 4689SOL    HW114966   6.051   1.148   1.459
 4689SOL    HW214967   5.919   1.212   1.531
 4690SOL     OW14968   2.939   1.821   0.207
 4690SOL    HW114969   2.925   1.724   0.188
 4690SOL    HW214970   2.858   1.858   0.253
 4691SOL     OW14971   6.956   4.226   1.730
 4691SOL    HW114972   0.006   4.213   1.657
 4691SOL    HW214973   7.002   4.230   1.818
 4692SOL     OW14974   5.771   3.870   2.736
 4692SOL    HW114975   5.694   3.914   2.689
 4692SOL    HW214976   5.841   3.846   2.670
 4693SOL     OW14977   1.951   0.593   3.663
 4693SOL    HW114978   1.915   0.502   3.647
 4693SOL    HW214979   1.940   0.617   3.760
 4694SOL     OW14980   2.070   1.668   0.048
 4694SOL    HW114981   2.020   1.754   0.056
 4694SOL    HW214982   2.168   1.687   0.045
 4695SOL     OW14983   0.869   6.231   1.814
 4695SOL    HW114984   0.817   6.219   1.729
 4695SOL    HW214985   0.928   6.311   1.805
 4696SOL     OW14986   1.207   5.001   5.875
 4696SOL    HW114987   1.277   4.983   5.945
 4696SOL    HW214988   1.174   5.094   5.885
 4697SOL     OW14989   3.324   5.131   0.622
 4697SOL    HW114990   3.363   5.221   0.603
 4697SOL    HW214991   3.318   5.079   0.537
 4698SOL     OW14992   5.864   1.235   3.153
 4698SOL    HW114993   5.898   1.217   3.061
 4698SOL    HW214994   5.930   1.200   3.220
 4699SOL     OW14995   1.132   0.031   2.712
 4699SOL    HW114996   1.040   0.006   2.682
 4699SOL    HW214997   1.199   6.989   2.668
 4700SOL     OW14998   5.812   2.160   3.071
 4700SOL    HW114999   5.836   2.251   3.039
 4700SOL    HW215000   5.725   2.132   3.030
 4701SOL     OW15001   3.519   1.722   1.797
 4701SOL    HW115002   3.533   1.792   1.726
 4701SOL    HW215003   3.436   1.743   1.849
 4702SOL     OW15004   5.389   4.663   6.589
 4702SOL    HW115005   5.395   4.689   6.686
 4702SOL    HW215006   5.454   4.590   6.570
 4703SOL     OW15007   0.963   5.216   3.568
 4703SOL    HW115008   0.969   5.148   3.642
 4703SOL    HW215009   1.053   5.228   3.527
 4704SOL     OW15010   1.025   5.031   5.526
 4704SOL    HW115011   1.117   5.016   5.490
 4704SOL    HW215012   0.968   4.952   5.504
 4705SOL     OW15013   3.306   2.403   1.693
 4705SOL    HW115014   3.293   2.499   1.717
 4705SOL    HW215015   3.368   2.396   1.614
 4706SOL     OW15016   1.915   0.491   0.351
 4706SOL    HW115017   1.858   0.563   0.390
 4706SOL    HW215018   1.899   0.485   0.253
 4707SOL     OW15019   1.899   6.436   1.278
 4707SOL    HW115020   1.871   6.343   1.255
 4707SOL    HW215021   1.827   6.500   1.252
 4708SOL     OW15022   0.482   3.104   4.152
 4708SOL    HW115023   0.433   3.028   4.194
 4708SOL    HW215024   0.479   3.183   4.212
 4709SOL     OW15025   4.706   3.854   5.252
 4709SOL    HW115026   4.756   3.880   5.169
 4709SOL    HW215027   4.686   3.757   5.250
 4710SOL     OW15028   5.936   6.410   4.356
 4710SOL    HW115029   5.927   6.320   4.314
 4710SOL    HW215030   5.845   6.448   4.373
 4711SOL     OW15031   5.753   3.101   3.157
 4711SOL    HW115032   5.781   3.152   3.238
 4711SOL    HW215033   5.680   3.038   3.181
 4712SOL     OW15034   4.676   4.207   5.254
 4712SOL    HW115035   4.630   4.129   5.297
 4712SOL    HW215036   4.712   4.179   5.165
 4713SOL     OW15037   5.788   4.273   1.400
 4713SOL    HW115038   5.762   4.187   1.356
 4713SOL    HW215039   5.886   4.289   1.388
 4714SOL     OW15040   5.626   1.123   6.057
 4714SOL    HW115041   5.716   1.141   6.097
 4714SOL    HW215042   5.587   1.209   6.023
 4715SOL     OW15043   6.244   1.253   1.729
 4715SOL    HW115044   6.194   1.179   1.774
 4715SOL    HW215045   6.309   1.215   1.663
 4716SOL     OW15046   3.795   4.102   5.875
 4716SOL    HW115047   3.747   4.062   5.797
 4716SOL    HW215048   3.838   4.188   5.848
 4717SOL     OW15049   2.867   5.274   5.042
 4717SOL    HW115050   2.962   5.284   5.074
 4717SOL    HW215051   2.855   5.184   5.001
 4718SOL     OW15052   4.645   4.292   0.604
 4718SOL    HW115053   4.653   4.390   0.590
 4718SOL    HW215054   4.722   4.258   0.658
 4719SOL     OW15055   6.889   3.890   3.797
 4719SOL    HW115056   6.932   3.980   3.800
 4719SOL    HW215057   6.799   3.894   3.840
 4720SOL     OW15058   3.041   3.874   6.658
 4720SOL    HW115059   3.018   3.878   6.561
 4720SOL    HW215060   2.964   3.907   6.712
 4721SOL     OW15061   6.396   3.362   2.861
 4721SOL    HW115062   6.494   3.348   2.871
 4721SOL    HW215063   6.379   3.449   2.816
 4722SOL     OW15064   1.645   4.729   6.923
 4722SOL    HW115065   1.743   4.719   6.903
 4722SOL    HW215066   1.620   4.667   6.997
 4723SOL     OW15067   3.648   3.858   6.691
 4723SOL    HW115068   3.677   3.944   6.731
 4723SOL    HW215069   3.596   3.805   6.758
 4724SOL     OW15070   1.275   6.721   4.668
 4724SOL    HW115071   1.197   6.670   4.631
 4724SOL    HW215072   1.305   6.789   4.601
 4725SOL     OW15073   5.487   5.947   0.236
 4725SOL    HW115074   5.456   5.941   0.141
 4725SOL    HW215075   5.565   6.009   0.242
 4726SOL     OW15076   1.083   3.427   5.407
 4726SOL    HW115077   1.051   3.378   5.326
 4726SOL    HW215078   1.067   3.370   5.488
 4727SOL     OW15079   0.835   5.443   0.093
 4727SOL    HW115080   0.911   5.384   0.122
 4727SOL    HW215081   0.841   5.530   0.141
 4728SOL     OW15082   6.513   1.535   4.538
 4728SOL    HW115083   6.582   1.507   4.471
 4728SOL    HW215084   6.558   1.555   4.625
 4729SOL     OW15085   6.304   1.097   1.098
 4729SOL    HW115086   6.214   1.066   1.067
 4729SOL    HW215087   6.300   1.116   1.196
 4730SOL     OW15088   3.532   6.674   4.928
 4730SOL    HW115089   3.555   6.762   4.886
 4730SOL    HW215090   3.443   6.682   4.973
 4731SOL     OW15091   3.589   0.874   0.699
 4731SOL    HW115092   3.661   0.937   0.729
 4731SOL    HW215093   3.561   0.815   0.775
 4732SOL     OW15094   0.350   4.763   3.960
 4732SOL    HW115095   0.305   4.837   4.010
 4732SOL    HW215096   0.319   4.675   3.996
 4733SOL     OW15097   2.080   3.678   3.126
 4733SOL    HW115098   2.136   3.624   3.189
 4733SOL    HW215099   2.112   3.664   3.033
 4734SOL     OW15100   4.949   3.462   6.388
 4734SOL    HW115101   4.876   3.478   6.322
 4734SOL    HW215102   4.910   3.433   6.475
 4735SOL     OW15103   6.976   0.231   4.808
 4735SOL    HW115104   6.968   0.246   4.907
 4735SOL    HW215105   0.020   0.155   4.791
 4736SOL     OW15106   6.485   2.010   3.225
 4736SOL    HW115107   6.578   2.046   3.227
 4736SOL    HW215108   6.471   1.951   3.305
 4737SOL     OW15109   2.040   4.555   1.018
 4737SOL    HW115110   2.131   4.595   1.006
 4737SOL    HW215111   2.030   4.475   0.959
 4738SOL     OW15112   1.959   6.680   3.760
 4738SOL    HW115113   1.953   6.757   3.697
 4738SOL    HW215114   2.041   6.689   3.817
 4739SOL     OW15115   5.845   3.407   3.649
 4739SOL    HW115116   5.811   3.435   3.739
 4739SOL    HW215117   5.940   3.436   3.639
 4740SOL     OW15118   0.606   1.137   1.348
 4740SOL    HW115119   0.669   1.198   1.397
 4740SOL    HW215120   0.570   1.183   1.267
 4741SOL     OW15121   4.458   4.956   1.692
 4741SOL    HW115122   4.381   5.006   1.733
 4741SOL    HW215123   4.528   5.021   1.663
 4742SOL     OW15124   2.515   6.201   1.839
 4742SOL    HW115125   2.603   6.155   1.853
 4742SOL    HW215126   2.461   6.150   1.772
 4743SOL     OW15127   2.459   1.992   0.481
 4743SOL    HW115128   2.480   2.006   0.384
 4743SOL    HW215129   2.502   1.907   0.512
 4744SOL     OW15130   1.809   3.029   5.461
 4744SOL    HW115131   1.781   3.096   5.393
 4744SOL    HW215132   1.783   3.061   5.552
 4745SOL     OW15133   2.909   5.908   5.080
 4745SOL    HW115134   2.932   5.816   5.046
 4745SOL    HW215135   2.864   5.960   5.008
 4746SOL     OW15136   6.651   0.329   0.382
 4746SOL    HW115137   6.614   0.246   0.424
 4746SOL    HW215138   6.615   0.340   0.290
 4747SOL     OW15139   6.302   2.622   0.922
 4747SOL    HW115140   6.369   2.635   0.995
 4747SOL    HW215141   6.247   2.540   0.942
 4748SOL     OW15142   2.063   1.274   1.597
 4748SOL    HW115143   1.999   1.259   1.672
 4748SOL    HW215144   2.072   1.372   1.581
 4749SOL     OW15145   1.503   6.521   6.874
 4749SOL    HW115146   1.473   6.608   6.837
 4749SOL    HW215147   1.600   6.508   6.855
 4750SOL     OW15148   6.831   0.897   4.616
 4750SOL    HW115149   6.919   0.850   4.629
 4750SOL    HW215150   6.846   0.985   4.572
 4751SOL     OW15151   1.058   3.844   6.706
 4751SOL    HW115152   1.153   3.819   6.721
 4751SOL    HW215153   1.021   3.886   6.790
 4752SOL     OW15154   3.100   5.952   1.535
 4752SOL    HW115155   3.186   5.996   1.509
 4752SOL    HW215156   3.120   5.864   1.578
 4753SOL     OW15157   5.905   0.035   5.418
 4753SOL    HW115158   5.935   0.018   5.325
 4753SOL    HW215159   5.965   0.102   5.462
 4754SOL     OW15160   0.795   0.217   5.520
 4754SOL    HW115161   0.835   0.242   5.432
 4754SOL    HW215162   0.795   0.118   5.531
 4755SOL     OW15163   2.448   1.493   6.614
 4755SOL    HW115164   2.532   1.523   6.660
 4755SOL    HW215165   2.371   1.502   6.677
 4756SOL     OW15166   4.817   2.772   1.232
 4756SOL    HW115167   4.735   2.718   1.251
 4756SOL    HW215168   4.894   2.734   1.284
 4757SOL     OW15169   1.999   1.959   1.164
 4757SOL    HW115170   1.981   1.974   1.066
 4757SOL    HW215171   2.068   2.024   1.195
 4758SOL     OW15172   5.133   5.403   5.267
 4758SOL    HW115173   5.119   5.304   5.274
 4758SOL    HW215174   5.146   5.429   5.171
 4759SOL     OW15175   5.409   5.571   5.617
 4759SOL    HW115176   5.494   5.580   5.668
 4759SOL    HW215177   5.426   5.591   5.520
 4760SOL     OW15178   1.712   1.624   1.731
 4760SOL    HW115179   1.680   1.537   1.770
 4760SOL    HW215180   1.791   1.657   1.782
 4761SOL     OW15181   0.558   6.801   6.492
 4761SOL    HW115182   0.654   6.805   6.521
 4761SOL    HW215183   0.500   6.835   6.565
 4762SOL     OW15184   2.131   5.760   2.119
 4762SOL    HW115185   2.167   5.735   2.029
 4762SOL    HW215186   2.204   5.800   2.174
 4763SOL     OW15187   6.212   5.990   3.739
 4763SOL    HW115188   6.300   5.946   3.721
 4763SOL    HW215189   6.138   5.931   3.709
 4764SOL     OW15190   3.675   3.509   4.236
 4764SOL    HW115191   3.699   3.418   4.270
 4764SOL    HW215192   3.580   3.508   4.203
 4765SOL     OW15193   5.448   5.793   4.684
 4765SOL    HW115194   5.496   5.876   4.713
 4765SOL    HW215195   5.425   5.738   4.764
 4766SOL     OW15196   2.655   0.223   3.088
 4766SOL    HW115197   2.614   0.274   3.163
 4766SOL    HW215198   2.698   0.286   3.024
 4767SOL     OW15199   4.145   6.076   6.617
 4767SOL    HW115200   4.098   6.116   6.695
 4767SOL    HW215201   4.171   6.148   6.553
 4768SOL     OW15202   7.010   0.543   5.330
 4768SOL    HW115203   6.953   0.554   5.249
 4768SOL    HW215204   0.072   0.603   5.323
 4769SOL     OW15205   4.095   6.830   1.376
 4769SOL    HW115206   4.036   6.868   1.304
 4769SOL    HW215207   4.187   6.868   1.368
 4770SOL     OW15208   2.870   0.821   3.196
 4770SOL    HW115209   2.951   0.782   3.240
 4770SOL    HW215210   2.788   0.778   3.233
 4771SOL     OW15211   3.853   4.031   5.276
 4771SOL    HW115212   3.801   4.105   5.234
 4771SOL    HW215213   3.887   3.970   5.205
 4772SOL     OW15214   2.585   2.112   1.868
 4772SOL    HW115215   2.602   2.155   1.957
 4772SOL    HW215216   2.660   2.135   1.805
 4773SOL     OW15217   0.152   6.016   3.510
 4773SOL    HW115218   0.234   5.964   3.534
 4773SOL    HW215219   0.178   6.098   3.459
 4774SOL     OW15220   0.486   4.171   1.415
 4774SOL    HW115221   0.477   4.110   1.336
 4774SOL    HW215222   0.574   4.218   1.411
 4775SOL     OW15223   4.084   0.486   2.433
 4775SOL    HW115224   4.019   0.423   2.476
 4775SOL    HW215225   4.177   0.451   2.446
 4776SOL     OW15226   3.004   5.542   2.201
 4776SOL    HW115227   2.919   5.502   2.236
 4776SOL    HW215228   3.004   5.641   2.218
 4777SOL     OW15229   2.886   4.087   1.088
 4777SOL    HW115230   2.945   4.163   1.117
 4777SOL    HW215231   2.890   4.014   1.156
 4778SOL     OW15232   4.848   4.150   1.939
 4778SOL    HW115233   4.828   4.241   1.901
 4778SOL    HW215234   4.782   4.084   1.903
 4779SOL     OW15235   5.502   0.693   2.811
 4779SOL    HW115236   5.599   0.691   2.838
 4779SOL    HW215237   5.495   0.669   2.714
 4780SOL     OW15238   0.844   6.678   6.457
 4780SOL    HW115239   0.917   6.613   6.433
 4780SOL    HW215240   0.777   6.633   6.516
 4781SOL     OW15241   2.537   5.386   1.343
 4781SOL    HW115242   2.490   5.349   1.423
 4781SOL    HW215243   2.544   5.485   1.351
 4782SOL     OW15244   5.700   6.617   6.378
 4782SOL    HW115245   5.603   6.592   6.373
 4782SOL    HW215246   5.755   6.543   6.338
 4783SOL     OW15247   5.496   4.410   1.211
 4783SOL    HW115248   5.482   4.323   1.257
 4783SOL    HW215249   5.473   4.401   1.114
 4784SOL     OW15250   5.695   5.107   4.486
 4784SOL    HW115251   5.625   5.170   4.454
 4784SOL    HW215252   5.766   5.158   4.535
 4785SOL     OW15253   6.718   0.113   1.741
 4785SOL    HW115254   6.733   0.046   1.813
 4785SOL    HW215255   6.636   0.088   1.689
 4786SOL     OW15256   1.817   3.004   1.945
 4786SOL    HW115257   1.854   3.095   1.962
 4786SOL    HW215258   1.811   2.989   1.846
 4787SOL     OW15259   3.384   1.823   3.081
 4787SOL    HW115260   3.312   1.834   3.013
 4787SOL    HW215261   3.474   1.827   3.037
 4788SOL     OW15262   1.497   5.340   4.290
 4788SOL    HW115263   1.426   5.324   4.358
 4788SOL    HW215264   1.506   5.260   4.231
 4789SOL     OW15265   5.696   0.628   0.519
 4789SOL    HW115266   5.724   0.581   0.603
 4789SOL    HW215267   5.704   0.566   0.441
 4790SOL     OW15268   5.712   2.091   6.127
 4790SOL    HW115269   5.738   2.146   6.206
 4790SOL    HW215270   5.759   2.002   6.131
 4791SOL     OW15271   5.617   6.939   2.279
 4791SOL    HW115272   5.698   6.882   2.265
 4791SOL    HW215273   5.558   6.934   2.199
 4792SOL     OW15274   2.120   2.530   2.547
 4792SOL    HW115275   2.206   2.490   2.580
 4792SOL    HW215276   2.119   2.628   2.566
 4793SOL     OW15277   1.315   6.542   5.837
 4793SOL    HW115278   1.241   6.477   5.821
 4793SOL    HW215279   1.323   6.603   5.759
 4794SOL     OW15280   2.709   0.691   2.426
 4794SOL    HW115281   2.679   0.769   2.481
 4794SOL    HW215282   2.647   0.614   2.441
 4795SOL     OW15283   6.294   3.270   3.635
 4795SOL    HW115284   6.361   3.196   3.647
 4795SOL    HW215285   6.339   3.348   3.591
 4796SOL     OW15286   5.497   4.665   0.922
 4796SOL    HW115287   5.410   4.680   0.876
 4796SOL    HW215288   5.537   4.753   0.947
 4797SOL     OW15289   0.322   4.597   5.165
 4797SOL    HW115290   0.293   4.676   5.219
 4797SOL    HW215291   0.242   4.548   5.131
 4798SOL     OW15292   7.016   4.868   4.479
 4798SOL    HW115293   6.933   4.817   4.504
 4798SOL    HW215294   6.991   4.963   4.458
 4799SOL     OW15295   4.574   1.537   4.866
 4799SOL    HW115296   4.601   1.620   4.816
 4799SOL    HW215297   4.611   1.457   4.819
 4800SOL     OW15298   1.854   2.286   4.793
 4800SOL    HW115299   1.827   2.279   4.889
 4800SOL    HW215300   1.814   2.210   4.742
 4801SOL     OW15301   0.547   2.377   1.142
 4801SOL    HW115302   0.578   2.426   1.223
 4801SOL    HW215303   0.626   2.341   1.093
 4802SOL     OW15304   2.838   0.509   1.516
 4802SOL    HW115305   2.739   0.525   1.517
 4802SOL    HW215306   2.885   0.590   1.550
 4803SOL     OW15307   0.988   0.022   0.816
 4803SOL    HW115308   0.933   0.026   0.733
 4803SOL    HW215309   1.085   0.014   0.792
 4804SOL     OW15310   4.190   4.994   6.973
 4804SOL    HW115311   4.248   5.047   0.015
 4804SOL    HW215312   4.243   4.961   6.895
 4805SOL     OW15313   6.672   1.858   1.050
 4805SOL    HW115314   6.648   1.825   1.141
 4805SOL    HW215315   6.591   1.899   1.007
 4806SOL     OW15316   0.796   2.759   3.167
 4806SOL    HW115317   0.827   2.848   3.133
 4806SOL    HW215318   0.710   2.769   3.217
 4807SOL     OW15319   0.034   0.070   1.472
 4807SOL    HW115320   0.012   0.127   1.551
 4807SOL    HW215321   0.081   7.005   1.504
 4808SOL     OW15322   5.003   2.905   1.090
 4808SOL    HW115323   4.936   2.844   1.134
 4808SOL    HW215324   5.025   2.870   0.999
 4809SOL     OW15325   3.809   5.551   7.015
 4809SOL    HW115326   3.884   5.605   6.977
 4809SOL    HW215327   3.774   5.597   0.078
 4810SOL     OW15328   0.941   0.208   1.462
 4810SOL    HW115329   0.930   0.121   1.414
 4810SOL    HW215330   1.019   0.257   1.423
 4811SOL     OW15331   3.946   5.164   1.992
 4811SOL    HW115332   3.874   5.177   2.061
 4811SOL    HW215333   3.917   5.093   1.928
 4812SOL     OW15334   0.027   5.912   4.097
 4812SOL    HW115335   0.077   5.888   4.179
 4812SOL    HW215336   0.067   5.994   4.055
 4813SOL     OW15337   5.311   2.079   3.194
 4813SOL    HW115338   5.325   2.020   3.114
 4813SOL    HW215339   5.305   2.174   3.164
 4814SOL     OW15340   6.901   3.748   1.493
 4814SOL    HW115341   6.808   3.722   1.518
 4814SOL    HW215342   6.939   3.807   1.564
 4815SOL     OW15343   4.678   6.375   1.121
 4815SOL    HW115344   4.743   6.319   1.070
 4815SOL    HW215345   4.682   6.469   1.088
 4816SOL     OW15346   5.371   5.026   3.180
 4816SOL    HW115347   5.438   5.047   3.109
 4816SOL    HW215348   5.335   4.934   3.166
 4817SOL     OW15349   0.850   1.908   6.558
 4817SOL    HW115350   0.766   1.959   6.576
 4817SOL    HW215351   0.921   1.937   6.622
 4818SOL     OW15352   0.404   0.119   4.156
 4818SOL    HW115353   0.411   0.211   4.193
 4818SOL    HW215354   0.310   0.101   4.128
 4819SOL     OW15355   1.643   3.042   0.778
 4819SOL    HW115356   1.690   2.978   0.838
 4819SOL    HW215357   1.677   3.031   0.685
 4820SOL     OW15358   6.830   3.248   2.152
 4820SOL    HW115359   6.833   3.191   2.071
 4820SOL    HW215360   6.792   3.338   2.129
 4821SOL     OW15361   6.871   5.522   2.313
 4821SOL    HW115362   6.886   5.428   2.344
 4821SOL    HW215363   6.950   5.553   2.261
 4822SOL     OW15364   1.288   3.643   4.251
 4822SOL    HW115365   1.351   3.663   4.326
 4822SOL    HW215366   1.289   3.545   4.232
 4823SOL     OW15367   1.865   3.019   1.660
 4823SOL    HW115368   1.888   2.993   1.566
 4823SOL    HW215369   1.948   3.017   1.716
 4824SOL     OW15370   6.042   1.482   5.498
 4824SOL    HW115371   6.064   1.578   5.517
 4824SOL    HW215372   5.969   1.452   5.559
 4825SOL     OW15373   1.584   6.792   3.772
 4825SOL    HW115374   1.617   6.708   3.815
 4825SOL    HW215375   1.652   6.865   3.785
 4826SOL     OW15376   4.363   0.803   1.307
 4826SOL    HW115377   4.391   0.714   1.269
 4826SOL    HW215378   4.426   0.830   1.379
 4827SOL     OW15379   6.769   1.542   1.566
 4827SOL    HW115380   6.748   1.615   1.501
 4827SOL    HW215381   6.690   1.527   1.626
 4828SOL     OW15382   4.806   0.604   3.552
 4828SOL    HW115383   4.782   0.666   3.627
 4828SOL    HW215384   4.905   0.592   3.550
 4829SOL     OW15385   3.878   6.735   5.148
 4829SOL    HW115386   3.965   6.747   5.196
 4829SOL    HW215387   3.835   6.824   5.134
 4830SOL     OW15388   3.043   5.752   3.136
 4830SOL    HW115389   2.953   5.783   3.104
 4830SOL    HW215390   3.072   5.807   3.214
 4831SOL     OW15391   3.256   4.961   5.544
 4831SOL    HW115392   3.212   5.012   5.618
 4831SOL    HW215393   3.294   5.025   5.477
 4832SOL     OW15394   3.560   3.268   4.524
 4832SOL    HW115395   3.612   3.353   4.516
 4832SOL    HW215396   3.493   3.277   4.599
 4833SOL     OW15397   6.888   3.329   4.254
 4833SOL    HW115398   6.799   3.304   4.293
 4833SOL    HW215399   6.882   3.326   4.154
 4834SOL     OW15400   1.072   5.150   1.601
 4834SOL    HW115401   1.113   5.235   1.567
 4834SOL    HW215402   0.976   5.165   1.622
 4835SOL     OW15403   6.561   2.311   5.380
 4835SOL    HW115404   6.485   2.289   5.442
 4835SOL    HW215405   6.642   2.334   5.433
 4836SOL     OW15406   5.281   1.297   5.417
 4836SOL    HW115407   5.233   1.250   5.342
 4836SOL    HW215408   5.369   1.331   5.383
 4837SOL     OW15409   0.286   4.561   4.145
 4837SOL    HW115410   0.289   4.642   4.203
 4837SOL    HW215411   0.372   4.510   4.155
 4838SOL     OW15412   2.265   4.155   6.616
 4838SOL    HW115413   2.350   4.104   6.601
 4838SOL    HW215414   2.188   4.091   6.619
 4839SOL     OW15415   2.508   1.484   0.157
 4839SOL    HW115416   2.441   1.464   0.086
 4839SOL    HW215417   2.513   1.407   0.221
 4840SOL     OW15418   5.722   3.920   4.454
 4840SOL    HW115419   5.660   3.993   4.482
 4840SOL    HW215420   5.732   3.854   4.529
 4841SOL     OW15421   3.430   5.865   2.736
 4841SOL    HW115422   3.427   5.765   2.739
 4841SOL    HW215423   3.500   5.899   2.798
 4842SOL     OW15424   3.243   5.518   2.974
 4842SOL    HW115425   3.277   5.444   3.031
 4842SOL    HW215426   3.143   5.514   2.969
 4843SOL     OW15427   0.314   1.857   1.629
 4843SOL    HW115428   0.269   1.775   1.592
 4843SOL    HW215429   0.274   1.878   1.719
 4844SOL     OW15430   1.219   5.656   4.968
 4844SOL    HW115431   1.249   5.695   4.881
 4844SOL    HW215432   1.132   5.697   4.995
 4845SOL     OW15433   4.900   3.876   4.993
 4845SOL    HW115434   4.997   3.874   4.967
 4845SOL    HW215435   4.868   3.782   5.008
 4846SOL     OW15436   6.633   3.709   4.309
 4846SOL    HW115437   6.694   3.666   4.242
 4846SOL    HW215438   6.538   3.686   4.288
 4847SOL     OW15439   2.248   6.101   6.511
 4847SOL    HW115440   2.215   6.157   6.435
 4847SOL    HW215441   2.268   6.161   6.589
 4848SOL     OW15442   3.376   0.988   4.408
 4848SOL    HW115443   3.462   0.983   4.459
 4848SOL    HW215444   3.356   1.084   4.387
 4849SOL     OW15445   2.123   6.826   0.993
 4849SOL    HW115446   2.153   6.732   0.983
 4849SOL    HW215447   2.033   6.838   0.952
 4850SOL     OW15448   4.630   0.203   0.161
 4850SOL    HW115449   4.547   0.153   0.136
 4850SOL    HW215450   4.705   0.175   0.101
 4851SOL     OW15451   3.641   4.507   6.675
 4851SOL    HW115452   3.629   4.592   6.727
 4851SOL    HW215453   3.606   4.519   6.583
 4852SOL     OW15454   4.944   5.652   4.666
 4852SOL    HW115455   4.960   5.556   4.691
 4852SOL    HW215456   4.940   5.659   4.566
 4853SOL     OW15457   4.497   6.828   1.877
 4853SOL    HW115458   4.573   6.853   1.937
 4853SOL    HW215459   4.412   6.864   1.915
 4854SOL     OW15460   5.467   6.216   1.514
 4854SOL    HW115461   5.424   6.303   1.492
 4854SOL    HW215462   5.415   6.170   1.585
 4855SOL     OW15463   5.335   4.982   5.583
 4855SOL    HW115464   5.280   4.970   5.500
 4855SOL    HW215465   5.308   5.067   5.629
 4856SOL     OW15466   0.061   4.005   2.845
 4856SOL    HW115467   0.073   3.964   2.755
 4856SOL    HW215468   0.091   4.100   2.843
 4857SOL     OW15469   2.503   2.239   5.217
 4857SOL    HW115470   2.508   2.217   5.119
 4857SOL    HW215471   2.469   2.159   5.267
 4858SOL     OW15472   0.507   6.191   4.000
 4858SOL    HW115473   0.486   6.230   4.090
 4858SOL    HW215474   0.499   6.092   4.003
 4859SOL     OW15475   0.746   6.349   2.188
 4859SOL    HW115476   0.816   6.278   2.181
 4859SOL    HW215477   0.784   6.437   2.160
 4860SOL     OW15478   4.227   5.409   1.165
 4860SOL    HW115479   4.188   5.451   1.247
 4860SOL    HW215480   4.325   5.431   1.160
 4861SOL     OW15481   0.240   4.235   6.767
 4861SOL    HW115482   0.267   4.139   6.762
 4861SOL    HW215483   0.144   4.244   6.742
 4862SOL     OW15484   2.461   5.578   5.707
 4862SOL    HW115485   2.519   5.498   5.694
 4862SOL    HW215486   2.483   5.646   5.637
 4863SOL     OW15487   4.528   2.028   3.291
 4863SOL    HW115488   4.603   2.078   3.334
 4863SOL    HW215489   4.497   2.077   3.209
 4864SOL     OW15490   2.090   1.109   1.106
 4864SOL    HW115491   2.113   1.182   1.042
 4864SOL    HW215492   2.143   1.121   1.190
 4865SOL     OW15493   3.625   5.994   5.534
 4865SOL    HW115494   3.605   6.089   5.559
 4865SOL    HW215495   3.724   5.982   5.522
 4866SOL     OW15496   0.032   4.340   2.016
 4866SOL    HW115497   0.071   4.286   2.091
 4866SOL    HW215498   6.977   4.398   2.052
 4867SOL     OW15499   4.800   6.012   3.372
 4867SOL    HW115500   4.712   6.037   3.330
 4867SOL    HW215501   4.794   5.919   3.408
 4868SOL     OW15502   0.831   6.178   1.087
 4868SOL    HW115503   0.901   6.178   1.015
 4868SOL    HW215504   0.827   6.088   1.129
 4869SOL     OW15505   6.355   0.391   1.046
 4869SOL    HW115506   6.451   0.418   1.053
 4869SOL    HW215507   6.311   0.403   1.135
 4870SOL     OW15508   6.532   6.894   1.740
 4870SOL    HW115509   6.589   6.891   1.658
 4870SOL    HW215510   6.587   6.869   1.820
 4871SOL     OW15511   0.537   3.789   4.177
 4871SOL    HW115512   0.595   3.814   4.254
 4871SOL    HW215513   0.548   3.692   4.157
 4872SOL     OW15514   0.755   0.616   3.360
 4872SOL    HW115515   0.754   0.547   3.433
 4872SOL    HW215516   0.769   0.706   3.400
 4873SOL     OW15517   0.888   5.580   5.372
 4873SOL    HW115518   0.864   5.504   5.313
 4873SOL    HW215519   0.951   5.549   5.443
 4874SOL     OW15520   4.867   3.632   3.248
 4874SOL    HW115521   4.860   3.583   3.162
 4874SOL    HW215522   4.831   3.724   3.237
 4875SOL     OW15523   6.356   2.796   6.722
 4875SOL    HW115524   6.335   2.867   6.790
 4875SOL    HW215525   6.282   2.792   6.655
 4876SOL     OW15526   0.618   1.225   6.431
 4876SOL    HW115527   0.660   1.312   6.404
 4876SOL    HW215528   0.564   1.239   6.514
 4877SOL     OW15529   6.464   1.784   0.764
 4877SOL    HW115530   6.508   1.697   0.743
 4877SOL    HW215531   6.381   1.793   0.710
 4878SOL     OW15532   6.744   1.784   1.468
 4878SOL    HW115533   6.709   1.849   1.400
 4878SOL    HW215534   6.734   1.822   1.559
 4879SOL     OW15535   4.307   5.637   3.407
 4879SOL    HW115536   4.238   5.707   3.392
 4879SOL    HW215537   4.345   5.607   3.320
 4880SOL     OW15538   5.608   2.181   5.883
 4880SOL    HW115539   5.649   2.144   5.966
 4880SOL    HW215540   5.680   2.198   5.816
 4881SOL     OW15541   3.426   5.829   6.615
 4881SOL    HW115542   3.505   5.812   6.556
 4881SOL    HW215543   3.449   5.806   6.709
 4882SOL     OW15544   5.436   0.932   5.380
 4882SOL    HW115545   5.459   1.017   5.334
 4882SOL    HW215546   5.405   0.952   5.473
 4883SOL     OW15547   0.605   5.776   0.946
 4883SOL    HW115548   0.547   5.858   0.951
 4883SOL    HW215549   0.577   5.711   1.017
 4884SOL     OW15550   3.214   6.597   1.778
 4884SOL    HW115551   3.310   6.622   1.765
 4884SOL    HW215552   3.205   6.497   1.779
 4885SOL     OW15553   2.091   0.146   1.780
 4885SOL    HW115554   2.040   0.141   1.694
 4885SOL    HW215555   2.180   0.189   1.764
 4886SOL     OW15556   6.228   0.680   6.449
 4886SOL    HW115557   6.327   0.689   6.454
 4886SOL    HW215558   6.190   0.684   6.542
 4887SOL     OW15559   0.433   1.919   5.003
 4887SOL    HW115560   0.419   1.886   5.097
 4887SOL    HW215561   0.439   1.841   4.941
 4888SOL     OW15562   2.748   5.400   2.267
 4888SOL    HW115563   2.659   5.356   2.275
 4888SOL    HW215564   2.739   5.483   2.212
 4889SOL     OW15565   1.599   2.481   0.152
 4889SOL    HW115566   1.675   2.546   0.149
 4889SOL    HW215567   1.582   2.446   0.060
 4890SOL     OW15568   1.098   0.345   4.547
 4890SOL    HW115569   1.123   0.437   4.575
 4890SOL    HW215570   1.132   0.279   4.615
 4891SOL     OW15571   1.154   4.030   0.582
 4891SOL    HW115572   1.207   3.951   0.611
 4891SOL    HW215573   1.059   4.003   0.566
 4892SOL     OW15574   1.435   5.924   1.483
 4892SOL    HW115575   1.498   5.969   1.546
 4892SOL    HW215576   1.473   5.835   1.455
 4893SOL     OW15577   0.527   3.453   6.591
 4893SOL    HW115578   0.515   3.446   6.492
 4893SOL    HW215579   0.481   3.535   6.625
 4894SOL     OW15580   2.135   0.743   3.420
 4894SOL    HW115581   2.038   0.719   3.414
 4894SOL    HW215582   2.160   0.757   3.516
 4895SOL     OW15583   0.332   3.770   0.789
 4895SOL    HW115584   0.277   3.734   0.714
 4895SOL    HW215585   0.280   3.767   0.874
 4896SOL     OW15586   3.949   5.448   3.795
 4896SOL    HW115587   3.904   5.359   3.805
 4896SOL    HW215588   4.040   5.435   3.755
 4897SOL     OW15589   3.298   5.057   6.202
 4897SOL    HW115590   3.389   5.076   6.165
 4897SOL    HW215591   3.242   5.140   6.198
 4898SOL     OW15592   5.761   2.340   5.463
 4898SOL    HW115593   5.829   2.394   5.513
 4898SOL    HW215594   5.737   2.386   5.378
 4899SOL     OW15595   5.202   4.042   4.537
 4899SOL    HW115596   5.270   4.115   4.548
 4899SOL    HW215597   5.249   3.957   4.513
 4900SOL     OW15598   0.922   6.564   5.009
 4900SOL    HW115599   0.826   6.585   4.988
 4900SOL    HW215600   0.954   6.624   5.081
 4901SOL     OW15601   1.423   6.872   3.069
 4901SOL    HW115602   1.338   6.874   3.016
 4901SOL    HW215603   1.436   6.960   3.115
 4902SOL     OW15604   3.060   4.799   1.913
 4902SOL    HW115605   3.124   4.782   1.838
 4902SOL    HW215606   2.994   4.724   1.917
 4903SOL     OW15607   4.870   6.631   6.398
 4903SOL    HW115608   4.909   6.680   6.320
 4903SOL    HW215609   4.937   6.566   6.433
 4904SOL     OW15610   3.359   6.230   3.578
 4904SOL    HW115611   3.395   6.270   3.662
 4904SOL    HW215612   3.315   6.142   3.599
 4905SOL     OW15613   6.111   3.204   2.706
 4905SOL    HW115614   6.202   3.240   2.728
 4905SOL    HW215615   6.100   3.200   2.607
 4906SOL     OW15616   6.205   1.062   1.380
 4906SOL    HW115617   6.159   0.974   1.366
 4906SOL    HW215618   6.271   1.053   1.454
 4907SOL     OW15619   3.097   0.791   2.316
 4907SOL    HW115620   3.113   0.743   2.403
 4907SOL    HW215621   3.185   0.809   2.271
 4908SOL     OW15622   3.636   5.535   6.675
 4908SOL    HW115623   3.542   5.503   6.682
 4908SOL    HW215624   3.646   5.594   6.595
 4909SOL     OW15625   6.701   0.358   4.974
 4909SOL    HW115626   6.615   0.381   4.927
 4909SOL    HW215627   6.725   0.263   4.956
 4910SOL     OW15628   6.308   0.023   5.066
 4910SOL    HW115629   6.360   0.028   4.981
 4910SOL    HW215630   6.360   0.066   5.140
 4911SOL     OW15631   0.174   3.211   6.089
 4911SOL    HW115632   0.186   3.126   6.140
 4911SOL    HW215633   0.079   3.243   6.099
 4912SOL     OW15634   2.519   2.433   2.030
 4912SOL    HW115635   2.559   2.357   2.081
 4912SOL    HW215636   2.556   2.434   1.937
 4913SOL     OW15637   2.871   3.559   2.568
 4913SOL    HW115638   2.906   3.646   2.534
 4913SOL    HW215639   2.773   3.566   2.585
 4914SOL     OW15640   1.910   6.356   3.461
 4914SOL    HW115641   1.921   6.260   3.434
 4914SOL    HW215642   1.950   6.370   3.552
 4915SOL     OW15643   3.053   6.126   3.480
 4915SOL    HW115644   3.004   6.042   3.457
 4915SOL    HW215645   3.042   6.192   3.406
 4916SOL     OW15646   2.438   1.182   2.399
 4916SOL    HW115647   2.480   1.272   2.407
 4916SOL    HW215648   2.437   1.153   2.303
 4917SOL     OW15649   1.417   5.003   0.478
 4917SOL    HW115650   1.470   5.083   0.507
 4917SOL    HW215651   1.326   5.006   0.520
 4918SOL     OW15652   2.447   0.538   2.272
 4918SOL    HW115653   2.491   0.515   2.359
 4918SOL    HW215654   2.491   0.486   2.199
 4919SOL     OW15655   2.663   2.415   1.810
 4919SOL    HW115656   2.673   2.362   1.726
 4919SOL    HW215657   2.752   2.428   1.853
 4920SOL     OW15658   4.358   0.647   6.879
 4920SOL    HW115659   4.445   0.600   6.897
 4920SOL    HW215660   4.301   0.643   6.962
 4921SOL     OW15661   1.457   4.920   1.974
 4921SOL    HW115662   1.482   4.965   1.889
 4921SOL    HW215663   1.454   4.821   1.961
 4922SOL     OW15664   1.135   2.762   5.820
 4922SOL    HW115665   1.227   2.774   5.855
 4922SOL    HW215666   1.098   2.674   5.849
 4923SOL     OW15667   4.074   1.590   0.951
 4923SOL    HW115668   4.114   1.536   1.024
 4923SOL    HW215669   3.981   1.557   0.933
 4924SOL     OW15670   0.516   4.101   4.472
 4924SOL    HW115671   0.559   4.017   4.439
 4924SOL    HW215672   0.477   4.151   4.394
 4925SOL     OW15673   3.977   6.221   6.805
 4925SOL    HW115674   3.994   6.316   6.832
 4925SOL    HW215675   3.902   6.218   6.739
 4926SOL     OW15676   4.920   2.450   2.101
 4926SOL    HW115677   4.973   2.505   2.164
 4926SOL    HW215678   4.829   2.490   2.089
 4927SOL     OW15679   3.709   3.409   2.991
 4927SOL    HW115680   3.801   3.418   3.029
 4927SOL    HW215681   3.709   3.338   2.921
 4928SOL     OW15682   0.568   6.002   0.577
 4928SOL    HW115683   0.476   6.033   0.553
 4928SOL    HW215684   0.636   6.060   0.532
 4929SOL     OW15685   0.924   5.002   4.319
 4929SOL    HW115686   0.932   4.977   4.416
 4929SOL    HW215687   1.001   5.060   4.293
 4930SOL     OW15688   6.881   2.022   0.773
 4930SOL    HW115689   6.784   2.043   0.774
 4930SOL    HW215690   6.914   2.011   0.867
 4931SOL     OW15691   0.138   0.599   1.132
 4931SOL    HW115692   0.054   0.650   1.152
 4931SOL    HW215693   0.214   0.663   1.119
 4932SOL     OW15694   3.053   2.318   1.110
 4932SOL    HW115695   3.055   2.293   1.207
 4932SOL    HW215696   3.064   2.236   1.054
 4933SOL     OW15697   2.705   1.107   4.722
 4933SOL    HW115698   2.609   1.082   4.736
 4933SOL    HW215699   2.763   1.030   4.745
 4934SOL     OW15700   1.199   6.240   4.733
 4934SOL    HW115701   1.179   6.175   4.806
 4934SOL    HW215702   1.131   6.313   4.733
 4935SOL     OW15703   1.596   1.195   0.615
 4935SOL    HW115704   1.640   1.253   0.546
 4935SOL    HW215705   1.641   1.208   0.703
 4936SOL     OW15706   3.944   5.526   0.506
 4936SOL    HW115707   3.862   5.570   0.544
 4936SOL    HW215708   3.952   5.551   0.410
 4937SOL     OW15709   0.503   3.362   6.322
 4937SOL    HW115710   0.436   3.315   6.379
 4937SOL    HW215711   0.464   3.380   6.232
 4938SOL     OW15712   3.507   4.446   1.395
 4938SOL    HW115713   3.589   4.412   1.349
 4938SOL    HW215714   3.514   4.545   1.408
 4939SOL     OW15715   1.530   2.285   2.217
 4939SOL    HW115716   1.609   2.342   2.194
 4939SOL    HW215717   1.527   2.272   2.316
 4940SOL     OW15718   6.828   2.190   5.075
 4940SOL    HW115719   6.808   2.157   4.983
 4940SOL    HW215720   6.844   2.112   5.135
 4941SOL     OW15721   3.894   1.721   5.288
 4941SOL    HW115722   3.825   1.655   5.257
 4941SOL    HW215723   3.927   1.695   5.379
 4942SOL     OW15724   6.919   1.582   3.769
 4942SOL    HW115725   6.951   1.656   3.709
 4942SOL    HW215726   6.852   1.526   3.719
 4943SOL     OW15727   4.966   3.231   6.242
 4943SOL    HW115728   5.012   3.250   6.155
 4943SOL    HW215729   4.963   3.314   6.297
 4944SOL     OW15730   1.279   5.432   0.769
 4944SOL    HW115731   1.368   5.419   0.812
 4944SOL    HW215732   1.252   5.528   0.776
 4945SOL     OW15733   2.050   0.687   4.624
 4945SOL    HW115734   2.072   0.777   4.585
 4945SOL    HW215735   1.951   0.678   4.635
 4946SOL     OW15736   2.542   4.837   6.873
 4946SOL    HW115737   2.577   4.791   6.955
 4946SOL    HW215738   2.619   4.873   6.819
 4947SOL     OW15739   1.512   1.157   1.900
 4947SOL    HW115740   1.592   1.203   1.940
 4947SOL    HW215741   1.429   1.186   1.949
 4948SOL     OW15742   1.218   2.726   1.979
 4948SOL    HW115743   1.281   2.650   1.995
 4948SOL    HW215744   1.248   2.776   1.898
 4949SOL     OW15745   0.137   4.143   0.070
 4949SOL    HW115746   0.206   4.072   0.055
 4949SOL    HW215747   0.054   4.101   0.106
 4950SOL     OW15748   2.682   3.908   5.686
 4950SOL    HW115749   2.711   3.914   5.781
 4950SOL    HW215750   2.618   3.981   5.666
 4951SOL     OW15751   5.061   5.335   3.310
 4951SOL    HW115752   5.078   5.380   3.223
 4951SOL    HW215753   4.964   5.315   3.319
 4952SOL     OW15754   0.276   6.958   6.313
 4952SOL    HW115755   0.179   6.935   6.327
 4952SOL    HW215756   0.325   6.877   6.281
 4953SOL     OW15757   0.720   2.052   5.116
 4953SOL    HW115758   0.646   2.116   5.095
 4953SOL    HW215759   0.759   2.016   5.031
 4954SOL     OW15760   3.428   4.016   5.451
 4954SOL    HW115761   3.422   4.045   5.355
 4954SOL    HW215762   3.409   3.918   5.457
 4955SOL     OW15763   3.792   5.091   6.700
 4955SOL    HW115764   3.876   5.039   6.717
 4955SOL    HW215765   3.801   5.182   6.739
 4956SOL     OW15766   2.984   0.397   4.516
 4956SOL    HW115767   3.015   0.346   4.435
 4956SOL    HW215768   3.028   0.360   4.598
 4957SOL     OW15769   6.099   4.319   6.735
 4957SOL    HW115770   6.130   4.403   6.779
 4957SOL    HW215771   6.173   4.283   6.677
 4958SOL     OW15772   3.481   5.674   0.105
 4958SOL    HW115773   3.560   5.668   0.166
 4958SOL    HW215774   3.513   5.689   0.011
 4959SOL     OW15775   0.608   3.071   3.004
 4959SOL    HW115776   0.606   3.166   3.035
 4959SOL    HW215777   0.678   3.020   3.054
 4960SOL     OW15778   4.575   5.130   4.178
 4960SOL    HW115779   4.636   5.204   4.207
 4960SOL    HW215780   4.602   5.098   4.087
 4961SOL     OW15781   4.177   1.003   0.226
 4961SOL    HW115782   4.162   1.100   0.248
 4961SOL    HW215783   4.133   0.981   0.140
 4962SOL     OW15784   1.416   4.343   1.059
 4962SOL    HW115785   1.331   4.298   1.031
 4962SOL    HW215786   1.455   4.393   0.982
 4963SOL     OW15787   1.057   4.112   6.519
 4963SOL    HW115788   1.150   4.138   6.492
 4963SOL    HW215789   1.053   4.013   6.533
 4964SOL     OW15790   2.684   6.676   4.522
 4964SOL    HW115791   2.618   6.669   4.597
 4964SOL    HW215792   2.687   6.589   4.472
 4965SOL     OW15793   1.739   6.125   3.208
 4965SOL    HW115794   1.816   6.061   3.202
 4965SOL    HW215795   1.768   6.215   3.173
 4966SOL     OW15796   3.103   6.790   3.991
 4966SOL    HW115797   3.173   6.785   4.062
 4966SOL    HW215798   3.052   6.704   3.989
 4967SOL     OW15799   4.340   4.757   4.911
 4967SOL    HW115800   4.430   4.795   4.887
 4967SOL    HW215801   4.352   4.670   4.957
 4968SOL     OW15802   6.187   2.695   3.160
 4968SOL    HW115803   6.112   2.721   3.099
 4968SOL    HW215804   6.192   2.595   3.166
 4969SOL     OW15805   0.702   6.086   2.976
 4969SOL    HW115806   0.756   6.134   3.046
 4969SOL    HW215807   0.713   6.133   2.889
 4970SOL     OW15808   0.564   1.759   1.547
 4970SOL    HW115809   0.623   1.792   1.621
 4970SOL    HW215810   0.471   1.793   1.560
 4971SOL     OW15811   6.870   6.024   3.152
 4971SOL    HW115812   6.913   5.966   3.221
 4971SOL    HW215813   6.855   5.970   3.069
 4972SOL     OW15814   1.365   4.600   1.172
 4972SOL    HW115815   1.401   4.511   1.143
 4972SOL    HW215816   1.296   4.587   1.243
 4973SOL     OW15817   6.628   0.475   1.001
 4973SOL    HW115818   6.727   0.461   1.009
 4973SOL    HW215819   6.611   0.547   0.934
 4974SOL     OW15820   3.375   5.611   5.205
 4974SOL    HW115821   3.414   5.563   5.285
 4974SOL    HW215822   3.280   5.635   5.224
 4975SOL     OW15823   5.992   4.410   0.967
 4975SOL    HW115824   6.037   4.459   0.892
 4975SOL    HW215825   6.010   4.458   1.053
 4976SOL     OW15826   1.907   6.666   3.413
 4976SOL    HW115827   1.810   6.680   3.432
 4976SOL    HW215828   1.924   6.678   3.315
 4977SOL     OW15829   1.909   4.417   6.215
 4977SOL    HW115830   1.940   4.401   6.309
 4977SOL    HW215831   1.893   4.329   6.170
 4978SOL     OW15832   4.963   4.814   4.647
 4978SOL    HW115833   4.990   4.909   4.627
 4978SOL    HW215834   5.036   4.752   4.617
 4979SOL     OW15835   2.474   0.059   6.055
 4979SOL    HW115836   2.537   0.027   5.983
 4979SOL    HW215837   2.438   7.000   6.105
 4980SOL     OW15838   5.247   3.668   3.119
 4980SOL    HW115839   5.343   3.671   3.146
 4980SOL    HW215840   5.195   3.615   3.186
 4981SOL     OW15841   3.331   4.904   2.031
 4981SOL    HW115842   3.246   4.867   1.992
 4981SOL    HW215843   3.409   4.849   2.001
 4982SOL     OW15844   3.903   1.476   5.918
 4982SOL    HW115845   3.811   1.438   5.905
 4982SOL    HW215846   3.966   1.434   5.853
 4983SOL     OW15847   5.587   5.510   2.801
 4983SOL    HW115848   5.581   5.608   2.784
 4983SOL    HW215849   5.521   5.484   2.872
 4984SOL     OW15850   5.393   4.662   2.954
 4984SOL    HW115851   5.483   4.686   2.919
 4984SOL    HW215852   5.342   4.611   2.884
 4985SOL     OW15853   5.624   6.756   2.527
 4985SOL    HW115854   5.633   6.763   2.428
 4985SOL    HW215855   5.581   6.839   2.563
 4986SOL     OW15856   0.230   4.992   3.209
 4986SOL    HW115857   0.302   4.938   3.166
 4986SOL    HW215858   0.244   5.089   3.190
 4987SOL     OW15859   0.642   0.956   2.369
 4987SOL    HW115860   0.680   1.008   2.446
 4987SOL    HW215861   0.546   0.981   2.357
 4988SOL     OW15862   5.616   6.452   3.668
 4988SOL    HW115863   5.590   6.548   3.659
 4988SOL    HW215864   5.686   6.429   3.600
 4989SOL     OW15865   4.488   0.413   2.633
 4989SOL    HW115866   4.421   0.346   2.663
 4989SOL    HW215867   4.508   0.476   2.708
 4990SOL     OW15868   4.472   2.103   4.949
 4990SOL    HW115869   4.412   2.051   5.011
 4990SOL    HW215870   4.459   2.201   4.965
 4991SOL     OW15871   1.555   4.956   4.908
 4991SOL    HW115872   1.572   5.051   4.882
 4991SOL    HW215873   1.615   4.930   4.983
 4992SOL     OW15874   0.372   2.361   3.806
 4992SOL    HW115875   0.320   2.403   3.880
 4992SOL    HW215876   0.404   2.432   3.743
 4993SOL     OW15877   3.637   6.423   4.035
 4993SOL    HW115878   3.585   6.370   4.102
 4993SOL    HW215879   3.576   6.486   3.987
 4994SOL     OW15880   3.130   4.446   5.566
 4994SOL    HW115881   3.034   4.475   5.556
 4994SOL    HW215882   3.190   4.515   5.525
 4995SOL     OW15883   0.412   7.013   5.613
 4995SOL    HW115884   0.460   6.989   5.529
 4995SOL    HW215885   0.318   0.022   5.592
 4996SOL     OW15886   6.937   1.154   4.523
 4996SOL    HW115887   0.013   1.143   4.492
 4996SOL    HW215888   6.891   1.221   4.466
 4997SOL     OW15889   3.836   2.190   1.520
 4997SOL    HW115890   3.754   2.214   1.469
 4997SOL    HW215891   3.813   2.175   1.616
 4998SOL     OW15892   0.297   3.764   3.746
 4998SOL    HW115893   0.292   3.783   3.844
 4998SOL    HW215894   0.252   3.677   3.727
 4999SOL     OW15895   0.743   4.238   4.124
 4999SOL    HW115896   0.824   4.179   4.125
 4999SOL    HW215897   0.661   4.181   4.123
 5000SOL     OW15898   2.729   5.542   2.910
 5000SOL    HW115899   2.821   5.524   2.945
 5000SOL    HW215900   2.714   5.641   2.906
 5001SOL     OW15901   0.668   5.226   2.932
 5001SOL    HW115902   0.607   5.225   2.852
 5001SOL    HW215903   0.708   5.317   2.942
 5002SOL     OW15904   0.560   3.434   3.737
 5002SOL    HW115905   0.512   3.423   3.650
 5002SOL    HW215906   0.516   3.377   3.806
 5003SOL     OW15907   3.918   6.769   3.998
 5003SOL    HW115908   3.952   6.706   3.929
 5003SOL    HW215909   3.967   6.756   4.084
 5004SOL     OW15910   2.346   6.139   6.819
 5004SOL    HW115911   2.278   6.212   6.817
 5004SOL    HW215912   2.437   6.179   6.807
 5005SOL     OW15913   3.544   2.429   6.990
 5005SOL    HW115914   3.619   2.362   6.983
 5005SOL    HW215915   3.547   2.491   6.911
 5006SOL     OW15916   5.361   1.841   2.118
 5006SOL    HW115917   5.388   1.753   2.081
 5006SOL    HW215918   5.314   1.895   2.048
 5007SOL     OW15919   6.081   6.873   2.273
 5007SOL    HW115920   6.138   6.809   2.221
 5007SOL    HW215921   6.140   6.941   2.317
 5008SOL     OW15922   5.488   6.282   2.331
 5008SOL    HW115923   5.551   6.341   2.382
 5008SOL    HW215924   5.518   6.187   2.338
 5009SOL     OW15925   6.914   2.433   0.792
 5009SOL    HW115926   6.898   2.521   0.747
 5009SOL    HW215927   6.973   2.447   0.872
 5010SOL     OW15928   4.112   3.329   0.487
 5010SOL    HW115929   4.150   3.323   0.395
 5010SOL    HW215930   4.182   3.307   0.554
 5011SOL     OW15931   2.299   3.782   6.833
 5011SOL    HW115932   2.266   3.790   6.739
 5011SOL    HW215933   2.222   3.767   6.895
 5012SOL     OW15934   6.287   2.014   5.080
 5012SOL    HW115935   6.264   1.921   5.109
 5012SOL    HW215936   6.374   2.042   5.121
 5013SOL     OW15937   5.845   0.522   5.649
 5013SOL    HW115938   5.786   0.449   5.615
 5013SOL    HW215939   5.801   0.611   5.634
 5014SOL     OW15940   6.382   3.571   1.341
 5014SOL    HW115941   6.291   3.559   1.379
 5014SOL    HW215942   6.450   3.533   1.404
 5015SOL     OW15943   5.495   6.736   4.388
 5015SOL    HW115944   5.483   6.769   4.294
 5015SOL    HW215945   5.443   6.794   4.450
 5016SOL     OW15946   1.410   3.671   5.203
 5016SOL    HW115947   1.422   3.690   5.106
 5016SOL    HW215948   1.492   3.700   5.253
 5017SOL     OW15949   0.698   2.643   1.886
 5017SOL    HW115950   0.791   2.632   1.849
 5017SOL    HW215951   0.675   2.741   1.887
 5018SOL     OW15952   0.493   6.504   1.178
 5018SOL    HW115953   0.427   6.577   1.160
 5018SOL    HW215954   0.572   6.543   1.227
 5019SOL     OW15955   1.286   5.100   5.396
 5019SOL    HW115956   1.361   5.089   5.461
 5019SOL    HW215957   1.230   5.178   5.422
 5020SOL     OW15958   1.941   0.051   4.358
 5020SOL    HW115959   1.937   0.116   4.434
 5020SOL    HW215960   1.952   6.977   4.394
 5021SOL     OW15961   1.329   1.440   1.165
 5021SOL    HW115962   1.295   1.489   1.085
 5021SOL    HW215963   1.396   1.496   1.214
 5022SOL     OW15964   0.329   3.215   1.667
 5022SOL    HW115965   0.298   3.152   1.596
 5022SOL    HW215966   0.303   3.308   1.643
 5023SOL     OW15967   7.010   4.653   2.846
 5023SOL    HW115968   0.049   4.653   2.765
 5023SOL    HW215969   0.000   4.741   2.893
 5024SOL     OW15970   4.410   3.461   1.399
 5024SOL    HW115971   4.399   3.377   1.346
 5024SOL    HW215972   4.430   3.537   1.338
 5025SOL     OW15973   4.016   1.023   3.384
 5025SOL    HW115974   4.022   1.099   3.319
 5025SOL    HW215975   3.924   1.020   3.423
 5026SOL     OW15976   4.881   6.760   5.150
 5026SOL    HW115977   4.933   6.722   5.074
 5026SOL    HW215978   4.906   6.712   5.234
 5027SOL     OW15979   5.345   0.493   6.692
 5027SOL    HW115980   5.417   0.435   6.731
 5027SOL    HW215981   5.256   0.454   6.715
 5028SOL     OW15982   0.419   2.422   3.029
 5028SOL    HW115983   0.497   2.477   3.060
 5028SOL    HW215984   0.360   2.478   2.971
 5029SOL     OW15985   6.087   1.797   2.473
 5029SOL    HW115986   6.072   1.707   2.515
 5029SOL    HW215987   6.185   1.814   2.465
 5030SOL     OW15988   0.187   4.690   6.746
 5030SOL    HW115989   0.121   4.644   6.806
 5030SOL    HW215990   0.157   4.785   6.731
 5031SOL     OW15991   6.780   0.468   5.886
 5031SOL    HW115992   6.765   0.510   5.975
 5031SOL    HW215993   6.693   0.461   5.837
 5032SOL     OW15994   3.252   3.524   5.549
 5032SOL    HW115995   3.238   3.560   5.457
 5032SOL    HW215996   3.196   3.442   5.561
 5033SOL     OW15997   1.760   1.372   0.029
 5033SOL    HW115998   1.719   1.457   7.014
 5033SOL    HW215999   1.856   1.368   0.003
 5034SOL     OW16000   4.305   6.629   4.177
 5034SOL    HW116001   4.246   6.689   4.230
 5034SOL    HW216002   4.258   6.542   4.160
 5035SOL     OW16003   1.413   4.898   3.930
 5035SOL    HW116004   1.367   4.888   4.019
 5035SOL    HW216005   1.344   4.912   3.859
 5036SOL     OW16006   6.388   3.068   5.245
 5036SOL    HW116007   6.453   3.130   5.201
 5036SOL    HW216008   6.309   3.055   5.186
 5037SOL     OW16009   4.441   4.450   1.022
 5037SOL    HW116010   4.457   4.362   0.977
 5037SOL    HW216011   4.384   4.436   1.102
 5038SOL     OW16012   3.331   3.466   3.577
 5038SOL    HW116013   3.267   3.393   3.602
 5038SOL    HW216014   3.421   3.426   3.558
 5039SOL     OW16015   0.572   3.330   6.941
 5039SOL    HW116016   0.491   3.282   6.907
 5039SOL    HW216017   0.624   3.366   6.864
 5040SOL     OW16018   0.886   5.826   6.541
 5040SOL    HW116019   0.899   5.743   6.486
 5040SOL    HW216020   0.835   5.802   6.624
 5041SOL     OW16021   6.840   3.115   2.390
 5041SOL    HW116022   6.813   3.186   2.454
 5041SOL    HW216023   6.829   3.148   2.296
 5042SOL     OW16024   0.450   3.573   6.096
 5042SOL    HW116025   0.397   3.638   6.151
 5042SOL    HW216026   0.479   3.617   6.011
 5043SOL     OW16027   3.803   0.406   0.980
 5043SOL    HW116028   3.725   0.353   0.946
 5043SOL    HW216029   3.834   0.369   1.067
 5044SOL     OW16030   6.126   5.523   0.772
 5044SOL    HW116031   6.150   5.430   0.800
 5044SOL    HW216032   6.210   5.573   0.749
 5045SOL     OW16033   6.187   3.479   6.051
 5045SOL    HW116034   6.161   3.516   6.140
 5045SOL    HW216035   6.108   3.480   5.989
 5046SOL     OW16036   3.046   3.622   3.259
 5046SOL    HW116037   2.991   3.545   3.292
 5046SOL    HW216038   3.136   3.618   3.301
 5047SOL     OW16039   2.142   3.972   3.064
 5047SOL    HW116040   2.196   3.994   3.145
 5047SOL    HW216041   2.071   3.906   3.087
 5048SOL     OW16042   1.336   0.960   5.823
 5048SOL    HW116043   1.263   0.974   5.756
 5048SOL    HW216044   1.323   1.024   5.900
 5049SOL     OW16045   5.748   0.573   6.376
 5049SOL    HW116046   5.773   0.618   6.290
 5049SOL    HW216047   5.713   0.481   6.357
 5050SOL     OW16048   1.831   1.085   1.141
 5050SOL    HW116049   1.793   1.056   1.053
 5050SOL    HW216050   1.931   1.083   1.137
 5051SOL     OW16051   3.587   4.726   1.394
 5051SOL    HW116052   3.592   4.741   1.493
 5051SOL    HW216053   3.546   4.806   1.350
 5052SOL     OW16054   3.389   0.939   5.308
 5052SOL    HW116055   3.443   0.965   5.387
 5052SOL    HW216056   3.445   0.888   5.243
 5053SOL     OW16057   0.526   6.441   2.310
 5053SOL    HW116058   0.473   6.383   2.373
 5053SOL    HW216059   0.586   6.383   2.255
 5054SOL     OW16060   3.850   4.890   4.365
 5054SOL    HW116061   3.899   4.892   4.278
 5054SOL    HW216062   3.909   4.850   4.436
 5055SOL     OW16063   6.625   2.861   6.679
 5055SOL    HW116064   6.684   2.790   6.716
 5055SOL    HW216065   6.531   2.846   6.709
 5056SOL     OW16066   5.248   4.044   5.146
 5056SOL    HW116067   5.232   3.962   5.092
 5056SOL    HW216068   5.276   4.119   5.086
 5057SOL     OW16069   1.053   6.542   2.909
 5057SOL    HW116070   1.001   6.570   2.990
 5057SOL    HW216071   0.990   6.519   2.835
 5058SOL     OW16072   3.131   4.390   6.154
 5058SOL    HW116073   3.069   4.375   6.231
 5058SOL    HW216074   3.085   4.366   6.068
 5059SOL     OW16075   0.481   0.579   2.751
 5059SOL    HW116076   0.574   0.543   2.754
 5059SOL    HW216077   0.482   0.676   2.778
 5060SOL     OW16078   6.275   1.918   5.633
 5060SOL    HW116079   6.351   1.863   5.667
 5060SOL    HW216080   6.308   2.009   5.607
 5061SOL     OW16081   4.981   3.613   0.247
 5061SOL    HW116082   5.007   3.600   0.152
 5061SOL    HW216083   5.026   3.696   0.283
 5062SOL     OW16084   0.585   0.399   1.689
 5062SOL    HW116085   0.676   0.398   1.732
 5062SOL    HW216086   0.595   0.410   1.590
 5063SOL     OW16087   1.277   7.012   2.011
 5063SOL    HW116088   1.272   6.952   2.091
 5063SOL    HW216089   1.327   0.077   2.036
 5064SOL     OW16090   4.494   2.962   0.620
 5064SOL    HW116091   4.468   2.940   0.526
 5064SOL    HW216092   4.470   2.887   0.681
 5065SOL     OW16093   2.458   6.716   5.798
 5065SOL    HW116094   2.491   6.810   5.809
 5065SOL    HW216095   2.454   6.671   5.888
 5066SOL     OW16096   6.137   5.135   1.190
 5066SOL    HW116097   6.187   5.095   1.267
 5066SOL    HW216098   6.161   5.085   1.106
 5067SOL     OW16099   4.633   1.154   0.427
 5067SOL    HW116100   4.732   1.157   0.438
 5067SOL    HW216101   4.605   1.217   0.354
 5068SOL     OW16102   2.539   4.763   0.131
 5068SOL    HW116103   2.520   4.775   0.228
 5068SOL    HW216104   2.616   4.700   0.119
 5069SOL     OW16105   0.364   4.423   2.581
 5069SOL    HW116106   0.389   4.327   2.596
 5069SOL    HW216107   0.266   4.435   2.598
 5070SOL     OW16108   5.036   3.117   3.909
 5070SOL    HW116109   4.976   3.061   3.853
 5070SOL    HW216110   5.064   3.065   3.990
 5071SOL     OW16111   4.843   1.737   6.801
 5071SOL    HW116112   4.812   1.818   6.751
 5071SOL    HW216113   4.908   1.765   6.872
 5072SOL     OW16114   0.951   4.523   1.492
 5072SOL    HW116115   1.030   4.498   1.436
 5072SOL    HW216116   0.943   4.461   1.569
 5073SOL     OW16117   4.972   0.482   2.820
 5073SOL    HW116118   4.915   0.565   2.820
 5073SOL    HW216119   4.981   0.448   2.914
 5074SOL     OW16120   2.598   3.785   6.379
 5074SOL    HW116121   2.632   3.839   6.302
 5074SOL    HW216122   2.674   3.759   6.438
 5075SOL     OW16123   0.165   5.838   5.118
 5075SOL    HW116124   0.109   5.917   5.145
 5075SOL    HW216125   0.130   5.800   5.033
 5076SOL     OW16126   3.337   0.487   1.171
 5076SOL    HW116127   3.381   0.577   1.173
 5076SOL    HW216128   3.255   0.492   1.113
 5077SOL     OW16129   0.393   2.879   3.597
 5077SOL    HW116130   0.401   2.978   3.587
 5077SOL    HW216131   0.309   2.857   3.647
 5078SOL     OW16132   1.338   1.856   4.225
 5078SOL    HW116133   1.375   1.945   4.198
 5078SOL    HW216134   1.412   1.790   4.236
 5079SOL     OW16135   3.815   5.024   5.876
 5079SOL    HW116136   3.830   5.077   5.959
 5079SOL    HW216137   3.745   4.955   5.893
 5080SOL     OW16138   5.378   6.997   5.966
 5080SOL    HW116139   5.402   6.996   5.869
 5080SOL    HW216140   5.457   0.012   6.018
 5081SOL     OW16141   3.604   3.675   3.692
 5081SOL    HW116142   3.590   3.583   3.655
 5081SOL    HW216143   3.699   3.703   3.678
 5082SOL     OW16144   5.046   5.894   4.776
 5082SOL    HW116145   5.126   5.951   4.758
 5082SOL    HW216146   5.059   5.804   4.733
 5083SOL     OW16147   1.915   6.475   1.547
 5083SOL    HW116148   1.923   6.478   1.447
 5083SOL    HW216149   1.853   6.547   1.577
 5084SOL     OW16150   1.468   6.191   3.659
 5084SOL    HW116151   1.499   6.177   3.565
 5084SOL    HW216152   1.461   6.289   3.678
 5085SOL     OW16153   6.158   2.527   6.358
 5085SOL    HW116154   6.135   2.450   6.417
 5085SOL    HW216155   6.194   2.493   6.271
 5086SOL     OW16156   6.466   5.105   3.611
 5086SOL    HW116157   6.465   5.197   3.571
 5086SOL    HW216158   6.552   5.090   3.659
 5087SOL     OW16159   6.677   5.591   5.566
 5087SOL    HW116160   6.656   5.518   5.631
 5087SOL    HW216161   6.631   5.675   5.595
 5088SOL     OW16162   5.665   0.292   6.294
 5088SOL    HW116163   5.741   0.272   6.356
 5088SOL    HW216164   5.592   0.226   6.309
 5089SOL     OW16165   5.507   3.688   3.189
 5089SOL    HW116166   5.526   3.786   3.192
 5089SOL    HW216167   5.593   3.637   3.193
 5090SOL     OW16168   1.839   5.530   1.168
 5090SOL    HW116169   1.891   5.445   1.182
 5090SOL    HW216170   1.769   5.515   1.098
 5091SOL     OW16171   1.326   6.231   2.556
 5091SOL    HW116172   1.412   6.283   2.550
 5091SOL    HW216173   1.340   6.152   2.615
 5092SOL     OW16174   4.245   2.071   1.534
 5092SOL    HW116175   4.286   2.005   1.598
 5092SOL    HW216176   4.315   2.101   1.469
 5093SOL     OW16177   0.557   2.288   1.818
 5093SOL    HW116178   0.594   2.336   1.898
 5093SOL    HW216179   0.473   2.241   1.843
 5094SOL     OW16180   0.805   6.956   5.163
 5094SOL    HW116181   0.849   6.904   5.236
 5094SOL    HW216182   0.749   0.010   5.204
 5095SOL     OW16183   2.921   6.849   4.505
 5095SOL    HW116184   2.901   6.886   4.414
 5095SOL    HW216185   2.846   6.789   4.533
 5096SOL     OW16186   4.320   4.065   1.028
 5096SOL    HW116187   4.278   4.144   1.075
 5096SOL    HW216188   4.277   3.981   1.061
 5097SOL     OW16189   1.355   6.765   6.003
 5097SOL    HW116190   1.352   6.676   5.958
 5097SOL    HW216191   1.273   6.818   5.978
 5098SOL     OW16192   0.148   1.485   3.015
 5098SOL    HW116193   0.232   1.505   2.963
 5098SOL    HW216194   0.096   1.414   2.968
 5099SOL     OW16195   1.366   0.458   5.112
 5099SOL    HW116196   1.416   0.391   5.167
 5099SOL    HW216197   1.281   0.417   5.077
 5100SOL     OW16198   5.315   6.561   6.638
 5100SOL    HW116199   5.356   6.633   6.582
 5100SOL    HW216200   5.253   6.602   6.705
 5101SOL     OW16201   4.086   6.431   0.407
 5101SOL    HW116202   4.016   6.380   0.357
 5101SOL    HW216203   4.055   6.525   0.422
 5102SOL     OW16204   3.725   5.705   5.429
 5102SOL    HW116205   3.719   5.638   5.355
 5102SOL    HW216206   3.787   5.671   5.500
 5103SOL     OW16207   6.994   0.258   4.375
 5103SOL    HW116208   0.004   0.239   4.281
 5103SOL    HW216209   0.018   0.343   4.406
 5104SOL     OW16210   1.457   0.793   1.602
 5104SOL    HW116211   1.490   0.837   1.686
 5104SOL    HW216212   1.436   0.863   1.534
 5105SOL     OW16213   3.244   3.803   6.350
 5105SOL    HW116214   3.259   3.750   6.434
 5105SOL    HW216215   3.301   3.766   6.277
 5106SOL     OW16216   3.510   0.753   2.392
 5106SOL    HW116217   3.417   0.755   2.428
 5106SOL    HW216218   3.519   0.678   2.327
 5107SOL     OW16219   2.172   7.004   5.612
 5107SOL    HW116220   2.193   7.000   5.515
 5107SOL    HW216221   2.164   6.911   5.649
 5108SOL     OW16222   3.428   3.558   4.474
 5108SOL    HW116223   3.379   3.501   4.409
 5108SOL    HW216224   3.526   3.555   4.454
 5109SOL     OW16225   0.060   1.195   1.179
 5109SOL    HW116226   0.080   1.142   1.262
 5109SOL    HW216227   0.048   1.291   1.204
 5110SOL     OW16228   2.056   5.651   5.866
 5110SOL    HW116229   2.073   5.622   5.772
 5110SOL    HW216230   2.058   5.751   5.871
 5111SOL     OW16231   1.347   1.058   0.737
 5111SOL    HW116232   1.418   1.102   0.681
 5111SOL    HW216233   1.290   1.001   0.678
 5112SOL     OW16234   0.410   5.729   3.870
 5112SOL    HW116235   0.485   5.723   3.804
 5112SOL    HW216236   0.342   5.658   3.850
 5113SOL     OW16237   0.918   0.098   6.788
 5113SOL    HW116238   0.832   0.142   6.763
 5113SOL    HW216239   0.905   0.044   6.871
 5114SOL     OW16240   4.016   4.873   0.101
 5114SOL    HW116241   4.075   4.926   0.039
 5114SOL    HW216242   4.033   4.776   0.088
 5115SOL     OW16243   1.729   3.786   5.733
 5115SOL    HW116244   1.755   3.703   5.782
 5115SOL    HW216245   1.811   3.826   5.690
 5116SOL     OW16246   6.887   4.622   0.249
 5116SOL    HW116247   6.920   4.715   0.232
 5116SOL    HW216248   6.796   4.611   0.209
 5117SOL     OW16249   2.521   4.532   4.568
 5117SOL    HW116250   2.588   4.547   4.495
 5117SOL    HW216251   2.566   4.539   4.657
 5118SOL     OW16252   4.331   6.607   0.915
 5118SOL    HW116253   4.415   6.579   0.869
 5118SOL    HW216254   4.255   6.605   0.850
 5119SOL     OW16255   5.969   6.990   2.550
 5119SOL    HW116256   5.979   6.891   2.561
 5119SOL    HW216257   6.036   0.004   2.483
 5120SOL     OW16258   5.016   1.521   2.512
 5120SOL    HW116259   5.077   1.497   2.588
 5120SOL    HW216260   5.066   1.574   2.445
 5121SOL     OW16261   0.289   3.673   5.504
 5121SOL    HW116262   0.275   3.605   5.576
 5121SOL    HW216263   0.206   3.681   5.449
 5122SOL     OW16264   2.032   6.387   3.706
 5122SOL    HW116265   2.021   6.475   3.752
 5122SOL    HW216266   2.118   6.385   3.656
 5123SOL     OW16267   5.357   4.711   1.982
 5123SOL    HW116268   5.271   4.738   1.940
 5123SOL    HW216269   5.378   4.773   2.057
 5124SOL     OW16270   2.623   6.955   6.995
 5124SOL    HW116271   2.635   6.913   0.066
 5124SOL    HW216272   2.668   6.899   6.925
 5125SOL     OW16273   0.092   3.210   4.670
 5125SOL    HW116274   0.097   3.256   4.758
 5125SOL    HW216275   7.016   3.181   4.653
 5126SOL     OW16276   5.618   3.520   6.560
 5126SOL    HW116277   5.689   3.586   6.535
 5126SOL    HW216278   5.614   3.447   6.492
 5127SOL     OW16279   5.930   2.860   6.522
 5127SOL    HW116280   5.912   2.769   6.559
 5127SOL    HW216281   5.849   2.917   6.533
 5128SOL     OW16282   0.216   0.664   6.840
 5128SOL    HW116283   0.239   0.706   6.928
 5128SOL    HW216284   0.235   0.730   6.767
 5129SOL     OW16285   4.265   1.955   2.645
 5129SOL    HW116286   4.321   1.977   2.724
 5129SOL    HW216287   4.181   2.010   2.647
 5130SOL     OW16288   1.155   6.130   4.495
 5130SOL    HW116289   1.176   6.159   4.588
 5130SOL    HW216290   1.206   6.186   4.430
 5131SOL     OW16291   3.092   4.871   3.617
 5131SOL    HW116292   3.162   4.942   3.611
 5131SOL    HW216293   3.134   4.784   3.639
 5132SOL     OW16294   3.355   1.517   6.859
 5132SOL    HW116295   3.272   1.562   6.893
 5132SOL    HW216296   3.429   1.584   6.856
 5133SOL     OW16297   4.604   4.486   6.416
 5133SOL    HW116298   4.556   4.537   6.487
 5133SOL    HW216299   4.702   4.484   6.437
 5134SOL     OW16300   6.792   6.155   0.960
 5134SOL    HW116301   6.889   6.132   0.967
 5134SOL    HW216302   6.777   6.249   0.991
 5135SOL     OW16303   6.580   2.973   2.026
 5135SOL    HW116304   6.511   3.045   2.020
 5135SOL    HW216305   6.670   3.011   2.005
 5136SOL     OW16306   1.014   0.943   5.894
 5136SOL    HW116307   1.038   0.885   5.972
 5136SOL    HW216308   1.053   0.906   5.810
 5137SOL     OW16309   5.704   1.235   4.436
 5137SOL    HW116310   5.690   1.205   4.342
 5137SOL    HW216311   5.684   1.158   4.498
 5138SOL     OW16312   3.257   2.939   3.898
 5138SOL    HW116313   3.273   2.894   3.810
 5138SOL    HW216314   3.177   2.998   3.891
 5139SOL     OW16315   2.651   0.208   5.141
 5139SOL    HW116316   2.721   0.261   5.093
 5139SOL    HW216317   2.565   0.259   5.141
 5140SOL     OW16318   4.115   2.315   6.892
 5140SOL    HW116319   4.124   2.233   6.835
 5140SOL    HW216320   4.200   2.331   6.942
 5141SOL     OW16321   6.416   3.046   1.747
 5141SOL    HW116322   6.317   3.044   1.758
 5141SOL    HW216323   6.448   2.955   1.719
 5142SOL     OW16324   0.098   0.122   2.795
 5142SOL    HW116325   0.174   0.081   2.746
 5142SOL    HW216326   0.075   0.211   2.755
 5143SOL     OW16327   7.006   6.305   2.901
 5143SOL    HW116328   0.025   6.213   2.889
 5143SOL    HW216329   6.919   6.312   2.853
 5144SOL     OW16330   2.417   2.875   5.348
 5144SOL    HW116331   2.418   2.948   5.280
 5144SOL    HW216332   2.508   2.833   5.353
 5145SOL     OW16333   2.254   5.672   6.970
 5145SOL    HW116334   2.219   5.636   6.884
 5145SOL    HW216335   2.302   5.600   0.001
 5146SOL     OW16336   5.101   5.063   6.285
 5146SOL    HW116337   5.145   5.002   6.220
 5146SOL    HW216338   5.023   5.017   6.327
 5147SOL     OW16339   4.680   2.722   3.787
 5147SOL    HW116340   4.591   2.703   3.828
 5147SOL    HW216341   4.717   2.639   3.747
 5148SOL     OW16342   0.947   0.572   6.485
 5148SOL    HW116343   0.992   0.513   6.551
 5148SOL    HW216344   0.948   0.666   6.519
 5149SOL     OW16345   4.740   4.829   3.739
 5149SOL    HW116346   4.738   4.765   3.816
 5149SOL    HW216347   4.818   4.891   3.748
 5150SOL     OW16348   0.057   6.146   3.980
 5150SOL    HW116349   0.011   6.090   3.911
 5150SOL    HW216350   0.100   6.225   3.935
 5151SOL     OW16351   6.003   5.321   2.110
 5151SOL    HW116352   5.930   5.256   2.127
 5151SOL    HW216353   6.089   5.272   2.097
 5152SOL     OW16354   0.898   1.616   0.332
 5152SOL    HW116355   0.861   1.614   0.425
 5152SOL    HW216356   0.920   1.523   0.303
 5153SOL     OW16357   1.295   1.677   1.376
 5153SOL    HW116358   1.214   1.634   1.336
 5153SOL    HW216359   1.371   1.672   1.311
 5154SOL     OW16360   7.012   2.871   0.218
 5154SOL    HW116361   0.072   2.904   0.271
 5154SOL    HW216362   6.993   2.776   0.242
 5155SOL     OW16363   1.748   1.428   0.507
 5155SOL    HW116364   1.719   1.447   0.413
 5155SOL    HW216365   1.670   1.443   0.569
 5156SOL     OW16366   5.268   6.094   5.611
 5156SOL    HW116367   5.330   6.016   5.605
 5156SOL    HW216368   5.293   6.151   5.689
 5157SOL     OW16369   3.470   0.262   1.201
 5157SOL    HW116370   3.435   0.356   1.198
 5157SOL    HW216371   3.460   0.226   1.294
 5158SOL     OW16372   1.896   2.359   1.784
 5158SOL    HW116373   1.799   2.369   1.763
 5158SOL    HW216374   1.935   2.286   1.727
 5159SOL     OW16375   6.361   3.342   5.888
 5159SOL    HW116376   6.438   3.400   5.860
 5159SOL    HW216377   6.307   3.390   5.957
 5160SOL     OW16378   6.271   6.470   3.442
 5160SOL    HW116379   6.301   6.490   3.535
 5160SOL    HW216380   6.265   6.555   3.390
 5161SOL     OW16381   1.038   3.507   0.672
 5161SOL    HW116382   1.091   3.471   0.749
 5161SOL    HW216383   1.000   3.430   0.619
 5162SOL     OW16384   0.129   0.193   3.717
 5162SOL    HW116385   0.065   0.116   3.717
 5162SOL    HW216386   0.079   0.277   3.696
 5163SOL     OW16387   2.919   0.218   2.052
 5163SOL    HW116388   2.980   0.166   1.992
 5163SOL    HW216389   2.849   0.263   1.997
 5164SOL     OW16390   3.141   3.351   0.582
 5164SOL    HW116391   3.078   3.429   0.585
 5164SOL    HW216392   3.158   3.325   0.487
 5165SOL     OW16393   1.354   3.922   6.491
 5165SOL    HW116394   1.363   4.020   6.505
 5165SOL    HW216395   1.332   3.877   6.578
 5166SOL     OW16396   1.436   5.646   0.970
 5166SOL    HW116397   1.352   5.668   0.920
 5166SOL    HW216398   1.457   5.722   1.032
 5167SOL     OW16399   5.708   3.121   5.334
 5167SOL    HW116400   5.703   3.063   5.416
 5167SOL    HW216401   5.617   3.129   5.294
 5168SOL     OW16402   4.345   2.374   2.980
 5168SOL    HW116403   4.280   2.373   2.903
 5168SOL    HW216404   4.301   2.334   3.061
 5169SOL     OW16405   4.164   6.378   4.125
 5169SOL    HW116406   4.182   6.311   4.054
 5169SOL    HW216407   4.155   6.332   4.213
 5170SOL     OW16408   1.649   3.750   6.698
 5170SOL    HW116409   1.648   3.791   6.607
 5170SOL    HW216410   1.708   3.669   6.697
 5171SOL     OW16411   2.114   5.812   5.399
 5171SOL    HW116412   2.194   5.755   5.382
 5171SOL    HW216413   2.060   5.820   5.315
 5172SOL     OW16414   6.379   5.757   4.751
 5172SOL    HW116415   6.415   5.799   4.668
 5172SOL    HW216416   6.307   5.692   4.728
 5173SOL     OW16417   4.544   4.093   5.629
 5173SOL    HW116418   4.464   4.078   5.687
 5173SOL    HW216419   4.526   4.059   5.537
 5174SOL     OW16420   2.148   6.473   3.150
 5174SOL    HW116421   2.121   6.563   3.185
 5174SOL    HW216422   2.205   6.485   3.069
 5175SOL     OW16423   3.127   3.539   6.814
 5175SOL    HW116424   3.155   3.544   6.910
 5175SOL    HW216425   3.034   3.575   6.804
 5176SOL     OW16426   5.945   6.145   0.118
 5176SOL    HW116427   6.002   6.101   0.048
 5176SOL    HW216428   5.955   6.244   0.112
 5177SOL     OW16429   5.954   0.069   0.571
 5177SOL    HW116430   5.955   7.002   0.519
 5177SOL    HW216431   5.944   0.146   0.507
 5178SOL     OW16432   0.617   4.571   2.208
 5178SOL    HW116433   0.665   4.517   2.139
 5178SOL    HW216434   0.548   4.514   2.253
 5179SOL     OW16435   5.186   5.867   2.700
 5179SOL    HW116436   5.235   5.923   2.768
 5179SOL    HW216437   5.192   5.771   2.726
 5180SOL     OW16438   2.536   6.701   2.383
 5180SOL    HW116439   2.505   6.630   2.447
 5180SOL    HW216440   2.456   6.749   2.346
 5181SOL     OW16441   0.439   0.170   5.854
 5181SOL    HW116442   0.342   0.148   5.847
 5181SOL    HW216443   0.492   0.103   5.802
 5182SOL     OW16444   2.716   6.453   3.452
 5182SOL    HW116445   2.691   6.454   3.355
 5182SOL    HW216446   2.692   6.541   3.494
 5183SOL     OW16447   4.266   1.638   3.665
 5183SOL    HW116448   4.226   1.696   3.736
 5183SOL    HW216449   4.308   1.558   3.707
 5184SOL     OW16450   2.817   1.442   3.895
 5184SOL    HW116451   2.783   1.378   3.963
 5184SOL    HW216452   2.752   1.517   3.883
 5185SOL     OW16453   6.178   0.383   1.715
 5185SOL    HW116454   6.237   0.398   1.794
 5185SOL    HW216455   6.123   0.300   1.729
 5186SOL     OW16456   0.129   3.087   6.726
 5186SOL    HW116457   0.062   3.162   6.728
 5186SOL    HW216458   0.177   3.082   6.814
 5187SOL     OW16459   1.880   5.003   5.278
 5187SOL    HW116460   1.834   4.952   5.351
 5187SOL    HW216461   1.927   5.082   5.317
 5188SOL     OW16462   6.478   6.970   2.612
 5188SOL    HW116463   6.513   6.876   2.621
 5188SOL    HW216464   6.547   0.015   2.648
 5189SOL     OW16465   5.041   6.429   6.505
 5189SOL    HW116466   5.046   6.330   6.490
 5189SOL    HW216467   5.132   6.469   6.494
 5190SOL     OW16468   2.161   3.723   0.735
 5190SOL    HW116469   2.085   3.693   0.792
 5190SOL    HW216470   2.239   3.746   0.793
 5191SOL     OW16471   3.293   4.867   2.286
 5191SOL    HW116472   3.379   4.886   2.333
 5191SOL    HW216473   3.304   4.883   2.188
 5192SOL     OW16474   1.886   4.982   2.245
 5192SOL    HW116475   1.873   5.081   2.251
 5192SOL    HW216476   1.982   4.959   2.265
 5193SOL     OW16477   5.363   0.054   5.633
 5193SOL    HW116478   5.343   0.038   5.536
 5193SOL    HW216479   5.277   0.072   5.682
 5194SOL     OW16480   5.452   2.182   6.252
 5194SOL    HW116481   5.437   2.101   6.310
 5194SOL    HW216482   5.519   2.160   6.182
 5195SOL     OW16483   0.073   0.474   4.461
 5195SOL    HW116484   0.012   0.517   4.528
 5195SOL    HW216485   0.163   0.518   4.464
 5196SOL     OW16486   5.654   0.038   2.608
 5196SOL    HW116487   5.592   0.081   2.542
 5196SOL    HW216488   5.733   0.000   2.559
 5197SOL     OW16489   1.159   3.756   5.231
 5197SOL    HW116490   1.249   3.715   5.219
 5197SOL    HW216491   1.128   3.742   5.325
 5198SOL     OW16492   5.840   5.474   3.254
 5198SOL    HW116493   5.841   5.536   3.176
 5198SOL    HW216494   5.927   5.425   3.259
 5199SOL     OW16495   0.336   4.993   1.670
 5199SOL    HW116496   0.260   4.953   1.721
 5199SOL    HW216497   0.387   4.921   1.622
 5200SOL     OW16498   6.912   3.856   4.679
 5200SOL    HW116499   6.985   3.922   4.693
 5200SOL    HW216500   6.823   3.902   4.684
 5201SOL     OW16501   1.465   5.156   4.086
 5201SOL    HW116502   1.539   5.132   4.023
 5201SOL    HW216503   1.400   5.080   4.091
 5202SOL     OW16504   0.554   5.154   1.655
 5202SOL    HW116505   0.470   5.100   1.670
 5202SOL    HW216506   0.553   5.192   1.563
 5203SOL     OW16507   1.031   2.453   0.601
 5203SOL    HW116508   0.995   2.383   0.539
 5203SOL    HW216509   0.963   2.525   0.613
 5204SOL     OW16510   4.812   4.496   6.933
 5204SOL    HW116511   4.816   4.418   6.994
 5204SOL    HW216512   4.894   4.498   6.876
 5205SOL     OW16513   1.934   0.474   1.744
 5205SOL    HW116514   1.840   0.440   1.741
 5205SOL    HW216515   1.964   0.482   1.839
 5206SOL     OW16516   0.175   4.333   5.628
 5206SOL    HW116517   0.117   4.415   5.628
 5206SOL    HW216518   0.221   4.325   5.717
 5207SOL     OW16519   1.978   4.314   4.155
 5207SOL    HW116520   2.039   4.329   4.233
 5207SOL    HW216521   1.883   4.314   4.187
 5208SOL     OW16522   4.009   1.514   6.547
 5208SOL    HW116523   4.067   1.514   6.628
 5208SOL    HW216524   4.067   1.520   6.465
 5209SOL     OW16525   5.059   6.038   2.950
 5209SOL    HW116526   5.052   6.049   3.049
 5209SOL    HW216527   5.017   6.117   2.905
 5210SOL     OW16528   4.772   5.285   3.713
 5210SOL    HW116529   4.711   5.352   3.672
 5210SOL    HW216530   4.853   5.331   3.750
 5211SOL     OW16531   4.038   3.109   2.746
 5211SOL    HW116532   4.075   3.130   2.656
 5211SOL    HW216533   3.940   3.088   2.738
 5212SOL     OW16534   1.088   1.901   0.564
 5212SOL    HW116535   1.141   1.927   0.644
 5212SOL    HW216536   1.004   1.854   0.592
 5213SOL     OW16537   4.279   2.068   6.493
 5213SOL    HW116538   4.368   2.053   6.449
 5213SOL    HW216539   4.237   1.980   6.512
 5214SOL     OW16540   5.694   1.449   5.533
 5214SOL    HW116541   5.649   1.528   5.574
 5214SOL    HW216542   5.754   1.406   5.600
 5215SOL     OW16543   4.868   5.081   2.378
 5215SOL    HW116544   4.803   5.118   2.445
 5215SOL    HW216545   4.953   5.058   2.425
 5216SOL     OW16546   4.970   5.073   0.921
 5216SOL    HW116547   5.037   5.002   0.941
 5216SOL    HW216548   4.887   5.056   0.973
 5217SOL     OW16549   2.496   4.903   3.976
 5217SOL    HW116550   2.544   4.904   4.064
 5217SOL    HW216551   2.552   4.855   3.908
 5218SOL     OW16552   1.600   6.771   3.506
 5218SOL    HW116553   1.506   6.783   3.473
 5218SOL    HW216554   1.599   6.767   3.606
 5219SOL     OW16555   3.063   6.003   0.250
 5219SOL    HW116556   2.984   5.978   0.307
 5219SOL    HW216557   3.105   6.085   0.286
 5220SOL     OW16558   0.548   6.492   2.755
 5220SOL    HW116559   0.464   6.457   2.798
 5220SOL    HW216560   0.549   6.467   2.658
 5221SOL     OW16561   5.007   1.684   4.745
 5221SOL    HW116562   5.031   1.676   4.648
 5221SOL    HW216563   5.017   1.779   4.774
 5222SOL     OW16564   1.127   0.745   2.768
 5222SOL    HW116565   1.225   0.745   2.753
 5222SOL    HW216566   1.080   0.707   2.688
 5223SOL     OW16567   4.998   0.047   1.733
 5223SOL    HW116568   4.985   6.967   1.720
 5223SOL    HW216569   5.094   0.070   1.716
 5224SOL     OW16570   5.703   1.998   2.287
 5224SOL    HW116571   5.791   1.954   2.304
 5224SOL    HW216572   5.653   2.006   2.374
 5225SOL     OW16573   5.380   6.015   5.211
 5225SOL    HW116574   5.386   5.919   5.182
 5225SOL    HW216575   5.291   6.053   5.182
 5226SOL     OW16576   1.271   6.480   3.922
 5226SOL    HW116577   1.276   6.444   4.015
 5226SOL    HW216578   1.284   6.406   3.856
 5227SOL     OW16579   5.996   4.718   3.233
 5227SOL    HW116580   6.001   4.721   3.332
 5227SOL    HW216581   5.974   4.809   3.198
 5228SOL     OW16582   5.495   1.389   0.722
 5228SOL    HW116583   5.515   1.397   0.819
 5228SOL    HW216584   5.567   1.334   0.678
 5229SOL     OW16585   1.443   4.427   5.387
 5229SOL    HW116586   1.519   4.449   5.326
 5229SOL    HW216587   1.357   4.457   5.346
 5230SOL     OW16588   0.654   0.129   6.837
 5230SOL    HW116589   0.588   0.136   6.762
 5230SOL    HW216590   0.662   0.033   6.865
 5231SOL     OW16591   3.932   3.051   3.025
 5231SOL    HW116592   3.968   3.090   3.109
 5231SOL    HW216593   3.993   3.073   2.949
 5232SOL     OW16594   4.938   2.482   6.766
 5232SOL    HW116595   5.035   2.503   6.750
 5232SOL    HW216596   4.914   2.397   6.719
 5233SOL     OW16597   0.905   0.510   2.326
 5233SOL    HW116598   0.859   0.457   2.255
 5233SOL    HW216599   1.003   0.489   2.325
 5234SOL     OW16600   3.941   0.146   1.001
 5234SOL    HW116601   3.927   0.245   0.990
 5234SOL    HW216602   3.863   0.097   0.961
 5235SOL     OW16603   0.832   3.195   1.088
 5235SOL    HW116604   0.808   3.275   1.034
 5235SOL    HW216605   0.869   3.224   1.176
 5236SOL     OW16606   5.255   2.913   1.242
 5236SOL    HW116607   5.162   2.912   1.205
 5236SOL    HW216608   5.287   2.819   1.252
 5237SOL     OW16609   2.365   1.771   5.214
 5237SOL    HW116610   2.415   1.723   5.142
 5237SOL    HW216611   2.343   1.707   5.287
 5238SOL     OW16612   1.745   4.837   1.002
 5238SOL    HW116613   1.770   4.742   1.021
 5238SOL    HW216614   1.647   4.849   1.020
 5239SOL     OW16615   2.878   3.358   4.240
 5239SOL    HW116616   2.793   3.364   4.291
 5239SOL    HW216617   2.945   3.306   4.292
 5240SOL     OW16618   3.358   2.112   4.877
 5240SOL    HW116619   3.412   2.119   4.961
 5240SOL    HW216620   3.265   2.144   4.895
 5241SOL     OW16621   1.787   6.078   0.053
 5241SOL    HW116622   1.705   6.124   0.019
 5241SOL    HW216623   1.810   6.002   7.011
 5242SOL     OW16624   5.759   1.065   5.217
 5242SOL    HW116625   5.674   1.080   5.166
 5242SOL    HW216626   5.753   1.110   5.306
 5243SOL     OW16627   1.697   5.004   1.289
 5243SOL    HW116628   1.688   5.028   1.193
 5243SOL    HW216629   1.610   4.968   1.323
 5244SOL     OW16630   5.302   4.244   5.530
 5244SOL    HW116631   5.305   4.329   5.478
 5244SOL    HW216632   5.391   4.198   5.524
 5245SOL     OW16633   4.737   3.615   6.648
 5245SOL    HW116634   4.833   3.588   6.657
 5245SOL    HW216635   4.690   3.601   6.736
 5246SOL     OW16636   1.051   3.122   2.892
 5246SOL    HW116637   1.007   3.203   2.854
 5246SOL    HW216638   0.989   3.078   2.956
 5247SOL     OW16639   0.880   5.111   1.275
 5247SOL    HW116640   0.972   5.135   1.244
 5247SOL    HW216641   0.828   5.195   1.291
 5248SOL     OW16642   4.904   1.165   5.945
 5248SOL    HW116643   4.841   1.092   5.918
 5248SOL    HW216644   4.877   1.200   6.035
 5249SOL     OW16645   1.069   5.018   4.829
 5249SOL    HW116646   0.986   5.073   4.836
 5249SOL    HW216647   1.149   5.079   4.835
 5250SOL     OW16648   0.861   1.569   5.880
 5250SOL    HW116649   0.806   1.501   5.833
 5250SOL    HW216650   0.866   1.547   5.977
 5251SOL     OW16651   6.593   3.432   1.481
 5251SOL    HW116652   6.527   3.357   1.484
 5251SOL    HW216653   6.675   3.403   1.432
 5252SOL     OW16654   4.082   5.993   0.720
 5252SOL    HW116655   4.017   5.974   0.793
 5252SOL    HW216656   4.150   6.059   0.751
 5253SOL     OW16657   5.606   3.658   3.981
 5253SOL    HW116658   5.588   3.579   4.039
 5253SOL    HW216659   5.572   3.640   3.889
 5254SOL     OW16660   4.757   1.019   3.908
 5254SOL    HW116661   4.707   1.099   3.874
 5254SOL    HW216662   4.692   0.948   3.934
 5255SOL     OW16663   3.445   6.394   5.169
 5255SOL    HW116664   3.475   6.300   5.185
 5255SOL    HW216665   3.349   6.403   5.196
 5256SOL     OW16666   5.613   6.413   4.072
 5256SOL    HW116667   5.564   6.497   4.050
 5256SOL    HW216668   5.697   6.408   4.019
 5257SOL     OW16669   3.473   0.755   1.199
 5257SOL    HW116670   3.529   0.696   1.257
 5257SOL    HW216671   3.423   0.821   1.255
 5258SOL     OW16672   5.548   3.577   2.409
 5258SOL    HW116673   5.616   3.518   2.455
 5258SOL    HW216674   5.564   3.672   2.435
 5259SOL     OW16675   4.642   5.054   2.593
 5259SOL    HW116676   4.659   4.981   2.527
 5259SOL    HW216677   4.544   5.073   2.595
 5260SOL     OW16678   5.507   3.208   1.400
 5260SOL    HW116679   5.453   3.263   1.464
 5260SOL    HW216680   5.452   3.188   1.319
 5261SOL     OW16681   1.254   2.228   4.706
 5261SOL    HW116682   1.224   2.270   4.620
 5261SOL    HW216683   1.308   2.293   4.758
 5262SOL     OW16684   2.550   6.683   1.871
 5262SOL    HW116685   2.465   6.733   1.889
 5262SOL    HW216686   2.565   6.678   1.772
 5263SOL     OW16687   1.093   6.633   6.704
 5263SOL    HW116688   1.010   6.608   6.753
 5263SOL    HW216689   1.076   6.713   6.647
 5264SOL     OW16690   0.331   2.497   0.975
 5264SOL    HW116691   0.380   2.435   1.037
 5264SOL    HW216692   0.293   2.573   1.027
 5265SOL     OW16693   5.030   4.673   1.526
 5265SOL    HW116694   5.038   4.605   1.453
 5265SOL    HW216695   5.117   4.721   1.536
 5266SOL     OW16696   1.682   6.632   1.257
 5266SOL    HW116697   1.592   6.590   1.252
 5266SOL    HW216698   1.674   6.730   1.240
 5267SOL     OW16699   4.624   4.812   4.933
 5267SOL    HW116700   4.617   4.889   4.996
 5267SOL    HW216701   4.672   4.736   4.977
 5268SOL     OW16702   5.571   5.098   5.218
 5268SOL    HW116703   5.606   5.105   5.125
 5268SOL    HW216704   5.644   5.123   5.283
 5269SOL     OW16705   2.217   5.810   3.479
 5269SOL    HW116706   2.118   5.810   3.487
 5269SOL    HW216707   2.255   5.732   3.529
 5270SOL     OW16708   6.139   2.750   2.183
 5270SOL    HW116709   6.135   2.792   2.274
 5270SOL    HW216710   6.228   2.766   2.142
 5271SOL     OW16711   4.934   4.446   4.908
 5271SOL    HW116712   5.020   4.410   4.871
 5271SOL    HW216713   4.939   4.447   5.008
 5272SOL     OW16714   1.348   0.738   4.597
 5272SOL    HW116715   1.346   0.828   4.554
 5272SOL    HW216716   1.442   0.712   4.618
 5273SOL     OW16717   0.546   1.346   3.573
 5273SOL    HW116718   0.551   1.331   3.474
 5273SOL    HW216719   0.592   1.433   3.596
 5274SOL     OW16720   6.313   5.231   4.199
 5274SOL    HW116721   6.278   5.311   4.151
 5274SOL    HW216722   6.401   5.253   4.241
 5275SOL     OW16723   1.901   6.692   0.059
 5275SOL    HW116724   1.852   6.756   0.119
 5275SOL    HW216725   1.898   6.726   6.983
 5276SOL     OW16726   0.285   0.139   1.647
 5276SOL    HW116727   0.293   0.190   1.562
 5276SOL    HW216728   0.244   0.050   1.629
 5277SOL     OW16729   0.947   1.852   3.234
 5277SOL    HW116730   0.933   1.865   3.332
 5277SOL    HW216731   0.886   1.913   3.183
 5278SOL     OW16732   0.849   5.268   5.493
 5278SOL    HW116733   0.911   5.190   5.503
 5278SOL    HW216734   0.877   5.323   5.414
 5279SOL     OW16735   1.566   5.812   6.758
 5279SOL    HW116736   1.522   5.777   6.841
 5279SOL    HW216737   1.497   5.822   6.686
 5280SOL     OW16738   4.229   5.557   4.841
 5280SOL    HW116739   4.284   5.494   4.896
 5280SOL    HW216740   4.226   5.646   4.886
 5281SOL     OW16741   1.995   0.749   4.969
 5281SOL    HW116742   1.999   0.844   5.000
 5281SOL    HW216743   1.947   0.694   5.037
 5282SOL     OW16744   1.461   0.947   2.158
 5282SOL    HW116745   1.425   1.031   2.117
 5282SOL    HW216746   1.402   0.870   2.132
 5283SOL     OW16747   0.396   0.912   4.163
 5283SOL    HW116748   0.359   0.845   4.100
 5283SOL    HW216749   0.444   0.865   4.238
 5284SOL     OW16750   5.106   2.266   2.029
 5284SOL    HW116751   5.052   2.349   2.043
 5284SOL    HW216752   5.052   2.186   2.055
 5285SOL     OW16753   0.901   3.022   4.374
 5285SOL    HW116754   0.933   2.936   4.335
 5285SOL    HW216755   0.954   3.098   4.336
 5286SOL     OW16756   5.860   2.862   1.176
 5286SOL    HW116757   5.818   2.884   1.264
 5286SOL    HW216758   5.806   2.901   1.102
 5287SOL     OW16759   2.726   5.273   1.182
 5287SOL    HW116760   2.756   5.185   1.219
 5287SOL    HW216761   2.658   5.314   1.242
 5288SOL     OW16762   4.885   0.584   2.421
 5288SOL    HW116763   4.878   0.502   2.479
 5288SOL    HW216764   4.956   0.644   2.459
 5289SOL     OW16765   1.640   4.637   6.505
 5289SOL    HW116766   1.689   4.690   6.436
 5289SOL    HW216767   1.650   4.539   6.485
 5290SOL     OW16768   1.392   2.987   5.580
 5290SOL    HW116769   1.440   2.942   5.505
 5290SOL    HW216770   1.438   2.967   5.666
 5291SOL     OW16771   2.614   4.621   4.807
 5291SOL    HW116772   2.713   4.635   4.809
 5291SOL    HW216773   2.575   4.642   4.896
 5292SOL     OW16774   6.804   3.988   5.966
 5292SOL    HW116775   6.786   4.000   5.868
 5292SOL    HW216776   6.744   4.048   6.018
 5293SOL     OW16777   2.317   5.554   4.505
 5293SOL    HW116778   2.372   5.569   4.423
 5293SOL    HW216779   2.263   5.470   4.494
 5294SOL     OW16780   3.915   0.779   5.036
 5294SOL    HW116781   3.903   0.865   5.084
 5294SOL    HW216782   3.969   0.794   4.953
 5295SOL     OW16783   3.220   0.660   1.961
 5295SOL    HW116784   3.279   0.703   2.030
 5295SOL    HW216785   3.156   0.598   2.007
 5296SOL     OW16786   4.135   4.615   0.981
 5296SOL    HW116787   4.045   4.639   1.016
 5296SOL    HW216788   4.205   4.665   1.031
 5297SOL     OW16789   2.549   4.300   0.761
 5297SOL    HW116790   2.533   4.304   0.663
 5297SOL    HW216791   2.637   4.256   0.779
 5298SOL     OW16792   2.175   0.010   0.437
 5298SOL    HW116793   2.253   0.065   0.407
 5298SOL    HW216794   2.106   0.008   0.365
 5299SOL     OW16795   3.217   1.845   0.165
 5299SOL    HW116796   3.129   1.866   0.207
 5299SOL    HW216797   3.266   1.930   0.144
 5300SOL     OW16798   2.240   4.273   0.192
 5300SOL    HW116799   2.337   4.278   0.170
 5300SOL    HW216800   2.186   4.290   0.109
 5301SOL     OW16801   4.651   0.280   5.960
 5301SOL    HW116802   4.611   0.332   5.884
 5301SOL    HW216803   4.590   0.204   5.982
 5302SOL     OW16804   5.402   5.473   3.268
 5302SOL    HW116805   5.339   5.397   3.283
 5302SOL    HW216806   5.369   5.554   3.317
 5303SOL     OW16807   6.699   4.886   6.014
 5303SOL    HW116808   6.661   4.811   6.068
 5303SOL    HW216809   6.796   4.897   6.035
 5304SOL     OW16810   6.385   1.263   1.324
 5304SOL    HW116811   6.297   1.239   1.365
 5304SOL    HW216812   6.456   1.260   1.395
 5305SOL     OW16813   1.270   5.504   2.825
 5305SOL    HW116814   1.359   5.532   2.789
 5305SOL    HW216815   1.214   5.467   2.750
 5306SOL     OW16816   6.725   3.673   5.870
 5306SOL    HW116817   6.673   3.588   5.864
 5306SOL    HW216818   6.717   3.711   5.962
 5307SOL     OW16819   5.325   2.153   0.774
 5307SOL    HW116820   5.280   2.232   0.816
 5307SOL    HW216821   5.332   2.079   0.841
 5308SOL     OW16822   1.466   4.387   3.085
 5308SOL    HW116823   1.398   4.432   3.027
 5308SOL    HW216824   1.419   4.339   3.160
 5309SOL     OW16825   4.401   5.961   3.188
 5309SOL    HW116826   4.421   5.903   3.267
 5309SOL    HW216827   4.324   6.021   3.209
 5310SOL     OW16828   6.000   2.777   2.988
 5310SOL    HW116829   6.017   2.865   2.943
 5310SOL    HW216830   5.916   2.783   3.043
 5311SOL     OW16831   5.968   0.358   0.620
 5311SOL    HW116832   5.876   0.342   0.585
 5311SOL    HW216833   6.011   0.432   0.569
 5312SOL     OW16834   0.198   6.895   1.596
 5312SOL    HW116835   0.269   6.872   1.530
 5312SOL    HW216836   0.213   6.844   1.680
 5313SOL     OW16837   6.321   5.225   5.190
 5313SOL    HW116838   6.253   5.153   5.201
 5313SOL    HW216839   6.369   5.238   5.277
 5314SOL     OW16840   5.974   6.794   1.320
 5314SOL    HW116841   6.027   6.850   1.383
 5314SOL    HW216842   6.018   6.704   1.311
 5315SOL     OW16843   4.327   1.400   3.812
 5315SOL    HW116844   4.414   1.360   3.839
 5315SOL    HW216845   4.272   1.331   3.764
 5316SOL     OW16846   0.771   2.791   4.807
 5316SOL    HW116847   0.788   2.887   4.785
 5316SOL    HW216848   0.677   2.781   4.842
 5317SOL     OW16849   6.397   1.562   5.949
 5317SOL    HW116850   6.422   1.492   6.015
 5317SOL    HW216851   6.364   1.519   5.865
 5318SOL     OW16852   6.220   3.206   0.038
 5318SOL    HW116853   6.154   3.199   0.112
 5318SOL    HW216854   6.187   3.271   6.988
 5319SOL     OW16855   4.419   6.998   1.097
 5319SOL    HW116856   4.375   0.059   1.055
 5319SOL    HW216857   4.485   6.959   1.032
 5320SOL     OW16858   3.306   6.058   1.383
 5320SOL    HW116859   3.282   6.071   1.287
 5320SOL    HW216860   3.389   6.002   1.389
 5321SOL     OW16861   2.093   4.772   4.659
 5321SOL    HW116862   2.189   4.755   4.641
 5321SOL    HW216863   2.067   4.861   4.622
 5322SOL     OW16864   5.606   6.881   1.913
 5322SOL    HW116865   5.676   6.819   1.950
 5322SOL    HW216866   5.529   6.885   1.975
 5323SOL     OW16867   4.482   1.824   5.419
 5323SOL    HW116868   4.517   1.733   5.442
 5323SOL    HW216869   4.556   1.878   5.379
 5324SOL     OW16870   2.525   2.386   0.209
 5324SOL    HW116871   2.473   2.429   0.283
 5324SOL    HW216872   2.623   2.401   0.224
 5325SOL     OW16873   2.668   1.998   4.967
 5325SOL    HW116874   2.705   2.068   4.906
 5325SOL    HW216875   2.719   1.998   5.053
 5326SOL     OW16876   6.325   6.176   2.579
 5326SOL    HW116877   6.306   6.159   2.676
 5326SOL    HW216878   6.309   6.093   2.526
 5327SOL     OW16879   5.726   2.808   4.632
 5327SOL    HW116880   5.780   2.845   4.556
 5327SOL    HW216881   5.775   2.730   4.671
 5328SOL     OW16882   4.141   3.980   6.881
 5328SOL    HW116883   4.082   3.901   6.893
 5328SOL    HW216884   4.090   4.064   6.901
 5329SOL     OW16885   1.472   6.150   6.482
 5329SOL    HW116886   1.504   6.088   6.410
 5329SOL    HW216887   1.524   6.133   6.566
 5330SOL     OW16888   2.807   2.925   0.436
 5330SOL    HW116889   2.838   2.915   0.341
 5330SOL    HW216890   2.741   2.854   0.458
 5331SOL     OW16891   6.527   0.927   6.627
 5331SOL    HW116892   6.529   1.023   6.655
 5331SOL    HW216893   6.509   0.869   6.706
 5332SOL     OW16894   1.418   4.655   1.903
 5332SOL    HW116895   1.464   4.573   1.939
 5332SOL    HW216896   1.425   4.655   1.803
 5333SOL     OW16897   0.965   6.366   4.324
 5333SOL    HW116898   0.916   6.293   4.372
 5333SOL    HW216899   0.930   6.373   4.231
 5334SOL     OW16900   2.838   6.957   4.277
 5334SOL    HW116901   2.746   6.924   4.253
 5334SOL    HW216902   2.873   7.013   4.203
 5335SOL     OW16903   6.935   5.400   0.483
 5335SOL    HW116904   6.864   5.466   0.458
 5335SOL    HW216905   0.006   5.439   0.463
 5336SOL     OW16906   1.907   3.529   2.356
 5336SOL    HW116907   1.838   3.573   2.297
 5336SOL    HW216908   1.874   3.528   2.450
 5337SOL     OW16909   5.246   3.881   1.135
 5337SOL    HW116910   5.185   3.934   1.195
 5337SOL    HW216911   5.291   3.810   1.189
 5338SOL     OW16912   6.729   1.935   6.962
 5338SOL    HW116913   6.804   1.888   6.915
 5338SOL    HW216914   6.652   1.873   6.974
 5339SOL     OW16915   6.789   1.546   3.390
 5339SOL    HW116916   6.864   1.611   3.398
 5339SOL    HW216917   6.822   1.454   3.410
 5340SOL     OW16918   5.699   2.757   0.202
 5340SOL    HW116919   5.739   2.826   0.141
 5340SOL    HW216920   5.653   2.803   0.278
 5341SOL     OW16921   4.325   1.218   6.018
 5341SOL    HW116922   4.376   1.260   6.093
 5341SOL    HW216923   4.230   1.246   6.023
 5342SOL     OW16924   4.026   0.624   5.243
 5342SOL    HW116925   4.081   0.557   5.193
 5342SOL    HW216926   3.979   0.684   5.178
 5343SOL     OW16927   3.814   3.296   2.392
 5343SOL    HW116928   3.783   3.390   2.383
 5343SOL    HW216929   3.739   3.240   2.429
 5344SOL     OW16930   2.024   2.907   3.408
 5344SOL    HW116931   2.012   2.808   3.407
 5344SOL    HW216932   2.045   2.937   3.502
 5345SOL     OW16933   4.695   6.651   1.075
 5345SOL    HW116934   4.666   6.688   1.163
 5345SOL    HW216935   4.715   6.726   1.012
 5346SOL     OW16936   2.640   6.543   3.207
 5346SOL    HW116937   2.607   6.511   3.118
 5346SOL    HW216938   2.703   6.620   3.194
 5347SOL     OW16939   0.161   1.920   1.321
 5347SOL    HW116940   0.123   1.865   1.396
 5347SOL    HW216941   0.225   1.864   1.268
 5348SOL     OW16942   1.229   1.662   0.665
 5348SOL    HW116943   1.281   1.584   0.629
 5348SOL    HW216944   1.196   1.717   0.588
 5349SOL     OW16945   0.058   1.630   0.797
 5349SOL    HW116946   0.123   1.673   0.734
 5349SOL    HW216947   6.983   1.653   0.770
 5350SOL     OW16948   2.832   1.123   6.432
 5350SOL    HW116949   2.900   1.056   6.402
 5350SOL    HW216950   2.767   1.141   6.358
 5351SOL     OW16951   5.065   6.322   1.000
 5351SOL    HW116952   5.054   6.421   1.013
 5351SOL    HW216953   5.161   6.302   0.980
 5352SOL     OW16954   2.434   5.598   3.281
 5352SOL    HW116955   2.407   5.635   3.192
 5352SOL    HW216956   2.533   5.605   3.292
 5353SOL     OW16957   4.616   5.901   5.015
 5353SOL    HW116958   4.600   5.893   5.113
 5353SOL    HW216959   4.708   5.937   4.999
 5354SOL     OW16960   1.807   4.967   1.915
 5354SOL    HW116961   1.768   4.934   1.829
 5354SOL    HW216962   1.748   4.939   1.991
 5355SOL     OW16963   4.572   1.588   3.620
 5355SOL    HW116964   4.663   1.601   3.580
 5355SOL    HW216965   4.581   1.568   3.718
 5356SOL     OW16966   6.298   3.848   1.044
 5356SOL    HW116967   6.224   3.791   1.009
 5356SOL    HW216968   6.383   3.823   0.999
 5357SOL     OW16969   3.831   0.216   0.345
 5357SOL    HW116970   3.926   0.185   0.338
 5357SOL    HW216971   3.824   0.309   0.311
 5358SOL     OW16972   4.466   2.139   0.986
 5358SOL    HW116973   4.535   2.203   1.018
 5358SOL    HW216974   4.391   2.134   1.052
 5359SOL     OW16975   2.500   1.745   0.754
 5359SOL    HW116976   2.411   1.709   0.726
 5359SOL    HW216977   2.528   1.701   0.840
 5360SOL     OW16978   3.709   6.474   5.968
 5360SOL    HW116979   3.799   6.515   5.951
 5360SOL    HW216980   3.667   6.518   6.048
 5361SOL     OW16981   2.205   1.129   4.848
 5361SOL    HW116982   2.257   1.171   4.922
 5361SOL    HW216983   2.118   1.095   4.883
 5362SOL     OW16984   4.802   5.105   2.827
 5362SOL    HW116985   4.767   5.128   2.737
 5362SOL    HW216986   4.733   5.055   2.879
 5363SOL     OW16987   0.928   5.548   6.421
 5363SOL    HW116988   0.888   5.610   6.354
 5363SOL    HW216989   0.975   5.473   6.375
 5364SOL     OW16990   6.760   6.118   0.593
 5364SOL    HW116991   6.732   6.214   0.586
 5364SOL    HW216992   6.856   6.114   0.620
 5365SOL     OW16993   4.585   2.345   6.127
 5365SOL    HW116994   4.671   2.393   6.110
 5365SOL    HW216995   4.541   2.323   6.040
 5366SOL     OW16996   4.329   4.299   0.425
 5366SOL    HW116997   4.244   4.252   0.447
 5366SOL    HW216998   4.401   4.269   0.488
 5367SOL     OW16999   0.785   4.706   1.178
 5367SOL    HW117000   0.702   4.653   1.162
 5367SOL    HW217001   0.775   4.760   1.261
 5368SOL     OW17002   5.499   1.784   3.263
 5368SOL    HW117003   5.536   1.855   3.324
 5368SOL    HW217004   5.399   1.784   3.270
 5369SOL     OW17005   2.382   4.686   3.044
 5369SOL    HW117006   2.417   4.594   3.027
 5369SOL    HW217007   2.424   4.750   2.978
 5370SOL     OW17008   3.620   2.762   1.464
 5370SOL    HW117009   3.634   2.711   1.550
 5370SOL    HW217010   3.531   2.807   1.466
 5371SOL     OW17011   1.746   4.337   4.317
 5371SOL    HW117012   1.817   4.320   4.385
 5371SOL    HW217013   1.707   4.428   4.332
 5372SOL     OW17014   2.985   4.823   2.665
 5372SOL    HW117015   2.901   4.769   2.666
 5372SOL    HW217016   2.994   4.868   2.576
 5373SOL     OW17017   3.131   5.073   4.279
 5373SOL    HW117018   3.197   5.113   4.342
 5373SOL    HW217019   3.064   5.019   4.331
 5374SOL     OW17020   1.752   2.809   6.441
 5374SOL    HW117021   1.777   2.718   6.474
 5374SOL    HW217022   1.803   2.829   6.357
 5375SOL     OW17023   1.595   4.693   4.615
 5375SOL    HW117024   1.586   4.793   4.617
 5375SOL    HW217025   1.685   4.667   4.650
 5376SOL     OW17026   1.422   3.699   1.799
 5376SOL    HW117027   1.446   3.741   1.712
 5376SOL    HW217028   1.469   3.611   1.808
 5377SOL     OW17029   0.327   0.382   1.742
 5377SOL    HW117030   0.414   0.423   1.716
 5377SOL    HW217031   0.323   0.287   1.711
 5378SOL     OW17032   5.862   0.868   0.002
 5378SOL    HW117033   5.794   0.938   0.026
 5378SOL    HW217034   5.945   0.913   6.987
 5379SOL     OW17035   0.309   5.265   3.143
 5379SOL    HW117036   0.292   5.334   3.213
 5379SOL    HW217037   0.406   5.239   3.146
 5380SOL     OW17038   2.401   6.807   3.493
 5380SOL    HW117039   2.319   6.754   3.471
 5380SOL    HW217040   2.374   6.898   3.524
 5381SOL     OW17041   5.821   4.137   0.954
 5381SOL    HW117042   5.729   4.147   0.916
 5381SOL    HW217043   5.856   4.227   0.980
 5382SOL     OW17044   3.226   1.147   1.433
 5382SOL    HW117045   3.298   1.201   1.390
 5382SOL    HW217046   3.151   1.134   1.368
 5383SOL     OW17047   2.770   2.267   5.467
 5383SOL    HW117048   2.689   2.322   5.446
 5383SOL    HW217049   2.846   2.297   5.409
 5384SOL     OW17050   6.229   6.558   4.527
 5384SOL    HW117051   6.234   6.495   4.450
 5384SOL    HW217052   6.204   6.649   4.495
 5385SOL     OW17053   3.090   4.053   2.384
 5385SOL    HW117054   3.165   4.082   2.325
 5385SOL    HW217055   3.026   4.130   2.397
 5386SOL     OW17056   4.712   6.363   4.192
 5386SOL    HW117057   4.755   6.394   4.107
 5386SOL    HW217058   4.739   6.423   4.267
 5387SOL     OW17059   3.139   5.420   1.996
 5387SOL    HW117060   3.101   5.334   1.960
 5387SOL    HW217061   3.083   5.451   2.073
 5388SOL     OW17062   5.893   6.719   2.630
 5388SOL    HW117063   5.800   6.729   2.593
 5388SOL    HW217064   5.926   6.626   2.613
 5389SOL     OW17065   4.481   0.879   1.540
 5389SOL    HW117066   4.455   0.866   1.636
 5389SOL    HW217067   4.464   0.974   1.514
 5390SOL     OW17068   5.922   5.066   4.908
 5390SOL    HW117069   5.976   5.114   4.839
 5390SOL    HW217070   5.892   4.978   4.872
 5391SOL     OW17071   2.738   3.353   0.549
 5391SOL    HW117072   2.818   3.342   0.490
 5391SOL    HW217073   2.668   3.287   0.523
 5392SOL     OW17074   5.821   3.296   1.739
 5392SOL    HW117075   5.820   3.210   1.789
 5392SOL    HW217076   5.731   3.312   1.699
 5393SOL     OW17077   6.946   6.995   7.012
 5393SOL    HW117078   0.015   0.025   7.003
 5393SOL    HW217079   6.936   6.963   0.088
 5394SOL     OW17080   0.746   4.024   6.099
 5394SOL    HW117081   0.652   4.056   6.108
 5394SOL    HW217082   0.747   3.924   6.098
 5395SOL     OW17083   4.108   0.779   0.718
 5395SOL    HW117084   4.184   0.803   0.659
 5395SOL    HW217085   4.025   0.769   0.663
 5396SOL     OW17086   5.283   3.889   2.126
 5396SOL    HW117087   5.295   3.872   2.028
 5396SOL    HW217088   5.225   3.816   2.165
 5397SOL     OW17089   6.892   3.200   1.683
 5397SOL    HW117090   6.967   3.240   1.735
 5397SOL    HW217091   6.871   3.260   1.605
 5398SOL     OW17092   3.023   2.436   1.663
 5398SOL    HW117093   3.121   2.415   1.671
 5398SOL    HW217094   2.976   2.405   1.746
 5399SOL     OW17095   2.208   6.201   0.878
 5399SOL    HW117096   2.261   6.254   0.811
 5399SOL    HW217097   2.271   6.157   0.942
 5400SOL     OW17098   2.737   4.679   0.418
 5400SOL    HW117099   2.793   4.711   0.343
 5400SOL    HW217100   2.670   4.612   0.384
 5401SOL     OW17101   5.980   3.405   1.959
 5401SOL    HW117102   5.916   3.374   1.889
 5401SOL    HW217103   5.957   3.498   1.986
 5402SOL     OW17104   2.210   6.315   2.084
 5402SOL    HW117105   2.241   6.227   2.119
 5402SOL    HW217106   2.287   6.365   2.045
 5403SOL     OW17107   0.163   3.632   6.637
 5403SOL    HW117108   0.255   3.633   6.675
 5403SOL    HW217109   0.146   3.718   6.588
 5404SOL     OW17110   1.425   3.126   3.817
 5404SOL    HW117111   1.488   3.175   3.757
 5404SOL    HW217112   1.416   3.031   3.786
 5405SOL     OW17113   6.987   5.573   6.141
 5405SOL    HW117114   0.062   5.539   6.143
 5405SOL    HW217115   6.954   5.584   6.235
 5406SOL     OW17116   1.507   1.615   0.039
 5406SOL    HW117117   1.448   1.602   6.978
 5406SOL    HW217118   1.572   1.689   0.021
 5407SOL     OW17119   3.885   3.205   0.948
 5407SOL    HW117120   3.889   3.301   0.920
 5407SOL    HW217121   3.921   3.196   1.041
 5408SOL     OW17122   2.211   0.586   5.923
 5408SOL    HW117123   2.184   0.490   5.917
 5408SOL    HW217124   2.129   0.643   5.929
 5409SOL     OW17125   4.947   0.405   3.066
 5409SOL    HW117126   4.854   0.393   3.100
 5409SOL    HW217127   5.010   0.415   3.143
 5410SOL     OW17128   3.127   2.067   1.675
 5410SOL    HW117129   3.048   2.101   1.625
 5410SOL    HW217130   3.111   2.076   1.774
 5411SOL     OW17131   6.848   5.022   5.545
 5411SOL    HW117132   6.915   5.023   5.470
 5411SOL    HW217133   6.756   5.028   5.507
 5412SOL     OW17134   5.492   3.022   0.913
 5412SOL    HW117135   5.455   2.930   0.913
 5412SOL    HW217136   5.444   3.078   0.980
 5413SOL     OW17137   3.123   1.840   1.538
 5413SOL    HW117138   3.137   1.914   1.604
 5413SOL    HW217139   3.144   1.873   1.446
 5414SOL     OW17140   4.511   1.286   4.725
 5414SOL    HW117141   4.437   1.265   4.789
 5414SOL    HW217142   4.482   1.360   4.664
 5415SOL     OW17143   0.566   6.048   0.977
 5415SOL    HW117144   0.623   6.001   1.045
 5415SOL    HW217145   0.594   6.144   0.971
 5416SOL     OW17146   4.067   4.964   4.816
 5416SOL    HW117147   4.100   4.969   4.910
 5416SOL    HW217148   4.092   5.048   4.768
 5417SOL     OW17149   3.605   6.579   5.350
 5417SOL    HW117150   3.682   6.520   5.374
 5417SOL    HW217151   3.550   6.536   5.279
 5418SOL     OW17152   3.668   0.147   2.559
 5418SOL    HW117153   3.629   0.236   2.536
 5418SOL    HW217154   3.606   0.098   2.621
 5419SOL     OW17155   3.342   4.909   6.837
 5419SOL    HW117156   3.265   4.846   6.846
 5419SOL    HW217157   3.341   4.951   6.747
 5420SOL     OW17158   2.053   2.351   3.628
 5420SOL    HW117159   2.066   2.262   3.585
 5420SOL    HW217160   2.135   2.407   3.616
 5421SOL     OW17161   1.764   3.918   1.562
 5421SOL    HW117162   1.823   3.838   1.555
 5421SOL    HW217163   1.796   3.990   1.501
 5422SOL     OW17164   1.697   4.467   1.464
 5422SOL    HW117165   1.773   4.412   1.499
 5422SOL    HW217166   1.636   4.409   1.410
 5423SOL     OW17167   6.279   3.256   6.229
 5423SOL    HW117168   6.282   3.161   6.199
 5423SOL    HW217169   6.313   3.315   6.156
 5424SOL     OW17170   5.177   3.598   4.498
 5424SOL    HW117171   5.201   3.633   4.408
 5424SOL    HW217172   5.247   3.533   4.529
 5425SOL     OW17173   4.037   1.185   5.100
 5425SOL    HW117174   4.109   1.255   5.105
 5425SOL    HW217175   3.979   1.191   5.181
 5426SOL     OW17176   5.665   6.779   5.152
 5426SOL    HW117177   5.667   6.874   5.123
 5426SOL    HW217178   5.755   6.753   5.188
 5427SOL     OW17179   4.441   5.887   6.775
 5427SOL    HW117180   4.497   5.947   6.833
 5427SOL    HW217181   4.479   5.883   6.683
 5428SOL     OW17182   0.761   0.176   1.056
 5428SOL    HW117183   0.856   0.146   1.046
 5428SOL    HW217184   0.726   0.149   1.145
 5429SOL     OW17185   1.684   2.072   6.679
 5429SOL    HW117186   1.775   2.066   6.639
 5429SOL    HW217187   1.619   2.021   6.623
 5430SOL     OW17188   0.577   2.646   6.212
 5430SOL    HW117189   0.516   2.567   6.219
 5430SOL    HW217190   0.582   2.692   6.300
 5431SOL     OW17191   3.167   6.499   6.671
 5431SOL    HW117192   3.192   6.580   6.724
 5431SOL    HW217193   3.194   6.417   6.723
 5432SOL     OW17194   5.105   6.952   6.940
 5432SOL    HW117195   5.120   6.858   6.911
 5432SOL    HW217196   5.184   6.985   6.991
 5433SOL     OW17197   0.000   1.778   4.992
 5433SOL    HW117198   6.982   1.819   4.909
 5433SOL    HW217199   6.943   1.748   5.050
 5434SOL     OW17200   2.896   0.012   6.508
 5434SOL    HW117201   2.798   7.008   6.505
 5434SOL    HW217202   2.911   0.099   6.460
 5435SOL     OW17203   4.173   0.095   1.753
 5435SOL    HW117204   4.171   0.010   1.805
 5435SOL    HW217205   4.267   0.120   1.733
 5436SOL     OW17206   4.954   4.723   3.282
 5436SOL    HW117207   4.934   4.682   3.371
 5436SOL    HW217208   4.909   4.811   3.274
 5437SOL     OW17209   2.998   4.194   0.036
 5437SOL    HW117210   3.026   4.289   0.048
 5437SOL    HW217211   3.079   4.134   0.042
 5438SOL     OW17212   6.034   1.822   1.525
 5438SOL    HW117213   6.079   1.740   1.490
 5438SOL    HW217214   5.941   1.799   1.554
 5439SOL     OW17215   1.430   2.195   1.296
 5439SOL    HW117216   1.463   2.178   1.389
 5439SOL    HW217217   1.342   2.148   1.283
 5440SOL     OW17218   0.789   2.251   1.343
 5440SOL    HW117219   0.777   2.188   1.420
 5440SOL    HW217220   0.844   2.207   1.272
 5441SOL     OW17221   3.567   2.140   3.827
 5441SOL    HW117222   3.469   2.158   3.834
 5441SOL    HW217223   3.593   2.070   3.893
 5442SOL     OW17224   3.970   0.031   2.129
 5442SOL    HW117225   3.976   0.001   2.034
 5442SOL    HW217226   3.875   0.021   2.161
 5443SOL     OW17227   2.733   0.008   4.606
 5443SOL    HW117228   2.716   6.958   4.677
 5443SOL    HW217229   2.818   7.005   4.558
 5444SOL     OW17230   0.426   6.327   3.775
 5444SOL    HW117231   0.437   6.288   3.866
 5444SOL    HW217232   0.475   6.415   3.770
 5445SOL     OW17233   6.373   3.599   2.715
 5445SOL    HW117234   6.393   3.590   2.617
 5445SOL    HW217235   6.454   3.634   2.762
 5446SOL     OW17236   5.971   6.068   4.634
 5446SOL    HW117237   5.877   6.067   4.602
 5446SOL    HW217238   6.033   6.062   4.556
 5447SOL     OW17239   3.949   2.546   0.119
 5447SOL    HW117240   3.914   2.556   0.212
 5447SOL    HW217241   3.918   2.622   0.062
 5448SOL     OW17242   5.122   2.148   5.553
 5448SOL    HW117243   5.192   2.119   5.488
 5448SOL    HW217244   5.112   2.247   5.548
 5449SOL     OW17245   1.135   2.848   0.324
 5449SOL    HW117246   1.088   2.904   0.256
 5449SOL    HW217247   1.180   2.771   0.279
 5450SOL     OW17248   1.990   0.339   1.307
 5450SOL    HW117249   2.001   0.286   1.391
 5450SOL    HW217250   1.936   0.420   1.325
 5451SOL     OW17251   0.414   6.115   3.017
 5451SOL    HW117252   0.503   6.081   2.986
 5451SOL    HW217253   0.396   6.080   3.109
 5452SOL     OW17254   1.859   4.187   0.053
 5452SOL    HW117255   1.862   4.237   0.139
 5452SOL    HW217256   1.947   4.194   0.007
 5453SOL     OW17257   6.305   3.852   0.255
 5453SOL    HW117258   6.383   3.862   0.316
 5453SOL    HW217259   6.298   3.757   0.224
 5454SOL     OW17260   0.079   4.853   6.518
 5454SOL    HW117261   0.120   4.796   6.447
 5454SOL    HW217262   0.135   4.934   6.533
 5455SOL     OW17263   6.568   3.266   1.162
 5455SOL    HW117264   6.533   3.193   1.102
 5455SOL    HW217265   6.534   3.251   1.255
 5456SOL     OW17266   3.062   0.457   6.522
 5456SOL    HW117267   3.149   0.430   6.564
 5456SOL    HW217268   2.989   0.397   6.555
 5457SOL     OW17269   5.930   2.296   0.915
 5457SOL    HW117270   6.022   2.313   0.952
 5457SOL    HW217271   5.932   2.307   0.816
 5458SOL     OW17272   1.398   4.370   6.892
 5458SOL    HW117273   1.345   4.386   6.809
 5458SOL    HW217274   1.369   4.284   6.935
 5459SOL     OW17275   1.925   4.915   0.144
 5459SOL    HW117276   1.831   4.900   0.176
 5459SOL    HW217277   1.949   5.011   0.159
 5460SOL     OW17278   2.946   0.579   1.205
 5460SOL    HW117279   2.854   0.543   1.190
 5460SOL    HW217280   2.966   0.581   1.303
 5461SOL     OW17281   4.905   0.008   5.021
 5461SOL    HW117282   4.996   7.008   4.985
 5461SOL    HW217283   4.863   6.941   5.052
 5462SOL     OW17284   1.436   0.066   0.593
 5462SOL    HW117285   1.510   0.133   0.603
 5462SOL    HW217286   1.387   0.084   0.508
 5463SOL     OW17287   5.995   2.584   0.539
 5463SOL    HW117288   5.902   2.614   0.558
 5463SOL    HW217289   6.035   2.641   0.468
 5464SOL     OW17290   2.017   0.642   3.943
 5464SOL    HW117291   1.949   0.715   3.945
 5464SOL    HW217292   2.098   0.671   3.994
 5465SOL     OW17293   3.632   6.934   4.819
 5465SOL    HW117294   3.579   0.000   4.814
 5465SOL    HW217295   3.729   6.955   4.831
 5466SOL     OW17296   4.734   4.186   4.587
 5466SOL    HW117297   4.698   4.224   4.672
 5466SOL    HW217298   4.745   4.087   4.596
 5467SOL     OW17299   5.700   1.320   2.347
 5467SOL    HW117300   5.626   1.253   2.359
 5467SOL    HW217301   5.662   1.412   2.352
 5468SOL     OW17302   5.021   1.931   4.839
 5468SOL    HW117303   5.042   1.983   4.922
 5468SOL    HW217304   4.979   1.990   4.771
 5469SOL     OW17305   4.302   4.396   5.798
 5469SOL    HW117306   4.365   4.466   5.762
 5469SOL    HW217307   4.355   4.319   5.833
 5470SOL     OW17308   1.843   5.212   3.940
 5470SOL    HW117309   1.769   5.145   3.929
 5470SOL    HW217310   1.931   5.166   3.926
 5471SOL     OW17311   6.794   5.755   1.615
 5471SOL    HW117312   6.796   5.657   1.598
 5471SOL    HW217313   6.838   5.803   1.539
 5472SOL     OW17314   4.249   4.034   5.812
 5472SOL    HW117315   4.319   4.092   5.853
 5472SOL    HW217316   4.192   4.088   5.750
 5473SOL     OW17317   1.503   3.293   3.612
 5473SOL    HW117318   1.565   3.346   3.555
 5473SOL    HW217319   1.452   3.355   3.672
 5474SOL     OW17320   1.809   5.529   4.347
 5474SOL    HW117321   1.818   5.433   4.319
 5474SOL    HW217322   1.877   5.584   4.298
 5475SOL     OW17323   3.377   1.947   0.832
 5475SOL    HW117324   3.415   1.984   0.747
 5475SOL    HW217325   3.382   2.016   0.904
 5476SOL     OW17326   1.100   3.054   6.432
 5476SOL    HW117327   1.185   3.026   6.387
 5476SOL    HW217328   1.095   3.154   6.433
 5477SOL     OW17329   2.126   2.890   2.913
 5477SOL    HW117330   2.208   2.869   2.966
 5477SOL    HW217331   2.140   2.862   2.818
 5478SOL     OW17332   5.504   5.933   5.854
 5478SOL    HW117333   5.462   5.862   5.797
 5478SOL    HW217334   5.434   5.974   5.913
 5479SOL     OW17335   4.587   0.104   4.562
 5479SOL    HW117336   4.654   0.101   4.487
 5479SOL    HW217337   4.529   0.023   4.558
 5480SOL     OW17338   0.954   4.109   4.466
 5480SOL    HW117339   1.048   4.109   4.433
 5480SOL    HW217340   0.900   4.045   4.412
 5481SOL     OW17341   3.575   6.738   4.560
 5481SOL    HW117342   3.575   6.649   4.606
 5481SOL    HW217343   3.489   6.785   4.579
 5482SOL     OW17344   2.989   4.565   1.362
 5482SOL    HW117345   3.031   4.626   1.430
 5482SOL    HW217346   2.917   4.511   1.405
 5483SOL     OW17347   0.493   3.068   6.217
 5483SOL    HW117348   0.508   3.151   6.163
 5483SOL    HW217349   0.429   3.087   6.292
 5484SOL     OW17350   4.342   0.815   4.280
 5484SOL    HW117351   4.388   0.790   4.195
 5484SOL    HW217352   4.310   0.910   4.274
 5485SOL     OW17353   2.954   6.572   5.663
 5485SOL    HW117354   2.892   6.643   5.631
 5485SOL    HW217355   2.996   6.526   5.585
 5486SOL     OW17356   2.741   5.833   4.630
 5486SOL    HW117357   2.659   5.838   4.573
 5486SOL    HW217358   2.806   5.904   4.599
 5487SOL     OW17359   2.878   4.952   5.834
 5487SOL    HW117360   2.822   4.964   5.752
 5487SOL    HW217361   2.972   4.931   5.808
 5488SOL     OW17362   6.325   0.872   0.808
 5488SOL    HW117363   6.227   0.867   0.826
 5488SOL    HW217364   6.364   0.780   0.811
 5489SOL     OW17365   6.447   3.438   2.226
 5489SOL    HW117366   6.499   3.484   2.298
 5489SOL    HW217367   6.428   3.503   2.153
 5490SOL     OW17368   1.334   6.853   2.668
 5490SOL    HW117369   1.355   6.832   2.572
 5490SOL    HW217370   1.349   6.771   2.723
 5491SOL     OW17371   6.763   3.818   0.488
 5491SOL    HW117372   6.774   3.897   0.549
 5491SOL    HW217373   6.716   3.745   0.536
 5492SOL     OW17374   0.827   1.209   5.474
 5492SOL    HW117375   0.852   1.154   5.395
 5492SOL    HW217376   0.738   1.179   5.508
 5493SOL     OW17377   4.021   3.639   1.516
 5493SOL    HW117378   4.006   3.542   1.495
 5493SOL    HW217379   4.057   3.648   1.609
 5494SOL     OW17380   6.142   4.368   5.214
 5494SOL    HW117381   6.086   4.445   5.182
 5494SOL    HW217382   6.101   4.282   5.182
 5495SOL     OW17383   6.229   0.695   1.086
 5495SOL    HW117384   6.212   0.791   1.063
 5495SOL    HW217385   6.216   0.638   1.005
 5496SOL     OW17386   3.817   0.404   4.514
 5496SOL    HW117387   3.770   0.474   4.461
 5496SOL    HW217388   3.915   0.422   4.514
 5497SOL     OW17389   1.010   0.774   6.113
 5497SOL    HW117390   1.049   0.686   6.142
 5497SOL    HW217391   0.911   0.765   6.105
 5498SOL     OW17392   0.534   5.099   2.165
 5498SOL    HW117393   0.581   5.156   2.232
 5498SOL    HW217394   0.550   5.135   2.074
 5499SOL     OW17395   1.304   0.229   4.774
 5499SOL    HW117396   1.316   0.130   4.781
 5499SOL    HW217397   1.385   0.270   4.732
 5500SOL     OW17398   2.263   0.803   0.301
 5500SOL    HW117399   2.335   0.734   0.305
 5500SOL    HW217400   2.267   0.860   0.383
 5501SOL     OW17401   3.631   2.882   6.740
 5501SOL    HW117402   3.678   2.963   6.705
 5501SOL    HW217403   3.590   2.903   6.829
 5502SOL     OW17404   4.397   2.002   0.433
 5502SOL    HW117405   4.416   1.920   0.378
 5502SOL    HW217406   4.298   2.015   0.439
 5503SOL     OW17407   0.130   3.702   0.545
 5503SOL    HW117408   0.183   3.757   0.481
 5503SOL    HW217409   0.117   3.610   0.509
 5504SOL     OW17410   3.772   0.953   6.547
 5504SOL    HW117411   3.818   1.010   6.616
 5504SOL    HW217412   3.778   0.998   6.458
 5505SOL     OW17413   2.368   4.799   4.397
 5505SOL    HW117414   2.354   4.709   4.355
 5505SOL    HW217415   2.373   4.788   4.496
 5506SOL     OW17416   0.300   3.775   6.243
 5506SOL    HW117417   0.238   3.825   6.183
 5506SOL    HW217418   0.263   3.775   6.336
 5507SOL     OW17419   3.162   0.263   6.821
 5507SOL    HW117420   3.221   0.316   6.881
 5507SOL    HW217421   3.068   0.266   6.855
 5508SOL     OW17422   0.483   0.600   6.564
 5508SOL    HW117423   0.565   0.622   6.617
 5508SOL    HW217424   0.402   0.610   6.622
 5509SOL     OW17425   0.255   5.228   0.128
 5509SOL    HW117426   0.285   5.137   0.159
 5509SOL    HW217427   0.156   5.230   0.122
 5510SOL     OW17428   4.084   5.276   0.033
 5510SOL    HW117429   4.009   5.248   6.991
 5510SOL    HW217430   4.058   5.261   0.128
 5511SOL     OW17431   0.770   1.475   5.499
 5511SOL    HW117432   0.803   1.382   5.487
 5511SOL    HW217433   0.836   1.539   5.458
 5512SOL     OW17434   3.636   0.790   2.702
 5512SOL    HW117435   3.618   0.796   2.604
 5512SOL    HW217436   3.649   0.882   2.739
 5513SOL     OW17437   3.817   4.398   6.872
 5513SOL    HW117438   3.744   4.425   6.809
 5513SOL    HW217439   3.806   4.449   6.958
 5514SOL     OW17440   2.667   0.491   6.292
 5514SOL    HW117441   2.713   0.424   6.350
 5514SOL    HW217442   2.617   0.444   6.219
 5515SOL     OW17443   2.585   5.963   2.010
 5515SOL    HW117444   2.677   5.987   2.040
 5515SOL    HW217445   2.527   5.944   2.090
 5516SOL     OW17446   2.338   2.543   4.981
 5516SOL    HW117447   2.381   2.604   4.914
 5516SOL    HW217448   2.282   2.597   5.043
 5517SOL     OW17449   1.495   3.365   3.208
 5517SOL    HW117450   1.449   3.276   3.209
 5517SOL    HW217451   1.444   3.429   3.151
 5518SOL     OW17452   4.803   4.012   5.602
 5518SOL    HW117453   4.704   4.025   5.598
 5518SOL    HW217454   4.823   3.917   5.627
 5519SOL     OW17455   4.785   2.484   3.723
 5519SOL    HW117456   4.847   2.508   3.798
 5519SOL    HW217457   4.727   2.408   3.751
 5520SOL     OW17458   4.736   6.891   2.039
 5520SOL    HW117459   4.801   6.815   2.046
 5520SOL    HW217460   4.778   6.965   1.986
 5521SOL     OW17461   5.772   5.972   1.598
 5521SOL    HW117462   5.760   5.879   1.563
 5521SOL    HW217463   5.791   5.968   1.696
 5522SOL     OW17464   6.316   5.726   0.632
 5522SOL    HW117465   6.291   5.752   0.539
 5522SOL    HW217466   6.376   5.796   0.671
 5523SOL     OW17467   5.519   1.065   2.411
 5523SOL    HW117468   5.422   1.045   2.400
 5523SOL    HW217469   5.545   1.051   2.506
 5524SOL     OW17470   3.012   0.928   4.277
 5524SOL    HW117471   3.039   0.902   4.185
 5524SOL    HW217472   2.928   0.982   4.274
 5525SOL     OW17473   6.353   1.767   1.067
 5525SOL    HW117474   6.294   1.752   0.988
 5525SOL    HW217475   6.376   1.679   1.109
 5526SOL     OW17476   4.863   4.991   3.352
 5526SOL    HW117477   4.930   5.020   3.421
 5526SOL    HW217478   4.900   5.006   3.261
 5527SOL     OW17479   6.161   1.580   3.949
 5527SOL    HW117480   6.061   1.578   3.945
 5527SOL    HW217481   6.189   1.597   4.044
 5528SOL     OW17482   0.851   1.888   1.194
 5528SOL    HW117483   0.877   1.800   1.233
 5528SOL    HW217484   0.753   1.888   1.175
 5529SOL     OW17485   3.681   0.910   2.132
 5529SOL    HW117486   3.770   0.947   2.159
 5529SOL    HW217487   3.695   0.838   2.064
 5530SOL     OW17488   6.299   2.267   1.281
 5530SOL    HW117489   6.285   2.312   1.369
 5530SOL    HW217490   6.270   2.171   1.288
 5531SOL     OW17491   2.507   4.257   1.376
 5531SOL    HW117492   2.433   4.267   1.309
 5531SOL    HW217493   2.580   4.202   1.336
 5532SOL     OW17494   1.560   3.066   1.111
 5532SOL    HW117495   1.560   3.152   1.060
 5532SOL    HW217496   1.591   2.992   1.052
 5533SOL     OW17497   4.191   2.243   4.084
 5533SOL    HW117498   4.107   2.192   4.105
 5533SOL    HW217499   4.240   2.262   4.169
 5534SOL     OW17500   1.005   0.981   4.344
 5534SOL    HW117501   1.013   0.980   4.244
 5534SOL    HW217502   1.033   1.070   4.378
 5535SOL     OW17503   0.553   2.239   3.448
 5535SOL    HW117504   0.652   2.239   3.430
 5535SOL    HW217505   0.515   2.329   3.427
 5536SOL     OW17506   3.551   6.688   4.265
 5536SOL    HW117507   3.554   6.727   4.357
 5536SOL    HW217508   3.639   6.701   4.220
 5537SOL     OW17509   3.309   1.037   3.238
 5537SOL    HW117510   3.233   1.005   3.181
 5537SOL    HW217511   3.279   1.116   3.292
 5538SOL     OW17512   4.256   5.701   4.317
 5538SOL    HW117513   4.245   5.602   4.314
 5538SOL    HW217514   4.320   5.725   4.390
 5539SOL     OW17515   2.180   3.908   0.096
 5539SOL    HW117516   2.124   3.934   0.175
 5539SOL    HW217517   2.159   3.814   0.069
 5540SOL     OW17518   5.509   4.900   2.120
 5540SOL    HW117519   5.432   4.962   2.106
 5540SOL    HW217520   5.567   4.935   2.193
 5541SOL     OW17521   4.427   1.312   5.541
 5541SOL    HW117522   4.510   1.351   5.582
 5541SOL    HW217523   4.442   1.296   5.444
 5542SOL     OW17524   5.077   4.907   5.858
 5542SOL    HW117525   5.109   4.855   5.937
 5542SOL    HW217526   4.993   4.957   5.882
 5543SOL     OW17527   6.613   2.204   5.813
 5543SOL    HW117528   6.675   2.281   5.826
 5543SOL    HW217529   6.640   2.153   5.731
 5544SOL     OW17530   5.909   1.189   6.085
 5544SOL    HW117531   5.980   1.147   6.141
 5544SOL    HW217532   5.930   1.287   6.073
 5545SOL     OW17533   3.072   2.076   1.944
 5545SOL    HW117534   3.029   2.163   1.966
 5545SOL    HW217535   3.005   2.002   1.957
 5546SOL     OW17536   2.027   5.038   5.663
 5546SOL    HW117537   2.108   5.048   5.721
 5546SOL    HW217538   1.966   4.968   5.701
 5547SOL     OW17539   3.991   5.824   5.030
 5547SOL    HW117540   3.926   5.803   4.957
 5547SOL    HW217541   4.084   5.809   4.996
 5548SOL     OW17542   6.696   3.821   5.136
 5548SOL    HW117543   6.688   3.797   5.233
 5548SOL    HW217544   6.789   3.802   5.105
 5549SOL     OW17545   3.500   4.246   6.973
 5549SOL    HW117546   3.501   4.209   6.880
 5549SOL    HW217547   3.523   4.173   0.019
 5550SOL     OW17548   3.458   6.408   1.670
 5550SOL    HW117549   3.384   6.343   1.689
 5550SOL    HW217550   3.495   6.442   1.756
 5551SOL     OW17551   0.688   0.933   2.967
 5551SOL    HW117552   0.765   0.948   2.905
 5551SOL    HW217553   0.722   0.910   3.058
 5552SOL     OW17554   0.107   2.714   1.751
 5552SOL    HW117555   0.156   2.667   1.678
 5552SOL    HW217556   0.146   2.804   1.766
 5553SOL     OW17557   5.121   6.540   0.278
 5553SOL    HW117558   5.182   6.567   0.353
 5553SOL    HW217559   5.047   6.607   0.269
 5554SOL     OW17560   3.024   1.947   4.897
 5554SOL    HW117561   2.986   2.040   4.891
 5554SOL    HW217562   3.073   1.936   4.984
 5555SOL     OW17563   0.043   5.800   2.847
 5555SOL    HW117564   0.050   5.840   2.755
 5555SOL    HW217565   6.987   5.734   2.849
 5556SOL     OW17566   0.603   0.856   4.391
 5556SOL    HW117567   0.671   0.904   4.335
 5556SOL    HW217568   0.536   0.922   4.426
 5557SOL     OW17569   2.542   0.529   3.619
 5557SOL    HW117570   2.602   0.608   3.607
 5557SOL    HW217571   2.448   0.555   3.598
 5558SOL     OW17572   5.294   2.462   4.577
 5558SOL    HW117573   5.299   2.538   4.642
 5558SOL    HW217574   5.200   2.452   4.545
 5559SOL     OW17575   1.673   0.327   1.354
 5559SOL    HW117576   1.694   0.416   1.395
 5559SOL    HW217577   1.695   0.331   1.256
 5560SOL     OW17578   0.430   0.615   4.195
 5560SOL    HW117579   0.372   0.560   4.136
 5560SOL    HW217580   0.522   0.576   4.198
 5561SOL     OW17581   1.485   3.683   3.642
 5561SOL    HW117582   1.402   3.738   3.650
 5561SOL    HW217583   1.525   3.697   3.551
 5562SOL     OW17584   2.335   2.530   5.988
 5562SOL    HW117585   2.314   2.571   5.899
 5562SOL    HW217586   2.411   2.579   6.030
 5563SOL     OW17587   4.123   4.815   1.269
 5563SOL    HW117588   4.041   4.761   1.250
 5563SOL    HW217589   4.095   4.904   1.306
 5564SOL     OW17590   6.014   4.380   1.277
 5564SOL    HW117591   6.097   4.326   1.268
 5564SOL    HW217592   6.027   4.451   1.345
 5565SOL     OW17593   2.713   3.598   5.742
 5565SOL    HW117594   2.698   3.640   5.653
 5565SOL    HW217595   2.794   3.540   5.739
 5566SOL     OW17596   2.091   4.276   0.970
 5566SOL    HW117597   2.000   4.245   0.999
 5566SOL    HW217598   2.118   4.229   0.886
 5567SOL     OW17599   1.744   5.829   2.082
 5567SOL    HW117600   1.790   5.756   2.133
 5567SOL    HW217601   1.724   5.798   1.990
 5568SOL     OW17602   3.618   1.820   1.398
 5568SOL    HW117603   3.594   1.870   1.481
 5568SOL    HW217604   3.607   1.722   1.413
 5569SOL     OW17605   5.733   2.279   0.166
 5569SOL    HW117606   5.737   2.232   0.077
 5569SOL    HW217607   5.679   2.363   0.156
 5570SOL     OW17608   6.455   3.997   5.679
 5570SOL    HW117609   6.389   4.070   5.658
 5570SOL    HW217610   6.548   4.035   5.676
 5571SOL     OW17611   6.514   4.497   6.369
 5571SOL    HW117612   6.507   4.397   6.376
 5571SOL    HW217613   6.568   4.521   6.288
 5572SOL     OW17614   5.457   2.533   5.591
 5572SOL    HW117615   5.508   2.585   5.659
 5572SOL    HW217616   5.498   2.547   5.501
 5573SOL     OW17617   0.886   3.927   0.580
 5573SOL    HW117618   0.896   3.831   0.605
 5573SOL    HW217619   0.841   3.934   0.491
 5574SOL     OW17620   0.361   6.046   4.504
 5574SOL    HW117621   0.402   6.095   4.581
 5574SOL    HW217622   0.341   6.110   4.430
 5575SOL     OW17623   1.617   1.192   1.296
 5575SOL    HW117624   1.714   1.176   1.284
 5575SOL    HW217625   1.603   1.255   1.373
 5576SOL     OW17626   6.270   6.096   6.877
 5576SOL    HW117627   6.288   6.061   6.969
 5576SOL    HW217628   6.214   6.178   6.884
 5577SOL     OW17629   2.391   3.744   5.348
 5577SOL    HW117630   2.426   3.826   5.303
 5577SOL    HW217631   2.311   3.710   5.299
 5578SOL     OW17632   3.908   1.760   5.877
 5578SOL    HW117633   3.915   1.668   5.916
 5578SOL    HW217634   3.813   1.790   5.881
 5579SOL     OW17635   5.232   4.743   0.830
 5579SOL    HW117636   5.136   4.752   0.804
 5579SOL    HW217637   5.289   4.799   0.769
 5580SOL     OW17638   5.532   1.004   1.241
 5580SOL    HW117639   5.455   0.987   1.180
 5580SOL    HW217640   5.532   0.937   1.315
 5581SOL     OW17641   2.637   2.691   0.340
 5581SOL    HW117642   2.559   2.668   0.282
 5581SOL    HW217643   2.677   2.607   0.376
 5582SOL     OW17644   3.737   3.417   3.318
 5582SOL    HW117645   3.806   3.349   3.295
 5582SOL    HW217646   3.668   3.420   3.246
 5583SOL     OW17647   3.387   0.721   0.515
 5583SOL    HW117648   3.458   0.653   0.498
 5583SOL    HW217649   3.427   0.801   0.561
 5584SOL     OW17650   5.778   2.822   2.703
 5584SOL    HW117651   5.756   2.872   2.619
 5584SOL    HW217652   5.851   2.756   2.684
 5585SOL     OW17653   6.867   6.597   4.168
 5585SOL    HW117654   6.940   6.530   4.154
 5585SOL    HW217655   6.794   6.582   4.101
 5586SOL     OW17656   2.423   1.259   6.466
 5586SOL    HW117657   2.417   1.353   6.501
 5586SOL    HW217658   2.499   1.212   6.511
 5587SOL     OW17659   3.550   0.193   3.803
 5587SOL    HW117660   3.579   0.199   3.898
 5587SOL    HW217661   3.537   0.285   3.766
 5588SOL     OW17662   4.178   7.000   6.009
 5588SOL    HW117663   4.133   0.022   5.929
 5588SOL    HW217664   4.137   6.911   6.029
 5589SOL     OW17665   3.694   3.004   6.343
 5589SOL    HW117666   3.691   2.904   6.340
 5589SOL    HW217667   3.607   3.038   6.380
 5590SOL     OW17668   0.025   6.731   3.361
 5590SOL    HW117669   6.944   6.738   3.351
 5590SOL    HW217670   0.047   6.645   3.408
 5591SOL     OW17671   4.595   0.542   6.931
 5591SOL    HW117672   4.669   0.515   6.870
 5591SOL    HW217673   4.607   0.497   0.002
 5592SOL     OW17674   2.590   2.373   2.799
 5592SOL    HW117675   2.653   2.343   2.728
 5592SOL    HW217676   2.620   2.337   2.888
 5593SOL     OW17677   1.709   3.194   5.256
 5593SOL    HW117678   1.789   3.226   5.207
 5593SOL    HW217679   1.629   3.199   5.196
 5594SOL     OW17680   2.477   0.821   6.456
 5594SOL    HW117681   2.448   0.761   6.530
 5594SOL    HW217682   2.455   0.778   6.368
 5595SOL     OW17683   0.053   1.874   5.831
 5595SOL    HW117684   6.999   1.893   5.896
 5595SOL    HW217685   0.060   1.775   5.815
 5596SOL     OW17686   4.781   1.188   2.791
 5596SOL    HW117687   4.849   1.200   2.864
 5596SOL    HW217688   4.693   1.164   2.832
 5597SOL     OW17689   0.364   0.872   6.288
 5597SOL    HW117690   0.446   0.816   6.277
 5597SOL    HW217691   0.374   0.956   6.234
 5598SOL     OW17692   7.002   2.358   4.426
 5598SOL    HW117693   6.959   2.363   4.336
 5598SOL    HW217694   6.931   2.357   4.497
 5599SOL     OW17695   4.822   3.065   3.481
 5599SOL    HW117696   4.760   2.991   3.458
 5599SOL    HW217697   4.916   3.036   3.464
 5600SOL     OW17698   2.405   1.613   2.008
 5600SOL    HW117699   2.408   1.594   2.106
 5600SOL    HW217700   2.412   1.712   1.994
 5601SOL     OW17701   6.102   3.200   5.423
 5601SOL    HW117702   6.125   3.278   5.364
 5601SOL    HW217703   6.186   3.159   5.459
 5602SOL     OW17704   6.533   2.442   2.729
 5602SOL    HW117705   6.487   2.354   2.725
 5602SOL    HW217706   6.499   2.500   2.655
 5603SOL     OW17707   4.522   0.896   5.384
 5603SOL    HW117708   4.519   0.922   5.480
 5603SOL    HW217709   4.460   0.954   5.331
 5604SOL     OW17710   1.186   6.985   2.986
 5604SOL    HW117711   1.223   0.058   2.976
 5604SOL    HW217712   1.146   6.955   2.899
 5605SOL     OW17713   4.237   6.870   4.064
 5605SOL    HW117714   4.239   6.770   4.062
 5605SOL    HW217715   4.160   6.901   4.120
 5606SOL     OW17716   4.815   2.720   0.518
 5606SOL    HW117717   4.742   2.656   0.495
 5606SOL    HW217718   4.786   2.777   0.596
 5607SOL     OW17719   6.745   2.284   3.401
 5607SOL    HW117720   6.793   2.253   3.483
 5607SOL    HW217721   6.767   2.225   3.324
 5608SOL     OW17722   5.220   0.742   3.332
 5608SOL    HW117723   5.268   0.818   3.375
 5608SOL    HW217724   5.266   0.718   3.247
 5609SOL     OW17725   6.893   0.420   0.894
 5609SOL    HW117726   6.866   0.458   0.806
 5609SOL    HW217727   6.992   0.422   0.902
 5610SOL     OW17728   5.232   5.288   0.928
 5610SOL    HW117729   5.256   5.319   1.020
 5610SOL    HW217730   5.151   5.229   0.932
 5611SOL     OW17731   6.233   5.235   1.811
 5611SOL    HW117732   6.255   5.326   1.774
 5611SOL    HW217733   6.306   5.205   1.872
 5612SOL     OW17734   3.978   2.267   0.118
 5612SOL    HW117735   3.945   2.361   0.126
 5612SOL    HW217736   3.929   2.220   0.045
 5613SOL     OW17737   6.100   5.020   6.160
 5613SOL    HW117738   6.075   5.116   6.147
 5613SOL    HW217739   6.107   5.000   6.258
 5614SOL     OW17740   4.874   3.334   3.831
 5614SOL    HW117741   4.908   3.241   3.846
 5614SOL    HW217742   4.902   3.365   3.740
 5615SOL     OW17743   0.342   2.944   3.133
 5615SOL    HW117744   0.355   2.985   3.043
 5615SOL    HW217745   0.244   2.932   3.150
 5616SOL     OW17746   1.661   2.892   2.413
 5616SOL    HW117747   1.603   2.846   2.346
 5616SOL    HW217748   1.694   2.978   2.376
 5617SOL     OW17749   1.262   5.405   6.284
 5617SOL    HW117750   1.353   5.363   6.277
 5617SOL    HW217751   1.268   5.502   6.263
 5618SOL     OW17752   5.415   6.890   2.119
 5618SOL    HW117753   5.338   6.955   2.126
 5618SOL    HW217754   5.386   6.801   2.153
 5619SOL     OW17755   3.602   3.410   3.567
 5619SOL    HW117756   3.669   3.423   3.494
 5619SOL    HW217757   3.602   3.315   3.596
 5620SOL     OW17758   4.800   4.773   4.176
 5620SOL    HW117759   4.870   4.841   4.197
 5620SOL    HW217760   4.710   4.810   4.199
 5621SOL     OW17761   0.379   2.384   6.621
 5621SOL    HW117762   0.356   2.338   6.535
 5621SOL    HW217763   0.398   2.315   6.691
 5622SOL     OW17764   4.715   5.819   3.856
 5622SOL    HW117765   4.666   5.736   3.830
 5622SOL    HW217766   4.657   5.899   3.840
 5623SOL     OW17767   5.083   5.072   4.568
 5623SOL    HW117768   5.004   5.090   4.510
 5623SOL    HW217769   5.166   5.102   4.522
 5624SOL     OW17770   5.246   4.776   3.157
 5624SOL    HW117771   5.167   4.723   3.189
 5624SOL    HW217772   5.298   4.720   3.092
 5625SOL     OW17773   2.027   5.929   5.854
 5625SOL    HW117774   2.040   5.992   5.931
 5625SOL    HW217775   2.053   5.975   5.769
 5626SOL     OW17776   0.881   4.242   6.686
 5626SOL    HW117777   0.908   4.202   6.599
 5626SOL    HW217778   0.853   4.170   6.749
 5627SOL     OW17779   0.921   5.358   6.855
 5627SOL    HW117780   0.903   5.259   6.856
 5627SOL    HW217781   0.892   5.398   6.942
 5628SOL     OW17782   2.389   3.363   0.930
 5628SOL    HW117783   2.357   3.321   0.845
 5628SOL    HW217784   2.470   3.316   0.963
 5629SOL     OW17785   5.990   3.761   2.577
 5629SOL    HW117786   5.962   3.743   2.482
 5629SOL    HW217787   5.995   3.675   2.627
 5630SOL     OW17788   1.077   3.943   6.974
 5630SOL    HW117789   0.996   3.922   0.010
 5630SOL    HW217790   1.108   4.036   6.994
 5631SOL     OW17791   3.727   1.582   1.872
 5631SOL    HW117792   3.742   1.577   1.971
 5631SOL    HW217793   3.641   1.630   1.854
 5632SOL     OW17794   4.870   6.562   5.946
 5632SOL    HW117795   4.808   6.610   6.009
 5632SOL    HW217796   4.878   6.466   5.975
 5633SOL     OW17797   1.164   5.372   5.371
 5633SOL    HW117798   1.228   5.445   5.345
 5633SOL    HW217799   1.125   5.391   5.461
 5634SOL     OW17800   2.683   0.502   1.189
 5634SOL    HW117801   2.627   0.456   1.120
 5634SOL    HW217802   2.626   0.520   1.270
 5635SOL     OW17803   3.205   0.862   0.933
 5635SOL    HW117804   3.201   0.800   0.855
 5635SOL    HW217805   3.271   0.935   0.915
 5636SOL     OW17806   5.271   1.397   5.975
 5636SOL    HW117807   5.240   1.459   6.047
 5636SOL    HW217808   5.193   1.369   5.919
 5637SOL     OW17809   5.012   6.663   4.719
 5637SOL    HW117810   5.015   6.664   4.819
 5637SOL    HW217811   4.981   6.574   4.687
 5638SOL     OW17812   6.429   5.103   0.921
 5638SOL    HW117813   6.518   5.089   0.878
 5638SOL    HW217814   6.434   5.180   0.984
 5639SOL     OW17815   2.342   0.447   1.701
 5639SOL    HW117816   2.270   0.489   1.646
 5639SOL    HW217817   2.385   0.517   1.759
 5640SOL     OW17818   3.134   0.271   2.975
 5640SOL    HW117819   3.070   0.249   2.901
 5640SOL    HW217820   3.197   0.195   2.989
 5641SOL     OW17821   6.574   4.163   3.626
 5641SOL    HW117822   6.629   4.206   3.697
 5641SOL    HW217823   6.634   4.115   3.562
 5642SOL     OW17824   2.027   3.358   6.828
 5642SOL    HW117825   1.948   3.400   6.872
 5642SOL    HW217826   2.061   3.417   6.756
 5643SOL     OW17827   5.076   2.469   4.922
 5643SOL    HW117828   5.137   2.546   4.938
 5643SOL    HW217829   4.987   2.503   4.890
 5644SOL     OW17830   4.483   0.994   4.791
 5644SOL    HW117831   4.417   0.981   4.864
 5644SOL    HW217832   4.493   1.092   4.772
 5645SOL     OW17833   6.468   5.733   3.958
 5645SOL    HW117834   6.552   5.776   3.991
 5645SOL    HW217835   6.402   5.726   4.033
 5646SOL     OW17836   0.129   6.337   3.806
 5646SOL    HW117837   0.077   6.379   3.731
 5646SOL    HW217838   0.226   6.359   3.795
 5647SOL     OW17839   6.051   5.250   5.845
 5647SOL    HW117840   6.084   5.293   5.928
 5647SOL    HW217841   6.050   5.151   5.856
 5648SOL     OW17842   1.860   0.970   4.763
 5648SOL    HW117843   1.873   0.954   4.861
 5648SOL    HW217844   1.803   0.898   4.725
 5649SOL     OW17845   1.162   0.343   4.980
 5649SOL    HW117846   1.116   0.425   4.945
 5649SOL    HW217847   1.194   0.288   4.903
 5650SOL     OW17848   6.763   4.919   0.139
 5650SOL    HW117849   6.700   4.988   0.173
 5650SOL    HW217850   6.721   4.869   0.063
 5651SOL     OW17851   6.720   1.450   3.006
 5651SOL    HW117852   6.669   1.422   2.925
 5651SOL    HW217853   6.689   1.540   3.036
 5652SOL     OW17854   5.458   4.609   0.264
 5652SOL    HW117855   5.376   4.581   0.214
 5652SOL    HW217856   5.531   4.543   0.248
 5653SOL     OW17857   2.021   6.271   6.407
 5653SOL    HW117858   1.959   6.334   6.361
 5653SOL    HW217859   1.975   6.183   6.421
 5654SOL     OW17860   0.955   5.397   6.091
 5654SOL    HW117861   0.950   5.324   6.158
 5654SOL    HW217862   1.033   5.381   6.030
 5655SOL     OW17863   0.012   4.124   3.830
 5655SOL    HW117864   6.995   4.214   3.858
 5655SOL    HW217865   0.072   4.088   3.902
 5656SOL     OW17866   3.210   4.728   6.386
 5656SOL    HW117867   3.256   4.732   6.474
 5656SOL    HW217868   3.275   4.753   6.314
 5657SOL     OW17869   4.250   6.106   1.452
 5657SOL    HW117870   4.279   6.104   1.548
 5657SOL    HW217871   4.248   6.200   1.419
 5658SOL     OW17872   4.956   6.588   5.338
 5658SOL    HW117873   4.982   6.534   5.417
 5658SOL    HW217874   4.876   6.548   5.294
 5659SOL     OW17875   3.679   3.256   2.762
 5659SOL    HW117876   3.689   3.176   2.703
 5659SOL    HW217877   3.588   3.296   2.749
 5660SOL     OW17878   6.227   0.079   1.028
 5660SOL    HW117879   6.164   0.092   0.952
 5660SOL    HW217880   6.317   0.055   0.993
 5661SOL     OW17881   6.865   5.833   5.099
 5661SOL    HW117882   6.898   5.904   5.161
 5661SOL    HW217883   6.780   5.794   5.134
 5662SOL     OW17884   2.219   3.775   4.185
 5662SOL    HW117885   2.218   3.678   4.210
 5662SOL    HW217886   2.311   3.801   4.156
 5663SOL     OW17887   1.646   3.774   0.375
 5663SOL    HW117888   1.637   3.856   0.431
 5663SOL    HW217889   1.584   3.780   0.297
 5664SOL     OW17890   0.018   4.942   2.968
 5664SOL    HW117891   0.085   5.010   2.998
 5664SOL    HW217892   6.986   4.908   3.048
 5665SOL     OW17893   2.156   1.688   6.262
 5665SOL    HW117894   2.209   1.702   6.345
 5665SOL    HW217895   2.181   1.757   6.194
 5666SOL     OW17896   6.020   5.057   0.664
 5666SOL    HW117897   5.954   5.088   0.596
 5666SOL    HW217898   6.112   5.058   0.624
 5667SOL     OW17899   0.246   5.499   3.808
 5667SOL    HW117900   0.296   5.412   3.804
 5667SOL    HW217901   0.148   5.480   3.817
 5668SOL     OW17902   6.231   2.418   5.178
 5668SOL    HW117903   6.315   2.472   5.171
 5668SOL    HW217904   6.193   2.405   5.086
 5669SOL     OW17905   6.873   2.997   5.301
 5669SOL    HW117906   6.963   2.991   5.343
 5669SOL    HW217907   6.877   3.059   5.223
 5670SOL     OW17908   1.895   4.102   3.642
 5670SOL    HW117909   1.797   4.081   3.649
 5670SOL    HW217910   1.907   4.201   3.647
 5671SOL     OW17911   1.765   1.294   5.036
 5671SOL    HW117912   1.781   1.208   5.085
 5671SOL    HW217913   1.777   1.279   4.938
 5672SOL     OW17914   5.547   4.153   5.511
 5672SOL    HW117915   5.594   4.126   5.427
 5672SOL    HW217916   5.601   4.123   5.590
 5673SOL     OW17917   1.519   0.449   1.928
 5673SOL    HW117918   1.557   0.388   1.858
 5673SOL    HW217919   1.588   0.464   1.999
 5674SOL     OW17920   6.564   3.543   1.134
 5674SOL    HW117921   6.551   3.447   1.111
 5674SOL    HW217922   6.496   3.571   1.202
 5675SOL     OW17923   4.118   2.073   5.787
 5675SOL    HW117924   4.071   2.156   5.758
 5675SOL    HW217925   4.182   2.044   5.716
 5676SOL     OW17926   3.022   6.854   1.264
 5676SOL    HW117927   2.962   6.775   1.271
 5676SOL    HW217928   3.117   6.824   1.269
 5677SOL     OW17929   6.821   0.056   4.206
 5677SOL    HW117930   6.742   0.116   4.219
 5677SOL    HW217931   6.837   0.004   4.290
 5678SOL     OW17932   1.911   5.396   3.205
 5678SOL    HW117933   1.891   5.391   3.107
 5678SOL    HW217934   1.958   5.312   3.234
 5679SOL     OW17935   2.238   6.212   4.899
 5679SOL    HW117936   2.290   6.266   4.965
 5679SOL    HW217937   2.245   6.115   4.922
 5680SOL     OW17938   2.340   6.839   6.240
 5680SOL    HW117939   2.303   6.747   6.229
 5680SOL    HW217940   2.272   6.898   6.282
 5681SOL     OW17941   1.045   3.853   0.931
 5681SOL    HW117942   0.973   3.825   0.867
 5681SOL    HW217943   1.103   3.775   0.952
 5682SOL     OW17944   0.874   3.613   4.084
 5682SOL    HW117945   0.927   3.546   4.136
 5682SOL    HW217946   0.829   3.569   4.006
 5683SOL     OW17947   3.786   2.483   5.455
 5683SOL    HW117948   3.691   2.513   5.438
 5683SOL    HW217949   3.848   2.544   5.406
 5684SOL     OW17950   3.114   3.909   3.200
 5684SOL    HW117951   3.214   3.908   3.198
 5684SOL    HW217952   3.082   3.977   3.265
 5685SOL     OW17953   6.990   5.348   1.962
 5685SOL    HW117954   6.965   5.270   2.020
 5685SOL    HW217955   6.907   5.391   1.927
 5686SOL     OW17956   3.214   5.658   6.859
 5686SOL    HW117957   3.259   5.709   6.932
 5686SOL    HW217958   3.282   5.605   6.809
 5687SOL     OW17959   4.706   5.453   5.660
 5687SOL    HW117960   4.663   5.392   5.726
 5687SOL    HW217961   4.749   5.399   5.587
 5688SOL     OW17962   6.111   1.890   2.037
 5688SOL    HW117963   6.118   1.910   1.939
 5688SOL    HW217964   6.182   1.941   2.086
 5689SOL     OW17965   3.860   2.501   0.387
 5689SOL    HW117966   3.792   2.551   0.441
 5689SOL    HW217967   3.935   2.472   0.446
 5690SOL     OW17968   4.946   6.762   1.681
 5690SOL    HW117969   4.933   6.668   1.650
 5690SOL    HW217970   4.896   6.825   1.621
 5691SOL     OW17971   1.963   0.228   2.039
 5691SOL    HW117972   2.041   0.268   2.088
 5691SOL    HW217973   1.989   0.211   1.943
 5692SOL     OW17974   5.409   3.049   6.902
 5692SOL    HW117975   5.454   3.011   6.822
 5692SOL    HW217976   5.458   3.022   6.985
 5693SOL     OW17977   4.747   2.818   3.454
 5693SOL    HW117978   4.671   2.778   3.506
 5693SOL    HW217979   4.833   2.801   3.503
 5694SOL     OW17980   0.403   1.470   4.304
 5694SOL    HW117981   0.380   1.539   4.235
 5694SOL    HW217982   0.387   1.379   4.266
 5695SOL     OW17983   2.133   3.511   3.366
 5695SOL    HW117984   2.143   3.447   3.289
 5695SOL    HW217985   2.113   3.459   3.449
 5696SOL     OW17986   3.136   6.897   5.416
 5696SOL    HW117987   3.164   6.971   5.355
 5696SOL    HW217988   3.052   6.855   5.380
 5697SOL     OW17989   6.840   3.202   0.127
 5697SOL    HW117990   6.903   3.280   0.123
 5697SOL    HW217991   6.791   3.195   0.040
 5698SOL     OW17992   0.446   4.187   2.157
 5698SOL    HW117993   0.541   4.194   2.124
 5698SOL    HW217994   0.423   4.268   2.211
 5699SOL     OW17995   5.852   0.856   5.008
 5699SOL    HW117996   5.841   0.946   5.051
 5699SOL    HW217997   5.763   0.826   4.973
 5700SOL     OW17998   1.137   5.692   3.608
 5700SOL    HW117999   1.047   5.709   3.650
 5700SOL    HW218000   1.200   5.765   3.634
 5701SOL     OW18001   5.675   5.533   1.708
 5701SOL    HW118002   5.582   5.496   1.709
 5701SOL    HW218003   5.718   5.518   1.798
 5702SOL     OW18004   1.610   0.208   6.143
 5702SOL    HW118005   1.691   0.157   6.114
 5702SOL    HW218006   1.562   0.157   6.214
 5703SOL     OW18007   3.933   4.170   0.913
 5703SOL    HW118008   3.936   4.070   0.911
 5703SOL    HW218009   3.984   4.203   0.993
 5704SOL     OW18010   3.765   5.771   3.380
 5704SOL    HW118011   3.818   5.711   3.440
 5704SOL    HW218012   3.705   5.829   3.435
 5705SOL     OW18013   6.263   1.618   2.077
 5705SOL    HW118014   6.223   1.699   2.032
 5705SOL    HW218015   6.286   1.550   2.008
 5706SOL     OW18016   2.047   1.166   6.540
 5706SOL    HW118017   2.094   1.091   6.585
 5706SOL    HW218018   1.980   1.206   6.603
 5707SOL     OW18019   3.110   2.492   6.642
 5707SOL    HW118020   3.092   2.396   6.661
 5707SOL    HW218021   3.033   2.531   6.590
 5708SOL     OW18022   5.361   6.643   2.172
 5708SOL    HW118023   5.314   6.557   2.155
 5708SOL    HW218024   5.460   6.627   2.174
 5709SOL     OW18025   1.573   1.153   2.811
 5709SOL    HW118026   1.564   1.143   2.910
 5709SOL    HW218027   1.658   1.202   2.790
 5710SOL     OW18028   3.342   3.706   6.106
 5710SOL    HW118029   3.262   3.647   6.100
 5710SOL    HW218030   3.414   3.660   6.158
 5711SOL     OW18031   4.110   0.881   4.066
 5711SOL    HW118032   4.049   0.901   4.143
 5711SOL    HW218033   4.070   0.809   4.010
 5712SOL     OW18034   6.514   5.868   6.566
 5712SOL    HW118035   6.531   5.917   6.481
 5712SOL    HW218036   6.550   5.921   6.643
 5713SOL     OW18037   6.752   2.121   3.164
 5713SOL    HW118038   6.836   2.068   3.149
 5713SOL    HW218039   6.740   2.186   3.090
 5714SOL     OW18040   1.847   0.732   6.809
 5714SOL    HW118041   1.908   0.741   6.888
 5714SOL    HW218042   1.758   0.771   6.832
 5715SOL     OW18043   1.700   6.939   3.182
 5715SOL    HW118044   1.727   0.017   3.177
 5715SOL    HW218045   1.605   6.930   3.152
 5716SOL     OW18046   2.258   2.890   6.021
 5716SOL    HW118047   2.276   2.950   6.099
 5716SOL    HW218048   2.235   2.944   5.940
 5717SOL     OW18049   0.747   4.112   0.720
 5717SOL    HW118050   0.782   4.043   0.657
 5717SOL    HW218051   0.654   4.088   0.748
 5718SOL     OW18052   2.372   4.405   5.619
 5718SOL    HW118053   2.438   4.362   5.558
 5718SOL    HW218054   2.281   4.402   5.578
 5719SOL     OW18055   3.080   0.997   6.364
 5719SOL    HW118056   3.121   0.916   6.406
 5719SOL    HW218057   3.120   1.012   6.274
 5720SOL     OW18058   1.617   4.593   4.350
 5720SOL    HW118059   1.606   4.614   4.447
 5720SOL    HW218060   1.609   4.677   4.296
 5721SOL     OW18061   0.858   4.768   1.622
 5721SOL    HW118062   0.814   4.748   1.710
 5721SOL    HW218063   0.859   4.685   1.566
 5722SOL     OW18064   5.263   6.957   4.325
 5722SOL    HW118065   5.286   6.872   4.277
 5722SOL    HW218066   5.290   6.949   4.421
 5723SOL     OW18067   1.843   5.028   0.826
 5723SOL    HW118068   1.942   5.040   0.833
 5723SOL    HW218069   1.810   4.968   0.899
 5724SOL     OW18070   5.460   1.924   6.807
 5724SOL    HW118071   5.449   2.020   6.833
 5724SOL    HW218072   5.372   1.887   6.776
 5725SOL     OW18073   5.026   5.493   6.357
 5725SOL    HW118074   5.038   5.587   6.389
 5725SOL    HW218075   4.964   5.492   6.279
 5726SOL     OW18076   5.378   3.205   6.210
 5726SOL    HW118077   5.332   3.154   6.137
 5726SOL    HW218078   5.397   3.143   6.286
 5727SOL     OW18079   6.684   1.840   4.097
 5727SOL    HW118080   6.744   1.766   4.131
 5727SOL    HW218081   6.651   1.817   4.006
 5728SOL     OW18082   6.179   0.589   5.965
 5728SOL    HW118083   6.191   0.494   5.939
 5728SOL    HW218084   6.264   0.624   6.006
 5729SOL     OW18085   0.472   2.720   5.829
 5729SOL    HW118086   0.469   2.810   5.785
 5729SOL    HW218087   0.564   2.703   5.864
 5730SOL     OW18088   5.135   4.621   6.377
 5730SOL    HW118089   5.202   4.603   6.450
 5730SOL    HW218090   5.163   4.703   6.326
 5731SOL     OW18091   3.599   1.069   4.152
 5731SOL    HW118092   3.689   1.033   4.176
 5731SOL    HW218093   3.542   0.994   4.117
 5732SOL     OW18094   5.386   4.276   4.653
 5732SOL    HW118095   5.329   4.347   4.613
 5732SOL    HW218096   5.395   4.292   4.751
 5733SOL     OW18097   2.949   1.139   0.477
 5733SOL    HW118098   2.918   1.048   0.449
 5733SOL    HW218099   3.048   1.144   0.471
 5734SOL     OW18100   2.371   6.199   6.216
 5734SOL    HW118101   2.420   6.260   6.153
 5734SOL    HW218102   2.435   6.166   6.286
 5735SOL     OW18103   4.309   0.431   1.927
 5735SOL    HW118104   4.364   0.486   1.990
 5735SOL    HW218105   4.245   0.375   1.980
 5736SOL     OW18106   4.891   4.295   0.087
 5736SOL    HW118107   4.808   4.250   0.122
 5736SOL    HW218108   4.959   4.301   0.160
 5737SOL     OW18109   3.802   5.233   0.984
 5737SOL    HW118110   3.754   5.321   0.974
 5737SOL    HW218111   3.901   5.250   0.987
 5738SOL     OW18112   3.009   1.026   0.190
 5738SOL    HW118113   2.982   0.957   0.123
 5738SOL    HW218114   2.928   1.077   0.220
 5739SOL     OW18115   2.021   0.696   5.660
 5739SOL    HW118116   2.026   0.601   5.630
 5739SOL    HW218117   1.927   0.719   5.682
 5740SOL     OW18118   5.413   3.122   2.394
 5740SOL    HW118119   5.480   3.177   2.343
 5740SOL    HW218120   5.365   3.180   2.459
 5741SOL     OW18121   0.220   3.617   4.417
 5741SOL    HW118122   0.219   3.551   4.341
 5741SOL    HW218123   0.129   3.657   4.427
 5742SOL     OW18124   5.160   0.389   3.924
 5742SOL    HW118125   5.168   0.480   3.966
 5742SOL    HW218126   5.159   0.399   3.825
 5743SOL     OW18127   4.099   4.069   6.574
 5743SOL    HW118128   4.024   4.002   6.584
 5743SOL    HW218129   4.157   4.066   6.655
 5744SOL     OW18130   5.908   6.865   2.889
 5744SOL    HW118131   5.877   6.959   2.896
 5744SOL    HW218132   5.892   6.832   2.796
 5745SOL     OW18133   1.840   2.082   2.253
 5745SOL    HW118134   1.926   2.078   2.303
 5745SOL    HW218135   1.844   2.154   2.184
 5746SOL     OW18136   4.535   0.043   3.463
 5746SOL    HW118137   4.499   0.012   3.376
 5746SOL    HW218138   4.460   0.081   3.519
 5747SOL     OW18139   0.614   6.347   0.980
 5747SOL    HW118140   0.606   6.425   1.042
 5747SOL    HW218141   0.687   6.286   1.013
 5748SOL     OW18142   0.504   5.732   0.591
 5748SOL    HW118143   0.545   5.819   0.563
 5748SOL    HW218144   0.405   5.743   0.598
 5749SOL     OW18145   1.695   5.923   5.974
 5749SOL    HW118146   1.717   5.996   6.039
 5749SOL    HW218147   1.740   5.839   6.003
 5750SOL     OW18148   6.202   4.279   3.987
 5750SOL    HW118149   6.260   4.344   3.937
 5750SOL    HW218150   6.170   4.322   4.071
 5751SOL     OW18151   1.755   3.657   4.429
 5751SOL    HW118152   1.797   3.739   4.390
 5751SOL    HW218153   1.810   3.577   4.405
 5752SOL     OW18154   4.809   0.587   0.602
 5752SOL    HW118155   4.725   0.534   0.586
 5752SOL    HW218156   4.795   0.647   0.681
 5753SOL     OW18157   3.722   4.030   4.898
 5753SOL    HW118158   3.798   3.992   4.845
 5753SOL    HW218159   3.680   3.957   4.953
 5754SOL     OW18160   1.065   5.969   1.183
 5754SOL    HW118161   1.016   5.905   1.242
 5754SOL    HW218162   1.163   5.962   1.201
 5755SOL     OW18163   1.304   2.637   6.745
 5755SOL    HW118164   1.222   2.681   6.782
 5755SOL    HW218165   1.287   2.605   6.652
 5756SOL     OW18166   6.110   6.276   1.197
 5756SOL    HW118167   6.175   6.208   1.231
 5756SOL    HW218168   6.022   6.263   1.243
 5757SOL     OW18169   6.129   0.020   4.505
 5757SOL    HW118170   6.036   0.010   4.471
 5757SOL    HW218171   6.127   0.070   4.592
 5758SOL     OW18172   6.691   0.413   2.775
 5758SOL    HW118173   6.624   0.469   2.728
 5758SOL    HW218174   6.782   0.454   2.767
 5759SOL     OW18175   4.197   0.460   1.095
 5759SOL    HW118176   4.128   0.510   1.147
 5759SOL    HW218177   4.213   0.504   1.007
 5760SOL     OW18178   0.678   3.085   1.517
 5760SOL    HW118179   0.769   3.045   1.521
 5760SOL    HW218180   0.673   3.153   1.444
 5761SOL     OW18181   5.287   6.622   4.801
 5761SOL    HW118182   5.282   6.533   4.846
 5761SOL    HW218183   5.250   6.614   4.708
 5762SOL     OW18184   6.112   5.237   6.738
 5762SOL    HW118185   6.081   5.167   6.802
 5762SOL    HW218186   6.152   5.194   6.657
 5763SOL     OW18187   5.743   6.967   0.275
 5763SOL    HW118188   5.712   6.947   0.182
 5763SOL    HW218189   5.796   6.889   0.309
 5764SOL     OW18190   4.456   6.098   4.066
 5764SOL    HW118191   4.382   6.163   4.083
 5764SOL    HW218192   4.461   6.076   3.969
 5765SOL     OW18193   6.823   5.093   1.463
 5765SOL    HW118194   6.743   5.148   1.488
 5765SOL    HW218195   6.809   4.999   1.494
 5766SOL     OW18196   0.197   1.800   4.401
 5766SOL    HW118197   0.292   1.769   4.396
 5766SOL    HW218198   0.187   1.864   4.477
 5767SOL     OW18199   2.816   0.246   0.149
 5767SOL    HW118200   2.827   0.234   0.051
 5767SOL    HW218201   2.719   0.255   0.171
 5768SOL     OW18202   0.964   6.946   4.723
 5768SOL    HW118203   0.909   6.865   4.703
 5768SOL    HW218204   0.907   7.013   4.773
 5769SOL     OW18205   1.246   4.297   6.664
 5769SOL    HW118206   1.252   4.213   6.717
 5769SOL    HW218207   1.236   4.275   6.567
 5770SOL     OW18208   2.281   4.849   1.519
 5770SOL    HW118209   2.234   4.893   1.596
 5770SOL    HW218210   2.366   4.897   1.500
 5771SOL     OW18211   2.100   5.257   3.765
 5771SOL    HW118212   2.186   5.216   3.793
 5771SOL    HW218213   2.100   5.354   3.789
 5772SOL     OW18214   3.777   0.745   1.910
 5772SOL    HW118215   3.871   0.733   1.877
 5772SOL    HW218216   3.715   0.688   1.856
 5773SOL     OW18217   4.276   1.966   2.987
 5773SOL    HW118218   4.228   1.887   2.949
 5773SOL    HW218219   4.371   1.967   2.955
 5774SOL     OW18220   0.249   6.378   2.652
 5774SOL    HW118221   0.239   6.477   2.636
 5774SOL    HW218222   0.298   6.363   2.738
 5775SOL     OW18223   0.027   5.986   1.885
 5775SOL    HW118224   0.066   6.017   1.799
 5775SOL    HW218225   6.949   6.014   1.891
 5776SOL     OW18226   2.467   0.536   3.954
 5776SOL    HW118227   2.476   0.458   4.016
 5776SOL    HW218228   2.541   0.536   3.887
 5777SOL     OW18229   1.751   6.441   3.220
 5777SOL    HW118230   1.661   6.406   3.246
 5777SOL    HW218231   1.814   6.429   3.297
 5778SOL     OW18232   0.646   1.244   0.375
 5778SOL    HW118233   0.658   1.342   0.358
 5778SOL    HW218234   0.690   1.192   0.301
 5779SOL     OW18235   5.765   2.242   6.365
 5779SOL    HW118236   5.721   2.291   6.440
 5779SOL    HW218237   5.822   2.169   6.401
 5780SOL     OW18238   5.265   5.616   3.742
 5780SOL    HW118239   5.231   5.549   3.677
 5780SOL    HW218240   5.290   5.700   3.693
 5781SOL     OW18241   0.624   4.153   5.678
 5781SOL    HW118242   0.616   4.101   5.593
 5781SOL    HW218243   0.632   4.251   5.656
 5782SOL     OW18244   0.306   1.282   0.531
 5782SOL    HW118245   0.329   1.294   0.434
 5782SOL    HW218246   0.380   1.318   0.587
 5783SOL     OW18247   1.668   1.688   1.464
 5783SOL    HW118248   1.735   1.748   1.420
 5783SOL    HW218249   1.684   1.686   1.562
 5784SOL     OW18250   0.154   6.714   6.518
 5784SOL    HW118251   0.195   6.713   6.609
 5784SOL    HW218252   0.188   6.636   6.465
 5785SOL     OW18253   1.669   1.388   1.091
 5785SOL    HW118254   1.762   1.393   1.129
 5785SOL    HW218255   1.610   1.338   1.154
 5786SOL     OW18256   6.325   4.124   1.051
 5786SOL    HW118257   6.296   4.028   1.057
 5786SOL    HW218258   6.280   4.177   1.123
 5787SOL     OW18259   2.831   1.827   5.793
 5787SOL    HW118260   2.845   1.827   5.892
 5787SOL    HW218261   2.820   1.921   5.761
 5788SOL     OW18262   3.105   0.948   3.092
 5788SOL    HW118263   3.044   0.902   3.157
 5788SOL    HW218264   3.058   0.960   3.005
 5789SOL     OW18265   4.370   5.037   6.126
 5789SOL    HW118266   4.393   4.942   6.107
 5789SOL    HW218267   4.274   5.045   6.150
 5790SOL     OW18268   0.614   2.948   3.977
 5790SOL    HW118269   0.559   3.013   4.030
 5790SOL    HW218270   0.617   2.860   4.025
 5791SOL     OW18271   2.551   0.742   2.842
 5791SOL    HW118272   2.558   0.643   2.834
 5791SOL    HW218273   2.543   0.782   2.750
 5792SOL     OW18274   0.260   2.637   3.299
 5792SOL    HW118275   0.208   2.648   3.214
 5792SOL    HW218276   0.210   2.678   3.375
 5793SOL     OW18277   6.468   1.136   4.162
 5793SOL    HW118278   6.510   1.197   4.094
 5793SOL    HW218279   6.455   1.045   4.123
 5794SOL     OW18280   3.879   3.777   6.974
 5794SOL    HW118281   3.818   3.768   0.034
 5794SOL    HW218282   3.891   3.688   6.931
 5795SOL     OW18283   6.149   4.194   6.012
 5795SOL    HW118284   6.150   4.164   6.107
 5795SOL    HW218285   6.059   4.229   5.989
 5796SOL     OW18286   3.601   1.685   6.787
 5796SOL    HW118287   3.675   1.753   6.791
 5796SOL    HW218288   3.612   1.629   6.706
 5797SOL     OW18289   3.401   1.842   4.774
 5797SOL    HW118290   3.402   1.938   4.799
 5797SOL    HW218291   3.310   1.817   4.740
 5798SOL     OW18292   0.103   4.411   5.064
 5798SOL    HW118293   0.007   4.439   5.063
 5798SOL    HW218294   0.128   4.375   4.974
 5799SOL     OW18295   5.276   6.978   3.632
 5799SOL    HW118296   5.272   6.999   3.535
 5799SOL    HW218297   5.364   7.007   3.669
 5800SOL     OW18298   5.872   4.721   0.548
 5800SOL    HW118299   5.846   4.813   0.519
 5800SOL    HW218300   5.808   4.688   0.616
 5801SOL     OW18301   1.488   0.799   3.642
 5801SOL    HW118302   1.559   0.737   3.609
 5801SOL    HW218303   1.401   0.776   3.599
 5802SOL     OW18304   0.266   3.962   6.001
 5802SOL    HW118305   0.192   3.917   5.952
 5802SOL    HW218306   0.272   4.058   5.972
 5803SOL     OW18307   1.013   4.701   1.014
 5803SOL    HW118308   1.094   4.646   1.032
 5803SOL    HW218309   0.948   4.691   1.089
 5804SOL     OW18310   6.063   4.295   4.599
 5804SOL    HW118311   6.054   4.205   4.556
 5804SOL    HW218312   6.153   4.303   4.642
 5805SOL     OW18313   5.209   3.513   6.264
 5805SOL    HW118314   5.217   3.424   6.219
 5805SOL    HW218315   5.119   3.520   6.307
 5806SOL     OW18316   0.367   6.359   6.842
 5806SOL    HW118317   0.413   6.440   6.806
 5806SOL    HW218318   0.436   6.296   6.879
 5807SOL     OW18319   1.610   3.583   1.262
 5807SOL    HW118320   1.581   3.567   1.356
 5807SOL    HW218321   1.566   3.667   1.228
 5808SOL     OW18322   6.052   4.376   2.355
 5808SOL    HW118323   6.010   4.405   2.268
 5808SOL    HW218324   5.985   4.325   2.409
 5809SOL     OW18325   6.918   3.429   4.535
 5809SOL    HW118326   6.912   3.391   4.443
 5809SOL    HW218327   6.942   3.526   4.530
 5810SOL     OW18328   2.753   1.804   2.762
 5810SOL    HW118329   2.714   1.818   2.853
 5810SOL    HW218330   2.680   1.788   2.696
 5811SOL     OW18331   2.779   0.280   4.241
 5811SOL    HW118332   2.814   0.311   4.329
 5811SOL    HW218333   2.854   0.238   4.189
 5812SOL     OW18334   4.820   0.330   3.644
 5812SOL    HW118335   4.776   0.409   3.602
 5812SOL    HW218336   4.883   0.361   3.716
 5813SOL     OW18337   1.464   0.972   5.078
 5813SOL    HW118338   1.522   0.894   5.054
 5813SOL    HW218339   1.370   0.955   5.049
 5814SOL     OW18340   6.692   5.196   1.212
 5814SOL    HW118341   6.670   5.290   1.187
 5814SOL    HW218342   6.747   5.196   1.296
 5815SOL     OW18343   3.860   1.723   3.023
 5815SOL    HW118344   3.900   1.749   3.112
 5815SOL    HW218345   3.903   1.777   2.951
 5816SOL     OW18346   4.451   0.676   0.400
 5816SOL    HW118347   4.453   0.691   0.499
 5816SOL    HW218348   4.485   0.758   0.354
 5817SOL     OW18349   5.263   2.918   5.384
 5817SOL    HW118350   5.228   2.917   5.478
 5817SOL    HW218351   5.188   2.938   5.321
 5818SOL     OW18352   5.670   6.988   6.163
 5818SOL    HW118353   5.742   7.009   6.229
 5818SOL    HW218354   5.711   6.953   6.079
 5819SOL     OW18355   5.712   0.656   1.195
 5819SOL    HW118356   5.639   0.662   1.127
 5819SOL    HW218357   5.792   0.612   1.154
 5820SOL     OW18358   5.296   6.585   3.302
 5820SOL    HW118359   5.344   6.574   3.389
 5820SOL    HW218360   5.295   6.682   3.277
 5821SOL     OW18361   3.039   0.488   2.080
 5821SOL    HW118362   2.997   0.561   2.134
 5821SOL    HW218363   2.987   0.403   2.092
 5822SOL     OW18364   0.244   1.751   2.668
 5822SOL    HW118365   0.208   1.823   2.727
 5822SOL    HW218366   0.310   1.790   2.604
 5823SOL     OW18367   2.084   1.860   4.460
 5823SOL    HW118368   2.043   1.904   4.380
 5823SOL    HW218369   2.173   1.821   4.435
 5824SOL     OW18370   5.714   6.885   3.444
 5824SOL    HW118371   5.794   6.827   3.432
 5824SOL    HW218372   5.743   6.977   3.471
 5825SOL     OW18373   1.914   0.314   6.829
 5825SOL    HW118374   1.920   0.386   6.897
 5825SOL    HW218375   1.837   0.254   6.850
 5826SOL     OW18376   6.686   6.429   4.744
 5826SOL    HW118377   6.605   6.472   4.706
 5826SOL    HW218378   6.664   6.335   4.772
 5827SOL     OW18379   0.645   5.900   5.026
 5827SOL    HW118380   0.721   5.863   5.080
 5827SOL    HW218381   0.599   5.827   4.977
 5828SOL     OW18382   0.612   3.376   2.082
 5828SOL    HW118383   0.643   3.463   2.043
 5828SOL    HW218384   0.583   3.315   2.008
 5829SOL     OW18385   2.533   1.287   1.747
 5829SOL    HW118386   2.450   1.262   1.796
 5829SOL    HW218387   2.594   1.208   1.743
 5830SOL     OW18388   3.216   1.078   6.142
 5830SOL    HW118389   3.145   1.066   6.073
 5830SOL    HW218390   3.304   1.096   6.097
 5831SOL     OW18391   5.510   6.901   2.825
 5831SOL    HW118392   5.428   6.905   2.769
 5831SOL    HW218393   5.583   6.955   2.783
 5832SOL     OW18394   4.087   3.748   5.139
 5832SOL    HW118395   4.099   3.768   5.042
 5832SOL    HW218396   3.990   3.759   5.163
 5833SOL     OW18397   3.421   3.455   4.135
 5833SOL    HW118398   3.373   3.524   4.080
 5833SOL    HW218399   3.355   3.403   4.189
 5834SOL     OW18400   5.812   1.864   0.701
 5834SOL    HW118401   5.869   1.946   0.705
 5834SOL    HW218402   5.715   1.891   0.701
 5835SOL     OW18403   5.041   2.030   3.834
 5835SOL    HW118404   5.050   2.127   3.810
 5835SOL    HW218405   5.124   2.000   3.880
 5836SOL     OW18406   3.600   6.345   1.924
 5836SOL    HW118407   3.683   6.323   1.974
 5836SOL    HW218408   3.557   6.260   1.891
 5837SOL     OW18409   4.657   3.964   0.673
 5837SOL    HW118410   4.753   3.994   0.677
 5837SOL    HW218411   4.647   3.896   0.601
 5838SOL     OW18412   1.624   1.415   5.663
 5838SOL    HW118413   1.564   1.494   5.664
 5838SOL    HW218414   1.617   1.369   5.574
 5839SOL     OW18415   6.619   3.315   3.164
 5839SOL    HW118416   6.684   3.380   3.124
 5839SOL    HW218417   6.607   3.337   3.261
 5840SOL     OW18418   1.698   5.508   0.045
 5840SOL    HW118419   1.792   5.539   0.031
 5840SOL    HW218420   1.697   5.409   0.057
 5841SOL     OW18421   6.451   2.516   3.667
 5841SOL    HW118422   6.397   2.467   3.736
 5841SOL    HW218423   6.391   2.544   3.592
 5842SOL     OW18424   3.775   2.652   1.218
 5842SOL    HW118425   3.851   2.692   1.166
 5842SOL    HW218426   3.758   2.706   1.299
 5843SOL     OW18427   1.796   3.142   2.495
 5843SOL    HW118428   1.769   3.159   2.400
 5843SOL    HW218429   1.875   3.198   2.518
 5844SOL     OW18430   0.484   6.036   6.565
 5844SOL    HW118431   0.410   6.104   6.561
 5844SOL    HW218432   0.526   6.027   6.474
 5845SOL     OW18433   0.836   2.516   4.128
 5845SOL    HW118434   0.784   2.513   4.043
 5845SOL    HW218435   0.897   2.595   4.127
 5846SOL     OW18436   0.359   2.531   5.606
 5846SOL    HW118437   0.432   2.543   5.538
 5846SOL    HW218438   0.377   2.589   5.685
 5847SOL     OW18439   2.274   2.797   2.381
 5847SOL    HW118440   2.280   2.825   2.477
 5847SOL    HW218441   2.212   2.858   2.332
 5848SOL     OW18442   1.309   4.879   3.260
 5848SOL    HW118443   1.260   4.954   3.306
 5848SOL    HW218444   1.407   4.893   3.269
 5849SOL     OW18445   1.776   0.757   5.706
 5849SOL    HW118446   1.721   0.841   5.704
 5849SOL    HW218447   1.716   0.677   5.703
 5850SOL     OW18448   0.865   4.740   2.256
 5850SOL    HW118449   0.820   4.824   2.288
 5850SOL    HW218450   0.796   4.669   2.242
 5851SOL     OW18451   6.159   4.209   2.120
 5851SOL    HW118452   6.146   4.142   2.193
 5851SOL    HW218453   6.088   4.279   2.126
 5852SOL     OW18454   3.840   6.247   2.049
 5852SOL    HW118455   3.851   6.319   2.117
 5852SOL    HW218456   3.779   6.176   2.084
 5853SOL     OW18457   2.837   4.782   6.055
 5853SOL    HW118458   2.854   4.824   5.966
 5853SOL    HW218459   2.924   4.755   6.097
 5854SOL     OW18460   6.823   1.388   5.954
 5854SOL    HW118461   6.789   1.470   6.001
 5854SOL    HW218462   6.749   1.350   5.898
 5855SOL     OW18463   1.318   0.982   4.523
 5855SOL    HW118464   1.236   1.010   4.574
 5855SOL    HW218465   1.377   1.061   4.509
 5856SOL     OW18466   1.768   4.989   3.422
 5856SOL    HW118467   1.783   5.043   3.505
 5856SOL    HW218468   1.854   4.980   3.372
 5857SOL     OW18469   6.278   2.883   4.816
 5857SOL    HW118470   6.227   2.865   4.901
 5857SOL    HW218471   6.215   2.881   4.739
 5858SOL     OW18472   3.783   1.250   2.380
 5858SOL    HW118473   3.794   1.238   2.478
 5858SOL    HW218474   3.718   1.182   2.345
 5859SOL     OW18475   6.614   6.967   1.267
 5859SOL    HW118476   6.528   6.921   1.245
 5859SOL    HW218477   6.631   0.021   1.201
 5860SOL     OW18478   1.751   4.302   1.838
 5860SOL    HW118479   1.796   4.214   1.855
 5860SOL    HW218480   1.666   4.287   1.788
 5861SOL     OW18481   5.758   2.168   4.240
 5861SOL    HW118482   5.664   2.183   4.207
 5861SOL    HW218483   5.771   2.072   4.262
 5862SOL     OW18484   4.263   4.658   2.819
 5862SOL    HW118485   4.213   4.735   2.859
 5862SOL    HW218486   4.245   4.653   2.721
 5863SOL     OW18487   1.851   0.791   5.967
 5863SOL    HW118488   1.930   0.851   5.981
 5863SOL    HW218489   1.835   0.780   5.869
 5864SOL     OW18490   4.246   4.225   1.593
 5864SOL    HW118491   4.223   4.143   1.540
 5864SOL    HW218492   4.305   4.199   1.669
 5865SOL     OW18493   4.900   0.695   3.160
 5865SOL    HW118494   4.933   0.616   3.211
 5865SOL    HW218495   4.810   0.675   3.120
 5866SOL     OW18496   3.954   6.570   5.870
 5866SOL    HW118497   4.028   6.512   5.905
 5866SOL    HW218498   3.946   6.559   5.771
 5867SOL     OW18499   0.570   2.924   1.927
 5867SOL    HW118500   0.485   2.923   1.874
 5867SOL    HW218501   0.604   3.018   1.932
 5868SOL     OW18502   1.456   0.268   5.298
 5868SOL    HW118503   1.494   0.349   5.343
 5868SOL    HW218504   1.382   0.230   5.354
 5869SOL     OW18505   2.778   4.918   4.590
 5869SOL    HW118506   2.768   5.014   4.617
 5869SOL    HW218507   2.826   4.868   4.662
 5870SOL     OW18508   5.227   5.332   4.296
 5870SOL    HW118509   5.275   5.261   4.347
 5870SOL    HW218510   5.285   5.366   4.223
 5871SOL     OW18511   3.719   2.931   0.593
 5871SOL    HW118512   3.797   2.967   0.644
 5871SOL    HW218513   3.725   2.831   0.588
 5872SOL     OW18514   3.600   5.743   6.000
 5872SOL    HW118515   3.501   5.737   6.009
 5872SOL    HW218516   3.623   5.789   5.914
 5873SOL     OW18517   2.957   3.346   0.325
 5873SOL    HW118518   2.895   3.278   0.286
 5873SOL    HW218519   3.050   3.311   0.325
 5874SOL     OW18520   2.159   3.273   1.763
 5874SOL    HW118521   2.203   3.341   1.822
 5874SOL    HW218522   2.181   3.294   1.667
 5875SOL     OW18523   3.586   2.065   0.138
 5875SOL    HW118524   3.605   2.148   0.190
 5875SOL    HW218525   3.670   2.032   0.096
 5876SOL     OW18526   2.862   3.622   6.842
 5876SOL    HW118527   2.783   3.562   6.858
 5876SOL    HW218528   2.832   3.704   6.793
 5877SOL     OW18529   6.225   0.847   2.060
 5877SOL    HW118530   6.136   0.809   2.085
 5877SOL    HW218531   6.293   0.818   2.127
 5878SOL     OW18532   4.586   4.681   1.848
 5878SOL    HW118533   4.493   4.648   1.865
 5878SOL    HW218534   4.603   4.684   1.749
 5879SOL     OW18535   3.681   3.339   6.345
 5879SOL    HW118536   3.658   3.383   6.258
 5879SOL    HW218537   3.667   3.403   6.420
 5880SOL     OW18538   5.026   3.164   5.727
 5880SOL    HW118539   5.012   3.079   5.677
 5880SOL    HW218540   4.962   3.233   5.694
 5881SOL     OW18541   1.190   6.306   1.985
 5881SOL    HW118542   1.214   6.386   2.040
 5881SOL    HW218543   1.226   6.318   1.893
 5882SOL     OW18544   1.611   5.925   6.378
 5882SOL    HW118545   1.658   5.966   6.299
 5882SOL    HW218546   1.678   5.894   6.445
 5883SOL     OW18547   6.935   4.553   1.086
 5883SOL    HW118548   6.966   4.568   0.992
 5883SOL    HW218549   6.982   4.474   1.125
 5884SOL     OW18550   6.311   1.777   3.796
 5884SOL    HW118551   6.247   1.794   3.721
 5884SOL    HW218552   6.293   1.687   3.836
 5885SOL     OW18553   0.300   5.447   6.593
 5885SOL    HW118554   0.224   5.404   6.642
 5885SOL    HW218555   0.269   5.535   6.555
 5886SOL     OW18556   1.651   4.019   3.719
 5886SOL    HW118557   1.577   4.021   3.652
 5886SOL    HW218558   1.631   3.949   3.788
 5887SOL     OW18559   2.078   2.509   0.974
 5887SOL    HW118560   2.142   2.581   1.000
 5887SOL    HW218561   2.085   2.492   0.876
 5888SOL     OW18562   3.226   0.034   1.121
 5888SOL    HW118563   3.283   0.114   1.104
 5888SOL    HW218564   3.139   0.063   1.161
 5889SOL     OW18565   6.704   0.729   1.806
 5889SOL    HW118566   6.678   0.674   1.727
 5889SOL    HW218567   6.733   0.669   1.881
 5890SOL     OW18568   2.801   6.152   2.558
 5890SOL    HW118569   2.814   6.090   2.636
 5890SOL    HW218570   2.847   6.239   2.576
 5891SOL     OW18571   2.654   3.531   0.725
 5891SOL    HW118572   2.571   3.513   0.778
 5891SOL    HW218573   2.666   3.458   0.658
 5892SOL     OW18574   0.834   3.697   0.715
 5892SOL    HW118575   0.906   3.629   0.701
 5892SOL    HW218576   0.750   3.650   0.744
 5893SOL     OW18577   0.487   5.438   2.195
 5893SOL    HW118578   0.513   5.529   2.228
 5893SOL    HW218579   0.540   5.415   2.114
 5894SOL     OW18580   1.897   5.512   6.067
 5894SOL    HW118581   1.954   5.555   5.998
 5894SOL    HW218582   1.918   5.550   6.157
 5895SOL     OW18583   5.504   2.998   4.578
 5895SOL    HW118584   5.536   3.087   4.546
 5895SOL    HW218585   5.581   2.947   4.616
 5896SOL     OW18586   5.787   2.462   2.024
 5896SOL    HW118587   5.861   2.529   2.024
 5896SOL    HW218588   5.757   2.445   2.118
 5897SOL     OW18589   4.605   1.848   1.017
 5897SOL    HW118590   4.655   1.908   1.080
 5897SOL    HW218591   4.616   1.882   0.923
 5898SOL     OW18592   2.041   1.421   5.053
 5898SOL    HW118593   1.954   1.375   5.036
 5898SOL    HW218594   2.061   1.420   5.151
 5899SOL     OW18595   6.640   5.386   5.725
 5899SOL    HW118596   6.601   5.307   5.677
 5899SOL    HW218597   6.715   5.355   5.784
 5900SOL     OW18598   6.003   6.484   3.528
 5900SOL    HW118599   6.095   6.489   3.490
 5900SOL    HW218600   6.004   6.517   3.622
 5901SOL     OW18601   1.915   0.101   5.564
 5901SOL    HW118602   2.003   0.064   5.596
 5901SOL    HW218603   1.892   0.181   5.619
 5902SOL     OW18604   4.886   4.786   5.414
 5902SOL    HW118605   4.899   4.782   5.513
 5902SOL    HW218606   4.791   4.765   5.393
 5903SOL     OW18607   6.327   1.821   6.003
 5903SOL    HW118608   6.352   1.727   5.981
 5903SOL    HW218609   6.408   1.880   5.995
 5904SOL     OW18610   2.378   4.475   2.413
 5904SOL    HW118611   2.365   4.496   2.510
 5904SOL    HW218612   2.360   4.378   2.397
 5905SOL     OW18613   6.374   1.735   4.392
 5905SOL    HW118614   6.435   1.670   4.438
 5905SOL    HW218615   6.429   1.806   4.347
 5906SOL     OW18616   4.886   0.541   5.503
 5906SOL    HW118617   4.948   0.613   5.472
 5906SOL    HW218618   4.930   0.452   5.497
 5907SOL     OW18619   1.788   3.031   6.628
 5907SOL    HW118620   1.877   3.066   6.600
 5907SOL    HW218621   1.756   2.965   6.560
 5908SOL     OW18622   4.732   2.908   5.967
 5908SOL    HW118623   4.694   2.996   5.939
 5908SOL    HW218624   4.736   2.847   5.887
 5909SOL     OW18625   6.768   5.327   4.537
 5909SOL    HW118626   6.705   5.275   4.480
 5909SOL    HW218627   6.809   5.401   4.484
 5910SOL     OW18628   2.169   3.852   1.367
 5910SOL    HW118629   2.164   3.798   1.451
 5910SOL    HW218630   2.264   3.858   1.336
 5911SOL     OW18631   6.354   6.444   6.553
 5911SOL    HW118632   6.255   6.447   6.565
 5911SOL    HW218633   6.396   6.519   6.603
 5912SOL     OW18634   6.757   3.691   6.759
 5912SOL    HW118635   6.809   3.609   6.737
 5912SOL    HW218636   6.671   3.666   6.803
 5913SOL     OW18637   1.779   1.340   6.051
 5913SOL    HW118638   1.724   1.407   6.000
 5913SOL    HW218639   1.866   1.382   6.077
 5914SOL     OW18640   1.738   6.161   0.315
 5914SOL    HW118641   1.716   6.247   0.269
 5914SOL    HW218642   1.760   6.091   0.247
 5915SOL     OW18643   4.751   2.834   2.730
 5915SOL    HW118644   4.765   2.914   2.671
 5915SOL    HW218645   4.768   2.751   2.678
 5916SOL     OW18646   3.772   0.392   5.788
 5916SOL    HW118647   3.679   0.428   5.790
 5916SOL    HW218648   3.786   0.339   5.704
 5917SOL     OW18649   2.964   3.739   3.046
 5917SOL    HW118650   3.008   3.823   3.013
 5917SOL    HW218651   2.998   3.719   3.138
 5918SOL     OW18652   2.156   3.244   4.218
 5918SOL    HW118653   2.144   3.245   4.318
 5918SOL    HW218654   2.199   3.159   4.190
 5919SOL     OW18655   1.662   3.289   6.669
 5919SOL    HW118656   1.614   3.309   6.754
 5919SOL    HW218657   1.718   3.207   6.681
 5920SOL     OW18658   3.614   6.661   0.076
 5920SOL    HW118659   3.595   6.759   0.077
 5920SOL    HW218660   3.653   6.634   0.165
 5921SOL     OW18661   3.908   4.827   5.242
 5921SOL    HW118662   3.967   4.747   5.234
 5921SOL    HW218663   3.950   4.905   5.195
 5922SOL     OW18664   5.758   4.285   2.321
 5922SOL    HW118665   5.754   4.383   2.342
 5922SOL    HW218666   5.754   4.233   2.405
 5923SOL     OW18667   0.036   6.772   3.933
 5923SOL    HW118668   0.121   6.748   3.888
 5923SOL    HW218669   0.054   6.799   4.028
 5924SOL     OW18670   5.374   2.149   4.432
 5924SOL    HW118671   5.320   2.147   4.516
 5924SOL    HW218672   5.464   2.109   4.451
 5925SOL     OW18673   5.929   6.178   0.944
 5925SOL    HW118674   6.012   6.192   0.891
 5925SOL    HW218675   5.952   6.168   1.041
 5926SOL     OW18676   3.486   5.202   1.693
 5926SOL    HW118677   3.530   5.171   1.777
 5926SOL    HW218678   3.403   5.148   1.677
 5927SOL     OW18679   3.132   5.927   2.531
 5927SOL    HW118680   3.144   5.979   2.446
 5927SOL    HW218681   3.140   5.988   2.609
 5928SOL     OW18682   1.350   0.266   2.082
 5928SOL    HW118683   1.423   0.330   2.057
 5928SOL    HW218684   1.262   0.304   2.054
 5929SOL     OW18685   1.171   6.978   6.325
 5929SOL    HW118686   1.085   6.984   6.275
 5929SOL    HW218687   1.192   0.047   6.367
 5930SOL     OW18688   6.660   2.075   4.553
 5930SOL    HW118689   6.636   2.090   4.457
 5930SOL    HW218690   6.706   1.986   4.563
 5931SOL     OW18691   6.584   5.973   1.174
 5931SOL    HW118692   6.643   5.960   1.094
 5931SOL    HW218693   6.621   6.046   1.232
 5932SOL     OW18694   3.258   6.798   0.716
 5932SOL    HW118695   3.325   6.790   0.789
 5932SOL    HW218696   3.174   6.839   0.752
 5933SOL     OW18697   6.584   3.705   2.892
 5933SOL    HW118698   6.625   3.645   2.961
 5933SOL    HW218699   6.574   3.797   2.931
 5934SOL     OW18700   3.684   3.668   2.870
 5934SOL    HW118701   3.686   3.572   2.899
 5934SOL    HW218702   3.713   3.726   2.945
 5935SOL     OW18703   3.963   3.479   4.111
 5935SOL    HW118704   3.989   3.408   4.045
 5935SOL    HW218705   3.869   3.465   4.139
 5936SOL     OW18706   5.101   5.694   6.553
 5936SOL    HW118707   5.141   5.618   6.604
 5936SOL    HW218708   5.079   5.768   6.617
 5937SOL     OW18709   1.810   3.093   1.189
 5937SOL    HW118710   1.712   3.076   1.192
 5937SOL    HW218711   1.837   3.118   1.096
 5938SOL     OW18712   1.787   4.342   2.376
 5938SOL    HW118713   1.752   4.383   2.292
 5938SOL    HW218714   1.779   4.242   2.369
 5939SOL     OW18715   3.676   0.091   3.150
 5939SOL    HW118716   3.713   0.028   3.218
 5939SOL    HW218717   3.710   0.184   3.168
 5940SOL     OW18718   3.842   5.872   2.919
 5940SOL    HW118719   3.755   5.895   2.962
 5940SOL    HW218720   3.832   5.878   2.819
 5941SOL     OW18721   5.995   5.001   2.426
 5941SOL    HW118722   6.095   5.004   2.428
 5941SOL    HW218723   5.960   5.081   2.377
 5942SOL     OW18724   4.392   2.550   6.202
 5942SOL    HW118725   4.436   2.610   6.269
 5942SOL    HW218726   4.461   2.510   6.142
 5943SOL     OW18727   1.564   5.851   0.481
 5943SOL    HW118728   1.466   5.840   0.493
 5943SOL    HW218729   1.589   5.947   0.492
 5944SOL     OW18730   5.472   1.783   2.739
 5944SOL    HW118731   5.520   1.748   2.658
 5944SOL    HW218732   5.527   1.767   2.820
 5945SOL     OW18733   6.904   5.287   5.883
 5945SOL    HW118734   6.990   5.238   5.895
 5945SOL    HW218735   6.828   5.226   5.903
 5946SOL     OW18736   4.338   3.104   5.392
 5946SOL    HW118737   4.251   3.057   5.381
 5946SOL    HW218738   4.382   3.115   5.303
 5947SOL     OW18739   4.341   3.455   1.650
 5947SOL    HW118740   4.391   3.464   1.564
 5947SOL    HW218741   4.321   3.546   1.686
 5948SOL     OW18742   3.542   4.986   2.405
 5948SOL    HW118743   3.476   5.061   2.411
 5948SOL    HW218744   3.633   5.019   2.428
 5949SOL     OW18745   4.362   4.696   1.634
 5949SOL    HW118746   4.391   4.778   1.684
 5949SOL    HW218747   4.420   4.619   1.658
 5950SOL     OW18748   6.634   2.567   4.165
 5950SOL    HW118749   6.582   2.495   4.118
 5950SOL    HW218750   6.594   2.656   4.143
 5951SOL     OW18751   2.275   5.560   3.532
 5951SOL    HW118752   2.179   5.538   3.513
 5951SOL    HW218753   2.327   5.559   3.447
 5952SOL     OW18754   0.362   6.695   4.265
 5952SOL    HW118755   0.355   6.657   4.357
 5952SOL    HW218756   0.271   6.717   4.231
 5953SOL     OW18757   0.005   3.141   6.389
 5953SOL    HW118758   6.943   3.110   6.440
 5953SOL    HW218759   0.034   3.230   6.423
 5954SOL     OW18760   0.498   4.964   6.614
 5954SOL    HW118761   0.485   4.868   6.638
 5954SOL    HW218762   0.567   4.972   6.542
 5955SOL     OW18763   4.937   5.055   1.753
 5955SOL    HW118764   4.916   5.017   1.663
 5955SOL    HW218765   5.022   5.106   1.749
 5956SOL     OW18766   5.538   2.466   0.091
 5956SOL    HW118767   5.445   2.435   0.070
 5956SOL    HW218768   5.576   2.513   0.011
 5957SOL     OW18769   5.850   6.180   6.135
 5957SOL    HW118770   5.931   6.123   6.142
 5957SOL    HW218771   5.773   6.125   6.103
 5958SOL     OW18772   6.758   5.458   1.896
 5958SOL    HW118773   6.692   5.405   1.843
 5958SOL    HW218774   6.710   5.502   1.973
 5959SOL     OW18775   2.118   1.683   5.858
 5959SOL    HW118776   2.157   1.599   5.896
 5959SOL    HW218777   2.170   1.710   5.777
 5960SOL     OW18778   3.242   0.462   3.641
 5960SOL    HW118779   3.265   0.367   3.621
 5960SOL    HW218780   3.149   0.481   3.612
 5961SOL     OW18781   3.211   0.712   5.360
 5961SOL    HW118782   3.260   0.799   5.366
 5961SOL    HW218783   3.171   0.702   5.269
 5962SOL     OW18784   5.154   5.346   2.274
 5962SOL    HW118785   5.178   5.311   2.184
 5962SOL    HW218786   5.180   5.279   2.344
 5963SOL     OW18787   4.075   3.682   2.320
 5963SOL    HW118788   4.121   3.609   2.369
 5963SOL    HW218789   4.074   3.765   2.375
 5964SOL     OW18790   0.583   5.215   5.433
 5964SOL    HW118791   0.674   5.227   5.472
 5964SOL    HW218792   0.514   5.242   5.500
 5965SOL     OW18793   2.882   2.672   5.660
 5965SOL    HW118794   2.900   2.710   5.750
 5965SOL    HW218795   2.862   2.574   5.668
 5966SOL     OW18796   2.771   5.697   3.986
 5966SOL    HW118797   2.790   5.641   3.905
 5966SOL    HW218798   2.815   5.657   4.066
 5967SOL     OW18799   4.800   6.631   2.624
 5967SOL    HW118800   4.721   6.573   2.605
 5967SOL    HW218801   4.788   6.720   2.579
 5968SOL     OW18802   6.998   2.543   4.038
 5968SOL    HW118803   0.045   2.467   4.035
 5968SOL    HW218804   6.910   2.509   4.074
 5969SOL     OW18805   5.965   3.610   3.389
 5969SOL    HW118806   5.921   3.548   3.325
 5969SOL    HW218807   6.064   3.613   3.371
 5970SOL     OW18808   1.285   3.207   3.158
 5970SOL    HW118809   1.285   3.270   3.080
 5970SOL    HW218810   1.209   3.230   3.219
 5971SOL     OW18811   2.206   6.958   2.497
 5971SOL    HW118812   2.226   6.886   2.431
 5971SOL    HW218813   2.111   6.950   2.527
 5972SOL     OW18814   4.731   6.409   0.387
 5972SOL    HW118815   4.771   6.439   0.474
 5972SOL    HW218816   4.741   6.481   0.319
 5973SOL     OW18817   1.220   4.601   3.495
 5973SOL    HW118818   1.262   4.642   3.414
 5973SOL    HW218819   1.152   4.533   3.466
 5974SOL     OW18820   0.527   3.856   0.141
 5974SOL    HW118821   0.626   3.862   0.135
 5974SOL    HW218822   0.493   3.926   0.205
 5975SOL     OW18823   2.534   2.895   0.705
 5975SOL    HW118824   2.514   2.797   0.700
 5975SOL    HW218825   2.458   2.947   0.667
 5976SOL     OW18826   3.063   3.113   5.251
 5976SOL    HW118827   3.157   3.130   5.280
 5976SOL    HW218828   3.062   3.076   5.158
 5977SOL     OW18829   1.009   4.026   2.469
 5977SOL    HW118830   1.026   4.072   2.556
 5977SOL    HW218831   0.965   3.938   2.486
 5978SOL     OW18832   5.550   5.011   1.559
 5978SOL    HW118833   5.588   5.003   1.651
 5978SOL    HW218834   5.512   4.922   1.531
 5979SOL     OW18835   6.813   0.643   3.557
 5979SOL    HW118836   6.873   0.563   3.553
 5979SOL    HW218837   6.865   0.724   3.531
 5980SOL     OW18838   6.064   3.934   0.394
 5980SOL    HW118839   6.061   3.958   0.491
 5980SOL    HW218840   6.159   3.937   0.362
 5981SOL     OW18841   5.230   1.053   2.334
 5981SOL    HW118842   5.203   1.103   2.417
 5981SOL    HW218843   5.221   1.113   2.255
 5982SOL     OW18844   6.631   1.766   6.379
 5982SOL    HW118845   6.671   1.717   6.301
 5982SOL    HW218846   6.603   1.857   6.350
 5983SOL     OW18847   1.637   1.000   4.397
 5983SOL    HW118848   1.606   1.094   4.416
 5983SOL    HW218849   1.675   0.996   4.305
 5984SOL     OW18850   0.083   6.315   5.012
 5984SOL    HW118851   0.037   6.404   5.013
 5984SOL    HW218852   0.070   6.270   5.101
 5985SOL     OW18853   4.378   1.730   3.960
 5985SOL    HW118854   4.283   1.760   3.946
 5985SOL    HW218855   4.440   1.796   3.918
 5986SOL     OW18856   3.268   3.099   2.578
 5986SOL    HW118857   3.253   3.046   2.662
 5986SOL    HW218858   3.340   3.055   2.524
 5987SOL     OW18859   3.891   6.619   4.892
 5987SOL    HW118860   3.989   6.636   4.904
 5987SOL    HW218861   3.843   6.647   4.975
 5988SOL     OW18862   4.032   6.725   4.261
 5988SOL    HW118863   4.031   6.778   4.346
 5988SOL    HW218864   3.977   6.642   4.273
 5989SOL     OW18865   3.170   0.591   5.804
 5989SOL    HW118866   3.132   0.640   5.882
 5989SOL    HW218867   3.146   0.639   5.719
 5990SOL     OW18868   3.285   4.690   1.276
 5990SOL    HW118869   3.229   4.763   1.238
 5990SOL    HW218870   3.273   4.687   1.375
 5991SOL     OW18871   2.844   5.042   4.915
 5991SOL    HW118872   2.794   5.065   4.832
 5991SOL    HW218873   2.880   4.949   4.908
 5992SOL     OW18874   4.545   0.489   3.755
 5992SOL    HW118875   4.598   0.429   3.694
 5992SOL    HW218876   4.509   0.566   3.703
 5993SOL     OW18877   2.550   6.065   5.156
 5993SOL    HW118878   2.450   6.069   5.158
 5993SOL    HW218879   2.581   5.984   5.205
 5994SOL     OW18880   6.429   2.332   3.062
 5994SOL    HW118881   6.395   2.240   3.042
 5994SOL    HW218882   6.352   2.396   3.063
 5995SOL     OW18883   0.083   4.945   1.043
 5995SOL    HW118884   0.160   4.898   1.000
 5995SOL    HW218885   0.097   5.044   1.039
 5996SOL     OW18886   0.202   5.240   5.377
 5996SOL    HW118887   0.157   5.181   5.444
 5996SOL    HW218888   0.241   5.184   5.304
 5997SOL     OW18889   0.662   6.753   2.399
 5997SOL    HW118890   0.605   6.759   2.317
 5997SOL    HW218891   0.700   6.661   2.406
 5998SOL     OW18892   5.394   2.123   2.733
 5998SOL    HW118893   5.399   2.214   2.774
 5998SOL    HW218894   5.300   2.103   2.706
 5999SOL     OW18895   1.060   1.600   2.672
 5999SOL    HW118896   1.080   1.519   2.727
 5999SOL    HW218897   1.104   1.591   2.583
 6000SOL     OW18898   4.736   5.801   2.270
 6000SOL    HW118899   4.770   5.824   2.179
 6000SOL    HW218900   4.757   5.875   2.334
 6001SOL     OW18901   0.026   2.107   6.823
 6001SOL    HW118902   6.990   2.114   6.906
 6001SOL    HW218903   0.085   2.026   6.829
 6002SOL     OW18904   2.125   0.578   1.582
 6002SOL    HW118905   2.059   0.534   1.643
 6002SOL    HW218906   2.086   0.583   1.489
 6003SOL     OW18907   4.684   4.320   4.831
 6003SOL    HW118908   4.608   4.367   4.786
 6003SOL    HW218909   4.754   4.387   4.856
 6004SOL     OW18910   0.299   3.216   2.553
 6004SOL    HW118911   0.375   3.158   2.523
 6004SOL    HW218912   0.215   3.185   2.509
 6005SOL     OW18913   3.038   5.840   2.853
 6005SOL    HW118914   3.070   5.788   2.932
 6005SOL    HW218915   3.095   5.921   2.840
 6006SOL     OW18916   2.619   6.832   6.696
 6006SOL    HW118917   2.604   6.879   6.610
 6006SOL    HW218918   2.711   6.793   6.697
 6007SOL     OW18919   5.933   2.677   4.271
 6007SOL    HW118920   5.866   2.744   4.304
 6007SOL    HW218921   5.944   2.605   4.340
 6008SOL     OW18922   2.990   4.561   6.600
 6008SOL    HW118923   3.031   4.491   6.540
 6008SOL    HW218924   3.031   4.554   6.691
 6009SOL     OW18925   2.698   1.890   4.555
 6009SOL    HW118926   2.607   1.930   4.542
 6009SOL    HW218927   2.699   1.837   4.639
 6010SOL     OW18928   1.789   3.762   3.211
 6010SOL    HW118929   1.875   3.735   3.166
 6010SOL    HW218930   1.722   3.788   3.141
 6011SOL     OW18931   5.079   3.348   2.597
 6011SOL    HW118932   5.060   3.438   2.559
 6011SOL    HW218933   4.996   3.311   2.638
 6012SOL     OW18934   6.963   3.120   0.778
 6012SOL    HW118935   0.010   3.145   0.707
 6012SOL    HW218936   6.894   3.192   0.787
 6013SOL     OW18937   5.568   0.983   2.666
 6013SOL    HW118938   5.559   0.884   2.671
 6013SOL    HW218939   5.491   1.026   2.713
 6014SOL     OW18940   6.167   0.689   0.566
 6014SOL    HW118941   6.234   0.624   0.601
 6014SOL    HW218942   6.094   0.700   0.633
 6015SOL     OW18943   6.042   1.795   4.195
 6015SOL    HW118944   6.106   1.729   4.234
 6015SOL    HW218945   6.074   1.822   4.104
 6016SOL     OW18946   1.986   0.269   5.270
 6016SOL    HW118947   1.995   0.270   5.369
 6016SOL    HW218948   2.031   0.350   5.231
 6017SOL     OW18949   6.217   5.152   2.739
 6017SOL    HW118950   6.315   5.142   2.751
 6017SOL    HW218951   6.171   5.068   2.770
 6018SOL     OW18952   2.602   3.821   0.747
 6018SOL    HW118953   2.670   3.828   0.820
 6018SOL    HW218954   2.621   3.740   0.691
 6019SOL     OW18955   3.502   0.104   4.290
 6019SOL    HW118956   3.577   0.136   4.233
 6019SOL    HW218957   3.496   0.160   4.373
 6020SOL     OW18958   3.960   0.877   2.878
 6020SOL    HW118959   3.903   0.943   2.928
 6020SOL    HW218960   3.938   0.881   2.781
 6021SOL     OW18961   4.336   1.428   2.756
 6021SOL    HW118962   4.335   1.501   2.688
 6021SOL    HW218963   4.247   1.381   2.755
 6022SOL     OW18964   4.254   1.068   3.916
 6022SOL    HW118965   4.197   1.009   3.973
 6022SOL    HW218966   4.325   1.111   3.972
 6023SOL     OW18967   0.180   1.316   2.738
 6023SOL    HW118968   0.141   1.233   2.697
 6023SOL    HW218969   0.156   1.395   2.682
 6024SOL     OW18970   0.738   4.735   1.858
 6024SOL    HW118971   0.751   4.815   1.916
 6024SOL    HW218972   0.713   4.656   1.915
 6025SOL     OW18973   4.689   1.660   1.207
 6025SOL    HW118974   4.649   1.717   1.135
 6025SOL    HW218975   4.757   1.598   1.166
 6026SOL     OW18976   6.620   4.877   5.141
 6026SOL    HW118977   6.630   4.786   5.180
 6026SOL    HW218978   6.710   4.913   5.116
 6027SOL     OW18979   2.962   3.613   0.282
 6027SOL    HW118980   2.895   3.676   0.323
 6027SOL    HW218981   2.947   3.521   0.317
 6028SOL     OW18982   1.126   3.259   0.342
 6028SOL    HW118983   1.221   3.275   0.315
 6028SOL    HW218984   1.124   3.217   0.433
 6029SOL     OW18985   2.098   6.106   1.461
 6029SOL    HW118986   2.091   6.016   1.418
 6029SOL    HW218987   2.137   6.096   1.553
 6030SOL     OW18988   1.806   0.877   1.784
 6030SOL    HW118989   1.710   0.853   1.768
 6030SOL    HW218990   1.843   0.922   1.703
 6031SOL     OW18991   5.152   6.987   4.944
 6031SOL    HW118992   5.198   6.902   4.970
 6031SOL    HW218993   5.184   7.015   4.853
 6032SOL     OW18994   0.691   3.198   2.757
 6032SOL    HW118995   0.649   3.157   2.676
 6032SOL    HW218996   0.670   3.142   2.838
 6033SOL     OW18997   0.958   0.877   4.064
 6033SOL    HW118998   0.951   0.927   3.977
 6033SOL    HW218999   0.867   0.850   4.094
 6034SOL     OW19000   1.804   4.209   5.006
 6034SOL    HW119001   1.878   4.272   5.026
 6034SOL    HW219002   1.754   4.189   5.091
 6035SOL     OW19003   5.831   0.706   4.107
 6035SOL    HW119004   5.801   0.625   4.056
 6035SOL    HW219005   5.791   0.705   4.199
 6036SOL     OW19006   0.747   6.243   5.264
 6036SOL    HW119007   0.826   6.292   5.228
 6036SOL    HW219008   0.664   6.282   5.225
 6037SOL     OW19009   5.972   5.971   4.925
 6037SOL    HW119010   5.993   5.987   4.828
 6037SOL    HW219011   6.010   5.882   4.952
 6038SOL     OW19012   5.486   3.440   6.173
 6038SOL    HW119013   5.464   3.342   6.167
 6038SOL    HW219014   5.435   3.480   6.249
 6039SOL     OW19015   3.409   3.340   2.615
 6039SOL    HW119016   3.413   3.424   2.560
 6039SOL    HW219017   3.334   3.283   2.581
 6040SOL     OW19018   0.139   1.774   0.105
 6040SOL    HW119019   0.148   1.869   0.132
 6040SOL    HW219020   0.058   1.734   0.148
 6041SOL     OW19021   1.209   2.356   6.980
 6041SOL    HW119022   1.278   2.290   6.951
 6041SOL    HW219023   1.241   2.449   6.960
 6042SOL     OW19024   4.773   5.338   3.246
 6042SOL    HW119025   4.709   5.261   3.247
 6042SOL    HW219026   4.800   5.358   3.152
 6043SOL     OW19027   0.971   4.589   4.434
 6043SOL    HW119028   0.897   4.523   4.426
 6043SOL    HW219029   0.958   4.645   4.515
 6044SOL     OW19030   0.779   0.969   1.180
 6044SOL    HW119031   0.712   1.027   1.226
 6044SOL    HW219032   0.872   0.997   1.206
 6045SOL     OW19033   0.092   3.912   1.984
 6045SOL    HW119034   0.185   3.930   2.018
 6045SOL    HW219035   0.046   3.850   2.048
 6046SOL     OW19036   3.146   2.149   0.125
 6046SOL    HW119037   3.096   2.139   0.211
 6046SOL    HW219038   3.214   2.222   0.134
 6047SOL     OW19039   6.439   7.011   4.358
 6047SOL    HW119040   6.401   6.932   4.407
 6047SOL    HW219041   6.478   0.057   4.424
 6048SOL     OW19042   4.427   6.595   4.940
 6048SOL    HW119043   4.444   6.599   5.038
 6048SOL    HW219044   4.513   6.587   4.891
 6049SOL     OW19045   6.215   4.585   0.134
 6049SOL    HW119046   6.158   4.640   0.195
 6049SOL    HW219047   6.213   4.489   0.162
 6050SOL     OW19048   4.444   4.947   5.478
 6050SOL    HW119049   4.542   4.956   5.493
 6050SOL    HW219050   4.394   4.982   5.558
 6051SOL     OW19051   1.552   1.905   2.687
 6051SOL    HW119052   1.549   1.992   2.737
 6051SOL    HW219053   1.586   1.921   2.594
 6052SOL     OW19054   0.124   1.108   0.915
 6052SOL    HW119055   0.074   1.155   0.987
 6052SOL    HW219056   0.143   1.172   0.840
 6053SOL     OW19057   1.782   6.462   6.862
 6053SOL    HW119058   1.819   6.450   6.954
 6053SOL    HW219059   1.850   6.508   6.805
 6054SOL     OW19060   2.307   4.219   0.442
 6054SOL    HW119061   2.313   4.119   0.444
 6054SOL    HW219062   2.276   4.249   0.352
 6055SOL     OW19063   4.830   0.786   4.830
 6055SOL    HW119064   4.851   0.789   4.928
 6055SOL    HW219065   4.818   0.879   4.795
 6056SOL     OW19066   4.721   1.965   6.689
 6056SOL    HW119067   4.703   2.016   6.774
 6056SOL    HW219068   4.706   2.025   6.611
 6057SOL     OW19069   3.059   1.016   4.961
 6057SOL    HW119070   3.074   0.988   4.866
 6057SOL    HW219071   3.119   1.092   4.984
 6058SOL     OW19072   5.870   2.088   3.916
 6058SOL    HW119073   5.851   2.145   3.836
 6058SOL    HW219074   5.784   2.058   3.956
 6059SOL     OW19075   6.009   5.042   6.882
 6059SOL    HW119076   5.973   4.952   6.908
 6059SOL    HW219077   5.951   5.113   6.921
 6060SOL     OW19078   4.179   5.438   5.699
 6060SOL    HW119079   4.094   5.385   5.705
 6060SOL    HW219080   4.253   5.378   5.668
 6061SOL     OW19081   2.932   1.714   6.264
 6061SOL    HW119082   3.030   1.702   6.248
 6061SOL    HW219083   2.886   1.625   6.260
 6062SOL     OW19084   1.901   0.292   4.535
 6062SOL    HW119085   1.908   0.347   4.452
 6062SOL    HW219086   1.872   0.350   4.611
 6063SOL     OW19087   4.061   0.561   6.296
 6063SOL    HW119088   4.127   0.636   6.301
 6063SOL    HW219089   4.085   0.501   6.220
 6064SOL     OW19090   1.556   5.550   3.529
 6064SOL    HW119091   1.474   5.578   3.479
 6064SOL    HW219092   1.601   5.476   3.480
 6065SOL     OW19093   0.091   0.216   0.532
 6065SOL    HW119094   0.104   0.277   0.610
 6065SOL    HW219095   0.142   0.252   0.453
 6066SOL     OW19096   4.093   2.489   0.547
 6066SOL    HW119097   4.066   2.527   0.635
 6066SOL    HW219098   4.106   2.563   0.481
 6067SOL     OW19099   6.274   1.482   6.667
 6067SOL    HW119100   6.329   1.508   6.587
 6067SOL    HW219101   6.185   1.450   6.636
 6068SOL     OW19102   4.556   2.327   4.492
 6068SOL    HW119103   4.550   2.402   4.557
 6068SOL    HW219104   4.571   2.241   4.541
 6069SOL     OW19105   6.850   4.393   4.880
 6069SOL    HW119106   6.762   4.399   4.929
 6069SOL    HW219107   6.870   4.297   4.861
 6070SOL     OW19108   4.192   2.444   6.056
 6070SOL    HW119109   4.227   2.353   6.031
 6070SOL    HW219110   4.250   2.483   6.128
 6071SOL     OW19111   3.967   6.510   5.614
 6071SOL    HW119112   3.976   6.593   5.559
 6071SOL    HW219113   3.937   6.435   5.555
 6072SOL     OW19114   0.155   2.474   1.336
 6072SOL    HW119115   0.202   2.396   1.296
 6072SOL    HW219116   0.062   2.448   1.363
 6073SOL     OW19117   6.479   2.583   0.695
 6073SOL    HW119118   6.413   2.575   0.770
 6073SOL    HW219119   6.436   2.630   0.618
 6074SOL     OW19120   0.813   0.056   4.891
 6074SOL    HW119121   0.726   0.007   4.885
 6074SOL    HW219122   0.860   0.031   4.975
 6075SOL     OW19123   5.872   4.091   0.285
 6075SOL    HW119124   5.864   4.133   0.195
 6075SOL    HW219125   5.947   4.025   0.285
 6076SOL     OW19126   2.002   5.654   4.193
 6076SOL    HW119127   2.012   5.747   4.158
 6076SOL    HW219128   2.040   5.589   4.127
 6077SOL     OW19129   6.035   6.299   2.317
 6077SOL    HW119130   6.133   6.315   2.314
 6077SOL    HW219131   6.013   6.211   2.275
 6078SOL     OW19132   2.649   4.655   4.080
 6078SOL    HW119133   2.607   4.679   3.993
 6078SOL    HW219134   2.595   4.585   4.126
 6079SOL     OW19135   2.347   1.735   6.466
 6079SOL    HW119136   2.404   1.816   6.455
 6079SOL    HW219137   2.404   1.654   6.470
 6080SOL     OW19138   5.849   2.474   1.544
 6080SOL    HW119139   5.854   2.417   1.461
 6080SOL    HW219140   5.784   2.548   1.530
 6081SOL     OW19141   6.723   3.658   3.733
 6081SOL    HW119142   6.800   3.719   3.712
 6081SOL    HW219143   6.660   3.703   3.795
 6082SOL     OW19144   4.331   1.200   3.502
 6082SOL    HW119145   4.390   1.269   3.460
 6082SOL    HW219146   4.242   1.242   3.524
 6083SOL     OW19147   1.560   6.226   6.985
 6083SOL    HW119148   1.475   6.210   0.016
 6083SOL    HW219149   1.590   6.320   6.999
 6084SOL     OW19150   0.016   5.537   5.779
 6084SOL    HW119151   6.979   5.621   5.771
 6084SOL    HW219152   6.974   5.458   5.789
 6085SOL     OW19153   5.311   3.554   0.470
 6085SOL    HW119154   5.368   3.583   0.393
 6085SOL    HW219155   5.362   3.491   0.528
 6086SOL     OW19156   2.967   1.916   4.230
 6086SOL    HW119157   3.033   1.981   4.267
 6086SOL    HW219158   3.003   1.874   4.147
 6087SOL     OW19159   5.500   6.547   6.859
 6087SOL    HW119160   5.450   6.587   6.782
 6087SOL    HW219161   5.450   6.562   6.944
 6088SOL     OW19162   1.203   0.110   5.137
 6088SOL    HW119163   1.197   0.028   5.081
 6088SOL    HW219164   1.210   0.191   5.079
 6089SOL     OW19165   6.844   3.596   0.906
 6089SOL    HW119166   6.849   3.695   0.922
 6089SOL    HW219167   6.901   3.548   0.973
 6090SOL     OW19168   0.908   5.073   5.115
 6090SOL    HW119169   0.931   4.989   5.164
 6090SOL    HW219170   0.855   5.051   5.033
 6091SOL     OW19171   6.531   1.782   1.979
 6091SOL    HW119172   6.487   1.752   1.895
 6091SOL    HW219173   6.470   1.766   2.057
 6092SOL     OW19174   2.079   1.737   2.295
 6092SOL    HW119175   2.015   1.799   2.251
 6092SOL    HW219176   2.080   1.650   2.246
 6093SOL     OW19177   1.266   2.519   0.977
 6093SOL    HW119178   1.335   2.482   1.039
 6093SOL    HW219179   1.225   2.600   1.017
 6094SOL     OW19180   1.054   1.013   1.510
 6094SOL    HW119181   0.970   0.966   1.537
 6094SOL    HW219182   1.047   1.044   1.416
 6095SOL     OW19183   6.019   3.242   6.296
 6095SOL    HW119184   6.110   3.254   6.256
 6095SOL    HW219185   5.953   3.297   6.245
 6096SOL     OW19186   3.781   2.177   3.656
 6096SOL    HW119187   3.705   2.187   3.720
 6096SOL    HW219188   3.757   2.109   3.587
 6097SOL     OW19189   2.916   1.862   2.413
 6097SOL    HW119190   2.881   1.770   2.397
 6097SOL    HW219191   2.964   1.865   2.500
 6098SOL     OW19192   1.985   2.478   5.934
 6098SOL    HW119193   1.967   2.571   5.966
 6098SOL    HW219194   1.995   2.478   5.835
 6099SOL     OW19195   6.103   6.137   5.175
 6099SOL    HW119196   6.160   6.219   5.175
 6099SOL    HW219197   6.052   6.131   5.089
 6100SOL     OW19198   6.650   2.478   0.011
 6100SOL    HW119199   6.651   2.384   6.993
 6100SOL    HW219200   6.601   2.479   0.098
 6101SOL     OW19201   6.641   1.243   5.479
 6101SOL    HW119202   6.639   1.267   5.382
 6101SOL    HW219203   6.582   1.163   5.494
 6102SOL     OW19204   2.662   0.592   4.307
 6102SOL    HW119205   2.722   0.559   4.234
 6102SOL    HW219206   2.670   0.531   4.386
 6103SOL     OW19207   6.588   6.872   5.436
 6103SOL    HW119208   6.607   6.890   5.533
 6103SOL    HW219209   6.489   6.866   5.422
 6104SOL     OW19210   6.505   2.014   6.588
 6104SOL    HW119211   6.533   2.091   6.530
 6104SOL    HW219212   6.444   2.048   6.660
 6105SOL     OW19213   3.261   5.871   5.035
 6105SOL    HW119214   3.222   5.849   4.945
 6105SOL    HW219215   3.213   5.819   5.106
 6106SOL     OW19216   3.463   5.157   5.780
 6106SOL    HW119217   3.482   5.062   5.754
 6106SOL    HW219218   3.460   5.214   5.698
 6107SOL     OW19219   2.111   4.664   5.163
 6107SOL    HW119220   2.070   4.718   5.237
 6107SOL    HW219221   2.145   4.577   5.200
 6108SOL     OW19222   0.551   2.060   4.819
 6108SOL    HW119223   0.595   2.019   4.739
 6108SOL    HW219224   0.539   1.990   4.890
 6109SOL     OW19225   5.758   4.058   1.227
 6109SOL    HW119226   5.780   4.091   1.135
 6109SOL    HW219227   5.718   3.966   1.221
 6110SOL     OW19228   3.417   1.289   4.634
 6110SOL    HW119229   3.443   1.209   4.689
 6110SOL    HW219230   3.480   1.365   4.654
 6111SOL     OW19231   1.693   5.143   3.194
 6111SOL    HW119232   1.702   5.062   3.252
 6111SOL    HW219233   1.763   5.142   3.123
 6112SOL     OW19234   0.375   1.647   2.925
 6112SOL    HW119235   0.346   1.659   2.830
 6112SOL    HW219236   0.474   1.640   2.929
 6113SOL     OW19237   1.747   6.742   5.680
 6113SOL    HW119238   1.689   6.794   5.742
 6113SOL    HW219239   1.725   6.765   5.585
 6114SOL     OW19240   4.846   5.679   0.584
 6114SOL    HW119241   4.918   5.619   0.621
 6114SOL    HW219242   4.888   5.746   0.523
 6115SOL     OW19243   5.413   5.157   2.410
 6115SOL    HW119244   5.475   5.092   2.366
 6115SOL    HW219245   5.464   5.210   2.479
 6116SOL     OW19246   3.992   1.301   1.924
 6116SOL    HW119247   3.911   1.276   1.977
 6116SOL    HW219248   3.965   1.355   1.845
 6117SOL     OW19249   5.427   6.892   4.596
 6117SOL    HW119250   5.493   6.875   4.669
 6117SOL    HW219251   5.334   6.877   4.630
 6118SOL     OW19252   5.938   0.563   3.745
 6118SOL    HW119253   5.962   0.467   3.755
 6118SOL    HW219254   6.020   0.619   3.755
 6119SOL     OW19255   6.507   5.462   4.559
 6119SOL    HW119256   6.480   5.506   4.645
 6119SOL    HW219257   6.546   5.372   4.579
 6120SOL     OW19258   2.770   0.895   2.952
 6120SOL    HW119259   2.697   0.833   2.925
 6120SOL    HW219260   2.808   0.865   3.040
 6121SOL     OW19261   0.276   2.442   4.472
 6121SOL    HW119262   0.332   2.399   4.402
 6121SOL    HW219263   0.182   2.451   4.439
 6122SOL     OW19264   4.356   5.208   3.029
 6122SOL    HW119265   4.272   5.158   3.006
 6122SOL    HW219266   4.355   5.296   2.981
 6123SOL     OW19267   6.092   1.517   2.283
 6123SOL    HW119268   6.120   1.513   2.379
 6123SOL    HW219269   6.172   1.532   2.225
 6124SOL     OW19270   3.534   0.159   5.853
 6124SOL    HW119271   3.455   0.121   5.901
 6124SOL    HW219272   3.536   0.125   5.759
 6125SOL     OW19273   2.148   6.047   1.881
 6125SOL    HW119274   2.128   5.973   1.944
 6125SOL    HW219275   2.106   6.132   1.915
 6126SOL     OW19276   5.222   5.452   2.559
 6126SOL    HW119277   5.317   5.431   2.539
 6126SOL    HW219278   5.169   5.455   2.474
 6127SOL     OW19279   2.269   5.586   1.363
 6127SOL    HW119280   2.258   5.539   1.275
 6127SOL    HW219281   2.196   5.559   1.425
 6128SOL     OW19282   5.303   1.877   0.325
 6128SOL    HW119283   5.221   1.820   0.315
 6128SOL    HW219284   5.297   1.928   0.411
 6129SOL     OW19285   6.122   4.445   3.403
 6129SOL    HW119286   6.128   4.434   3.503
 6129SOL    HW219287   6.044   4.504   3.381
 6130SOL     OW19288   5.190   3.531   2.784
 6130SOL    HW119289   5.163   3.456   2.724
 6130SOL    HW219290   5.234   3.603   2.730
 6131SOL     OW19291   5.761   1.163   5.468
 6131SOL    HW119292   5.808   1.103   5.533
 6131SOL    HW219293   5.790   1.257   5.482
 6132SOL     OW19294   4.564   2.428   0.891
 6132SOL    HW119295   4.581   2.506   0.831
 6132SOL    HW219296   4.522   2.354   0.838
 6133SOL     OW19297   1.059   4.457   1.142
 6133SOL    HW119298   1.107   4.421   1.062
 6133SOL    HW219299   0.964   4.428   1.141
 6134SOL     OW19300   4.556   3.866   6.279
 6134SOL    HW119301   4.487   3.906   6.340
 6134SOL    HW219302   4.531   3.883   6.184
 6135SOL     OW19303   5.575   0.455   1.382
 6135SOL    HW119304   5.661   0.446   1.433
 6135SOL    HW219305   5.565   0.549   1.350
 6136SOL     OW19306   0.703   2.126   1.591
 6136SOL    HW119307   0.765   2.054   1.622
 6136SOL    HW219308   0.659   2.168   1.671
 6137SOL     OW19309   2.997   6.401   6.472
 6137SOL    HW119310   3.067   6.440   6.531
 6137SOL    HW219311   3.002   6.301   6.476
 6138SOL     OW19312   3.973   6.167   2.355
 6138SOL    HW119313   4.033   6.243   2.328
 6138SOL    HW219314   3.883   6.202   2.381
 6139SOL     OW19315   1.978   4.920   4.409
 6139SOL    HW119316   1.892   4.901   4.362
 6139SOL    HW219317   2.055   4.901   4.348
 6140SOL     OW19318   1.912   6.431   0.817
 6140SOL    HW119319   1.897   6.476   0.906
 6140SOL    HW219320   1.965   6.347   0.831
 6141SOL     OW19321   6.240   5.637   6.281
 6141SOL    HW119322   6.323   5.594   6.246
 6141SOL    HW219323   6.263   5.725   6.324
 6142SOL     OW19324   0.255   4.462   1.608
 6142SOL    HW119325   0.338   4.470   1.664
 6142SOL    HW219326   0.177   4.498   1.660
 6143SOL     OW19327   5.528   5.332   6.481
 6143SOL    HW119328   5.567   5.417   6.516
 6143SOL    HW219329   5.450   5.352   6.422
 6144SOL     OW19330   0.751   4.994   4.091
 6144SOL    HW119331   0.816   4.997   4.167
 6144SOL    HW219332   0.699   4.909   4.094
 6145SOL     OW19333   5.276   5.647   2.847
 6145SOL    HW119334   5.294   5.680   2.940
 6145SOL    HW219335   5.264   5.547   2.850
 6146SOL     OW19336   6.056   1.266   3.611
 6146SOL    HW119337   5.960   1.296   3.608
 6146SOL    HW219338   6.060   1.167   3.598
 6147SOL     OW19339   1.692   3.409   2.689
 6147SOL    HW119340   1.781   3.440   2.657
 6147SOL    HW219341   1.642   3.368   2.613
 6148SOL     OW19342   6.218   6.412   4.284
 6148SOL    HW119343   6.246   6.317   4.298
 6148SOL    HW219344   6.120   6.420   4.301
 6149SOL     OW19345   2.423   6.084   3.026
 6149SOL    HW119346   2.389   6.144   2.954
 6149SOL    HW219347   2.396   6.121   3.115
 6150SOL     OW19348   4.619   5.675   5.854
 6150SOL    HW119349   4.718   5.665   5.839
 6150SOL    HW219350   4.574   5.588   5.830
 6151SOL     OW19351   5.156   2.551   5.661
 6151SOL    HW119352   5.254   2.535   5.647
 6151SOL    HW219353   5.105   2.510   5.586
 6152SOL     OW19354   6.606   4.209   6.590
 6152SOL    HW119355   6.636   4.124   6.548
 6152SOL    HW219356   6.661   4.285   6.556
 6153SOL     OW19357   4.308   3.077   1.406
 6153SOL    HW119358   4.230   3.052   1.349
 6153SOL    HW219359   4.276   3.126   1.487
 6154SOL     OW19360   5.687   3.194   2.680
 6154SOL    HW119361   5.595   3.166   2.711
 6154SOL    HW219362   5.746   3.209   2.759
 6155SOL     OW19363   0.104   3.739   5.321
 6155SOL    HW119364   0.130   3.836   5.330
 6155SOL    HW219365   0.166   3.694   5.257
 6156SOL     OW19366   6.386   0.093   3.869
 6156SOL    HW119367   6.374   0.033   3.948
 6156SOL    HW219368   6.475   0.074   3.827
 6157SOL     OW19369   2.737   1.108   3.890
 6157SOL    HW119370   2.824   1.098   3.841
 6157SOL    HW219371   2.751   1.161   3.973
 6158SOL     OW19372   4.843   1.221   5.595
 6158SOL    HW119373   4.927   1.176   5.626
 6158SOL    HW219374   4.841   1.225   5.496
 6159SOL     OW19375   5.252   3.236   6.509
 6159SOL    HW119376   5.266   3.282   6.421
 6159SOL    HW219377   5.289   3.143   6.504
 6160SOL     OW19378   5.958   5.965   1.979
 6160SOL    HW119379   5.871   5.927   1.948
 6160SOL    HW219380   5.945   6.010   2.068
 6161SOL     OW19381   5.382   0.571   6.109
 6161SOL    HW119382   5.315   0.636   6.073
 6161SOL    HW219383   5.424   0.609   6.191
 6162SOL     OW19384   6.508   4.719   4.660
 6162SOL    HW119385   6.518   4.798   4.721
 6162SOL    HW219386   6.481   4.639   4.714
 6163SOL     OW19387   6.856   4.140   2.183
 6163SOL    HW119388   6.839   4.096   2.095
 6163SOL    HW219389   6.954   4.151   2.197
 6164SOL     OW19390   4.088   2.033   0.737
 6164SOL    HW119391   4.050   2.124   0.716
 6164SOL    HW219392   4.020   1.979   0.786
 6165SOL     OW19393   3.671   6.026   0.424
 6165SOL    HW119394   3.631   5.980   0.502
 6165SOL    HW219395   3.771   6.018   0.428
 6166SOL     OW19396   2.871   1.427   5.904
 6166SOL    HW119397   2.827   1.353   5.854
 6166SOL    HW219398   2.804   1.474   5.961
 6167SOL     OW19399   0.405   4.144   3.378
 6167SOL    HW119400   0.326   4.162   3.437
 6167SOL    HW219401   0.375   4.096   3.296
 6168SOL     OW19402   0.291   3.657   3.048
 6168SOL    HW119403   0.248   3.609   2.972
 6168SOL    HW219404   0.379   3.693   3.019
 6169SOL     OW19405   1.872   4.075   2.302
 6169SOL    HW119406   1.878   3.987   2.256
 6169SOL    HW219407   1.913   4.069   2.393
 6170SOL     OW19408   0.528   3.307   5.015
 6170SOL    HW119409   0.595   3.233   5.021
 6170SOL    HW219410   0.533   3.363   5.098
 6171SOL     OW19411   0.017   0.158   6.358
 6171SOL    HW119412   0.054   0.102   6.432
 6171SOL    HW219413   0.088   0.175   6.290
 6172SOL     OW19414   0.374   3.536   3.270
 6172SOL    HW119415   0.326   3.587   3.199
 6172SOL    HW219416   0.448   3.592   3.308
 6173SOL     OW19417   6.890   6.459   3.221
 6173SOL    HW119418   6.929   6.373   3.186
 6173SOL    HW219419   6.830   6.499   3.151
 6174SOL     OW19420   5.580   3.686   2.787
 6174SOL    HW119421   5.598   3.620   2.714
 6174SOL    HW219422   5.662   3.742   2.802
 6175SOL     OW19423   2.863   2.389   5.722
 6175SOL    HW119424   2.790   2.341   5.674
 6175SOL    HW219425   2.840   2.396   5.819
 6176SOL     OW19426   4.587   3.792   5.579
 6176SOL    HW119427   4.672   3.764   5.535
 6176SOL    HW219428   4.509   3.756   5.528
 6177SOL     OW19429   6.268   1.313   2.149
 6177SOL    HW119430   6.199   1.265   2.094
 6177SOL    HW219431   6.264   1.278   2.243
 6178SOL     OW19432   3.900   4.262   1.399
 6178SOL    HW119433   3.977   4.257   1.462
 6178SOL    HW219434   3.873   4.358   1.387
 6179SOL     OW19435   5.629   4.637   3.170
 6179SOL    HW119436   5.548   4.584   3.146
 6179SOL    HW219437   5.702   4.619   3.104
 6180SOL     OW19438   2.876   4.321   0.470
 6180SOL    HW119439   2.889   4.406   0.521
 6180SOL    HW219440   2.946   4.255   0.497
 6181SOL     OW19441   5.280   5.493   6.640
 6181SOL    HW119442   5.316   5.484   6.547
 6181SOL    HW219443   5.348   5.537   6.698
 6182SOL     OW19444   3.431   2.346   0.336
 6182SOL    HW119445   3.425   2.381   0.430
 6182SOL    HW219446   3.512   2.289   0.326
 6183SOL     OW19447   0.741   1.371   1.048
 6183SOL    HW119448   0.682   1.291   1.032
 6183SOL    HW219449   0.696   1.433   1.113
 6184SOL     OW19450   2.471   0.768   5.350
 6184SOL    HW119451   2.463   0.713   5.267
 6184SOL    HW219452   2.560   0.814   5.352
 6185SOL     OW19453   3.481   2.833   5.494
 6185SOL    HW119454   3.480   2.931   5.516
 6185SOL    HW219455   3.393   2.792   5.518
 6186SOL     OW19456   6.614   1.926   2.249
 6186SOL    HW119457   6.712   1.908   2.260
 6186SOL    HW219458   6.582   1.886   2.163
 6187SOL     OW19459   5.531   1.677   5.550
 6187SOL    HW119460   5.520   1.775   5.567
 6187SOL    HW219461   5.454   1.627   5.590
 6188SOL     OW19462   1.328   1.702   5.183
 6188SOL    HW119463   1.408   1.759   5.205
 6188SOL    HW219464   1.353   1.637   5.111
 6189SOL     OW19465   6.490   6.719   1.357
 6189SOL    HW119466   6.566   6.783   1.350
 6189SOL    HW219467   6.418   6.759   1.415
 6190SOL     OW19468   0.559   2.582   5.416
 6190SOL    HW119469   0.590   2.541   5.330
 6190SOL    HW219470   0.638   2.607   5.472
 6191SOL     OW19471   4.161   3.499   6.646
 6191SOL    HW119472   4.166   3.417   6.589
 6191SOL    HW219473   4.173   3.580   6.588
 6192SOL     OW19474   2.818   1.518   0.294
 6192SOL    HW119475   2.786   1.448   0.358
 6192SOL    HW219476   2.739   1.566   0.255
 6193SOL     OW19477   4.699   5.338   6.566
 6193SOL    HW119478   4.794   5.340   6.536
 6193SOL    HW219479   4.681   5.416   6.627
 6194SOL     OW19480   5.913   0.524   5.914
 6194SOL    HW119481   5.899   0.520   5.815
 6194SOL    HW219482   6.004   0.561   5.933
 6195SOL     OW19483   6.555   6.669   5.820
 6195SOL    HW119484   6.545   6.591   5.759
 6195SOL    HW219485   6.627   6.729   5.787
 6196SOL     OW19486   5.594   3.952   3.174
 6196SOL    HW119487   5.555   4.010   3.102
 6196SOL    HW219488   5.528   3.944   3.248
 6197SOL     OW19489   3.484   5.770   1.576
 6197SOL    HW119490   3.552   5.820   1.630
 6197SOL    HW219491   3.510   5.673   1.571
 6198SOL     OW19492   6.546   6.957   7.005
 6198SOL    HW119493   6.567   6.872   6.957
 6198SOL    HW219494   6.605   6.965   0.067
 6199SOL     OW19495   1.057   0.352   0.450
 6199SOL    HW119496   1.139   0.398   0.417
 6199SOL    HW219497   1.048   0.366   0.548
 6200SOL     OW19498   2.021   1.792   2.556
 6200SOL    HW119499   2.045   1.776   2.460
 6200SOL    HW219500   2.003   1.889   2.570
 6201SOL     OW19501   6.633   4.306   3.860
 6201SOL    HW119502   6.676   4.274   3.944
 6201SOL    HW219503   6.533   4.299   3.868
 6202SOL     OW19504   6.431   1.803   2.818
 6202SOL    HW119505   6.471   1.881   2.772
 6202SOL    HW219506   6.348   1.831   2.866
 6203SOL     OW19507   6.697   6.901   1.971
 6203SOL    HW119508   6.651   6.987   1.994
 6203SOL    HW219509   6.794   6.909   1.992
 6204SOL     OW19510   2.356   0.444   4.896
 6204SOL    HW119511   2.352   0.362   4.839
 6204SOL    HW219512   2.264   0.483   4.905
 6205SOL     OW19513   4.899   4.690   2.899
 6205SOL    HW119514   4.813   4.718   2.855
 6205SOL    HW219515   4.970   4.756   2.879
 6206SOL     OW19516   5.798   1.828   3.456
 6206SOL    HW119517   5.715   1.883   3.469
 6206SOL    HW219518   5.813   1.813   3.358
 6207SOL     OW19519   2.368   4.741   4.648
 6207SOL    HW119520   2.441   4.674   4.641
 6207SOL    HW219521   2.396   4.816   4.709
 6208SOL     OW19522   3.654   3.454   5.585
 6208SOL    HW119523   3.584   3.426   5.651
 6208SOL    HW219524   3.634   3.415   5.496
 6209SOL     OW19525   3.643   2.247   1.333
 6209SOL    HW119526   3.686   2.307   1.266
 6209SOL    HW219527   3.602   2.168   1.287
 6210SOL     OW19528   4.787   1.949   4.187
 6210SOL    HW119529   4.742   1.876   4.239
 6210SOL    HW219530   4.885   1.930   4.182
 6211SOL     OW19531   5.199   4.874   5.380
 6211SOL    HW119532   5.231   4.957   5.335
 6211SOL    HW219533   5.192   4.801   5.313
 6212SOL     OW19534   4.506   5.022   5.159
 6212SOL    HW119535   4.445   5.005   5.237
 6212SOL    HW219536   4.466   5.092   5.100
 6213SOL     OW19537   4.182   5.952   0.312
 6213SOL    HW119538   4.230   6.013   0.375
 6213SOL    HW219539   4.243   5.925   0.238
 6214SOL     OW19540   5.827   5.704   6.416
 6214SOL    HW119541   5.754   5.720   6.350
 6214SOL    HW219542   5.878   5.789   6.430
 6215SOL     OW19543   5.544   2.640   5.809
 6215SOL    HW119544   5.642   2.656   5.819
 6215SOL    HW219545   5.518   2.557   5.858
 6216SOL     OW19546   4.508   2.560   3.183
 6216SOL    HW119547   4.434   2.589   3.122
 6216SOL    HW219548   4.491   2.466   3.212
 6217SOL     OW19549   0.408   4.427   2.293
 6217SOL    HW119550   0.324   4.458   2.247
 6217SOL    HW219551   0.402   4.449   2.390
 6218SOL     OW19552   4.600   6.805   0.087
 6218SOL    HW119553   4.617   6.873   0.015
 6218SOL    HW219554   4.583   6.852   0.173
 6219SOL     OW19555   1.255   0.524   5.938
 6219SOL    HW119556   1.344   0.552   5.974
 6219SOL    HW219557   1.186   0.533   6.010
 6220SOL     OW19558   3.991   0.821   0.972
 6220SOL    HW119559   4.048   0.797   0.893
 6220SOL    HW219560   3.909   0.764   0.972
 6221SOL     OW19561   5.686   5.525   0.127
 6221SOL    HW119562   5.641   5.580   0.198
 6221SOL    HW219563   5.698   5.581   0.045
 6222SOL     OW19564   6.396   1.667   2.322
 6222SOL    HW119565   6.370   1.761   2.340
 6222SOL    HW219566   6.375   1.644   2.227
 6223SOL     OW19567   0.226   5.203   3.571
 6223SOL    HW119568   0.251   5.106   3.571
 6223SOL    HW219569   0.310   5.258   3.572
 6224SOL     OW19570   4.125   1.254   6.636
 6224SOL    HW119571   4.064   1.330   6.613
 6224SOL    HW219572   4.178   1.277   6.718
 6225SOL     OW19573   4.665   5.978   6.588
 6225SOL    HW119574   4.688   6.016   6.678
 6225SOL    HW219575   4.602   6.041   6.541
 6226SOL     OW19576   1.470   1.240   4.511
 6226SOL    HW119577   1.470   1.307   4.437
 6226SOL    HW219578   1.424   1.279   4.591
 6227SOL     OW19579   2.761   4.608   5.449
 6227SOL    HW119580   2.805   4.678   5.394
 6227SOL    HW219581   2.705   4.549   5.390
 6228SOL     OW19582   1.407   3.482   3.784
 6228SOL    HW119583   1.434   3.564   3.733
 6228SOL    HW219584   1.308   3.479   3.791
 6229SOL     OW19585   0.881   3.869   4.267
 6229SOL    HW119586   0.921   3.938   4.207
 6229SOL    HW219587   0.868   3.784   4.215
 6230SOL     OW19588   7.017   0.679   2.253
 6230SOL    HW119589   0.071   0.650   2.315
 6230SOL    HW219590   7.014   0.779   2.247
 6231SOL     OW19591   1.208   5.102   6.987
 6231SOL    HW119592   1.257   5.065   0.047
 6231SOL    HW219593   1.273   5.124   6.915
 6232SOL     OW19594   4.250   0.937   6.018
 6232SOL    HW119595   4.273   0.896   6.106
 6232SOL    HW219596   4.285   1.030   6.014
 6233SOL     OW19597   6.675   4.008   1.262
 6233SOL    HW119598   6.758   3.979   1.310
 6233SOL    HW219599   6.655   4.103   1.284
 6234SOL     OW19600   4.408   5.694   4.557
 6234SOL    HW119601   4.431   5.729   4.647
 6234SOL    HW219602   4.344   5.618   4.566
 6235SOL     OW19603   6.517   0.837   2.861
 6235SOL    HW119604   6.421   0.809   2.856
 6235SOL    HW219605   6.522   0.933   2.889
 6236SOL     OW19606   0.850   5.419   1.330
 6236SOL    HW119607   0.881   5.476   1.406
 6236SOL    HW219608   0.877   5.461   1.243
 6237SOL     OW19609   3.613   1.570   0.333
 6237SOL    HW119610   3.673   1.650   0.332
 6237SOL    HW219611   3.520   1.598   0.355
 6238SOL     OW19612   2.416   0.142   3.912
 6238SOL    HW119613   2.458   0.198   3.984
 6238SOL    HW219614   2.357   0.072   3.953
 6239SOL     OW19615   4.345   0.989   3.668
 6239SOL    HW119616   4.356   1.064   3.602
 6239SOL    HW219617   4.315   1.026   3.756
 6240SOL     OW19618   3.990   3.279   3.524
 6240SOL    HW119619   4.085   3.309   3.532
 6240SOL    HW219620   3.948   3.274   3.615
 6241SOL     OW19621   3.630   0.476   2.650
 6241SOL    HW119622   3.549   0.429   2.615
 6241SOL    HW219623   3.611   0.509   2.743
 6242SOL     OW19624   2.933   1.826   3.503
 6242SOL    HW119625   2.990   1.802   3.425
 6242SOL    HW219626   2.838   1.836   3.474
 6243SOL     OW19627   4.945   1.455   6.376
 6243SOL    HW119628   4.909   1.428   6.465
 6243SOL    HW219629   4.995   1.379   6.335
 6244SOL     OW19630   4.932   4.425   2.401
 6244SOL    HW119631   4.920   4.487   2.478
 6244SOL    HW219632   4.858   4.357   2.400
 6245SOL     OW19633   0.092   4.441   2.518
 6245SOL    HW119634   0.080   4.342   2.513
 6245SOL    HW219635   0.017   4.486   2.469
 6246SOL     OW19636   6.607   6.563   4.311
 6246SOL    HW119637   6.592   6.536   4.216
 6246SOL    HW219638   6.704   6.552   4.334
 6247SOL     OW19639   6.460   6.571   3.007
 6247SOL    HW119640   6.405   6.653   3.023
 6247SOL    HW219641   6.421   6.519   2.931
 6248SOL     OW19642   3.564   2.946   6.078
 6248SOL    HW119643   3.560   2.867   6.017
 6248SOL    HW219644   3.489   2.942   6.144
 6249SOL     OW19645   5.802   3.094   1.497
 6249SOL    HW119646   5.793   3.164   1.425
 6249SOL    HW219647   5.720   3.095   1.555
 6250SOL     OW19648   6.337   0.469   0.602
 6250SOL    HW119649   6.419   0.473   0.545
 6250SOL    HW219650   6.310   0.374   0.614
 6251SOL     OW19651   2.509   6.645   4.137
 6251SOL    HW119652   2.547   6.693   4.216
 6251SOL    HW219653   2.500   6.709   4.061
 6252SOL     OW19654   2.981   5.532   6.873
 6252SOL    HW119655   3.066   5.582   6.857
 6252SOL    HW219656   2.916   5.590   6.921
 6253SOL     OW19657   3.368   5.223   4.967
 6253SOL    HW119658   3.423   5.140   4.975
 6253SOL    HW219659   3.309   5.215   4.886
 6254SOL     OW19660   0.620   6.951   1.378
 6254SOL    HW119661   0.594   7.004   1.297
 6254SOL    HW219662   0.542   6.895   1.406
 6255SOL     OW19663   0.329   1.709   1.952
 6255SOL    HW119664   0.319   1.797   1.907
 6255SOL    HW219665   0.295   1.715   2.046
 6256SOL     OW19666   5.151   5.939   2.428
 6256SOL    HW119667   5.182   5.898   2.514
 6256SOL    HW219668   5.063   5.983   2.442
 6257SOL     OW19669   3.220   3.919   1.297
 6257SOL    HW119670   3.174   4.008   1.289
 6257SOL    HW219671   3.286   3.910   1.223
 6258SOL     OW19672   3.782   4.947   4.843
 6258SOL    HW119673   3.758   5.009   4.768
 6258SOL    HW219674   3.874   4.912   4.830
 6259SOL     OW19675   3.341   0.393   4.212
 6259SOL    HW119676   3.301   0.483   4.192
 6259SOL    HW219677   3.269   0.331   4.243
 6260SOL     OW19678   1.574   1.891   0.261
 6260SOL    HW119679   1.499   1.826   0.249
 6260SOL    HW219680   1.596   1.934   0.174
 6261SOL     OW19681   3.394   0.488   0.843
 6261SOL    HW119682   3.314   0.463   0.898
 6261SOL    HW219683   3.464   0.418   0.853
 6262SOL     OW19684   5.632   0.380   2.513
 6262SOL    HW119685   5.564   0.441   2.552
 6262SOL    HW219686   5.586   0.302   2.470
 6263SOL     OW19687   6.224   5.911   5.950
 6263SOL    HW119688   6.175   5.929   6.035
 6263SOL    HW219689   6.287   5.986   5.931
 6264SOL     OW19690   2.171   0.350   0.204
 6264SOL    HW119691   2.212   0.264   0.174
 6264SOL    HW219692   2.078   0.333   0.235
 6265SOL     OW19693   4.957   0.591   6.599
 6265SOL    HW119694   4.953   0.510   6.541
 6265SOL    HW219695   4.874   0.645   6.588
 6266SOL     OW19696   2.634   5.106   2.989
 6266SOL    HW119697   2.575   5.083   3.067
 6266SOL    HW219698   2.617   5.042   2.914
 6267SOL     OW19699   2.426   6.369   4.625
 6267SOL    HW119700   2.421   6.307   4.704
 6267SOL    HW219701   2.446   6.317   4.543
 6268SOL     OW19702   3.099   1.375   1.122
 6268SOL    HW119703   3.157   1.430   1.181
 6268SOL    HW219704   3.086   1.284   1.164
 6269SOL     OW19705   6.169   4.970   0.376
 6269SOL    HW119706   6.101   5.019   0.323
 6269SOL    HW219707   6.239   5.034   0.409
 6270SOL     OW19708   2.213   5.779   0.656
 6270SOL    HW119709   2.224   5.843   0.732
 6270SOL    HW219710   2.149   5.816   0.590
 6271SOL     OW19711   5.976   3.254   5.914
 6271SOL    HW119712   5.934   3.204   5.839
 6271SOL    HW219713   6.053   3.309   5.879
 6272SOL     OW19714   0.251   6.739   0.748
 6272SOL    HW119715   0.224   6.828   0.711
 6272SOL    HW219716   0.350   6.728   0.741
 6273SOL     OW19717   0.713   6.602   1.316
 6273SOL    HW119718   0.749   6.651   1.236
 6273SOL    HW219719   0.727   6.659   1.398
 6274SOL     OW19720   3.175   5.369   3.324
 6274SOL    HW119721   3.233   5.351   3.244
 6274SOL    HW219722   3.143   5.282   3.362
 6275SOL     OW19723   1.984   5.478   6.969
 6275SOL    HW119724   2.043   5.401   6.944
 6275SOL    HW219725   1.993   5.497   0.048
 6276SOL     OW19726   1.940   5.414   2.890
 6276SOL    HW119727   1.909   5.506   2.914
 6276SOL    HW219728   2.037   5.405   2.909
 6277SOL     OW19729   5.191   3.495   1.204
 6277SOL    HW119730   5.152   3.440   1.278
 6277SOL    HW219731   5.140   3.581   1.197
 6278SOL     OW19732   2.826   1.256   6.679
 6278SOL    HW119733   2.751   1.320   6.698
 6278SOL    HW219734   2.820   1.225   6.584
 6279SOL     OW19735   2.626   0.035   1.831
 6279SOL    HW119736   2.569   6.980   1.869
 6279SOL    HW219737   2.684   7.016   1.759
 6280SOL     OW19738   6.262   2.520   0.215
 6280SOL    HW119739   6.213   2.459   0.278
 6280SOL    HW219740   6.288   2.469   0.133
 6281SOL     OW19741   5.540   3.732   6.350
 6281SOL    HW119742   5.553   3.639   6.385
 6281SOL    HW219743   5.477   3.782   6.409
 6282SOL     OW19744   0.181   3.401   6.424
 6282SOL    HW119745   0.119   3.426   6.349
 6282SOL    HW219746   0.161   3.457   6.504
 6283SOL     OW19747   1.321   6.191   5.110
 6283SOL    HW119748   1.364   6.171   5.022
 6283SOL    HW219749   1.310   6.290   5.121
 6284SOL     OW19750   1.590   4.291   6.064
 6284SOL    HW119751   1.646   4.360   6.018
 6284SOL    HW219752   1.494   4.305   6.041
 6285SOL     OW19753   1.134   3.807   2.890
 6285SOL    HW119754   1.146   3.818   2.989
 6285SOL    HW219755   1.216   3.767   2.851
 6286SOL     OW19756   0.781   2.418   0.357
 6286SOL    HW119757   0.727   2.407   0.441
 6286SOL    HW219758   0.776   2.335   0.303
 6287SOL     OW19759   5.009   4.761   4.912
 6287SOL    HW119760   4.982   4.782   4.818
 6287SOL    HW219761   5.049   4.669   4.916
 6288SOL     OW19762   3.291   3.220   6.268
 6288SOL    HW119763   3.249   3.189   6.353
 6288SOL    HW219764   3.358   3.291   6.287
 6289SOL     OW19765   2.668   4.714   5.764
 6289SOL    HW119766   2.691   4.790   5.702
 6289SOL    HW219767   2.740   4.645   5.759
 6290SOL     OW19768   5.655   5.856   4.321
 6290SOL    HW119769   5.642   5.932   4.258
 6290SOL    HW219770   5.583   5.788   4.307
 6291SOL     OW19771   3.969   3.482   2.668
 6291SOL    HW119772   3.892   3.419   2.654
 6291SOL    HW219773   3.936   3.567   2.708
 6292SOL     OW19774   1.568   3.498   4.577
 6292SOL    HW119775   1.619   3.567   4.527
 6292SOL    HW219776   1.496   3.542   4.631
 6293SOL     OW19777   3.338   1.151   6.599
 6293SOL    HW119778   3.247   1.192   6.599
 6293SOL    HW219779   3.342   1.079   6.531
 6294SOL     OW19780   1.734   1.689   2.853
 6294SOL    HW119781   1.695   1.597   2.856
 6294SOL    HW219782   1.662   1.755   2.836
 6295SOL     OW19783   5.410   3.542   5.943
 6295SOL    HW119784   5.431   3.499   6.031
 6295SOL    HW219785   5.311   3.541   5.929
 6296SOL     OW19786   1.010   2.824   0.568
 6296SOL    HW119787   1.080   2.842   0.498
 6296SOL    HW219788   0.990   2.909   0.617
 6297SOL     OW19789   5.718   1.130   4.177
 6297SOL    HW119790   5.811   1.094   4.182
 6297SOL    HW219791   5.710   1.194   4.101
 6298SOL     OW19792   6.565   5.946   0.593
 6298SOL    HW119793   6.642   6.009   0.602
 6298SOL    HW219794   6.575   5.871   0.658
 6299SOL     OW19795   4.068   1.152   2.963
 6299SOL    HW119796   4.053   1.228   2.901
 6299SOL    HW219797   3.997   1.082   2.948
 6300SOL     OW19798   2.244   0.889   6.177
 6300SOL    HW119799   2.270   0.962   6.240
 6300SOL    HW219800   2.315   0.818   6.179
 6301SOL     OW19801   3.949   6.534   0.082
 6301SOL    HW119802   3.904   6.469   0.021
 6301SOL    HW219803   4.048   6.530   0.070
 6302SOL     OW19804   2.932   2.264   6.482
 6302SOL    HW119805   2.929   2.194   6.411
 6302SOL    HW219806   2.939   2.355   6.440
 6303SOL     OW19807   0.691   6.123   4.869
 6303SOL    HW119808   0.753   6.182   4.920
 6303SOL    HW219809   0.656   6.052   4.930
 6304SOL     OW19810   3.876   1.085   4.018
 6304SOL    HW119811   3.829   1.134   3.945
 6304SOL    HW219812   3.943   1.147   4.061
 6305SOL     OW19813   0.639   5.977   6.358
 6305SOL    HW119814   0.621   5.879   6.363
 6305SOL    HW219815   0.737   5.993   6.347
 6306SOL     OW19816   6.978   5.405   4.157
 6306SOL    HW119817   6.950   5.440   4.246
 6306SOL    HW219818   0.028   5.333   4.169
 6307SOL     OW19819   3.895   2.945   2.169
 6307SOL    HW119820   3.923   2.938   2.265
 6307SOL    HW219821   3.896   3.042   2.142
 6308SOL     OW19822   0.254   2.600   0.727
 6308SOL    HW119823   0.291   2.559   0.811
 6308SOL    HW219824   0.309   2.571   0.649
 6309SOL     OW19825   2.335   6.032   4.517
 6309SOL    HW119826   2.421   6.061   4.474
 6309SOL    HW219827   2.353   6.006   4.612
 6310SOL     OW19828   1.831   0.025   2.781
 6310SOL    HW119829   1.751   0.027   2.721
 6310SOL    HW219830   1.881   0.112   2.773
 6311SOL     OW19831   5.603   0.897   6.281
 6311SOL    HW119832   5.627   0.972   6.219
 6311SOL    HW219833   5.681   0.875   6.339
 6312SOL     OW19834   3.663   5.731   6.507
 6312SOL    HW119835   3.750   5.753   6.550
 6312SOL    HW219836   3.672   5.738   6.407
 6313SOL     OW19837   5.313   5.245   4.770
 6313SOL    HW119838   5.283   5.163   4.819
 6313SOL    HW219839   5.257   5.323   4.799
 6314SOL     OW19840   1.837   0.011   2.089
 6314SOL    HW119841   1.739   0.014   2.067
 6314SOL    HW219842   1.876   0.103   2.081
 6315SOL     OW19843   2.221   2.425   4.695
 6315SOL    HW119844   2.130   2.422   4.655
 6315SOL    HW219845   2.265   2.512   4.671
 6316SOL     OW19846   4.555   1.119   4.488
 6316SOL    HW119847   4.569   1.194   4.552
 6316SOL    HW219848   4.538   1.035   4.539
 6317SOL     OW19849   5.561   4.747   1.548
 6317SOL    HW119850   5.577   4.704   1.638
 6317SOL    HW219851   5.643   4.736   1.492
 6318SOL     OW19852   6.583   6.734   0.500
 6318SOL    HW119853   6.511   6.732   0.431
 6318SOL    HW219854   6.657   6.672   0.474
 6319SOL     OW19855   5.176   0.948   4.118
 6319SOL    HW119856   5.079   0.923   4.120
 6319SOL    HW219857   5.213   0.931   4.027
 6320SOL     OW19858   6.061   1.308   5.820
 6320SOL    HW119859   6.131   1.372   5.786
 6320SOL    HW219860   6.098   1.256   5.896
 6321SOL     OW19861   6.292   2.486   6.634
 6321SOL    HW119862   6.386   2.455   6.647
 6321SOL    HW219863   6.291   2.584   6.615
 6322SOL     OW19864   1.224   1.405   2.226
 6322SOL    HW119865   1.209   1.370   2.318
 6322SOL    HW219866   1.137   1.416   2.179
 6323SOL     OW19867   2.424   4.584   1.269
 6323SOL    HW119868   2.410   4.541   1.358
 6323SOL    HW219869   2.495   4.654   1.276
 6324SOL     OW19870   4.553   1.721   1.415
 6324SOL    HW119871   4.610   1.693   1.338
 6324SOL    HW219872   4.611   1.749   1.491
 6325SOL     OW19873   1.599   3.136   4.207
 6325SOL    HW119874   1.597   3.231   4.174
 6325SOL    HW219875   1.685   3.093   4.178
 6326SOL     OW19876   5.257   4.903   6.117
 6326SOL    HW119877   5.299   4.860   6.198
 6326SOL    HW219878   5.268   4.843   6.038
 6327SOL     OW19879   0.262   0.502   3.996
 6327SOL    HW119880   0.165   0.479   4.003
 6327SOL    HW219881   0.313   0.422   3.965
 6328SOL     OW19882   4.475   3.431   5.316
 6328SOL    HW119883   4.538   3.486   5.262
 6328SOL    HW219884   4.381   3.464   5.302
 6329SOL     OW19885   0.719   2.919   6.098
 6329SOL    HW119886   0.755   2.839   6.147
 6329SOL    HW219887   0.638   2.953   6.145
 6330SOL     OW19888   5.604   1.526   3.272
 6330SOL    HW119889   5.699   1.542   3.299
 6330SOL    HW219890   5.554   1.613   3.271
 6331SOL     OW19891   0.816   3.157   3.988
 6331SOL    HW119892   0.840   3.178   3.893
 6331SOL    HW219893   0.763   3.072   3.991
 6332SOL     OW19894   3.170   1.587   0.311
 6332SOL    HW119895   3.081   1.543   0.302
 6332SOL    HW219896   3.193   1.633   0.226
 6333SOL     OW19897   5.484   1.648   0.650
 6333SOL    HW119898   5.429   1.621   0.571
 6333SOL    HW219899   5.519   1.566   0.696
 6334SOL     OW19900   1.422   1.551   2.115
 6334SOL    HW119901   1.386   1.627   2.061
 6334SOL    HW219902   1.348   1.490   2.142
 6335SOL     OW19903   6.409   1.847   0.040
 6335SOL    HW119904   6.399   1.810   0.133
 6335SOL    HW219905   6.374   1.780   6.992
 6336SOL     OW19906   0.702   3.888   5.560
 6336SOL    HW119907   0.775   3.886   5.628
 6336SOL    HW219908   0.635   3.817   5.582
 6337SOL     OW19909   4.888   5.827   5.424
 6337SOL    HW119910   4.956   5.755   5.410
 6337SOL    HW219911   4.829   5.802   5.501
 6338SOL     OW19912   2.086   1.297   3.105
 6338SOL    HW119913   2.099   1.378   3.047
 6338SOL    HW219914   2.028   1.322   3.182
 6339SOL     OW19915   0.504   4.960   3.357
 6339SOL    HW119916   0.427   4.979   3.417
 6339SOL    HW219917   0.504   5.025   3.280
 6340SOL     OW19918   2.670   4.071   0.481
 6340SOL    HW119919   2.711   4.070   0.573
 6340SOL    HW219920   2.686   3.984   0.436
 6341SOL     OW19921   0.299   5.354   2.897
 6341SOL    HW119922   0.210   5.365   2.852
 6341SOL    HW219923   0.284   5.319   2.990
 6342SOL     OW19924   2.104   0.834   1.123
 6342SOL    HW119925   2.090   0.933   1.122
 6342SOL    HW219926   2.196   0.814   1.157
 6343SOL     OW19927   0.959   5.202   0.907
 6343SOL    HW119928   0.959   5.107   0.936
 6343SOL    HW219929   0.869   5.226   0.869
 6344SOL     OW19930   6.763   0.975   4.123
 6344SOL    HW119931   6.678   1.006   4.165
 6344SOL    HW219932   6.827   1.052   4.116
 6345SOL     OW19933   5.777   3.024   1.828
 6345SOL    HW119934   5.798   2.927   1.841
 6345SOL    HW219935   5.717   3.055   1.901
 6346SOL     OW19936   0.016   4.617   5.613
 6346SOL    HW119937   6.951   4.664   5.642
 6346SOL    HW219938   0.092   4.645   5.672
 6347SOL     OW19939   1.987   1.872   3.104
 6347SOL    HW119940   1.966   1.969   3.090
 6347SOL    HW219941   2.016   1.832   3.017
 6348SOL     OW19942   0.776   2.005   6.063
 6348SOL    HW119943   0.771   1.954   5.978
 6348SOL    HW219944   0.807   2.099   6.043
 6349SOL     OW19945   6.945   0.855   0.177
 6349SOL    HW119946   6.916   0.946   0.147
 6349SOL    HW219947   0.024   0.857   0.201
 6350SOL     OW19948   0.955   5.352   1.937
 6350SOL    HW119949   1.010   5.283   1.982
 6350SOL    HW219950   1.011   5.434   1.920
 6351SOL     OW19951   5.524   3.181   1.947
 6351SOL    HW119952   5.508   3.085   1.968
 6351SOL    HW219953   5.515   3.236   2.030
 6352SOL     OW19954   3.086   0.827   4.026
 6352SOL    HW119955   3.160   0.862   3.968
 6352SOL    HW219956   3.017   0.783   3.969
 6353SOL     OW19957   3.624   6.681   5.766
 6353SOL    HW119958   3.631   6.609   5.835
 6353SOL    HW219959   3.678   6.760   5.794
 6354SOL     OW19960   4.957   5.560   1.136
 6354SOL    HW119961   4.873   5.510   1.157
 6354SOL    HW219962   4.972   5.559   1.038
 6355SOL     OW19963   2.659   4.557   0.875
 6355SOL    HW119964   2.671   4.616   0.795
 6355SOL    HW219965   2.621   4.469   0.846
 6356SOL     OW19966   6.317   5.242   6.290
 6356SOL    HW119967   6.340   5.323   6.343
 6356SOL    HW219968   6.350   5.160   6.338
 6357SOL     OW19969   5.678   1.419   1.840
 6357SOL    HW119970   5.731   1.484   1.785
 6357SOL    HW219971   5.671   1.453   1.934
 6358SOL     OW19972   1.390   2.006   5.692
 6358SOL    HW119973   1.441   2.044   5.769
 6358SOL    HW219974   1.303   1.969   5.724
 6359SOL     OW19975   5.396   6.710   0.707
 6359SOL    HW119976   5.416   6.626   0.757
 6359SOL    HW219977   5.481   6.759   0.689
 6360SOL     OW19978   0.430   1.853   2.457
 6360SOL    HW119979   0.506   1.832   2.396
 6360SOL    HW219980   0.415   1.952   2.458
 6361SOL     OW19981   0.129   0.532   6.539
 6361SOL    HW119982   0.139   0.585   6.455
 6361SOL    HW219983   0.058   0.572   6.596
 6362SOL     OW19984   1.164   5.588   0.533
 6362SOL    HW119985   1.124   5.567   0.444
 6362SOL    HW219986   1.091   5.599   0.601
 6363SOL     OW19987   2.463   4.439   3.024
 6363SOL    HW119988   2.508   4.410   2.940
 6363SOL    HW219989   2.416   4.361   3.064
 6364SOL     OW19990   2.425   2.663   4.298
 6364SOL    HW119991   2.380   2.748   4.328
 6364SOL    HW219992   2.466   2.617   4.376
 6365SOL     OW19993   5.221   6.659   2.808
 6365SOL    HW119994   5.177   6.636   2.721
 6365SOL    HW219995   5.255   6.576   2.851
 6366SOL     OW19996   6.216   0.376   5.004
 6366SOL    HW119997   6.270   0.307   5.052
 6366SOL    HW219998   6.254   0.467   5.020
 6367SOL     OW19999   1.612   1.784   2.166
 6367SOL    HW120000   1.708   1.786   2.138
 6367SOL    HW220001   1.565   1.708   2.119
 6368SOL     OW20002   4.889   3.254   4.765
 6368SOL    HW120003   4.967   3.192   4.752
 6368SOL    HW220004   4.834   3.221   4.842
 6369SOL     OW20005   4.324   5.151   0.126
 6369SOL    HW120006   4.248   5.204   0.088
 6369SOL    HW220007   4.321   5.158   0.226
 6370SOL     OW20008   5.398   3.840   4.461
 6370SOL    HW120009   5.428   3.780   4.387
 6370SOL    HW220010   5.453   3.822   4.543
 6371SOL     OW20011   5.480   3.888   0.947
 6371SOL    HW120012   5.393   3.930   0.971
 6371SOL    HW220013   5.492   3.891   0.848
 6372SOL     OW20014   6.771   1.439   2.269
 6372SOL    HW120015   6.725   1.446   2.180
 6372SOL    HW220016   6.732   1.507   2.331
 6373SOL     OW20017   4.926   4.420   1.671
 6373SOL    HW120018   4.860   4.444   1.742
 6373SOL    HW220019   4.967   4.504   1.635
 6374SOL     OW20020   4.296   3.781   6.630
 6374SOL    HW120021   4.363   3.719   6.589
 6374SOL    HW220022   4.278   3.857   6.567
 6375SOL     OW20023   5.371   2.218   2.015
 6375SOL    HW120024   5.347   2.135   1.963
 6375SOL    HW220025   5.292   2.247   2.069
 6376SOL     OW20026   3.302   0.879   0.019
 6376SOL    HW120027   3.292   0.856   0.116
 6376SOL    HW220028   3.324   0.797   6.986
 6377SOL     OW20029   0.260   0.336   0.343
 6377SOL    HW120030   0.212   0.292   0.267
 6377SOL    HW220031   0.355   0.306   0.345
 6378SOL     OW20032   5.184   4.881   1.840
 6378SOL    HW120033   5.238   4.855   1.760
 6378SOL    HW220034   5.097   4.832   1.840
 6379SOL     OW20035   2.060   5.259   6.483
 6379SOL    HW120036   2.058   5.296   6.390
 6379SOL    HW220037   2.024   5.165   6.482
 6380SOL     OW20038   1.507   3.761   4.913
 6380SOL    HW120039   1.563   3.838   4.882
 6380SOL    HW220040   1.422   3.758   4.861
 6381SOL     OW20041   4.415   2.313   0.304
 6381SOL    HW120042   4.475   2.259   0.363
 6381SOL    HW220043   4.405   2.405   0.341
 6382SOL     OW20044   1.491   1.517   0.637
 6382SOL    HW120045   1.482   1.603   0.587
 6382SOL    HW220046   1.515   1.537   0.732
 6383SOL     OW20047   2.210   2.083   2.080
 6383SOL    HW120048   2.265   2.146   2.135
 6383SOL    HW220049   2.221   1.990   2.114
 6384SOL     OW20050   6.728   2.679   2.484
 6384SOL    HW120051   6.730   2.611   2.411
 6384SOL    HW220052   6.707   2.769   2.446
 6385SOL     OW20053   0.074   3.003   1.008
 6385SOL    HW120054   0.170   3.007   0.979
 6385SOL    HW220055   0.016   3.044   0.938
 6386SOL     OW20056   2.611   3.623   0.462
 6386SOL    HW120057   2.614   3.585   0.554
 6386SOL    HW220058   2.694   3.676   0.445
 6387SOL     OW20059   6.791   6.937   6.793
 6387SOL    HW120060   6.857   6.955   6.866
 6387SOL    HW220061   6.837   6.943   6.704
 6388SOL     OW20062   6.416   5.574   2.206
 6388SOL    HW120063   6.383   5.524   2.127
 6388SOL    HW220064   6.453   5.510   2.274
 6389SOL     OW20065   0.560   0.445   0.509
 6389SOL    HW120066   0.536   0.542   0.511
 6389SOL    HW220067   0.632   0.427   0.576
 6390SOL     OW20068   5.363   0.205   6.543
 6390SOL    HW120069   5.402   0.168   6.459
 6390SOL    HW220070   5.416   0.284   6.572
 6391SOL     OW20071   1.050   1.586   5.135
 6391SOL    HW120072   0.982   1.655   5.112
 6391SOL    HW220073   1.133   1.631   5.170
 6392SOL     OW20074   3.720   6.921   3.328
 6392SOL    HW120075   3.706   6.931   3.427
 6392SOL    HW220076   3.814   6.893   3.311
 6393SOL     OW20077   0.799   5.115   6.917
 6393SOL    HW120078   0.702   5.134   6.903
 6393SOL    HW220079   0.811   5.020   6.946
 6394SOL     OW20080   1.883   5.973   1.623
 6394SOL    HW120081   1.875   6.070   1.602
 6394SOL    HW220082   1.837   5.919   1.552
 6395SOL     OW20083   2.274   4.242   3.088
 6395SOL    HW120084   2.214   4.185   3.032
 6395SOL    HW220085   2.267   4.213   3.184
 6396SOL     OW20086   0.664   3.673   6.263
 6396SOL    HW120087   0.573   3.632   6.254
 6396SOL    HW220088   0.700   3.693   6.172
 6397SOL     OW20089   5.436   3.664   4.259
 6397SOL    HW120090   5.416   3.567   4.246
 6397SOL    HW220091   5.430   3.711   4.171
 6398SOL     OW20092   2.123   0.308   1.094
 6398SOL    HW120093   2.069   0.342   1.017
 6398SOL    HW220094   2.074   0.325   1.180
 6399SOL     OW20095   3.052   0.678   6.104
 6399SOL    HW120096   3.128   0.730   6.065
 6399SOL    HW220097   3.067   0.665   6.203
 6400SOL     OW20098   1.186   6.345   3.287
 6400SOL    HW120099   1.145   6.436   3.286
 6400SOL    HW220100   1.253   6.339   3.361
 6401SOL     OW20101   3.964   5.507   3.281
 6401SOL    HW120102   3.876   5.533   3.320
 6401SOL    HW220103   4.015   5.451   3.347
 6402SOL     OW20104   2.204   4.397   5.316
 6402SOL    HW120105   2.159   4.406   5.405
 6402SOL    HW220106   2.289   4.346   5.327
 6403SOL     OW20107   4.794   5.577   5.309
 6403SOL    HW120108   4.800   5.590   5.210
 6403SOL    HW220109   4.773   5.664   5.353
 6404SOL     OW20110   4.411   6.649   1.691
 6404SOL    HW120111   4.438   6.696   1.775
 6404SOL    HW220112   4.490   6.603   1.651
 6405SOL     OW20113   5.606   1.777   2.994
 6405SOL    HW120114   5.603   1.792   3.093
 6405SOL    HW220115   5.592   1.680   2.974
 6406SOL     OW20116   6.802   3.111   3.463
 6406SOL    HW120117   6.778   3.181   3.530
 6406SOL    HW220118   6.901   3.111   3.448
 6407SOL     OW20119   0.739   5.998   2.252
 6407SOL    HW120120   0.798   6.057   2.197
 6407SOL    HW220121   0.768   5.903   2.243
 6408SOL     OW20122   6.404   0.665   2.254
 6408SOL    HW120123   6.385   0.720   2.336
 6408SOL    HW220124   6.495   0.686   2.220
 6409SOL     OW20125   5.151   5.493   3.529
 6409SOL    HW120126   5.183   5.578   3.488
 6409SOL    HW220127   5.125   5.429   3.456
 6410SOL     OW20128   1.910   1.584   6.513
 6410SOL    HW120129   1.846   1.527   6.462
 6410SOL    HW220130   2.001   1.543   6.511
 6411SOL     OW20131   0.467   2.606   2.112
 6411SOL    HW120132   0.550   2.662   2.118
 6411SOL    HW220133   0.491   2.510   2.104
 6412SOL     OW20134   3.601   1.123   0.124
 6412SOL    HW120135   3.590   1.053   0.195
 6412SOL    HW220136   3.599   1.214   0.167
 6413SOL     OW20137   4.728   6.320   3.072
 6413SOL    HW120138   4.704   6.377   2.993
 6413SOL    HW220139   4.739   6.377   3.153
 6414SOL     OW20140   1.405   0.265   0.189
 6414SOL    HW120141   1.335   0.336   0.196
 6414SOL    HW220142   1.490   0.298   0.230
 6415SOL     OW20143   0.476   2.602   3.734
 6415SOL    HW120144   0.392   2.652   3.756
 6415SOL    HW220145   0.508   2.630   3.643
 6416SOL     OW20146   2.289   6.657   0.277
 6416SOL    HW120147   2.202   6.612   0.299
 6416SOL    HW220148   2.362   6.618   0.333
 6417SOL     OW20149   4.371   2.356   0.032
 6417SOL    HW120150   4.338   2.302   0.109
 6417SOL    HW220151   4.471   2.354   0.030
 6418SOL     OW20152   4.986   4.201   0.341
 6418SOL    HW120153   5.006   4.261   0.419
 6418SOL    HW220154   5.054   4.128   0.337
 6419SOL     OW20155   1.150   6.359   6.100
 6419SOL    HW120156   1.178   6.436   6.158
 6419SOL    HW220157   1.197   6.276   6.130
 6420SOL     OW20158   2.251   4.114   4.470
 6420SOL    HW120159   2.300   4.201   4.467
 6420SOL    HW220160   2.201   4.107   4.556
 6421SOL     OW20161   3.726   0.096   2.267
 6421SOL    HW120162   3.661   0.166   2.237
 6421SOL    HW220163   3.744   0.107   2.365
 6422SOL     OW20164   5.910   2.198   4.477
 6422SOL    HW120165   5.991   2.156   4.436
 6422SOL    HW220166   5.839   2.208   4.407
 6423SOL     OW20167   1.915   4.270   4.530
 6423SOL    HW120168   1.866   4.303   4.610
 6423SOL    HW220169   1.928   4.172   4.537
 6424SOL     OW20170   6.404   4.669   5.170
 6424SOL    HW120171   6.495   4.709   5.176
 6424SOL    HW220172   6.350   4.717   5.101
 6425SOL     OW20173   6.594   5.497   4.181
 6425SOL    HW120174   6.671   5.558   4.203
 6425SOL    HW220175   6.559   5.520   4.091
 6426SOL     OW20176   4.857   4.143   5.008
 6426SOL    HW120177   4.782   4.172   4.948
 6426SOL    HW220178   4.873   4.045   4.996
 6427SOL     OW20179   3.793   2.985   2.752
 6427SOL    HW120180   3.785   2.991   2.851
 6427SOL    HW220181   3.722   2.923   2.717
 6428SOL     OW20182   5.552   2.922   0.377
 6428SOL    HW120183   5.566   2.963   0.467
 6428SOL    HW220184   5.463   2.879   0.373
 6429SOL     OW20185   1.993   1.042   5.080
 6429SOL    HW120186   1.895   1.043   5.102
 6429SOL    HW220187   2.046   1.041   5.165
 6430SOL     OW20188   6.377   0.455   5.367
 6430SOL    HW120189   6.288   0.470   5.411
 6430SOL    HW220190   6.367   0.465   5.268
 6431SOL     OW20191   3.583   4.804   1.637
 6431SOL    HW120192   3.577   4.744   1.717
 6431SOL    HW220193   3.563   4.898   1.663
 6432SOL     OW20194   5.255   4.387   6.085
 6432SOL    HW120195   5.234   4.324   6.010
 6432SOL    HW220196   5.171   4.403   6.138
 6433SOL     OW20197   3.171   4.656   6.806
 6433SOL    HW120198   3.208   4.605   6.885
 6433SOL    HW220199   3.239   4.657   6.733
 6434SOL     OW20200   4.474   5.397   6.452
 6434SOL    HW120201   4.477   5.491   6.418
 6434SOL    HW220202   4.567   5.366   6.472
 6435SOL     OW20203   5.251   1.884   1.377
 6435SOL    HW120204   5.333   1.924   1.337
 6435SOL    HW220205   5.178   1.883   1.309
 6436SOL     OW20206   6.333   4.147   4.208
 6436SOL    HW120207   6.274   4.189   4.138
 6436SOL    HW220208   6.365   4.217   4.272
 6437SOL     OW20209   1.371   2.215   5.525
 6437SOL    HW120210   1.336   2.280   5.593
 6437SOL    HW220211   1.378   2.124   5.566
 6438SOL     OW20212   0.795   4.730   0.446
 6438SOL    HW120213   0.725   4.660   0.442
 6438SOL    HW220214   0.867   4.702   0.509
 6439SOL     OW20215   5.052   6.896   3.202
 6439SOL    HW120216   5.031   6.983   3.159
 6439SOL    HW220217   5.127   6.851   3.153
 6440SOL     OW20218   3.228   1.923   6.312
 6440SOL    HW120219   3.188   1.900   6.401
 6440SOL    HW220220   3.183   2.004   6.275
 6441SOL     OW20221   0.261   1.696   2.245
 6441SOL    HW120222   0.191   1.635   2.207
 6441SOL    HW220223   0.221   1.752   2.317
 6442SOL     OW20224   2.636   2.297   4.652
 6442SOL    HW120225   2.589   2.298   4.740
 6442SOL    HW220226   2.688   2.212   4.643
 6443SOL     OW20227   4.521   2.809   0.175
 6443SOL    HW120228   4.515   2.776   0.270
 6443SOL    HW220229   4.439   2.862   0.153
 6444SOL     OW20230   6.625   3.511   4.782
 6444SOL    HW120231   6.627   3.604   4.745
 6444SOL    HW220232   6.542   3.465   4.750
 6445SOL     OW20233   2.980   3.245   3.313
 6445SOL    HW120234   3.032   3.167   3.349
 6445SOL    HW220235   2.967   3.234   3.215
 6446SOL     OW20236   1.817   1.013   6.405
 6446SOL    HW120237   1.770   1.087   6.356
 6446SOL    HW220238   1.845   1.045   6.495
 6447SOL     OW20239   5.858   3.596   1.551
 6447SOL    HW120240   5.784   3.562   1.492
 6447SOL    HW220241   5.897   3.519   1.601
 6448SOL     OW20242   3.169   5.317   1.480
 6448SOL    HW120243   3.089   5.358   1.436
 6448SOL    HW220244   3.214   5.385   1.537
 6449SOL     OW20245   2.594   5.786   1.016
 6449SOL    HW120246   2.549   5.856   0.961
 6449SOL    HW220247   2.529   5.748   1.082
 6450SOL     OW20248   0.745   4.508   0.799
 6450SOL    HW120249   0.717   4.536   0.891
 6450SOL    HW220250   0.792   4.583   0.754
 6451SOL     OW20251   4.803   2.400   1.293
 6451SOL    HW120252   4.864   2.331   1.332
 6451SOL    HW220253   4.804   2.482   1.350
 6452SOL     OW20254   4.731   1.885   3.596
 6452SOL    HW120255   4.773   1.798   3.570
 6452SOL    HW220256   4.634   1.883   3.572
 6453SOL     OW20257   2.582   0.630   1.702
 6453SOL    HW120258   2.620   0.627   1.794
 6453SOL    HW220259   2.577   0.725   1.671
 6454SOL     OW20260   5.122   2.514   3.468
 6454SOL    HW120261   5.027   2.501   3.440
 6454SOL    HW220262   5.172   2.563   3.396
 6455SOL     OW20263   6.523   3.637   3.549
 6455SOL    HW120264   6.594   3.633   3.619
 6455SOL    HW220265   6.435   3.614   3.589
 6456SOL     OW20266   5.958   1.210   2.855
 6456SOL    HW120267   5.866   1.196   2.819
 6456SOL    HW220268   5.999   1.122   2.876
 6457SOL     OW20269   3.476   6.973   1.782
 6457SOL    HW120270   3.494   6.968   1.880
 6457SOL    HW220271   3.400   0.018   1.765
 6458SOL     OW20272   6.700   5.538   3.726
 6458SOL    HW120273   6.610   5.497   3.739
 6458SOL    HW220274   6.739   5.561   3.815
 6459SOL     OW20275   6.827   3.129   2.911
 6459SOL    HW120276   6.807   3.047   2.858
 6459SOL    HW220277   6.839   3.105   3.007
 6460SOL     OW20278   0.533   5.741   6.413
 6460SOL    HW120279   0.558   5.672   6.345
 6460SOL    HW220280   0.546   5.704   6.505
 6461SOL     OW20281   1.256   5.586   1.172
 6461SOL    HW120282   1.321   5.623   1.105
 6461SOL    HW220283   1.187   5.531   1.125
 6462SOL     OW20284   1.983   3.924   5.698
 6462SOL    HW120285   1.917   3.964   5.761
 6462SOL    HW220286   2.042   3.861   5.747
 6463SOL     OW20287   4.917   1.950   1.409
 6463SOL    HW120288   4.968   1.921   1.490
 6463SOL    HW220289   4.963   1.915   1.327
 6464SOL     OW20290   0.905   4.446   3.661
 6464SOL    HW120291   0.909   4.355   3.620
 6464SOL    HW220292   0.972   4.453   3.735
 6465SOL     OW20293   3.656   1.572   3.712
 6465SOL    HW120294   3.637   1.547   3.807
 6465SOL    HW220295   3.582   1.539   3.654
 6466SOL     OW20296   6.924   3.982   0.258
 6466SOL    HW120297   6.873   4.019   0.335
 6466SOL    HW220298   6.869   3.990   0.175
 6467SOL     OW20299   2.560   3.150   0.555
 6467SOL    HW120300   2.524   3.087   0.486
 6467SOL    HW220301   2.635   3.106   0.604
 6468SOL     OW20302   2.365   0.967   0.838
 6468SOL    HW120303   2.270   0.940   0.825
 6468SOL    HW220304   2.400   1.009   0.754
 6469SOL     OW20305   3.235   1.530   2.366
 6469SOL    HW120306   3.198   1.548   2.457
 6469SOL    HW220307   3.295   1.450   2.370
 6470SOL     OW20308   0.113   1.799   6.853
 6470SOL    HW120309   0.013   1.792   6.855
 6470SOL    HW220310   0.151   1.760   6.936
 6471SOL     OW20311   1.154   6.332   5.793
 6471SOL    HW120312   1.145   6.335   5.893
 6471SOL    HW220313   1.174   6.238   5.764
 6472SOL     OW20314   6.569   6.310   2.643
 6472SOL    HW120315   6.629   6.235   2.669
 6472SOL    HW220316   6.485   6.273   2.603
 6473SOL     OW20317   2.572   1.515   3.692
 6473SOL    HW120318   2.551   1.562   3.778
 6473SOL    HW220319   2.656   1.552   3.653
 6474SOL     OW20320   3.659   5.437   4.760
 6474SOL    HW120321   3.641   5.491   4.678
 6474SOL    HW220322   3.606   5.474   4.836
 6475SOL     OW20323   5.859   5.445   2.722
 6475SOL    HW120324   5.904   5.374   2.668
 6475SOL    HW220325   5.773   5.470   2.679
 6476SOL     OW20326   3.814   1.909   6.758
 6476SOL    HW120327   3.763   1.921   6.672
 6476SOL    HW220328   3.911   1.897   6.738
 6477SOL     OW20329   6.266   6.069   1.290
 6477SOL    HW120330   6.334   6.006   1.252
 6477SOL    HW220331   6.283   6.083   1.387
 6478SOL     OW20332   3.188   5.820   0.824
 6478SOL    HW120333   3.121   5.872   0.877
 6478SOL    HW220334   3.280   5.842   0.857
 6479SOL     OW20335   3.448   6.126   3.341
 6479SOL    HW120336   3.422   6.168   3.254
 6479SOL    HW220337   3.405   6.175   3.416
 6480SOL     OW20338   4.120   2.073   6.751
 6480SOL    HW120339   4.026   2.077   6.719
 6480SOL    HW220340   4.183   2.082   6.673
 6481SOL     OW20341   3.273   2.676   1.693
 6481SOL    HW120342   3.202   2.735   1.732
 6481SOL    HW220343   3.362   2.721   1.701
 6482SOL     OW20344   5.740   4.028   5.925
 6482SOL    HW120345   5.735   3.961   5.999
 6482SOL    HW220346   5.674   4.003   5.853
 6483SOL     OW20347   1.770   6.517   4.892
 6483SOL    HW120348   1.743   6.426   4.926
 6483SOL    HW220349   1.695   6.555   4.838
 6484SOL     OW20350   2.816   1.105   3.564
 6484SOL    HW120351   2.815   1.102   3.464
 6484SOL    HW220352   2.723   1.116   3.598
 6485SOL     OW20353   2.371   6.353   5.071
 6485SOL    HW120354   2.390   6.355   5.169
 6485SOL    HW220355   2.299   6.419   5.050
 6486SOL     OW20356   1.274   5.275   2.999
 6486SOL    HW120357   1.320   5.271   3.088
 6486SOL    HW220358   1.296   5.362   2.954
 6487SOL     OW20359   5.452   4.733   4.213
 6487SOL    HW120360   5.352   4.729   4.219
 6487SOL    HW220361   5.490   4.768   4.299
 6488SOL     OW20362   4.003   5.244   4.674
 6488SOL    HW120363   3.966   5.315   4.734
 6488SOL    HW220364   4.034   5.286   4.588
 6489SOL     OW20365   5.017   2.441   5.433
 6489SOL    HW120366   4.935   2.478   5.475
 6489SOL    HW220367   4.993   2.395   5.348
 6490SOL     OW20368   2.097   2.303   6.924
 6490SOL    HW120369   2.113   2.349   7.011
 6490SOL    HW220370   2.014   2.339   6.881
 6491SOL     OW20371   2.592   6.680   1.591
 6491SOL    HW120372   2.692   6.686   1.594
 6491SOL    HW220373   2.565   6.599   1.538
 6492SOL     OW20374   3.839   3.342   4.602
 6492SOL    HW120375   3.896   3.417   4.635
 6492SOL    HW220376   3.844   3.265   4.667
 6493SOL     OW20377   0.870   4.192   5.230
 6493SOL    HW120378   0.788   4.142   5.259
 6493SOL    HW220379   0.945   4.127   5.214
 6494SOL     OW20380   6.276   0.620   1.534
 6494SOL    HW120381   6.314   0.687   1.598
 6494SOL    HW220382   6.210   0.563   1.581
 6495SOL     OW20383   5.903   0.265   3.780
 6495SOL    HW120384   5.888   0.275   3.878
 6495SOL    HW220385   5.903   0.167   3.756
 6496SOL     OW20386   3.635   1.340   1.494
 6496SOL    HW120387   3.724   1.381   1.511
 6496SOL    HW220388   3.627   1.317   1.397
 6497SOL     OW20389   0.151   1.322   0.736
 6497SOL    HW120390   0.147   1.416   0.770
 6497SOL    HW220391   0.186   1.321   0.643
 6498SOL     OW20392   0.995   4.604   4.134
 6498SOL    HW120393   0.972   4.596   4.231
 6498SOL    HW220394   1.064   4.675   4.122
 6499SOL     OW20395   4.918   3.362   3.307
 6499SOL    HW120396   4.898   3.292   3.239
 6499SOL    HW220397   4.869   3.446   3.284
 6500SOL     OW20398   1.300   4.411   2.761
 6500SOL    HW120399   1.363   4.334   2.775
 6500SOL    HW220400   1.211   4.389   2.802
 6501SOL     OW20401   6.137   1.974   1.771
 6501SOL    HW120402   6.086   1.943   1.691
 6501SOL    HW220403   6.207   2.040   1.744
 6502SOL     OW20404   6.739   3.497   2.134
 6502SOL    HW120405   6.671   3.476   2.064
 6502SOL    HW220406   6.697   3.552   2.206
 6503SOL     OW20407   6.816   3.244   5.571
 6503SOL    HW120408   6.778   3.256   5.480
 6503SOL    HW220409   6.800   3.151   5.602
 6504SOL     OW20410   4.776   5.801   6.400
 6504SOL    HW120411   4.768   5.865   6.476
 6504SOL    HW220412   4.771   5.707   6.434
 6505SOL     OW20413   0.131   5.732   6.916
 6505SOL    HW120414   0.043   5.778   6.920
 6505SOL    HW220415   0.205   5.799   6.926
 6506SOL     OW20416   0.099   3.643   2.294
 6506SOL    HW120417   0.160   3.723   2.293
 6506SOL    HW220418   0.047   3.641   2.379
 6507SOL     OW20419   3.588   5.070   6.881
 6507SOL    HW120420   3.672   5.059   6.828
 6507SOL    HW220421   3.525   4.995   6.858
 6508SOL     OW20422   0.869   6.976   2.661
 6508SOL    HW120423   0.808   0.036   2.657
 6508SOL    HW220424   0.833   6.908   2.724
 6509SOL     OW20425   2.523   1.586   6.232
 6509SOL    HW120426   2.584   1.593   6.311
 6509SOL    HW220427   2.521   1.491   6.200
 6510SOL     OW20428   3.286   6.009   5.833
 6510SOL    HW120429   3.221   6.063   5.779
 6510SOL    HW220430   3.353   6.071   5.875
 6511SOL     OW20431   2.986   1.571   0.618
 6511SOL    HW120432   3.004   1.537   0.710
 6511SOL    HW220433   2.896   1.540   0.588
 6512SOL     OW20434   3.718   1.808   0.251
 6512SOL    HW120435   3.803   1.826   0.201
 6512SOL    HW220436   3.640   1.834   0.195
 6513SOL     OW20437   2.595   4.824   2.892
 6513SOL    HW120438   2.619   4.792   2.984
 6513SOL    HW220439   2.641   4.767   2.824
 6514SOL     OW20440   5.015   6.276   5.550
 6514SOL    HW120441   5.108   6.247   5.530
 6514SOL    HW220442   4.997   6.266   5.647
 6515SOL     OW20443   1.542   4.833   2.330
 6515SOL    HW120444   1.637   4.801   2.338
 6515SOL    HW220445   1.522   4.854   2.235
 6516SOL     OW20446   6.557   3.953   1.537
 6516SOL    HW120447   6.599   3.863   1.543
 6516SOL    HW220448   6.534   3.973   1.442
 6517SOL     OW20449   0.155   3.707   0.987
 6517SOL    HW120450   0.189   3.614   1.003
 6517SOL    HW220451   0.094   3.706   0.907
 6518SOL     OW20452   0.653   1.709   2.749
 6518SOL    HW120453   0.579   1.762   2.709
 6518SOL    HW220454   0.740   1.736   2.709
 6519SOL     OW20455   1.383   1.286   3.242
 6519SOL    HW120456   1.408   1.381   3.264
 6519SOL    HW220457   1.300   1.261   3.292
 6520SOL     OW20458   0.001   5.255   6.720
 6520SOL    HW120459   0.014   5.273   6.623
 6520SOL    HW220460   0.058   5.317   6.773
 6521SOL     OW20461   1.489   3.980   3.491
 6521SOL    HW120462   1.536   3.893   3.475
 6521SOL    HW220463   1.544   4.055   3.454
 6522SOL     OW20464   2.707   3.008   5.346
 6522SOL    HW120465   2.644   3.039   5.275
 6522SOL    HW220466   2.752   2.924   5.316
 6523SOL     OW20467   6.084   0.389   0.353
 6523SOL    HW120468   6.169   0.344   0.326
 6523SOL    HW220469   6.016   0.320   0.377
 6524SOL     OW20470   2.464   2.627   0.686
 6524SOL    HW120471   2.489   2.647   0.781
 6524SOL    HW220472   2.430   2.533   0.680
 6525SOL     OW20473   1.220   5.396   3.570
 6525SOL    HW120474   1.223   5.404   3.470
 6525SOL    HW220475   1.174   5.476   3.608
 6526SOL     OW20476   0.663   5.804   0.005
 6526SOL    HW120477   0.581   5.853   0.033
 6526SOL    HW220478   0.736   5.869   7.002
 6527SOL     OW20479   6.926   1.589   0.143
 6527SOL    HW120480   6.854   1.657   0.157
 6527SOL    HW220481   6.936   1.534   0.226
 6528SOL     OW20482   4.298   0.174   6.882
 6528SOL    HW120483   4.243   0.092   6.864
 6528SOL    HW220484   4.311   0.224   6.797
 6529SOL     OW20485   5.801   0.687   2.826
 6529SOL    HW120486   5.796   0.736   2.739
 6529SOL    HW220487   5.886   0.635   2.831
 6530SOL     OW20488   0.579   3.461   2.737
 6530SOL    HW120489   0.573   3.506   2.648
 6530SOL    HW220490   0.627   3.374   2.727
 6531SOL     OW20491   3.425   4.159   5.197
 6531SOL    HW120492   3.405   4.168   5.100
 6531SOL    HW220493   3.524   4.154   5.210
 6532SOL     OW20494   1.283   0.566   0.500
 6532SOL    HW120495   1.375   0.572   0.462
 6532SOL    HW220496   1.272   0.633   0.573
 6533SOL     OW20497   4.917   3.574   1.054
 6533SOL    HW120498   4.890   3.566   1.150
 6533SOL    HW220499   4.903   3.487   1.008
 6534SOL     OW20500   6.813   4.718   3.025
 6534SOL    HW120501   6.879   4.661   2.976
 6534SOL    HW220502   6.721   4.683   3.011
 6535SOL     OW20503   5.519   2.837   5.280
 6535SOL    HW120504   5.423   2.844   5.306
 6535SOL    HW220505   5.570   2.788   5.351
 6536SOL     OW20506   0.585   4.485   5.179
 6536SOL    HW120507   0.596   4.418   5.252
 6536SOL    HW220508   0.490   4.518   5.178
 6537SOL     OW20509   6.221   5.453   4.070
 6537SOL    HW120510   6.223   5.540   4.119
 6537SOL    HW220511   6.127   5.419   4.066
 6538SOL     OW20512   1.759   3.122   5.797
 6538SOL    HW120513   1.807   3.177   5.866
 6538SOL    HW220514   1.682   3.174   5.760
 6539SOL     OW20515   5.057   0.917   5.925
 6539SOL    HW120516   4.957   0.918   5.922
 6539SOL    HW220517   5.093   0.917   5.832
 6540SOL     OW20518   6.261   2.711   5.504
 6540SOL    HW120519   6.359   2.730   5.504
 6540SOL    HW220520   6.219   2.751   5.585
 6541SOL     OW20521   6.016   1.381   5.244
 6541SOL    HW120522   6.015   1.417   5.338
 6541SOL    HW220523   6.020   1.281   5.247
 6542SOL     OW20524   1.746   4.450   3.035
 6542SOL    HW120525   1.650   4.434   3.059
 6542SOL    HW220526   1.762   4.421   2.941
 6543SOL     OW20527   3.584   1.759   5.044
 6543SOL    HW120528   3.652   1.776   4.973
 6543SOL    HW220529   3.493   1.754   5.002
 6544SOL     OW20530   1.047   6.682   1.628
 6544SOL    HW120531   0.948   6.671   1.644
 6544SOL    HW220532   1.074   6.776   1.648
 6545SOL     OW20533   4.583   6.514   0.681
 6545SOL    HW120534   4.541   6.428   0.650
 6545SOL    HW220535   4.683   6.504   0.679
 6546SOL     OW20536   4.756   3.728   6.127
 6546SOL    HW120537   4.685   3.765   6.187
 6546SOL    HW220538   4.727   3.737   6.032
 6547SOL     OW20539   0.060   5.846   6.192
 6547SOL    HW120540   0.021   5.756   6.174
 6547SOL    HW220541   0.147   5.835   6.241
 6548SOL     OW20542   0.220   1.349   5.579
 6548SOL    HW120543   0.272   1.318   5.659
 6548SOL    HW220544   0.124   1.359   5.603
 6549SOL     OW20545   4.808   1.193   2.144
 6549SOL    HW120546   4.788   1.129   2.218
 6549SOL    HW220547   4.832   1.282   2.181
 6550SOL     OW20548   5.940   6.709   3.385
 6550SOL    HW120549   5.915   6.704   3.288
 6550SOL    HW220550   5.956   6.617   3.420
 6551SOL     OW20551   3.307   3.891   0.772
 6551SOL    HW120552   3.365   3.812   0.757
 6551SOL    HW220553   3.337   3.967   0.715
 6552SOL     OW20554   1.984   5.817   0.449
 6552SOL    HW120555   2.047   5.803   0.372
 6552SOL    HW220556   1.919   5.741   0.453
 6553SOL     OW20557   0.629   1.149   3.764
 6553SOL    HW120558   0.605   1.189   3.852
 6553SOL    HW220559   0.586   1.201   3.690
 6554SOL     OW20560   2.005   1.391   3.824
 6554SOL    HW120561   1.908   1.392   3.847
 6554SOL    HW220562   2.016   1.397   3.725
 6555SOL     OW20563   6.432   3.887   3.419
 6555SOL    HW120564   6.375   3.943   3.480
 6555SOL    HW220565   6.452   3.800   3.464
 6556SOL     OW20566   4.871   3.250   2.742
 6556SOL    HW120567   4.799   3.306   2.782
 6556SOL    HW220568   4.830   3.173   2.694
 6557SOL     OW20569   2.606   0.580   1.977
 6557SOL    HW120570   2.602   0.509   2.047
 6557SOL    HW220571   2.698   0.584   1.939
 6558SOL     OW20572   5.674   5.533   6.573
 6558SOL    HW120573   5.717   5.615   6.536
 6558SOL    HW220574   5.647   5.550   6.668
 6559SOL     OW20575   0.223   2.235   6.097
 6559SOL    HW120576   0.229   2.317   6.040
 6559SOL    HW220577   0.291   2.168   6.066
 6560SOL     OW20578   5.455   4.716   0.521
 6560SOL    HW120579   5.447   4.715   0.422
 6560SOL    HW220580   5.430   4.806   0.557
 6561SOL     OW20581   3.376   4.506   6.919
 6561SOL    HW120582   3.424   4.583   6.963
 6561SOL    HW220583   3.430   4.423   6.930
 6562SOL     OW20584   5.366   2.639   1.206
 6562SOL    HW120585   5.424   2.693   1.145
 6562SOL    HW220586   5.400   2.545   1.209
 6563SOL     OW20587   5.331   5.781   5.093
 6563SOL    HW120588   5.360   5.748   5.003
 6563SOL    HW220589   5.235   5.757   5.107
 6564SOL     OW20590   6.070   3.365   2.917
 6564SOL    HW120591   6.159   3.362   2.962
 6564SOL    HW220592   6.068   3.299   2.842
 6565SOL     OW20593   5.337   0.634   3.038
 6565SOL    HW120594   5.391   0.603   3.116
 6565SOL    HW220595   5.397   0.672   2.968
 6566SOL     OW20596   4.715   5.981   2.726
 6566SOL    HW120597   4.740   5.897   2.774
 6566SOL    HW220598   4.669   6.044   2.789
 6567SOL     OW20599   4.132   0.920   1.284
 6567SOL    HW120600   4.213   0.863   1.299
 6567SOL    HW220601   4.142   0.968   1.197
 6568SOL     OW20602   4.031   1.526   1.258
 6568SOL    HW120603   4.034   1.622   1.230
 6568SOL    HW220604   4.073   1.516   1.348
 6569SOL     OW20605   0.147   4.094   5.497
 6569SOL    HW120606   0.150   4.177   5.553
 6569SOL    HW220607   0.234   4.046   5.503
 6570SOL     OW20608   4.134   0.250   2.142
 6570SOL    HW120609   4.067   0.176   2.134
 6570SOL    HW220610   4.090   0.338   2.121
 6571SOL     OW20611   3.448   5.374   2.590
 6571SOL    HW120612   3.515   5.368   2.516
 6571SOL    HW220613   3.395   5.289   2.595
 6572SOL     OW20614   1.196   5.687   4.237
 6572SOL    HW120615   1.138   5.693   4.318
 6572SOL    HW220616   1.168   5.609   4.181
 6573SOL     OW20617   1.659   1.416   3.352
 6573SOL    HW120618   1.656   1.381   3.445
 6573SOL    HW220619   1.650   1.516   3.354
 6574SOL     OW20620   1.951   5.473   1.998
 6574SOL    HW120621   2.025   5.408   2.015
 6574SOL    HW220622   1.903   5.493   2.084
 6575SOL     OW20623   6.902   1.240   3.125
 6575SOL    HW120624   6.858   1.312   3.072
 6575SOL    HW220625   6.976   1.280   3.180
 6576SOL     OW20626   4.558   6.183   0.867
 6576SOL    HW120627   4.655   6.205   0.878
 6576SOL    HW220628   4.528   6.126   0.943
 6577SOL     OW20629   2.975   1.106   3.795
 6577SOL    HW120630   2.957   1.143   3.704
 6577SOL    HW220631   3.052   1.155   3.836
 6578SOL     OW20632   1.717   4.810   1.700
 6578SOL    HW120633   1.805   4.768   1.679
 6578SOL    HW220634   1.644   4.743   1.683
 6579SOL     OW20635   6.555   1.173   4.431
 6579SOL    HW120636   6.608   1.258   4.434
 6579SOL    HW220637   6.522   1.158   4.338
 6580SOL     OW20638   2.158   1.510   6.764
 6580SOL    HW120639   2.125   1.604   6.780
 6580SOL    HW220640   2.144   1.486   6.668
 6581SOL     OW20641   0.329   1.859   0.784
 6581SOL    HW120642   0.298   1.948   0.820
 6581SOL    HW220643   0.397   1.821   0.846
 6582SOL     OW20644   6.659   1.179   3.423
 6582SOL    HW120645   6.756   1.206   3.423
 6582SOL    HW220646   6.652   1.083   3.450
 6583SOL     OW20647   3.810   5.348   6.796
 6583SOL    HW120648   3.756   5.408   6.738
 6583SOL    HW220649   3.827   5.393   6.884
 6584SOL     OW20650   3.682   2.646   0.531
 6584SOL    HW120651   3.640   2.616   0.616
 6584SOL    HW220652   3.612   2.651   0.459
 6585SOL     OW20653   5.962   6.574   1.026
 6585SOL    HW120654   5.975   6.508   1.101
 6585SOL    HW220655   5.866   6.601   1.023
 6586SOL     OW20656   6.789   1.910   6.562
 6586SOL    HW120657   6.731   1.956   6.629
 6586SOL    HW220658   6.736   1.838   6.517
 6587SOL     OW20659   2.059   4.784   5.413
 6587SOL    HW120660   1.966   4.802   5.443
 6587SOL    HW220661   2.107   4.732   5.484
 6588SOL     OW20662   6.522   2.915   0.749
 6588SOL    HW120663   6.613   2.930   0.787
 6588SOL    HW220664   6.518   2.823   0.709
 6589SOL     OW20665   6.804   0.425   2.279
 6589SOL    HW120666   6.779   0.371   2.198
 6589SOL    HW220667   6.745   0.506   2.285
 6590SOL     OW20668   1.242   6.846   3.468
 6590SOL    HW120669   1.301   6.878   3.542
 6590SOL    HW220670   1.185   6.921   3.435
 6591SOL     OW20671   5.780   4.349   4.252
 6591SOL    HW120672   5.808   4.398   4.335
 6591SOL    HW220673   5.704   4.398   4.209
 6592SOL     OW20674   6.046   0.164   3.309
 6592SOL    HW120675   5.993   0.237   3.352
 6592SOL    HW220676   6.111   0.127   3.375
 6593SOL     OW20677   3.050   2.159   2.286
 6593SOL    HW120678   3.025   2.228   2.217
 6593SOL    HW220679   3.016   2.070   2.257
 6594SOL     OW20680   5.120   0.563   6.275
 6594SOL    HW120681   5.097   0.577   6.178
 6594SOL    HW220682   5.095   0.470   6.302
 6595SOL     OW20683   0.991   2.491   5.648
 6595SOL    HW120684   0.998   2.513   5.745
 6595SOL    HW220685   1.080   2.461   5.614
 6596SOL     OW20686   6.006   6.455   2.560
 6596SOL    HW120687   6.100   6.472   2.590
 6596SOL    HW220688   6.005   6.435   2.462
 6597SOL     OW20689   1.070   4.572   2.119
 6597SOL    HW120690   1.104   4.605   2.031
 6597SOL    HW220691   0.994   4.629   2.148
 6598SOL     OW20692   1.420   4.469   4.166
 6598SOL    HW120693   1.346   4.504   4.222
 6598SOL    HW220694   1.508   4.503   4.200
 6599SOL     OW20695   5.904   5.440   6.297
 6599SOL    HW120696   5.881   5.379   6.373
 6599SOL    HW220697   5.886   5.535   6.324
 6600SOL     OW20698   4.637   6.900   5.164
 6600SOL    HW120699   4.736   6.883   5.165
 6600SOL    HW220700   4.614   6.958   5.087
 6601SOL     OW20701   1.621   2.546   1.715
 6601SOL    HW120702   1.630   2.513   1.621
 6601SOL    HW220703   1.532   2.590   1.727
 6602SOL     OW20704   1.345   6.293   1.712
 6602SOL    HW120705   1.431   6.315   1.757
 6602SOL    HW220706   1.309   6.207   1.749
 6603SOL     OW20707   0.567   3.718   2.890
 6603SOL    HW120708   0.543   3.634   2.842
 6603SOL    HW220709   0.634   3.770   2.836
 6604SOL     OW20710   2.291   6.051   2.614
 6604SOL    HW120711   2.363   6.114   2.643
 6604SOL    HW220712   2.232   6.096   2.548
 6605SOL     OW20713   6.726   5.140   0.927
 6605SOL    HW120714   6.686   5.151   1.018
 6605SOL    HW220715   6.798   5.209   0.914
 6606SOL     OW20716   1.827   3.353   3.199
 6606SOL    HW120717   1.823   3.452   3.215
 6606SOL    HW220718   1.806   3.334   3.103
 6607SOL     OW20719   5.941   3.899   3.307
 6607SOL    HW120720   5.916   3.809   3.342
 6607SOL    HW220721   6.034   3.896   3.271
 6608SOL     OW20722   1.402   5.782   5.978
 6608SOL    HW120723   1.488   5.831   5.965
 6608SOL    HW220724   1.411   5.689   5.942
 6609SOL     OW20725   4.676   1.581   5.864
 6609SOL    HW120726   4.599   1.559   5.923
 6609SOL    HW220727   4.654   1.659   5.807
 6610SOL     OW20728   2.846   5.135   0.892
 6610SOL    HW120729   2.838   5.187   0.977
 6610SOL    HW220730   2.942   5.115   0.875
 6611SOL     OW20731   4.029   1.846   4.382
 6611SOL    HW120732   4.012   1.761   4.332
 6611SOL    HW220733   4.092   1.828   4.458
 6612SOL     OW20734   0.126   0.470   6.143
 6612SOL    HW120735   0.152   0.540   6.209
 6612SOL    HW220736   0.202   0.452   6.081
 6613SOL     OW20737   4.421   6.620   0.170
 6613SOL    HW120738   4.496   6.681   0.142
 6613SOL    HW220739   4.392   6.644   0.263
 6614SOL     OW20740   4.380   5.721   0.983
 6614SOL    HW120741   4.416   5.814   0.992
 6614SOL    HW220742   4.280   5.724   0.987
 6615SOL     OW20743   3.368   4.701   6.618
 6615SOL    HW120744   3.432   4.777   6.609
 6615SOL    HW220745   3.394   4.628   6.556
 6616SOL     OW20746   3.993   1.082   5.472
 6616SOL    HW120747   4.065   1.082   5.542
 6616SOL    HW220748   3.944   1.169   5.474
 6617SOL     OW20749   4.128   0.425   4.186
 6617SOL    HW120750   4.170   0.359   4.249
 6617SOL    HW220751   4.167   0.414   4.095
 6618SOL     OW20752   0.016   2.612   3.589
 6618SOL    HW120753   6.978   2.580   3.513
 6618SOL    HW220754   6.983   2.677   3.645
 6619SOL     OW20755   4.606   5.968   4.262
 6619SOL    HW120756   4.603   6.054   4.312
 6619SOL    HW220757   4.541   5.971   4.186
 6620SOL     OW20758   0.368   3.421   3.540
 6620SOL    HW120759   0.347   3.495   3.604
 6620SOL    HW220760   0.364   3.455   3.446
 6621SOL     OW20761   4.125   3.338   4.720
 6621SOL    HW120762   4.102   3.336   4.817
 6621SOL    HW220763   4.221   3.363   4.709
 6622SOL     OW20764   0.816   5.456   0.576
 6622SOL    HW120765   0.728   5.463   0.623
 6622SOL    HW220766   0.846   5.361   0.575
 6623SOL     OW20767   3.432   3.420   5.730
 6623SOL    HW120768   3.360   3.476   5.689
 6623SOL    HW220769   3.431   3.433   5.829
 6624SOL     OW20770   1.842   1.922   3.520
 6624SOL    HW120771   1.824   1.940   3.617
 6624SOL    HW220772   1.833   2.007   3.469
 6625SOL     OW20773   6.169   3.782   5.927
 6625SOL    HW120774   6.261   3.821   5.934
 6625SOL    HW220775   6.112   3.817   6.001
 6626SOL     OW20776   2.738   6.267   5.203
 6626SOL    HW120777   2.662   6.202   5.198
 6626SOL    HW220778   2.702   6.360   5.201
 6627SOL     OW20779   1.913   5.828   4.487
 6627SOL    HW120780   1.897   5.774   4.405
 6627SOL    HW220781   1.900   5.772   4.568
 6628SOL     OW20782   4.155   6.004   4.539
 6628SOL    HW120783   4.089   5.934   4.513
 6628SOL    HW220784   4.111   6.071   4.598
 6629SOL     OW20785   4.885   5.859   6.099
 6629SOL    HW120786   4.890   5.947   6.146
 6629SOL    HW220787   4.811   5.804   6.137
 6630SOL     OW20788   1.688   0.913   1.300
 6630SOL    HW120789   1.742   0.975   1.243
 6630SOL    HW220790   1.598   0.954   1.317
 6631SOL     OW20791   1.386   4.010   6.222
 6631SOL    HW120792   1.301   4.038   6.178
 6631SOL    HW220793   1.366   3.942   6.292
 6632SOL     OW20794   1.018   1.265   1.066
 6632SOL    HW120795   0.947   1.335   1.066
 6632SOL    HW220796   1.068   1.268   0.980
 6633SOL     OW20797   3.653   5.361   5.844
 6633SOL    HW120798   3.687   5.387   5.934
 6633SOL    HW220799   3.576   5.297   5.854
 6634SOL     OW20800   4.129   1.759   3.897
 6634SOL    HW120801   4.072   1.825   3.945
 6634SOL    HW220802   4.087   1.668   3.902
 6635SOL     OW20803   5.313   5.068   3.662
 6635SOL    HW120804   5.315   4.972   3.689
 6635SOL    HW220805   5.329   5.076   3.564
 6636SOL     OW20806   4.063   0.863   6.758
 6636SOL    HW120807   4.102   0.879   6.667
 6636SOL    HW220808   4.035   0.767   6.765
 6637SOL     OW20809   1.322   1.730   1.919
 6637SOL    HW120810   1.324   1.747   1.821
 6637SOL    HW220811   1.349   1.813   1.968
 6638SOL     OW20812   3.238   3.332   3.881
 6638SOL    HW120813   3.210   3.262   3.815
 6638SOL    HW220814   3.169   3.339   3.953
 6639SOL     OW20815   4.913   2.607   1.467
 6639SOL    HW120816   5.011   2.628   1.465
 6639SOL    HW220817   4.878   2.618   1.560
 6640SOL     OW20818   1.549   3.219   5.041
 6640SOL    HW120819   1.554   3.198   4.944
 6640SOL    HW220820   1.455   3.239   5.066
 6641SOL     OW20821   5.041   1.830   1.188
 6641SOL    HW120822   5.129   1.811   1.143
 6641SOL    HW220823   4.971   1.768   1.151
 6642SOL     OW20824   0.989   5.941   0.320
 6642SOL    HW120825   1.076   5.910   0.281
 6642SOL    HW220826   0.946   5.866   0.369
 6643SOL     OW20827   3.989   5.850   6.507
 6643SOL    HW120828   3.998   5.835   6.408
 6643SOL    HW220829   4.008   5.945   6.528
 6644SOL     OW20830   1.704   6.479   3.590
 6644SOL    HW120831   1.777   6.540   3.622
 6644SOL    HW220832   1.744   6.407   3.533
 6645SOL     OW20833   5.700   2.572   0.555
 6645SOL    HW120834   5.651   2.596   0.639
 6645SOL    HW220835   5.633   2.558   0.481
 6646SOL     OW20836   4.441   0.019   5.922
 6646SOL    HW120837   4.479   6.950   5.893
 6646SOL    HW220838   4.350   0.005   5.961
 6647SOL     OW20839   4.561   5.134   1.124
 6647SOL    HW120840   4.562   5.231   1.101
 6647SOL    HW220841   4.550   5.123   1.223
 6648SOL     OW20842   2.733   6.201   6.178
 6648SOL    HW120843   2.696   6.210   6.270
 6648SOL    HW220844   2.832   6.194   6.182
 6649SOL     OW20845   5.161   3.155   6.887
 6649SOL    HW120846   5.253   3.116   6.885
 6649SOL    HW220847   5.155   3.230   6.821
 6650SOL     OW20848   2.363   2.003   5.051
 6650SOL    HW120849   2.461   1.991   5.034
 6650SOL    HW220850   2.316   1.917   5.029
 6651SOL     OW20851   6.697   1.598   6.648
 6651SOL    HW120852   6.664   1.579   6.555
 6651SOL    HW220853   6.645   1.544   6.714
 6652SOL     OW20854   0.117   4.394   0.599
 6652SOL    HW120855   0.191   4.401   0.666
 6652SOL    HW220856   0.100   4.483   0.557
 6653SOL     OW20857   5.616   4.541   0.669
 6653SOL    HW120858   5.574   4.608   0.608
 6653SOL    HW220859   5.617   4.577   0.762
 6654SOL     OW20860   6.642   4.378   3.061
 6654SOL    HW120861   6.629   4.356   3.158
 6654SOL    HW220862   6.590   4.460   3.038
 6655SOL     OW20863   7.009   5.177   2.184
 6655SOL    HW120864   6.969   5.205   2.271
 6655SOL    HW220865   0.074   5.125   2.200
 6656SOL     OW20866   4.260   1.491   3.112
 6656SOL    HW120867   4.281   1.584   3.141
 6656SOL    HW220868   4.345   1.446   3.084
 6657SOL     OW20869   5.274   2.465   3.672
 6657SOL    HW120870   5.368   2.476   3.640
 6657SOL    HW220871   5.210   2.492   3.600
 6658SOL     OW20872   6.579   5.843   5.648
 6658SOL    HW120873   6.489   5.858   5.606
 6658SOL    HW220874   6.649   5.892   5.596
 6659SOL     OW20875   0.683   4.924   2.328
 6659SOL    HW120876   0.732   5.007   2.356
 6659SOL    HW220877   0.620   4.946   2.254
 6660SOL     OW20878   6.779   6.376   3.969
 6660SOL    HW120879   6.718   6.371   4.049
 6660SOL    HW220880   6.771   6.292   3.916
 6661SOL     OW20881   3.587   5.781   3.970
 6661SOL    HW120882   3.676   5.766   3.927
 6661SOL    HW220883   3.576   5.719   4.048
 6662SOL     OW20884   3.823   6.740   2.317
 6662SOL    HW120885   3.730   6.763   2.286
 6662SOL    HW220886   3.818   6.691   2.404
 6663SOL     OW20887   1.217   4.084   5.994
 6663SOL    HW120888   1.121   4.106   5.980
 6663SOL    HW220889   1.268   4.168   6.013
 6664SOL     OW20890   3.032   0.208   1.170
 6664SOL    HW120891   3.037   0.260   1.084
 6664SOL    HW220892   2.939   0.171   1.181
 6665SOL     OW20893   2.460   0.290   5.794
 6665SOL    HW120894   2.391   0.242   5.848
 6665SOL    HW220895   2.424   0.378   5.765
 6666SOL     OW20896   3.921   6.517   5.317
 6666SOL    HW120897   4.019   6.516   5.337
 6666SOL    HW220898   3.902   6.585   5.247
 6667SOL     OW20899   6.848   6.215   0.172
 6667SOL    HW120900   6.769   6.194   0.114
 6667SOL    HW220901   6.888   6.129   0.206
 6668SOL     OW20902   0.635   5.225   0.462
 6668SOL    HW120903   0.607   5.225   0.366
 6668SOL    HW220904   0.730   5.195   0.469
 6669SOL     OW20905   1.524   1.125   3.077
 6669SOL    HW120906   1.483   1.034   3.080
 6669SOL    HW220907   1.466   1.189   3.127
 6670SOL     OW20908   4.280   2.248   1.176
 6670SOL    HW120909   4.183   2.223   1.184
 6670SOL    HW220910   4.336   2.180   1.224
 6671SOL     OW20911   4.563   5.775   0.633
 6671SOL    HW120912   4.515   5.767   0.546
 6671SOL    HW220913   4.660   5.756   0.620
 6672SOL     OW20914   2.006   2.249   0.991
 6672SOL    HW120915   2.048   2.339   1.000
 6672SOL    HW220916   1.918   2.248   1.037
 6673SOL     OW20917   6.279   3.542   3.601
 6673SOL    HW120918   6.190   3.570   3.635
 6673SOL    HW220919   6.271   3.514   3.505
 6674SOL     OW20920   0.409   2.314   0.168
 6674SOL    HW120921   0.465   2.372   0.226
 6674SOL    HW220922   0.427   2.335   0.072
 6675SOL     OW20923   5.404   1.631   6.726
 6675SOL    HW120924   5.377   1.575   6.647
 6675SOL    HW220925   5.479   1.691   6.701
 6676SOL     OW20926   1.397   3.791   3.309
 6676SOL    HW120927   1.324   3.818   3.246
 6676SOL    HW220928   1.473   3.856   3.301
 6677SOL     OW20929   0.195   1.504   6.950
 6677SOL    HW120930   0.149   1.562   7.017
 6677SOL    HW220931   0.233   1.424   6.995
 6678SOL     OW20932   2.121   4.245   6.969
 6678SOL    HW120933   2.080   4.243   6.877
 6678SOL    HW220934   2.198   4.181   6.972
 6679SOL     OW20935   1.831   0.844   3.938
 6679SOL    HW120936   1.805   0.881   4.028
 6679SOL    HW220937   1.770   0.881   3.868
 6680SOL     OW20938   5.870   6.987   1.139
 6680SOL    HW120939   5.908   6.923   1.206
 6680SOL    HW220940   5.796   0.021   1.182
 6681SOL     OW20941   3.174   6.280   1.772
 6681SOL    HW120942   3.234   6.208   1.807
 6681SOL    HW220943   3.087   6.241   1.744
 6682SOL     OW20944   3.057   4.664   6.146
 6682SOL    HW120945   3.074   4.567   6.131
 6682SOL    HW220946   3.102   4.693   6.230
 6683SOL     OW20947   6.539   3.777   6.515
 6683SOL    HW120948   6.450   3.818   6.494
 6683SOL    HW220949   6.612   3.839   6.485
 6684SOL     OW20950   2.853   6.423   0.706
 6684SOL    HW120951   2.946   6.401   0.675
 6684SOL    HW220952   2.854   6.509   0.756
 6685SOL     OW20953   4.989   3.555   6.698
 6685SOL    HW120954   5.043   3.472   6.679
 6685SOL    HW220955   5.028   3.601   6.778
 6686SOL     OW20956   4.649   5.096   3.897
 6686SOL    HW120957   4.632   5.017   3.839
 6686SOL    HW220958   4.693   5.168   3.843
 6687SOL     OW20959   6.642   2.348   1.834
 6687SOL    HW120960   6.661   2.433   1.785
 6687SOL    HW220961   6.699   2.344   1.916
 6688SOL     OW20962   4.649   5.437   0.570
 6688SOL    HW120963   4.715   5.495   0.619
 6688SOL    HW220964   4.698   5.370   0.515
 6689SOL     OW20965   1.990   4.623   5.888
 6689SOL    HW120966   1.959   4.540   5.842
 6689SOL    HW220967   2.082   4.608   5.925
 6690SOL     OW20968   0.784   6.941   5.544
 6690SOL    HW120969   0.842   6.882   5.489
 6690SOL    HW220970   0.689   6.909   5.539
 6691SOL     OW20971   2.442   2.618   2.868
 6691SOL    HW120972   2.492   2.556   2.807
 6691SOL    HW220973   2.485   2.620   2.958
 6692SOL     OW20974   4.686   5.173   1.599
 6692SOL    HW120975   4.716   5.078   1.604
 6692SOL    HW220976   4.739   5.221   1.529
 6693SOL     OW20977   4.489   1.927   4.359
 6693SOL    HW120978   4.479   1.842   4.306
 6693SOL    HW220979   4.506   2.003   4.297
 6694SOL     OW20980   3.228   4.399   1.291
 6694SOL    HW120981   3.162   4.471   1.309
 6694SOL    HW220982   3.295   4.395   1.366
 6695SOL     OW20983   2.665   2.273   6.172
 6695SOL    HW120984   2.565   2.272   6.163
 6695SOL    HW220985   2.694   2.198   6.230
 6696SOL     OW20986   4.045   3.596   4.577
 6696SOL    HW120987   4.098   3.521   4.537
 6696SOL    HW220988   4.059   3.679   4.522
 6697SOL     OW20989   4.474   2.332   2.668
 6697SOL    HW120990   4.508   2.412   2.718
 6697SOL    HW220991   4.382   2.309   2.702
 6698SOL     OW20992   3.345   4.002   1.046
 6698SOL    HW120993   3.425   4.038   0.997
 6698SOL    HW220994   3.291   3.944   0.985
 6699SOL     OW20995   1.499   4.455   5.655
 6699SOL    HW120996   1.567   4.385   5.679
 6699SOL    HW220997   1.469   4.441   5.561
 6700SOL     OW20998   5.670   6.896   6.991
 6700SOL    HW120999   5.632   6.803   6.995
 6700SOL    HW221000   5.759   6.893   6.945
 6701SOL     OW21001   6.053   0.837   1.371
 6701SOL    HW121002   5.961   0.841   1.410
 6701SOL    HW221003   6.078   0.741   1.356
 6702SOL     OW21004   2.827   2.586   0.675
 6702SOL    HW121005   2.808   2.559   0.770
 6702SOL    HW221006   2.916   2.631   0.670
 6703SOL     OW21007   0.173   1.063   7.018
 6703SOL    HW121008   0.148   1.082   0.094
 6703SOL    HW221009   0.121   1.122   6.957
 6704SOL     OW21010   2.876   0.367   5.590
 6704SOL    HW121011   2.954   0.311   5.618
 6704SOL    HW221012   2.795   0.310   5.580
 6705SOL     OW21013   6.402   3.630   2.068
 6705SOL    HW121014   6.338   3.701   2.097
 6705SOL    HW221015   6.406   3.628   1.968
 6706SOL     OW21016   0.492   6.803   1.766
 6706SOL    HW121017   0.558   6.874   1.740
 6706SOL    HW221018   0.421   6.844   1.823
 6707SOL     OW21019   5.680   0.578   2.045
 6707SOL    HW121020   5.681   0.661   1.990
 6707SOL    HW221021   5.586   0.546   2.054
 6708SOL     OW21022   1.020   4.237   1.518
 6708SOL    HW121023   1.016   4.197   1.610
 6708SOL    HW221024   1.114   4.266   1.499
 6709SOL     OW21025   1.936   5.214   2.526
 6709SOL    HW121026   1.871   5.267   2.580
 6709SOL    HW221027   1.983   5.148   2.585
 6710SOL     OW21028   4.037   1.294   0.991
 6710SOL    HW121029   4.043   1.285   1.090
 6710SOL    HW221030   3.961   1.356   0.968
 6711SOL     OW21031   3.747   5.722   6.238
 6711SOL    HW121032   3.715   5.638   6.283
 6711SOL    HW221033   3.701   5.731   6.150
 6712SOL     OW21034   5.907   3.818   1.728
 6712SOL    HW121035   5.892   3.735   1.674
 6712SOL    HW221036   5.909   3.897   1.666
 6713SOL     OW21037   1.702   6.329   4.549
 6713SOL    HW121038   1.641   6.390   4.600
 6713SOL    HW221039   1.743   6.263   4.612
 6714SOL     OW21040   5.218   1.391   0.720
 6714SOL    HW121041   5.177   1.313   0.766
 6714SOL    HW221042   5.317   1.389   0.734
 6715SOL     OW21043   1.405   1.066   0.407
 6715SOL    HW121044   1.396   1.164   0.421
 6715SOL    HW221045   1.315   1.027   0.387
 6716SOL     OW21046   6.810   5.593   2.875
 6716SOL    HW121047   6.821   5.627   2.968
 6716SOL    HW221048   6.713   5.587   2.852
 6717SOL     OW21049   4.635   1.629   5.489
 6717SOL    HW121050   4.699   1.694   5.530
 6717SOL    HW221051   4.630   1.547   5.547
 6718SOL     OW21052   3.334   0.643   1.695
 6718SOL    HW121053   3.307   0.665   1.789
 6718SOL    HW221054   3.254   0.619   1.642
 6719SOL     OW21055   1.997   0.771   0.024
 6719SOL    HW121056   1.947   0.686   0.037
 6719SOL    HW221057   2.001   0.821   0.110
 6720SOL     OW21058   1.609   0.619   5.913
 6720SOL    HW121059   1.539   0.665   5.859
 6720SOL    HW221060   1.659   0.687   5.967
 6721SOL     OW21061   0.188   1.538   0.389
 6721SOL    HW121062   0.275   1.551   0.342
 6721SOL    HW221063   0.176   1.610   0.458
 6722SOL     OW21064   6.478   3.115   0.555
 6722SOL    HW121065   6.467   3.028   0.603
 6722SOL    HW221066   6.433   3.110   0.466
 6723SOL     OW21067   1.592   2.426   6.399
 6723SOL    HW121068   1.518   2.479   6.357
 6723SOL    HW221069   1.569   2.407   6.495
 6724SOL     OW21070   2.152   3.750   5.831
 6724SOL    HW121071   2.117   3.699   5.910
 6724SOL    HW221072   2.213   3.691   5.779
 6725SOL     OW21073   5.309   2.801   3.759
 6725SOL    HW121074   5.210   2.796   3.773
 6725SOL    HW221075   5.330   2.797   3.662
 6726SOL     OW21076   0.219   1.023   5.190
 6726SOL    HW121077   0.204   1.101   5.251
 6726SOL    HW221078   0.315   0.995   5.194
 6727SOL     OW21079   0.951   4.929   5.887
 6727SOL    HW121080   1.050   4.933   5.875
 6727SOL    HW221081   0.930   4.876   5.969
 6728SOL     OW21082   3.950   1.970   3.739
 6728SOL    HW121083   3.895   1.887   3.735
 6728SOL    HW221084   3.897   2.047   3.704
 6729SOL     OW21085   4.706   1.528   2.057
 6729SOL    HW121086   4.796   1.502   2.022
 6729SOL    HW221087   4.715   1.560   2.152
 6730SOL     OW21088   0.597   1.385   1.682
 6730SOL    HW121089   0.506   1.344   1.673
 6730SOL    HW221090   0.588   1.484   1.694
 6731SOL     OW21091   3.579   6.648   6.832
 6731SOL    HW121092   3.599   6.672   6.927
 6731SOL    HW221093   3.518   6.569   6.829
 6732SOL     OW21094   6.801   5.946   4.846
 6732SOL    HW121095   6.839   5.860   4.880
 6732SOL    HW221096   6.737   5.983   4.914
 6733SOL     OW21097   4.458   5.106   6.369
 6733SOL    HW121098   4.439   5.204   6.381
 6733SOL    HW221099   4.426   5.076   6.280
 6734SOL     OW21100   6.044   1.215   4.609
 6734SOL    HW121101   6.141   1.235   4.594
 6734SOL    HW221102   5.988   1.288   4.572
 6735SOL     OW21103   5.956   3.125   3.498
 6735SOL    HW121104   5.967   3.143   3.596
 6735SOL    HW221105   5.876   3.175   3.465
 6736SOL     OW21106   3.455   4.070   0.605
 6736SOL    HW121107   3.454   3.990   0.544
 6736SOL    HW221108   3.496   4.148   0.557
 6737SOL     OW21109   0.433   4.005   1.204
 6737SOL    HW121110   0.492   3.991   1.125
 6737SOL    HW221111   0.338   3.990   1.178
 6738SOL     OW21112   1.951   5.827   3.587
 6738SOL    HW121113   1.905   5.741   3.609
 6738SOL    HW221114   1.992   5.865   3.670
 6739SOL     OW21115   6.570   6.814   4.817
 6739SOL    HW121116   6.485   6.761   4.822
 6739SOL    HW221117   6.647   6.751   4.806
 6740SOL     OW21118   0.520   6.870   3.742
 6740SOL    HW121119   0.459   6.945   3.716
 6740SOL    HW221120   0.586   6.904   3.810
 6741SOL     OW21121   4.370   2.008   5.995
 6741SOL    HW121122   4.440   1.944   6.028
 6741SOL    HW221123   4.311   1.961   5.929
 6742SOL     OW21124   5.776   4.539   3.431
 6742SOL    HW121125   5.786   4.638   3.440
 6742SOL    HW221126   5.773   4.515   3.334
 6743SOL     OW21127   4.594   4.104   1.066
 6743SOL    HW121128   4.496   4.087   1.054
 6743SOL    HW221129   4.644   4.018   1.057
 6744SOL     OW21130   0.316   5.948   6.003
 6744SOL    HW121131   0.281   5.855   6.014
 6744SOL    HW221132   0.409   5.944   5.967
 6745SOL     OW21133   6.835   5.871   4.530
 6745SOL    HW121134   6.834   5.908   4.623
 6745SOL    HW221135   6.888   5.930   4.470
 6746SOL     OW21136   2.203   1.390   2.393
 6746SOL    HW121137   2.281   1.332   2.417
 6746SOL    HW221138   2.225   1.444   2.312
 6747SOL     OW21139   1.216   6.552   6.309
 6747SOL    HW121140   1.191   6.484   6.378
 6747SOL    HW221141   1.312   6.575   6.319
 6748SOL     OW21142   2.235   1.302   4.660
 6748SOL    HW121143   2.198   1.390   4.687
 6748SOL    HW221144   2.232   1.239   4.738
 6749SOL     OW21145   3.400   4.922   1.017
 6749SOL    HW121146   3.455   4.843   1.043
 6749SOL    HW221147   3.304   4.896   1.010
 6750SOL     OW21148   3.094   0.958   4.694
 6750SOL    HW121149   3.148   1.040   4.676
 6750SOL    HW221150   3.102   0.895   4.617
 6751SOL     OW21151   4.228   0.190   3.851
 6751SOL    HW121152   4.255   0.096   3.869
 6751SOL    HW221153   4.291   0.253   3.896
 6752SOL     OW21154   2.361   5.939   2.175
 6752SOL    HW121155   2.426   5.950   2.249
 6752SOL    HW221156   2.282   6.000   2.190
 6753SOL     OW21157   4.062   2.983   5.359
 6753SOL    HW121158   4.019   3.039   5.289
 6753SOL    HW221159   4.005   2.983   5.442
 6754SOL     OW21160   6.214   2.022   1.403
 6754SOL    HW121161   6.282   1.962   1.363
 6754SOL    HW221162   6.158   1.971   1.468
 6755SOL     OW21163   2.177   5.499   6.488
 6755SOL    HW121164   2.133   5.410   6.496
 6755SOL    HW221165   2.236   5.500   6.408
 6756SOL     OW21166   2.458   2.527   5.248
 6756SOL    HW121167   2.429   2.525   5.152
 6756SOL    HW221168   2.478   2.434   5.279
 6757SOL     OW21169   3.841   0.695   0.619
 6757SOL    HW121170   3.811   0.674   0.712
 6757SOL    HW221171   3.762   0.721   0.563
 6758SOL     OW21172   5.912   2.374   2.351
 6758SOL    HW121173   5.891   2.469   2.370
 6758SOL    HW221174   5.829   2.327   2.321
 6759SOL     OW21175   0.562   3.329   3.144
 6759SOL    HW121176   0.485   3.284   3.189
 6759SOL    HW221177   0.567   3.424   3.173
 6760SOL     OW21178   5.081   2.614   2.789
 6760SOL    HW121179   5.069   2.693   2.849
 6760SOL    HW221180   5.151   2.634   2.720
 6761SOL     OW21181   4.933   2.105   4.651
 6761SOL    HW121182   4.834   2.107   4.668
 6761SOL    HW221183   4.953   2.158   4.568
 6762SOL     OW21184   6.743   5.713   4.313
 6762SOL    HW121185   6.748   5.760   4.225
 6762SOL    HW221186   6.766   5.778   4.386
 6763SOL     OW21187   4.833   5.295   5.071
 6763SOL    HW121188   4.840   5.269   4.975
 6763SOL    HW221189   4.745   5.265   5.107
 6764SOL     OW21190   1.902   5.784   1.056
 6764SOL    HW121191   1.926   5.769   0.960
 6764SOL    HW221192   1.896   5.696   1.103
 6765SOL     OW21193   6.474   4.994   2.782
 6765SOL    HW121194   6.550   4.967   2.842
 6765SOL    HW221195   6.405   4.922   2.781
 6766SOL     OW21196   5.020   0.388   0.510
 6766SOL    HW121197   4.943   0.452   0.521
 6766SOL    HW221198   5.037   0.341   0.597
 6767SOL     OW21199   2.663   1.123   0.516
 6767SOL    HW121200   2.726   1.198   0.494
 6767SOL    HW221201   2.699   1.071   0.593
 6768SOL     OW21202   1.677   0.744   0.928
 6768SOL    HW121203   1.608   0.784   0.987
 6768SOL    HW221204   1.702   0.653   0.961
 6769SOL     OW21205   4.279   2.540   1.715
 6769SOL    HW121206   4.205   2.604   1.694
 6769SOL    HW221207   4.257   2.450   1.678
 6770SOL     OW21208   6.654   0.312   2.064
 6770SOL    HW121209   6.599   0.283   1.986
 6770SOL    HW221210   6.680   0.232   2.119
 6771SOL     OW21211   4.040   2.184   2.904
 6771SOL    HW121212   4.097   2.131   2.967
 6771SOL    HW221213   4.007   2.266   2.950
 6772SOL     OW21214   3.012   1.895   2.661
 6772SOL    HW121215   2.927   1.868   2.708
 6772SOL    HW221216   3.001   1.988   2.625
 6773SOL     OW21217   0.115   4.172   2.203
 6773SOL    HW121218   0.135   4.166   2.301
 6773SOL    HW221219   0.182   4.117   2.152
 6774SOL     OW21220   0.772   2.484   6.687
 6774SOL    HW121221   0.769   2.432   6.602
 6774SOL    HW221222   0.685   2.534   6.699
 6775SOL     OW21223   2.688   4.498   1.128
 6775SOL    HW121224   2.643   4.524   1.042
 6775SOL    HW221225   2.696   4.578   1.187
 6776SOL     OW21226   5.898   5.281   6.987
 6776SOL    HW121227   5.914   5.332   6.903
 6776SOL    HW221228   5.811   5.310   0.009
 6777SOL     OW21229   4.698   4.630   6.133
 6777SOL    HW121230   4.663   4.587   6.217
 6777SOL    HW221231   4.765   4.700   6.158
 6778SOL     OW21232   0.883   5.050   3.036
 6778SOL    HW121233   0.794   5.092   3.014
 6778SOL    HW221234   0.903   5.061   3.133
 6779SOL     OW21235   0.269   4.876   0.511
 6779SOL    HW121236   0.182   4.920   0.534
 6779SOL    HW221237   0.306   4.916   0.428
 6780SOL     OW21238   0.697   2.853   2.677
 6780SOL    HW121239   0.631   2.867   2.751
 6780SOL    HW221240   0.652   2.868   2.589
 6781SOL     OW21241   5.263   6.052   5.960
 6781SOL    HW121242   5.210   5.998   5.894
 6781SOL    HW221243   5.201   6.090   6.029
 6782SOL     OW21244   6.881   1.304   2.695
 6782SOL    HW121245   6.899   1.367   2.620
 6782SOL    HW221246   6.830   1.351   2.767
 6783SOL     OW21247   6.944   6.357   6.815
 6783SOL    HW121248   6.963   6.443   6.768
 6783SOL    HW221249   6.913   6.289   6.748
 6784SOL     OW21250   4.057   4.141   0.196
 6784SOL    HW121251   4.075   4.177   0.287
 6784SOL    HW221252   4.081   4.044   0.193
 6785SOL     OW21253   5.777   5.796   1.846
 6785SOL    HW121254   5.785   5.779   1.945
 6785SOL    HW221255   5.834   5.731   1.796
 6786SOL     OW21256   1.322   2.893   6.332
 6786SOL    HW121257   1.265   2.819   6.368
 6786SOL    HW221258   1.398   2.910   6.395
 6787SOL     OW21259   1.704   3.791   1.961
 6787SOL    HW121260   1.611   3.822   1.983
 6787SOL    HW221261   1.698   3.707   1.907
 6788SOL     OW21262   3.087   3.643   1.407
 6788SOL    HW121263   3.168   3.687   1.369
 6788SOL    HW221264   3.054   3.696   1.485
 6789SOL     OW21265   1.246   6.933   2.274
 6789SOL    HW121266   1.303   6.906   2.352
 6789SOL    HW221267   1.201   0.001   2.294
 6790SOL     OW21268   1.881   2.967   0.133
 6790SOL    HW121269   1.943   3.027   0.183
 6790SOL    HW221270   1.926   2.932   0.051
 6791SOL     OW21271   4.606   2.771   6.922
 6791SOL    HW121272   4.518   2.758   6.877
 6791SOL    HW221273   4.592   2.807   7.014
 6792SOL     OW21274   6.013   6.449   0.161
 6792SOL    HW121275   6.097   6.434   0.108
 6792SOL    HW221276   5.943   6.487   0.101
 6793SOL     OW21277   1.468   2.366   1.088
 6793SOL    HW121278   1.474   2.299   1.162
 6793SOL    HW221279   1.468   2.318   1.000
 6794SOL     OW21280   4.802   0.919   4.459
 6794SOL    HW121281   4.847   1.005   4.481
 6794SOL    HW221282   4.772   0.874   4.544
 6795SOL     OW21283   2.706   5.885   0.539
 6795SOL    HW121284   2.710   5.791   0.574
 6795SOL    HW221285   2.774   5.941   0.588
 6796SOL     OW21286   5.371   1.329   2.834
 6796SOL    HW121287   5.445   1.386   2.870
 6796SOL    HW221288   5.287   1.384   2.827
 6797SOL     OW21289   5.869   3.811   2.288
 6797SOL    HW121290   5.867   3.754   2.207
 6797SOL    HW221291   5.777   3.818   2.327
 6798SOL     OW21292   5.480   5.816   2.241
 6798SOL    HW121293   5.518   5.885   2.180
 6798SOL    HW221294   5.381   5.807   2.225
 6799SOL     OW21295   5.114   5.713   0.424
 6799SOL    HW121296   5.157   5.622   0.416
 6799SOL    HW221297   5.160   5.765   0.495
 6800SOL     OW21298   2.025   4.652   0.376
 6800SOL    HW121299   1.936   4.685   0.408
 6800SOL    HW221300   2.011   4.570   0.319
 6801SOL     OW21301   1.810   2.724   2.180
 6801SOL    HW121302   1.809   2.745   2.278
 6801SOL    HW221303   1.891   2.670   2.158
 6802SOL     OW21304   2.166   6.529   1.290
 6802SOL    HW121305   2.080   6.478   1.294
 6802SOL    HW221306   2.242   6.467   1.313
 6803SOL     OW21307   4.998   2.110   6.292
 6803SOL    HW121308   5.010   2.017   6.256
 6803SOL    HW221309   5.084   2.143   6.330
 6804SOL     OW21310   1.858   5.878   3.213
 6804SOL    HW121311   1.811   5.874   3.301
 6804SOL    HW221312   1.956   5.866   3.226
 6805SOL     OW21313   6.074   0.347   4.777
 6805SOL    HW121314   6.123   0.357   4.863
 6805SOL    HW221315   6.046   0.251   4.766
 6806SOL     OW21316   4.086   1.170   4.657
 6806SOL    HW121317   4.114   1.091   4.603
 6806SOL    HW221318   4.158   1.195   4.721
 6807SOL     OW21319   2.999   2.947   0.083
 6807SOL    HW121320   3.035   2.895   0.006
 6807SOL    HW221321   2.923   2.897   0.125
 6808SOL     OW21322   0.059   2.755   5.180
 6808SOL    HW121323   0.041   2.792   5.089
 6808SOL    HW221324   0.054   2.828   5.248
 6809SOL     OW21325   2.408   3.902   6.562
 6809SOL    HW121326   2.457   3.937   6.641
 6809SOL    HW221327   2.473   3.877   6.490
 6810SOL     OW21328   0.203   0.647   2.434
 6810SOL    HW121329   0.269   0.577   2.462
 6810SOL    HW221330   0.172   0.698   2.514
 6811SOL     OW21331   6.236   4.965   1.019
 6811SOL    HW121332   6.311   5.019   0.981
 6811SOL    HW221333   6.253   4.868   1.001
 6812SOL     OW21334   4.106   3.283   3.013
 6812SOL    HW121335   4.129   3.247   2.922
 6812SOL    HW221336   4.164   3.239   3.082
 6813SOL     OW21337   4.721   2.061   0.843
 6813SOL    HW121338   4.698   2.149   0.884
 6813SOL    HW221339   4.659   2.042   0.766
 6814SOL     OW21340   2.608   3.485   1.282
 6814SOL    HW121341   2.570   3.461   1.372
 6814SOL    HW221342   2.534   3.511   1.221
 6815SOL     OW21343   2.739   0.310   1.858
 6815SOL    HW121344   2.750   0.360   1.772
 6815SOL    HW221345   2.718   0.215   1.838
 6816SOL     OW21346   6.777   4.855   6.885
 6816SOL    HW121347   6.720   4.874   6.805
 6816SOL    HW221348   6.832   4.936   6.906
 6817SOL     OW21349   6.761   1.656   5.681
 6817SOL    HW121350   6.814   1.602   5.616
 6817SOL    HW221351   6.753   1.750   5.648
 6818SOL     OW21352   3.530   6.553   2.073
 6818SOL    HW121353   3.520   6.552   2.173
 6818SOL    HW221354   3.565   6.465   2.042
 6819SOL     OW21355   3.239   0.893   3.615
 6819SOL    HW121356   3.271   0.819   3.556
 6819SOL    HW221357   3.142   0.879   3.636
 6820SOL     OW21358   1.259   4.246   3.296
 6820SOL    HW121359   1.256   4.185   3.376
 6820SOL    HW221360   1.197   4.323   3.310
 6821SOL     OW21361   2.470   2.261   4.868
 6821SOL    HW121362   2.403   2.205   4.819
 6821SOL    HW221363   2.425   2.342   4.906
 6822SOL     OW21364   5.668   1.622   5.930
 6822SOL    HW121365   5.570   1.635   5.947
 6822SOL    HW221366   5.693   1.527   5.950
 6823SOL     OW21367   3.233   3.507   3.101
 6823SOL    HW121368   3.154   3.560   3.132
 6823SOL    HW221369   3.231   3.497   3.002
 6824SOL     OW21370   0.566   4.077   6.759
 6824SOL    HW121371   0.586   4.073   6.661
 6824SOL    HW221372   0.650   4.098   6.809
 6825SOL     OW21373   5.250   0.185   2.249
 6825SOL    HW121374   5.192   0.129   2.189
 6825SOL    HW221375   5.205   0.197   2.337
 6826SOL     OW21376   2.125   3.345   2.736
 6826SOL    HW121377   2.152   3.296   2.653
 6826SOL    HW221378   2.111   3.279   2.810
 6827SOL     OW21379   5.437   5.773   6.519
 6827SOL    HW121380   5.362   5.821   6.565
 6827SOL    HW221381   5.418   5.770   6.421
 6828SOL     OW21382   1.295   2.511   1.570
 6828SOL    HW121383   1.357   2.501   1.647
 6828SOL    HW221384   1.216   2.450   1.582
 6829SOL     OW21385   5.142   6.238   3.556
 6829SOL    HW121386   5.235   6.261   3.585
 6829SOL    HW221387   5.097   6.185   3.628
 6830SOL     OW21388   5.170   1.770   3.526
 6830SOL    HW121389   5.259   1.725   3.532
 6830SOL    HW221390   5.097   1.701   3.528
 6831SOL     OW21391   0.955   0.866   5.570
 6831SOL    HW121392   0.905   0.841   5.654
 6831SOL    HW221393   0.901   0.838   5.491
 6832SOL     OW21394   3.009   4.796   2.257
 6832SOL    HW121395   2.938   4.780   2.189
 6832SOL    HW221396   3.097   4.763   2.221
 6833SOL     OW21397   3.595   4.731   6.796
 6833SOL    HW121398   3.497   4.732   6.777
 6833SOL    HW221399   3.612   4.762   6.889
 6834SOL     OW21400   4.115   6.568   1.944
 6834SOL    HW121401   4.133   6.662   1.913
 6834SOL    HW221402   4.045   6.527   1.884
 6835SOL     OW21403   3.872   6.787   4.658
 6835SOL    HW121404   3.893   6.723   4.732
 6835SOL    HW221405   3.773   6.787   4.641
 6836SOL     OW21406   3.445   6.453   0.370
 6836SOL    HW121407   3.412   6.529   0.427
 6836SOL    HW221408   3.451   6.370   0.426
 6837SOL     OW21409   1.983   3.540   1.894
 6837SOL    HW121410   2.058   3.525   1.959
 6837SOL    HW221411   1.995   3.628   1.849
 6838SOL     OW21412   2.030   1.382   7.011
 6838SOL    HW121413   2.009   1.480   7.013
 6838SOL    HW221414   2.100   1.365   6.942
 6839SOL     OW21415   4.615   1.192   0.724
 6839SOL    HW121416   4.545   1.156   0.785
 6839SOL    HW221417   4.614   1.141   0.638
 6840SOL     OW21418   2.128   1.440   6.470
 6840SOL    HW121419   2.114   1.341   6.478
 6840SOL    HW221420   2.169   1.461   6.381
 6841SOL     OW21421   6.560   2.872   6.408
 6841SOL    HW121422   6.592   2.885   6.502
 6841SOL    HW221423   6.462   2.893   6.403
 6842SOL     OW21424   2.137   5.330   2.160
 6842SOL    HW121425   2.173   5.325   2.253
 6842SOL    HW221426   2.212   5.337   2.095
 6843SOL     OW21427   4.922   6.512   6.821
 6843SOL    HW121428   4.837   6.564   6.822
 6843SOL    HW221429   4.939   6.476   6.729
 6844SOL     OW21430   5.024   0.758   4.453
 6844SOL    HW121431   4.997   0.854   4.459
 6844SOL    HW221432   5.007   0.713   4.541
 6845SOL     OW21433   4.862   2.862   2.974
 6845SOL    HW121434   4.812   2.856   2.887
 6845SOL    HW221435   4.812   2.811   3.044
 6846SOL     OW21436   2.826   3.804   0.419
 6846SOL    HW121437   2.882   3.854   0.353
 6846SOL    HW221438   2.859   3.825   0.512
 6847SOL     OW21439   5.931   4.093   4.236
 6847SOL    HW121440   5.874   4.051   4.166
 6847SOL    HW221441   5.883   4.171   4.276
 6848SOL     OW21442   4.930   4.645   3.545
 6848SOL    HW121443   4.978   4.732   3.553
 6848SOL    HW221444   4.831   4.662   3.538
 6849SOL     OW21445   3.654   3.592   6.490
 6849SOL    HW121446   3.753   3.584   6.482
 6849SOL    HW221447   3.625   3.684   6.462
 6850SOL     OW21448   3.931   1.479   3.335
 6850SOL    HW121449   3.995   1.545   3.374
 6850SOL    HW221450   3.979   1.394   3.313
 6851SOL     OW21451   1.778   3.115   3.338
 6851SOL    HW121452   1.793   3.205   3.298
 6851SOL    HW221453   1.847   3.097   3.407
 6852SOL     OW21454   2.620   5.174   0.387
 6852SOL    HW121455   2.570   5.092   0.362
 6852SOL    HW221456   2.658   5.163   0.479
 6853SOL     OW21457   5.182   2.623   6.492
 6853SOL    HW121458   5.195   2.722   6.501
 6853SOL    HW221459   5.183   2.597   6.396
 6854SOL     OW21460   5.447   6.310   5.994
 6854SOL    HW121461   5.450   6.223   6.043
 6854SOL    HW221462   5.383   6.303   5.917
 6855SOL     OW21463   3.851   4.943   3.323
 6855SOL    HW121464   3.912   4.864   3.326
 6855SOL    HW221465   3.763   4.919   3.364
 6856SOL     OW21466   1.080   1.962   0.044
 6856SOL    HW121467   1.128   1.955   0.131
 6856SOL    HW221468   1.094   2.054   0.006
 6857SOL     OW21469   0.949   3.900   5.706
 6857SOL    HW121470   1.031   3.885   5.651
 6857SOL    HW221471   0.967   3.970   5.775
 6858SOL     OW21472   3.043   4.038   1.568
 6858SOL    HW121473   2.963   4.099   1.571
 6858SOL    HW221474   3.089   4.039   1.656
 6859SOL     OW21475   0.591   1.195   2.708
 6859SOL    HW121476   0.584   1.220   2.611
 6859SOL    HW221477   0.504   1.211   2.753
 6860SOL     OW21478   0.812   6.779   1.979
 6860SOL    HW121479   0.827   6.760   1.882
 6860SOL    HW221480   0.874   6.851   2.009
 6861SOL     OW21481   4.812   2.582   5.102
 6861SOL    HW121482   4.757   2.521   5.161
 6861SOL    HW221483   4.864   2.645   5.160
 6862SOL     OW21484   0.474   4.940   5.690
 6862SOL    HW121485   0.559   4.945   5.742
 6862SOL    HW221486   0.430   5.030   5.688
 6863SOL     OW21487   6.674   0.042   5.071
 6863SOL    HW121488   6.731   6.991   5.115
 6863SOL    HW221489   6.602   7.016   5.017
 6864SOL     OW21490   1.610   3.816   5.360
 6864SOL    HW121491   1.674   3.779   5.427
 6864SOL    HW221492   1.653   3.893   5.312
 6865SOL     OW21493   1.956   0.047   4.685
 6865SOL    HW121494   1.918   0.117   4.624
 6865SOL    HW221495   1.882   7.005   4.716
 6866SOL     OW21496   0.434   4.423   1.828
 6866SOL    HW121497   0.404   4.328   1.814
 6866SOL    HW221498   0.363   4.474   1.876
 6867SOL     OW21499   2.095   3.396   0.265
 6867SOL    HW121500   2.110   3.412   0.362
 6867SOL    HW221501   2.166   3.442   0.212
 6868SOL     OW21502   2.420   4.959   4.827
 6868SOL    HW121503   2.462   4.974   4.916
 6868SOL    HW221504   2.432   5.040   4.770
 6869SOL     OW21505   3.677   0.245   6.057
 6869SOL    HW121506   3.709   0.158   6.094
 6869SOL    HW221507   3.633   0.231   5.969
 6870SOL     OW21508   0.188   3.005   0.382
 6870SOL    HW121509   0.146   3.086   0.423
 6870SOL    HW221510   0.179   2.927   0.444
 6871SOL     OW21511   0.433   3.808   2.603
 6871SOL    HW121512   0.513   3.819   2.661
 6871SOL    HW221513   0.362   3.759   2.653
 6872SOL     OW21514   2.389   2.673   1.271
 6872SOL    HW121515   2.488   2.685   1.264
 6872SOL    HW221516   2.351   2.745   1.329
 6873SOL     OW21517   0.952   3.930   4.936
 6873SOL    HW121518   0.994   3.973   5.015
 6873SOL    HW221519   1.024   3.895   4.875
 6874SOL     OW21520   5.570   6.236   2.883
 6874SOL    HW121521   5.536   6.149   2.919
 6874SOL    HW221522   5.560   6.237   2.784
 6875SOL     OW21523   1.220   2.702   1.205
 6875SOL    HW121524   1.224   2.781   1.143
 6875SOL    HW221525   1.312   2.669   1.222
 6876SOL     OW21526   4.474   5.539   3.161
 6876SOL    HW121527   4.524   5.536   3.248
 6876SOL    HW221528   4.517   5.477   3.096
 6877SOL     OW21529   1.422   3.485   2.322
 6877SOL    HW121530   1.468   3.412   2.372
 6877SOL    HW221531   1.378   3.447   2.241
 6878SOL     OW21532   2.175   0.394   4.035
 6878SOL    HW121533   2.099   0.378   3.972
 6878SOL    HW221534   2.207   0.488   4.025
 6879SOL     OW21535   2.051   1.918   0.379
 6879SOL    HW121536   2.125   1.960   0.431
 6879SOL    HW221537   2.075   1.824   0.355
 6880SOL     OW21538   1.566   5.424   6.799
 6880SOL    HW121539   1.654   5.387   6.771
 6880SOL    HW221540   1.580   5.503   6.858
 6881SOL     OW21541   1.175   3.231   0.767
 6881SOL    HW121542   1.108   3.161   0.743
 6881SOL    HW221543   1.267   3.193   0.760
 6882SOL     OW21544   2.876   6.604   0.061
 6882SOL    HW121545   2.973   6.594   0.083
 6882SOL    HW221546   2.822   6.539   0.114
 6883SOL     OW21547   4.944   0.097   6.800
 6883SOL    HW121548   4.972   0.008   6.837
 6883SOL    HW221549   4.920   0.158   6.876
 6884SOL     OW21550   2.200   4.061   2.813
 6884SOL    HW121551   2.196   4.030   2.908
 6884SOL    HW221552   2.191   3.982   2.752
 6885SOL     OW21553   5.616   6.096   4.180
 6885SOL    HW121554   5.566   6.163   4.235
 6885SOL    HW221555   5.572   6.087   4.091
 6886SOL     OW21556   4.855   1.802   6.486
 6886SOL    HW121557   4.836   1.881   6.545
 6886SOL    HW221558   4.898   1.730   6.540
 6887SOL     OW21559   5.317   5.937   6.281
 6887SOL    HW121560   5.252   5.924   6.356
 6887SOL    HW221561   5.335   5.849   6.236
 6888SOL     OW21562   5.814   5.263   6.549
 6888SOL    HW121563   5.720   5.299   6.552
 6888SOL    HW221564   5.815   5.178   6.497
 6889SOL     OW21565   0.761   2.737   0.095
 6889SOL    HW121566   0.780   2.767   0.189
 6889SOL    HW221567   0.812   2.796   0.031
 6890SOL     OW21568   4.124   5.312   2.623
 6890SOL    HW121569   4.118   5.390   2.561
 6890SOL    HW221570   4.212   5.267   2.613
 6891SOL     OW21571   1.908   1.375   1.205
 6891SOL    HW121572   1.953   1.446   1.259
 6891SOL    HW221573   1.960   1.290   1.212
 6892SOL     OW21574   3.512   0.799   4.085
 6892SOL    HW121575   3.607   0.808   4.117
 6892SOL    HW221576   3.510   0.742   4.003
 6893SOL     OW21577   6.737   2.663   6.843
 6893SOL    HW121578   6.761   2.738   6.905
 6893SOL    HW221579   6.687   2.592   6.895
 6894SOL     OW21580   5.694   5.329   0.621
 6894SOL    HW121581   5.680   5.240   0.577
 6894SOL    HW221582   5.721   5.315   0.716
 6895SOL     OW21583   1.109   6.299   1.601
 6895SOL    HW121584   1.208   6.310   1.591
 6895SOL    HW221585   1.076   6.360   1.674
 6896SOL     OW21586   4.635   2.088   4.666
 6896SOL    HW121587   4.620   2.095   4.765
 6896SOL    HW221588   4.571   2.021   4.628
 6897SOL     OW21589   5.349   3.863   5.402
 6897SOL    HW121590   5.441   3.824   5.410
 6897SOL    HW221591   5.344   3.919   5.319
 6898SOL     OW21592   2.155   1.438   0.989
 6898SOL    HW121593   2.063   1.476   0.989
 6898SOL    HW221594   2.215   1.498   1.042
 6899SOL     OW21595   6.067   6.140   2.859
 6899SOL    HW121596   5.993   6.171   2.800
 6899SOL    HW221597   6.033   6.129   2.953
 6900SOL     OW21598   6.546   4.399   5.642
 6900SOL    HW121599   6.540   4.384   5.543
 6900SOL    HW221600   6.586   4.489   5.660
 6901SOL     OW21601   4.605   4.201   6.727
 6901SOL    HW121602   4.565   4.141   6.795
 6901SOL    HW221603   4.535   4.231   6.663
 6902SOL     OW21604   0.729   6.085   6.636
 6902SOL    HW121605   0.631   6.066   6.632
 6902SOL    HW221606   0.779   6.017   6.581
 6903SOL     OW21607   2.438   5.140   4.576
 6903SOL    HW121608   2.345   5.145   4.538
 6903SOL    HW221609   2.465   5.045   4.588
 6904SOL     OW21610   0.047   6.584   4.933
 6904SOL    HW121611   0.135   6.625   4.953
 6904SOL    HW221612   7.000   6.655   4.907
 6905SOL     OW21613   5.108   5.704   6.076
 6905SOL    HW121614   5.129   5.697   5.978
 6905SOL    HW221615   5.040   5.776   6.090
 6906SOL     OW21616   3.902   1.493   3.620
 6906SOL    HW121617   3.818   1.539   3.650
 6906SOL    HW221618   3.897   1.477   3.521
 6907SOL     OW21619   6.197   1.664   0.876
 6907SOL    HW121620   6.114   1.676   0.822
 6907SOL    HW221621   6.254   1.593   0.835
 6908SOL     OW21622   2.749   4.233   0.209
 6908SOL    HW121623   2.771   4.271   0.299
 6908SOL    HW221624   2.832   4.225   0.154
 6909SOL     OW21625   5.948   5.527   2.270
 6909SOL    HW121626   5.983   5.458   2.208
 6909SOL    HW221627   5.883   5.585   2.222
 6910SOL     OW21628   1.411   2.860   3.739
 6910SOL    HW121629   1.330   2.882   3.685
 6910SOL    HW221630   1.471   2.799   3.686
 6911SOL     OW21631   2.600   6.941   5.803
 6911SOL    HW121632   2.668   6.918   5.873
 6911SOL    HW221633   2.627   0.005   5.755
 6912SOL     OW21634   2.100   3.426   5.904
 6912SOL    HW121635   2.153   3.450   5.986
 6912SOL    HW221636   2.148   3.457   5.822
 6913SOL     OW21637   4.501   5.974   6.130
 6913SOL    HW121638   4.435   6.043   6.160
 6913SOL    HW221639   4.592   5.997   6.166
 6914SOL     OW21640   6.652   3.692   1.563
 6914SOL    HW121641   6.621   3.704   1.657
 6914SOL    HW221642   6.629   3.599   1.533
 6915SOL     OW21643   0.934   3.355   2.786
 6915SOL    HW121644   0.900   3.436   2.834
 6915SOL    HW221645   0.856   3.300   2.755
 6916SOL     OW21646   4.240   6.238   0.122
 6916SOL    HW121647   4.232   6.337   0.111
 6916SOL    HW221648   4.262   6.197   0.034
 6917SOL     OW21649   5.726   5.701   1.504
 6917SOL    HW121650   5.721   5.626   1.570
 6917SOL    HW221651   5.783   5.674   1.427
 6918SOL     OW21652   2.082   3.022   1.829
 6918SOL    HW121653   2.050   3.018   1.923
 6918SOL    HW221654   2.119   3.113   1.810
 6919SOL     OW21655   6.351   6.187   2.879
 6919SOL    HW121656   6.252   6.178   2.869
 6919SOL    HW221657   6.377   6.283   2.877
 6920SOL     OW21658   5.377   0.660   5.403
 6920SOL    HW121659   5.392   0.756   5.380
 6920SOL    HW221660   5.415   0.642   5.494
 6921SOL     OW21661   3.872   0.125   4.284
 6921SOL    HW121662   3.852   0.223   4.278
 6921SOL    HW221663   3.842   0.081   4.199
 6922SOL     OW21664   1.103   5.540   5.898
 6922SOL    HW121665   1.048   5.613   5.857
 6922SOL    HW221666   1.165   5.579   5.966
 6923SOL     OW21667   6.248   0.032   2.413
 6923SOL    HW121668   6.332   7.004   2.444
 6923SOL    HW221669   6.268   0.127   2.392
 6924SOL     OW21670   3.715   6.552   0.645
 6924SOL    HW121671   3.700   6.639   0.598
 6924SOL    HW221672   3.715   6.477   0.579
 6925SOL     OW21673   6.063   5.966   6.200
 6925SOL    HW121674   6.036   5.879   6.158
 6925SOL    HW221675   6.023   5.972   6.292
 6926SOL     OW21676   2.777   2.116   0.179
 6926SOL    HW121677   2.789   2.142   0.275
 6926SOL    HW221678   2.719   2.035   0.173
 6927SOL     OW21679   4.987   0.787   0.496
 6927SOL    HW121680   4.931   0.707   0.515
 6927SOL    HW221681   5.042   0.771   0.415
 6928SOL     OW21682   4.464   4.972   0.890
 6928SOL    HW121683   4.499   5.029   0.815
 6928SOL    HW221684   4.467   5.024   0.975
 6929SOL     OW21685   6.126   5.615   1.154
 6929SOL    HW121686   6.107   5.682   1.083
 6929SOL    HW221687   6.212   5.638   1.199
 6930SOL     OW21688   0.750   0.395   0.691
 6930SOL    HW121689   0.769   0.330   0.616
 6930SOL    HW221690   0.831   0.450   0.708
 6931SOL     OW21691   2.657   2.651   1.213
 6931SOL    HW121692   2.706   2.733   1.244
 6931SOL    HW221693   2.719   2.592   1.163
 6932SOL     OW21694   4.527   5.133   6.981
 6932SOL    HW121695   4.445   5.138   0.020
 6932SOL    HW221696   4.537   5.040   6.946
 6933SOL     OW21697   2.911   5.313   6.433
 6933SOL    HW121698   2.863   5.379   6.376
 6933SOL    HW221699   2.878   5.320   6.528
 6934SOL     OW21700   5.228   4.010   6.755
 6934SOL    HW121701   5.129   4.018   6.769
 6934SOL    HW221702   5.247   3.975   6.664
 6935SOL     OW21703   5.419   5.285   1.592
 6935SOL    HW121704   5.416   5.270   1.493
 6935SOL    HW221705   5.489   5.228   1.633
 6936SOL     OW21706   1.129   1.898   4.588
 6936SOL    HW121707   1.118   1.926   4.683
 6936SOL    HW221708   1.217   1.852   4.577
 6937SOL     OW21709   5.417   5.393   0.219
 6937SOL    HW121710   5.440   5.488   0.237
 6937SOL    HW221711   5.446   5.336   0.297
 6938SOL     OW21712   1.046   0.563   4.855
 6938SOL    HW121713   1.091   0.575   4.767
 6938SOL    HW221714   0.999   0.647   4.881
 6939SOL     OW21715   6.104   4.485   3.679
 6939SOL    HW121716   6.096   4.584   3.673
 6939SOL    HW221717   6.018   4.446   3.710
 6940SOL     OW21718   3.948   6.915   0.691
 6940SOL    HW121719   3.862   6.951   0.725
 6940SOL    HW221720   4.017   6.988   0.692
 6941SOL     OW21721   3.356   3.279   2.326
 6941SOL    HW121722   3.300   3.199   2.305
 6941SOL    HW221723   3.439   3.251   2.372
 6942SOL     OW21724   6.025   6.896   1.936
 6942SOL    HW121725   6.121   6.880   1.912
 6942SOL    HW221726   6.020   6.953   2.018
 6943SOL     OW21727   4.548   4.840   6.377
 6943SOL    HW121728   4.496   4.805   6.299
 6943SOL    HW221729   4.517   4.933   6.398
 6944SOL     OW21730   1.083   4.023   5.170
 6944SOL    HW121731   1.163   4.082   5.163
 6944SOL    HW221732   1.112   3.930   5.195
 6945SOL     OW21733   5.512   2.395   1.137
 6945SOL    HW121734   5.418   2.367   1.122
 6945SOL    HW221735   5.559   2.403   1.050
 6946SOL     OW21736   4.513   6.004   2.469
 6946SOL    HW121737   4.609   6.026   2.451
 6946SOL    HW221738   4.495   6.013   2.567
 6947SOL     OW21739   4.899   5.305   5.552
 6947SOL    HW121740   4.937   5.215   5.530
 6947SOL    HW221741   4.962   5.377   5.522
 6948SOL     OW21742   0.532   4.887   0.019
 6948SOL    HW121743   0.628   4.861   0.018
 6948SOL    HW221744   0.520   4.973   6.987
 6949SOL     OW21745   2.514   1.976   4.054
 6949SOL    HW121746   2.427   1.935   4.079
 6949SOL    HW221747   2.573   1.981   4.135
 6950SOL     OW21748   0.650   0.273   4.833
 6950SOL    HW121749   0.727   0.221   4.868
 6950SOL    HW221750   0.682   0.364   4.805
 6951SOL     OW21751   0.028   5.345   6.454
 6951SOL    HW121752   0.067   5.436   6.443
 6951SOL    HW221753   0.029   5.298   6.365
 6952SOL     OW21754   3.568   5.219   2.787
 6952SOL    HW121755   3.655   5.199   2.743
 6952SOL    HW221756   3.530   5.303   2.748
 6953SOL     OW21757   4.739   1.103   1.348
 6953SOL    HW121758   4.722   1.179   1.285
 6953SOL    HW221759   4.836   1.099   1.369
 6954SOL     OW21760   6.348   3.448   0.230
 6954SOL    HW121761   6.350   3.429   0.132
 6954SOL    HW221762   6.423   3.399   0.275
 6955SOL     OW21763   4.933   6.723   2.310
 6955SOL    HW121764   5.023   6.751   2.344
 6955SOL    HW221765   4.941   6.687   2.217
 6956SOL     OW21766   5.365   5.518   2.112
 6956SOL    HW121767   5.345   5.459   2.190
 6956SOL    HW221768   5.332   5.610   2.131
 6957SOL     OW21769   5.308   5.429   6.318
 6957SOL    HW121770   5.310   5.374   6.235
 6957SOL    HW221771   5.216   5.429   6.356
 6958SOL     OW21772   3.028   3.108   3.827
 6958SOL    HW121773   2.974   3.070   3.751
 6958SOL    HW221774   2.969   3.164   3.885
 6959SOL     OW21775   1.051   4.174   2.704
 6959SOL    HW121776   1.038   4.262   2.752
 6959SOL    HW221777   1.010   4.101   2.758
 6960SOL     OW21778   2.683   4.755   0.692
 6960SOL    HW121779   2.716   4.707   0.611
 6960SOL    HW221780   2.711   4.851   0.688
 6961SOL     OW21781   4.533   2.065   5.594
 6961SOL    HW121782   4.548   2.159   5.624
 6961SOL    HW221783   4.470   2.065   5.516
 6962SOL     OW21784   2.839   6.641   6.247
 6962SOL    HW121785   2.877   6.721   6.200
 6962SOL    HW221786   2.910   6.571   6.256
 6963SOL     OW21787   5.170   6.544   0.833
 6963SOL    HW121788   5.116   6.484   0.775
 6963SOL    HW221789   5.227   6.603   0.777
 6964SOL     OW21790   1.430   0.143   5.730
 6964SOL    HW121791   1.508   0.186   5.775
 6964SOL    HW221792   1.462   0.094   5.649
 6965SOL     OW21793   0.498   1.586   6.876
 6965SOL    HW121794   0.574   1.591   6.811
 6965SOL    HW221795   0.457   1.677   6.885
 6966SOL     OW21796   1.376   0.368   1.640
 6966SOL    HW121797   1.433   0.307   1.694
 6966SOL    HW221798   1.305   0.409   1.699
 6967SOL     OW21799   4.525   1.070   5.618
 6967SOL    HW121800   4.451   1.010   5.649
 6967SOL    HW221801   4.486   1.149   5.570
 6968SOL     OW21802   3.849   6.614   2.553
 6968SOL    HW121803   3.853   6.661   2.641
 6968SOL    HW221804   3.906   6.532   2.556
 6969SOL     OW21805   1.984   1.864   1.840
 6969SOL    HW121806   1.966   1.767   1.855
 6969SOL    HW221807   2.026   1.877   1.750
 6970SOL     OW21808   3.572   4.567   6.073
 6970SOL    HW121809   3.539   4.514   5.995
 6970SOL    HW221810   3.607   4.504   6.143
 6971SOL     OW21811   0.275   4.331   0.374
 6971SOL    HW121812   0.234   4.313   0.464
 6971SOL    HW221813   0.236   4.414   0.335
 6972SOL     OW21814   5.094   3.619   2.071
 6972SOL    HW121815   5.044   3.602   2.156
 6972SOL    HW221816   5.047   3.574   1.995
 6973SOL     OW21817   1.315   3.522   3.430
 6973SOL    HW121818   1.385   3.481   3.370
 6973SOL    HW221819   1.332   3.620   3.438
 6974SOL     OW21820   3.678   3.790   2.607
 6974SOL    HW121821   3.724   3.876   2.631
 6974SOL    HW221822   3.657   3.740   2.691
 6975SOL     OW21823   3.145   5.851   4.775
 6975SOL    HW121824   3.146   5.872   4.677
 6975SOL    HW221825   3.069   5.788   4.795
 6976SOL     OW21826   5.024   4.024   5.921
 6976SOL    HW121827   5.035   4.122   5.901
 6976SOL    HW221828   5.110   3.987   5.955
 6977SOL     OW21829   3.895   4.673   1.182
 6977SOL    HW121830   3.854   4.757   1.219
 6977SOL    HW221831   3.838   4.638   1.109
 6978SOL     OW21832   5.541   3.938   2.158
 6978SOL    HW121833   5.586   3.982   2.080
 6978SOL    HW221834   5.442   3.933   2.141
 6979SOL     OW21835   1.353   4.017   1.763
 6979SOL    HW121836   1.341   4.047   1.858
 6979SOL    HW221837   1.373   3.919   1.761
 6980SOL     OW21838   1.551   5.982   3.093
 6980SOL    HW121839   1.482   6.048   3.064
 6980SOL    HW221840   1.625   6.029   3.140
 6981SOL     OW21841   3.634   3.190   6.688
 6981SOL    HW121842   3.671   3.219   6.776
 6981SOL    HW221843   3.537   3.216   6.683
 6982SOL     OW21844   1.734   0.695   3.548
 6982SOL    HW121845   1.724   0.612   3.493
 6982SOL    HW221846   1.815   0.687   3.606
 6983SOL     OW21847   4.961   0.359   4.348
 6983SOL    HW121848   4.945   0.356   4.446
 6983SOL    HW221849   4.874   0.377   4.301
 6984SOL     OW21850   0.548   2.804   3.267
 6984SOL    HW121851   0.464   2.827   3.217
 6984SOL    HW221852   0.525   2.777   3.360
 6985SOL     OW21853   6.387   3.132   0.258
 6985SOL    HW121854   6.349   3.174   0.175
 6985SOL    HW221855   6.329   3.056   0.286
 6986SOL     OW21856   3.951   4.920   5.660
 6986SOL    HW121857   3.994   4.832   5.678
 6986SOL    HW221858   3.919   4.959   5.746
 6987SOL     OW21859   0.785   1.840   5.839
 6987SOL    HW121860   0.803   1.742   5.825
 6987SOL    HW221861   0.854   1.893   5.789
 6988SOL     OW21862   3.503   1.395   6.671
 6988SOL    HW121863   3.473   1.300   6.682
 6988SOL    HW221864   3.446   1.455   6.729
 6989SOL     OW21865   0.067   5.426   2.763
 6989SOL    HW121866   7.018   5.476   2.709
 6989SOL    HW221867   0.055   5.448   2.860
 6990SOL     OW21868   3.498   2.408   1.520
 6990SOL    HW121869   3.541   2.356   1.446
 6990SOL    HW221870   3.569   2.453   1.575
 6991SOL     OW21871   6.060   4.014   2.287
 6991SOL    HW121872   6.066   4.067   2.372
 6991SOL    HW221873   5.982   3.952   2.292
 6992SOL     OW21874   0.652   6.427   0.222
 6992SOL    HW121875   0.558   6.422   0.188
 6992SOL    HW221876   0.653   6.405   0.319
 6993SOL     OW21877   4.570   1.199   1.720
 6993SOL    HW121878   4.507   1.258   1.771
 6993SOL    HW221879   4.528   1.176   1.632
 6994SOL     OW21880   2.211   0.031   3.564
 6994SOL    HW121881   2.284   0.098   3.548
 6994SOL    HW221882   2.160   0.058   3.646
 6995SOL     OW21883   0.170   3.926   1.116
 6995SOL    HW121884   0.100   3.934   1.188
 6995SOL    HW221885   0.142   3.855   1.051
 6996SOL     OW21886   0.866   1.491   6.973
 6996SOL    HW121887   0.827   1.583   6.972
 6996SOL    HW221888   0.852   1.449   0.045
 6997SOL     OW21889   5.952   5.326   5.234
 6997SOL    HW121890   5.986   5.350   5.325
 6997SOL    HW221891   6.023   5.343   5.166
 6998SOL     OW21892   6.519   1.294   0.282
 6998SOL    HW121893   6.425   1.315   0.310
 6998SOL    HW221894   6.581   1.309   0.359
 6999SOL     OW21895   0.584   3.593   0.728
 6999SOL    HW121896   0.513   3.649   0.771
 6999SOL    HW221897   0.571   3.497   0.753
 7000SOL     OW21898   6.852   6.795   3.059
 7000SOL    HW121899   6.825   6.813   3.154
 7000SOL    HW221900   6.873   6.882   3.014
 7001SOL     OW21901   0.709   1.635   4.289
 7001SOL    HW121902   0.705   1.665   4.194
 7001SOL    HW221903   0.631   1.673   4.340
 7002SOL     OW21904   6.951   5.629   2.571
 7002SOL    HW121905   6.892   5.698   2.613
 7002SOL    HW221906   6.920   5.611   2.478
 7003SOL     OW21907   6.521   4.979   1.251
 7003SOL    HW121908   6.538   4.905   1.186
 7003SOL    HW221909   6.576   5.059   1.225
 7004SOL     OW21910   2.293   6.235   0.201
 7004SOL    HW121911   2.195   6.215   0.209
 7004SOL    HW221912   2.341   6.154   0.165
 7005SOL     OW21913   0.976   6.809   6.969
 7005SOL    HW121914   0.994   6.816   6.871
 7005SOL    HW221915   1.036   6.740   7.009
 7006SOL     OW21916   1.007   0.126   4.381
 7006SOL    HW121917   0.935   0.157   4.319
 7006SOL    HW221918   1.045   0.204   4.430
 7007SOL     OW21919   3.074   0.086   5.623
 7007SOL    HW121920   3.130   0.013   5.585
 7007SOL    HW221921   2.988   0.047   5.656
 7008SOL     OW21922   5.950   4.237   3.597
 7008SOL    HW121923   5.940   4.205   3.691
 7008SOL    HW221924   6.025   4.188   3.553
 7009SOL     OW21925   4.479   5.443   1.392
 7009SOL    HW121926   4.481   5.345   1.369
 7009SOL    HW221927   4.572   5.480   1.387
 7010SOL     OW21928   5.374   4.279   1.921
 7010SOL    HW121929   5.462   4.304   1.961
 7010SOL    HW221930   5.387   4.246   1.827
 7011SOL     OW21931   3.230   5.904   6.993
 7011SOL    HW121932   3.155   5.917   6.928
 7011SOL    HW221933   3.195   5.902   0.068
 7012SOL     OW21934   6.776   2.135   0.291
 7012SOL    HW121935   6.698   2.078   0.317
 7012SOL    HW221936   6.808   2.187   0.370
 7013SOL     OW21937   2.357   1.439   6.954
 7013SOL    HW121938   2.368   1.345   6.987
 7013SOL    HW221939   2.293   1.440   6.878
 7014SOL     OW21940   6.403   3.238   1.413
 7014SOL    HW121941   6.362   3.147   1.418
 7014SOL    HW221942   6.331   3.307   1.413
 7015SOL     OW21943   5.486   5.961   0.782
 7015SOL    HW121944   5.485   5.879   0.839
 7015SOL    HW221945   5.557   6.024   0.814
 7016SOL     OW21946   3.295   5.040   0.377
 7016SOL    HW121947   3.317   5.013   0.283
 7016SOL    HW221948   3.199   5.065   0.383
 7017SOL     OW21949   4.729   5.327   4.225
 7017SOL    HW121950   4.662   5.401   4.233
 7017SOL    HW221951   4.821   5.366   4.221
 7018SOL     OW21952   4.857   3.339   4.265
 7018SOL    HW121953   4.886   3.348   4.360
 7018SOL    HW221954   4.768   3.293   4.262
 7019SOL     OW21955   4.895   4.837   1.907
 7019SOL    HW121956   4.920   4.926   1.869
 7019SOL    HW221957   4.812   4.804   1.863
 7020SOL     OW21958   0.731   3.071   6.398
 7020SOL    HW121959   0.648   3.080   6.343
 7020SOL    HW221960   0.782   2.991   6.368
 7021SOL     OW21961   0.911   2.226   5.249
 7021SOL    HW121962   0.840   2.174   5.201
 7021SOL    HW221963   1.001   2.203   5.212
 7022SOL     OW21964   3.741   1.678   0.751
 7022SOL    HW121965   3.644   1.658   0.764
 7022SOL    HW221966   3.753   1.734   0.669
 7023SOL     OW21967   0.586   1.909   1.172
 7023SOL    HW121968   0.519   1.839   1.194
 7023SOL    HW221969   0.562   1.994   1.219
 7024SOL     OW21970   3.904   3.321   3.776
 7024SOL    HW121971   3.947   3.264   3.846
 7024SOL    HW221972   3.824   3.366   3.814
 7025SOL     OW21973   3.968   6.679   0.512
 7025SOL    HW121974   3.947   6.717   0.421
 7025SOL    HW221975   3.973   6.754   0.578
 7026SOL     OW21976   3.812   2.364   1.167
 7026SOL    HW121977   3.847   2.352   1.074
 7026SOL    HW221978   3.814   2.462   1.191
 7027SOL     OW21979   2.008   5.143   1.853
 7027SOL    HW121980   2.065   5.176   1.928
 7027SOL    HW221981   1.935   5.085   1.890
 7028SOL     OW21982   3.422   0.102   3.153
 7028SOL    HW121983   3.518   0.079   3.136
 7028SOL    HW221984   3.411   0.202   3.155
 7029SOL     OW21985   3.375   3.431   5.186
 7029SOL    HW121986   3.373   3.526   5.217
 7029SOL    HW221987   3.446   3.420   5.116
 7030SOL     OW21988   6.235   1.607   5.195
 7030SOL    HW121989   6.214   1.653   5.108
 7030SOL    HW221990   6.153   1.564   5.231
 7031SOL     OW21991   4.577   6.881   0.335
 7031SOL    HW121992   4.616   6.837   0.416
 7031SOL    HW221993   4.496   6.934   0.362
 7032SOL     OW21994   3.789   6.365   4.725
 7032SOL    HW121995   3.852   6.422   4.673
 7032SOL    HW221996   3.756   6.415   4.805
 7033SOL     OW21997   1.505   1.938   5.216
 7033SOL    HW121998   1.551   1.969   5.299
 7033SOL    HW221999   1.480   2.017   5.160
 7034SOL     OW22000   6.604   1.663   3.210
 7034SOL    HW122001   6.675   1.622   3.268
 7034SOL    HW222002   6.516   1.662   3.258
 7035SOL     OW22003   1.623   0.493   0.743
 7035SOL    HW122004   1.629   0.589   0.770
 7035SOL    HW222005   1.696   0.442   0.788
 7036SOL     OW22006   0.069   1.125   1.749
 7036SOL    HW122007   0.015   1.208   1.733
 7036SOL    HW222008   0.011   1.045   1.736
 7037SOL     OW22009   0.763   0.735   5.991
 7037SOL    HW122010   0.766   0.754   5.893
 7037SOL    HW222011   0.673   0.699   6.015
 7038SOL     OW22012   1.478   3.233   6.439
 7038SOL    HW122013   1.501   3.138   6.461
 7038SOL    HW222014   1.537   3.295   6.491
 7039SOL     OW22015   0.137   6.085   2.914
 7039SOL    HW122016   0.230   6.117   2.930
 7039SOL    HW222017   0.136   5.985   2.908
 7040SOL     OW22018   4.599   2.441   5.211
 7040SOL    HW122019   4.542   2.391   5.146
 7040SOL    HW222020   4.566   2.536   5.217
 7041SOL     OW22021   1.561   0.424   3.508
 7041SOL    HW122022   1.540   0.335   3.547
 7041SOL    HW222023   1.479   0.462   3.467
 7042SOL     OW22024   4.616   6.092   5.515
 7042SOL    HW122025   4.595   6.010   5.568
 7042SOL    HW222026   4.573   6.172   5.557
 7043SOL     OW22027   2.048   4.645   2.432
 7043SOL    HW122028   2.066   4.635   2.334
 7043SOL    HW222029   2.083   4.734   2.463
 7044SOL     OW22030   5.153   6.288   4.031
 7044SOL    HW122031   5.194   6.367   4.076
 7044SOL    HW222032   5.174   6.205   4.082
 7045SOL     OW22033   6.301   5.930   2.474
 7045SOL    HW122034   6.395   5.912   2.503
 7045SOL    HW222035   6.269   5.855   2.416
 7046SOL     OW22036   2.859   2.111   4.603
 7046SOL    HW122037   2.817   2.022   4.585
 7046SOL    HW222038   2.958   2.104   4.594
 7047SOL     OW22039   0.864   6.994   0.571
 7047SOL    HW122040   0.905   6.954   0.489
 7047SOL    HW222041   0.847   0.073   0.557
 7048SOL     OW22042   6.546   5.809   4.948
 7048SOL    HW122043   6.640   5.775   4.936
 7048SOL    HW222044   6.491   5.783   4.869
 7049SOL     OW22045   3.813   1.193   2.647
 7049SOL    HW122046   3.884   1.240   2.699
 7049SOL    HW222047   3.822   1.095   2.660
 7050SOL     OW22048   3.991   3.794   0.966
 7050SOL    HW122049   3.899   3.833   0.973
 7050SOL    HW222050   4.043   3.816   1.049
 7051SOL     OW22051   0.598   0.525   1.266
 7051SOL    HW122052   0.521   0.543   1.326
 7051SOL    HW222053   0.613   0.604   1.207
 7052SOL     OW22054   5.487   0.136   2.403
 7052SOL    HW122055   5.428   0.173   2.331
 7052SOL    HW222056   5.537   0.057   2.367
 7053SOL     OW22057   1.734   2.735   3.433
 7053SOL    HW122058   1.738   2.801   3.358
 7053SOL    HW222059   1.824   2.693   3.446
 7054SOL     OW22060   6.862   0.520   0.285
 7054SOL    HW122061   6.791   0.485   0.346
 7054SOL    HW222062   6.823   0.593   0.228
 7055SOL     OW22063   2.307   0.699   6.623
 7055SOL    HW122064   2.312   0.621   6.685
 7055SOL    HW222065   2.221   0.697   6.572
 7056SOL     OW22066   0.166   5.700   1.032
 7056SOL    HW122067   0.093   5.721   1.097
 7056SOL    HW222068   0.126   5.653   0.953
 7057SOL     OW22069   3.205   4.913   5.019
 7057SOL    HW122070   3.183   4.993   5.074
 7057SOL    HW222071   3.296   4.923   4.979
 7058SOL     OW22072   5.224   2.825   5.670
 7058SOL    HW122073   5.207   2.871   5.757
 7058SOL    HW222074   5.153   2.757   5.654
 7059SOL     OW22075   1.810   0.651   5.142
 7059SOL    HW122076   1.793   0.669   5.239
 7059SOL    HW222077   1.759   0.569   5.115
 7060SOL     OW22078   3.565   0.551   2.227
 7060SOL    HW122079   3.517   0.471   2.194
 7060SOL    HW222080   3.651   0.523   2.271
 7061SOL     OW22081   0.720   2.291   3.113
 7061SOL    HW122082   0.628   2.297   3.073
 7061SOL    HW222083   0.759   2.383   3.121
 7062SOL     OW22084   3.718   1.555   3.191
 7062SOL    HW122085   3.803   1.528   3.234
 7062SOL    HW222086   3.733   1.637   3.136
 7063SOL     OW22087   0.895   0.849   1.890
 7063SOL    HW122088   0.810   0.800   1.907
 7063SOL    HW222089   0.894   0.884   1.796
 7064SOL     OW22090   4.257   2.059   5.147
 7064SOL    HW122091   4.246   1.961   5.130
 7064SOL    HW222092   4.195   2.111   5.089
 7065SOL     OW22093   3.628   4.012   5.684
 7065SOL    HW122094   3.645   3.914   5.684
 7065SOL    HW222095   3.576   4.037   5.602
 7066SOL     OW22096   3.813   0.307   6.932
 7066SOL    HW122097   3.774   0.396   6.956
 7066SOL    HW222098   3.895   0.320   6.876
 7067SOL     OW22099   1.796   3.508   6.937
 7067SOL    HW122100   1.729   3.434   6.941
 7067SOL    HW222101   1.774   3.570   6.862
 7068SOL     OW22102   4.855   3.962   4.332
 7068SOL    HW122103   4.873   3.867   4.305
 7068SOL    HW222104   4.783   3.963   4.402
 7069SOL     OW22105   5.813   0.268   6.538
 7069SOL    HW122106   5.768   0.311   6.616
 7069SOL    HW222107   5.899   0.316   6.519
 7070SOL     OW22108   0.578   6.415   5.140
 7070SOL    HW122109   0.481   6.391   5.143
 7070SOL    HW222110   0.603   6.441   5.046
 7071SOL     OW22111   5.022   5.967   6.338
 7071SOL    HW122112   4.984   5.882   6.375
 7071SOL    HW222113   5.029   6.035   6.412
 7072SOL     OW22114   0.197   3.903   6.519
 7072SOL    HW122115   0.255   3.910   6.601
 7072SOL    HW222116   0.106   3.937   6.540
 7073SOL     OW22117   5.628   1.250   3.023
 7073SOL    HW122118   5.696   1.247   3.096
 7073SOL    HW222119   5.557   1.182   3.041
 7074SOL     OW22120   5.363   4.259   2.879
 7074SOL    HW122121   5.269   4.260   2.843
 7074SOL    HW222122   5.420   4.320   2.825
 7075SOL     OW22123   3.327   5.749   3.846
 7075SOL    HW122124   3.351   5.705   3.759
 7075SOL    HW222125   3.410   5.766   3.899
 7076SOL     OW22126   5.895   2.641   2.372
 7076SOL    HW122127   5.925   2.734   2.350
 7076SOL    HW222128   5.796   2.636   2.366
 7077SOL     OW22129   3.718   5.521   0.949
 7077SOL    HW122130   3.791   5.576   0.908
 7077SOL    HW222131   3.648   5.504   0.880
 7078SOL     OW22132   5.186   0.369   0.063
 7078SOL    HW122133   5.098   0.356   0.109
 7078SOL    HW222134   5.235   0.444   0.107
 7079SOL     OW22135   1.394   6.865   4.455
 7079SOL    HW122136   1.395   6.847   4.356
 7079SOL    HW222137   1.304   6.899   4.481
 7080SOL     OW22138   4.206   1.700   5.380
 7080SOL    HW122139   4.296   1.722   5.418
 7080SOL    HW222140   4.210   1.708   5.280
 7081SOL     OW22141   1.610   0.892   6.869
 7081SOL    HW122142   1.612   0.959   6.943
 7081SOL    HW222143   1.573   0.934   6.786
 7082SOL     OW22144   6.303   4.638   2.771
 7082SOL    HW122145   6.342   4.577   2.702
 7082SOL    HW222146   6.264   4.718   2.725
 7083SOL     OW22147   6.674   3.357   2.842
 7083SOL    HW122148   6.719   3.273   2.873
 7083SOL    HW222149   6.722   3.436   2.879
 7084SOL     OW22150   0.594   5.554   7.008
 7084SOL    HW122151   0.664   5.501   0.038
 7084SOL    HW222152   0.617   5.651   7.013
 7085SOL     OW22153   0.867   3.253   2.202
 7085SOL    HW122154   0.776   3.293   2.190
 7085SOL    HW222155   0.916   3.253   2.115
 7086SOL     OW22156   5.765   0.964   3.805
 7086SOL    HW122157   5.718   0.880   3.834
 7086SOL    HW222158   5.730   1.041   3.858
 7087SOL     OW22159   5.337   3.042   3.349
 7087SOL    HW122160   5.380   3.075   3.433
 7087SOL    HW222161   5.293   3.118   3.302
 7088SOL     OW22162   6.208   2.260   4.931
 7088SOL    HW122163   6.113   2.286   4.947
 7088SOL    HW222164   6.226   2.172   4.973
 7089SOL     OW22165   3.253   5.779   1.857
 7089SOL    HW122166   3.243   5.685   1.825
 7089SOL    HW222167   3.332   5.785   1.919
 7090SOL     OW22168   4.670   1.915   1.562
 7090SOL    HW122169   4.752   1.937   1.510
 7090SOL    HW222170   4.629   1.999   1.597
 7091SOL     OW22171   6.939   6.602   6.639
 7091SOL    HW122172   7.011   6.662   6.605
 7091SOL    HW222173   6.872   6.584   6.567
 7092SOL     OW22174   4.303   1.693   6.413
 7092SOL    HW122175   4.320   1.688   6.315
 7092SOL    HW222176   4.391   1.699   6.461
 7093SOL     OW22177   3.436   3.297   1.257
 7093SOL    HW122178   3.381   3.213   1.264
 7093SOL    HW222179   3.467   3.324   1.348
 7094SOL     OW22180   3.206   0.057   5.009
 7094SOL    HW122181   3.140   7.009   5.045
 7094SOL    HW222182   3.254   0.101   5.085
 7095SOL     OW22183   2.582   4.696   5.095
 7095SOL    HW122184   2.562   4.791   5.071
 7095SOL    HW222185   2.680   4.680   5.091
 7096SOL     OW22186   6.940   0.771   1.153
 7096SOL    HW122187   6.894   0.859   1.155
 7096SOL    HW222188   6.872   0.698   1.166
 7097SOL     OW22189   4.766   0.843   1.568
 7097SOL    HW122190   4.667   0.857   1.580
 7097SOL    HW222191   4.813   0.931   1.567
 7098SOL     OW22192   0.927   6.741   4.102
 7098SOL    HW122193   0.940   6.651   4.061
 7098SOL    HW222194   0.839   6.778   4.073
 7099SOL     OW22195   3.030   2.217   4.098
 7099SOL    HW122196   3.111   2.183   4.145
 7099SOL    HW222197   3.011   2.311   4.126
 7100SOL     OW22198   5.919   3.976   1.445
 7100SOL    HW122199   5.862   4.024   1.378
 7100SOL    HW222200   5.981   4.042   1.488
 7101SOL     OW22201   2.394   6.256   5.369
 7101SOL    HW122202   2.461   6.194   5.410
 7101SOL    HW222203   2.317   6.203   5.334
 7102SOL     OW22204   5.483   0.946   1.769
 7102SOL    HW122205   5.493   1.044   1.786
 7102SOL    HW222206   5.493   0.897   1.855
 7103SOL     OW22207   4.853   4.043   2.725
 7103SOL    HW122208   4.919   3.986   2.776
 7103SOL    HW222209   4.877   4.042   2.628
 7104SOL     OW22210   5.269   3.920   3.618
 7104SOL    HW122211   5.229   3.982   3.685
 7104SOL    HW222212   5.252   3.825   3.647
 7105SOL     OW22213   3.360   4.013   4.219
 7105SOL    HW122214   3.342   3.915   4.207
 7105SOL    HW222215   3.408   4.048   4.139
 7106SOL     OW22216   3.045   2.698   0.826
 7106SOL    HW122217   3.032   2.793   0.797
 7106SOL    HW222218   3.112   2.694   0.900
 7107SOL     OW22219   3.707   0.657   6.537
 7107SOL    HW122220   3.635   0.663   6.468
 7107SOL    HW222221   3.735   0.749   6.564
 7108SOL     OW22222   4.209   0.695   2.158
 7108SOL    HW122223   4.298   0.665   2.125
 7108SOL    HW222224   4.218   0.734   2.249
 7109SOL     OW22225   2.161   6.232   5.955
 7109SOL    HW122226   2.185   6.327   5.972
 7109SOL    HW222227   2.073   6.227   5.908
 7110SOL     OW22228   3.301   6.414   4.174
 7110SOL    HW122229   3.277   6.464   4.257
 7110SOL    HW222230   3.229   6.425   4.106
 7111SOL     OW22231   6.787   0.240   4.555
 7111SOL    HW122232   6.810   0.251   4.652
 7111SOL    HW222233   6.868   0.261   4.499
 7112SOL     OW22234   1.870   5.161   4.682
 7112SOL    HW122235   1.946   5.102   4.710
 7112SOL    HW222236   1.891   5.256   4.704
 7113SOL     OW22237   3.929   5.265   5.691
 7113SOL    HW122238   3.884   5.207   5.760
 7113SOL    HW222239   3.860   5.321   5.645
 7114SOL     OW22240   5.170   5.319   0.443
 7114SOL    HW122241   5.159   5.361   0.353
 7114SOL    HW222242   5.265   5.292   0.455
 7115SOL     OW22243   6.111   3.594   6.929
 7115SOL    HW122244   6.183   3.632   6.987
 7115SOL    HW222245   6.073   3.666   6.871
 7116SOL     OW22246   6.581   4.033   4.187
 7116SOL    HW122247   6.485   4.063   4.187
 7116SOL    HW222248   6.611   4.019   4.281
 7117SOL     OW22249   5.919   0.283   3.031
 7117SOL    HW122250   5.921   0.207   2.966
 7117SOL    HW222251   6.005   0.287   3.082
 7118SOL     OW22252   4.144   4.182   5.291
 7118SOL    HW122253   4.055   4.140   5.274
 7118SOL    HW222254   4.149   4.269   5.242
 7119SOL     OW22255   3.764   6.298   5.395
 7119SOL    HW122256   3.833   6.359   5.357
 7119SOL    HW222257   3.726   6.241   5.322
 7120SOL     OW22258   4.969   0.779   6.987
 7120SOL    HW122259   5.029   0.788   6.907
 7120SOL    HW222260   4.996   0.846   0.038
 7121SOL     OW22261   1.363   6.023   2.277
 7121SOL    HW122262   1.333   6.030   2.372
 7121SOL    HW222263   1.390   5.928   2.258
 7122SOL     OW22264   2.745   0.732   6.408
 7122SOL    HW122265   2.726   0.651   6.353
 7122SOL    HW222266   2.681   0.805   6.383
 7123SOL     OW22267   5.277   5.283   6.098
 7123SOL    HW122268   5.284   5.318   6.005
 7123SOL    HW222269   5.238   5.191   6.096
 7124SOL     OW22270   1.745   2.273   1.385
 7124SOL    HW122271   1.757   2.206   1.459
 7124SOL    HW222272   1.663   2.327   1.403
 7125SOL     OW22273   1.355   6.311   1.073
 7125SOL    HW122274   1.432   6.273   1.125
 7125SOL    HW222275   1.278   6.327   1.135
 7126SOL     OW22276   3.398   5.543   1.267
 7126SOL    HW122277   3.469   5.599   1.310
 7126SOL    HW222278   3.312   5.594   1.264
 7127SOL     OW22279   2.608   6.981   5.069
 7127SOL    HW122280   2.632   0.053   5.105
 7127SOL    HW222281   2.662   6.962   4.987
 7128SOL     OW22282   4.472   3.888   6.012
 7128SOL    HW122283   4.557   3.908   5.963
 7128SOL    HW222284   4.396   3.937   5.968
 7129SOL     OW22285   0.548   6.974   0.903
 7129SOL    HW122286   0.599   0.028   0.949
 7129SOL    HW222287   0.569   6.975   0.805
 7130SOL     OW22288   3.285   6.743   4.170
 7130SOL    HW122289   3.251   6.781   4.256
 7130SOL    HW222290   3.368   6.689   4.188
 7131SOL     OW22291   3.509   1.001   2.837
 7131SOL    HW122292   3.531   1.098   2.833
 7131SOL    HW222293   3.447   0.978   2.762
 7132SOL     OW22294   5.404   4.403   0.963
 7132SOL    HW122295   5.309   4.420   0.990
 7132SOL    HW222296   5.457   4.487   0.972
 7133SOL     OW22297   4.212   5.479   2.946
 7133SOL    HW122298   4.256   5.547   3.004
 7133SOL    HW222299   4.144   5.524   2.888
 7134SOL     OW22300   5.762   5.265   0.881
 7134SOL    HW122301   5.729   5.176   0.911
 7134SOL    HW222302   5.831   5.298   0.945
 7135SOL     OW22303   2.228   2.786   1.089
 7135SOL    HW122304   2.219   2.878   1.126
 7135SOL    HW222305   2.291   2.733   1.145
 7136SOL     OW22306   1.730   2.084   1.720
 7136SOL    HW122307   1.793   2.035   1.779
 7136SOL    HW222308   1.668   2.140   1.776
 7137SOL     OW22309   2.595   2.153   1.481
 7137SOL    HW122310   2.686   2.195   1.482
 7137SOL    HW222311   2.535   2.205   1.419
 7138SOL     OW22312   0.758   2.281   0.996
 7138SOL    HW122313   0.744   2.215   0.923
 7138SOL    HW222314   0.825   2.246   1.061
 7139SOL     OW22315   6.485   6.271   1.064
 7139SOL    HW122316   6.467   6.228   1.153
 7139SOL    HW222317   6.561   6.224   1.019
 7140SOL     OW22318   6.937   3.495   0.420
 7140SOL    HW122319   6.858   3.454   0.466
 7140SOL    HW222320   6.904   3.558   0.349
 7141SOL     OW22321   3.506   0.737   0.919
 7141SOL    HW122322   3.463   0.654   0.884
 7141SOL    HW222323   3.507   0.736   1.019
 7142SOL     OW22324   3.297   0.072   4.757
 7142SOL    HW122325   3.286   0.073   4.857
 7142SOL    HW222326   3.388   0.105   4.734
 7143SOL     OW22327   3.178   4.347   6.741
 7143SOL    HW122328   3.219   4.258   6.720
 7143SOL    HW222329   3.240   4.399   6.800
 7144SOL     OW22330   6.580   0.502   5.549
 7144SOL    HW122331   6.504   0.490   5.486
 7144SOL    HW222332   6.547   0.497   5.643
 7145SOL     OW22333   4.883   2.187   6.531
 7145SOL    HW122334   4.920   2.194   6.439
 7145SOL    HW222335   4.944   2.131   6.588
 7146SOL     OW22336   1.912   2.060   5.281
 7146SOL    HW122337   1.887   2.121   5.357
 7146SOL    HW222338   1.975   2.107   5.219
 7147SOL     OW22339   6.070   6.613   1.984
 7147SOL    HW122340   6.062   6.709   1.957
 7147SOL    HW222341   6.063   6.606   2.083
 7148SOL     OW22342   6.494   6.822   0.857
 7148SOL    HW122343   6.402   6.837   0.822
 7148SOL    HW222344   6.504   6.867   0.946
 7149SOL     OW22345   6.244   4.662   5.732
 7149SOL    HW122346   6.271   4.670   5.636
 7149SOL    HW222347   6.155   4.616   5.738
 7150SOL     OW22348   3.709   3.326   6.922
 7150SOL    HW122349   3.655   3.407   6.901
 7150SOL    HW222350   3.799   3.354   6.957
 7151SOL     OW22351   3.517   1.083   1.077
 7151SOL    HW122352   3.471   1.065   0.990
 7151SOL    HW222353   3.592   1.018   1.090
 7152SOL     OW22354   6.046   1.137   6.495
 7152SOL    HW122355   6.048   1.223   6.545
 7152SOL    HW222356   6.098   1.146   6.410
 7153SOL     OW22357   3.423   5.902   0.940
 7153SOL    HW122358   3.502   5.854   0.978
 7153SOL    HW222359   3.455   5.980   0.886
 7154SOL     OW22360   4.385   1.714   1.863
 7154SOL    HW122361   4.318   1.784   1.888
 7154SOL    HW222362   4.365   1.680   1.771
 7155SOL     OW22363   2.909   1.538   2.212
 7155SOL    HW122364   2.992   1.593   2.213
 7155SOL    HW222365   2.917   1.467   2.143
 7156SOL     OW22366   6.145   3.450   6.591
 7156SOL    HW122367   6.202   3.463   6.672
 7156SOL    HW222368   6.050   3.436   6.619
 7157SOL     OW22369   6.637   4.602   6.646
 7157SOL    HW122370   6.718   4.544   6.648
 7157SOL    HW222371   6.581   4.580   6.566
 7158SOL     OW22372   4.523   6.654   3.956
 7158SOL    HW122373   4.525   6.563   3.915
 7158SOL    HW222374   4.440   6.665   4.011
 7159SOL     OW22375   0.787   6.210   2.768
 7159SOL    HW122376   0.770   6.308   2.762
 7159SOL    HW222377   0.813   6.174   2.679
 7160SOL     OW22378   0.044   6.990   3.495
 7160SOL    HW122379   0.005   7.015   3.584
 7160SOL    HW222380   0.013   6.899   3.469
 7161SOL     OW22381   3.884   3.164   3.281
 7161SOL    HW122382   3.853   3.078   3.321
 7161SOL    HW222383   3.914   3.226   3.355
 7162SOL     OW22384   0.730   5.932   1.165
 7162SOL    HW122385   0.740   5.846   1.115
 7162SOL    HW222386   0.675   5.917   1.247
 7163SOL     OW22387   0.013   1.614   2.123
 7163SOL    HW122388   6.985   1.609   2.035
 7163SOL    HW222389   6.991   1.687   2.178
 7164SOL     OW22390   2.018   0.838   6.325
 7164SOL    HW122391   2.090   0.859   6.259
 7164SOL    HW222392   1.971   0.922   6.352
 7165SOL     OW22393   5.546   1.342   0.250
 7165SOL    HW122394   5.581   1.286   0.325
 7165SOL    HW222395   5.457   1.379   0.275
 7166SOL     OW22396   6.486   6.334   6.335
 7166SOL    HW122397   6.530   6.391   6.265
 7166SOL    HW222398   6.425   6.390   6.391
 7167SOL     OW22399   5.914   2.577   4.673
 7167SOL    HW122400   5.975   2.588   4.752
 7167SOL    HW222401   5.952   2.508   4.611
 7168SOL     OW22402   2.966   1.064   2.016
 7168SOL    HW122403   2.929   1.151   1.982
 7168SOL    HW222404   2.895   0.994   2.010
 7169SOL     OW22405   1.385   3.777   6.780
 7169SOL    HW122406   1.482   3.756   6.774
 7169SOL    HW222407   1.342   3.716   6.846
 7170SOL     OW22408   3.888   1.449   0.498
 7170SOL    HW122409   3.833   1.518   0.544
 7170SOL    HW222410   3.859   1.441   0.402
 7171SOL     OW22411   6.846   4.606   0.542
 7171SOL    HW122412   6.816   4.631   0.449
 7171SOL    HW222413   6.937   4.643   0.558
 7172SOL     OW22414   1.533   1.633   4.197
 7172SOL    HW122415   1.455   1.571   4.207
 7172SOL    HW222416   1.599   1.592   4.134
 7173SOL     OW22417   4.871   5.497   6.120
 7173SOL    HW122418   4.930   5.546   6.055
 7173SOL    HW222419   4.795   5.557   6.147
 7174SOL     OW22420   6.717   4.250   1.887
 7174SOL    HW122421   6.707   4.349   1.882
 7174SOL    HW222422   6.801   4.223   1.840
 7175SOL     OW22423   5.885   3.479   6.730
 7175SOL    HW122424   5.939   3.486   6.814
 7175SOL    HW222425   5.795   3.441   6.751
 7176SOL     OW22426   0.823   0.709   5.368
 7176SOL    HW122427   0.756   0.658   5.423
 7176SOL    HW222428   0.912   0.663   5.373
 7177SOL     OW22429   1.463   5.734   3.737
 7177SOL    HW122430   1.506   5.717   3.825
 7177SOL    HW222431   1.519   5.695   3.664
 7178SOL     OW22432   1.693   0.198   5.152
 7178SOL    HW122433   1.787   0.192   5.186
 7178SOL    HW222434   1.630   0.203   5.230
 7179SOL     OW22435   3.390   5.550   6.215
 7179SOL    HW122436   3.471   5.597   6.181
 7179SOL    HW222437   3.309   5.585   6.168
 7180SOL     OW22438   1.768   4.131   1.341
 7180SOL    HW122439   1.850   4.187   1.331
 7180SOL    HW222440   1.688   4.189   1.346
 7181SOL     OW22441   2.280   1.872   5.646
 7181SOL    HW122442   2.367   1.897   5.688
 7181SOL    HW222443   2.242   1.951   5.597
 7182SOL     OW22444   1.751   1.719   4.667
 7182SOL    HW122445   1.839   1.674   4.652
 7182SOL    HW222446   1.742   1.743   4.764
 7183SOL     OW22447   1.009   6.965   2.048
 7183SOL    HW122448   0.946   6.970   2.125
 7183SOL    HW222449   1.085   0.009   2.062
 7184SOL     OW22450   6.350   6.999   4.109
 7184SOL    HW122451   6.384   6.996   4.203
 7184SOL    HW222452   6.271   6.938   4.100
 7185SOL     OW22453   4.042   1.207   4.287
 7185SOL    HW122454   4.009   1.257   4.367
 7185SOL    HW222455   4.015   1.256   4.204
 7186SOL     OW22456   0.312   0.337   6.597
 7186SOL    HW122457   0.364   0.321   6.513
 7186SOL    HW222458   0.244   0.408   6.581
 7187SOL     OW22459   3.362   2.925   4.174
 7187SOL    HW122460   3.454   2.887   4.174
 7187SOL    HW222461   3.316   2.905   4.088
 7188SOL     OW22462   3.746   4.037   6.875
 7188SOL    HW122463   3.683   4.010   6.947
 7188SOL    HW222464   3.831   4.071   6.916
 7189SOL     OW22465   6.340   2.746   5.990
 7189SOL    HW122466   6.322   2.763   5.893
 7189SOL    HW222467   6.278   2.802   6.045
 7190SOL     OW22468   5.924   5.405   1.536
 7190SOL    HW122469   5.997   5.473   1.527
 7190SOL    HW222470   5.847   5.446   1.586
 7191SOL     OW22471   0.141   5.055   4.057
 7191SOL    HW122472   0.172   5.134   4.109
 7191SOL    HW222473   0.122   5.082   3.962
 7192SOL     OW22474   1.972   4.249   6.745
 7192SOL    HW122475   1.913   4.198   6.682
 7192SOL    HW222476   1.939   4.343   6.753
 7193SOL     OW22477   2.671   2.032   2.330
 7193SOL    HW122478   2.754   2.006   2.379
 7193SOL    HW222479   2.618   1.950   2.309
 7194SOL     OW22480   3.033   2.761   6.290
 7194SOL    HW122481   2.956   2.814   6.254
 7194SOL    HW222482   3.079   2.812   6.362
 7195SOL     OW22483   0.067   4.346   5.333
 7195SOL    HW122484   0.088   4.350   5.235
 7195SOL    HW222485   0.145   4.305   5.382
 7196SOL     OW22486   3.413   4.031   1.826
 7196SOL    HW122487   3.496   4.085   1.843
 7196SOL    HW222488   3.430   3.964   1.754
 7197SOL     OW22489   2.794   4.197   5.912
 7197SOL    HW122490   2.771   4.213   5.816
 7197SOL    HW222491   2.726   4.242   5.971
 7198SOL     OW22492   0.361   0.542   1.966
 7198SOL    HW122493   0.348   0.466   1.903
 7198SOL    HW222494   0.347   0.628   1.917
 7199SOL     OW22495   0.109   1.154   2.408
 7199SOL    HW122496   0.091   1.128   2.503
 7199SOL    HW222497   0.059   1.238   2.387
 7200SOL     OW22498   0.854   2.534   0.993
 7200SOL    HW122499   0.866   2.542   1.092
 7200SOL    HW222500   0.823   2.442   0.970
 7201SOL     OW22501   5.682   5.682   4.042
 7201SOL    HW122502   5.585   5.699   4.022
 7201SOL    HW222503   5.694   5.586   4.067
 7202SOL     OW22504   4.636   0.590   5.521
 7202SOL    HW122505   4.577   0.596   5.441
 7202SOL    HW222506   4.732   0.584   5.492
 7203SOL     OW22507   0.367   1.749   1.207
 7203SOL    HW122508   0.318   1.733   1.121
 7203SOL    HW222509   0.374   1.663   1.258
 7204SOL     OW22510   6.210   0.063   1.700
 7204SOL    HW122511   6.294   0.106   1.669
 7204SOL    HW222512   6.231   7.012   1.770
 7205SOL     OW22513   2.886   1.729   4.455
 7205SOL    HW122514   2.815   1.786   4.496
 7205SOL    HW222515   2.907   1.763   4.363
 7206SOL     OW22516   1.894   3.268   0.708
 7206SOL    HW122517   1.848   3.210   0.641
 7206SOL    HW222518   1.861   3.362   0.698
 7207SOL     OW22519   1.652   0.979   3.751
 7207SOL    HW122520   1.732   0.993   3.692
 7207SOL    HW222521   1.576   0.944   3.696
 7208SOL     OW22522   2.981   0.148   4.059
 7208SOL    HW122523   2.908   0.132   3.992
 7208SOL    HW222524   3.060   0.189   4.013
 7209SOL     OW22525   3.278   1.969   2.304
 7209SOL    HW122526   3.282   1.909   2.224
 7209SOL    HW222527   3.242   2.058   2.278
 7210SOL     OW22528   2.727   1.405   3.333
 7210SOL    HW122529   2.771   1.430   3.419
 7210SOL    HW222530   2.664   1.329   3.349
 7211SOL     OW22531   3.398   5.732   4.744
 7211SOL    HW122532   3.402   5.679   4.829
 7211SOL    HW222533   3.310   5.779   4.738
 7212SOL     OW22534   6.675   4.134   5.712
 7212SOL    HW122535   6.619   4.217   5.699
 7212SOL    HW222536   6.756   4.139   5.654
 7213SOL     OW22537   4.040   1.818   0.564
 7213SOL    HW122538   4.056   1.906   0.609
 7213SOL    HW222539   4.116   1.756   0.582
 7214SOL     OW22540   0.151   0.715   6.327
 7214SOL    HW122541   0.219   0.787   6.314
 7214SOL    HW222542   0.059   0.752   6.318
 7215SOL     OW22543   6.781   2.949   2.613
 7215SOL    HW122544   6.853   2.880   2.605
 7215SOL    HW222545   6.802   3.027   2.555
 7216SOL     OW22546   3.351   6.224   2.554
 7216SOL    HW122547   3.408   6.224   2.472
 7216SOL    HW222548   3.269   6.280   2.538
 7217SOL     OW22549   1.496   3.078   3.418
 7217SOL    HW122550   1.470   3.154   3.479
 7217SOL    HW222551   1.594   3.082   3.401
 7218SOL     OW22552   6.321   4.596   4.467
 7218SOL    HW122553   6.233   4.643   4.456
 7218SOL    HW222554   6.369   4.634   4.546
 7219SOL     OW22555   3.325   5.822   2.280
 7219SOL    HW122556   3.324   5.759   2.358
 7219SOL    HW222557   3.388   5.788   2.210
 7220SOL     OW22558   5.842   4.729   5.088
 7220SOL    HW122559   5.841   4.797   5.016
 7220SOL    HW222560   5.807   4.769   5.173
 7221SOL     OW22561   3.610   5.673   4.279
 7221SOL    HW122562   3.647   5.745   4.338
 7221SOL    HW222563   3.684   5.622   4.236
 7222SOL     OW22564   0.374   6.245   4.251
 7222SOL    HW122565   0.389   6.343   4.265
 7222SOL    HW222566   0.277   6.227   4.241
 7223SOL     OW22567   0.105   3.599   1.575
 7223SOL    HW122568   0.085   3.507   1.610
 7223SOL    HW222569   0.021   3.639   1.538
 7224SOL     OW22570   4.000   2.103   3.176
 7224SOL    HW122571   4.026   2.020   3.226
 7224SOL    HW222572   3.905   2.094   3.145
 7225SOL     OW22573   1.262   0.051   0.799
 7225SOL    HW122574   1.308   0.002   0.725
 7225SOL    HW222575   1.318   0.048   0.881
 7226SOL     OW22576   6.240   6.322   0.960
 7226SOL    HW122577   6.339   6.321   0.975
 7226SOL    HW222578   6.196   6.262   1.027
 7227SOL     OW22579   2.526   1.177   2.134
 7227SOL    HW122580   2.487   1.183   2.042
 7227SOL    HW222581   2.584   1.256   2.151
 7228SOL     OW22582   6.976   3.381   2.569
 7228SOL    HW122583   6.990   3.467   2.519
 7228SOL    HW222584   6.878   3.359   2.571
 7229SOL     OW22585   0.143   0.418   4.850
 7229SOL    HW122586   0.216   0.352   4.869
 7229SOL    HW222587   0.054   0.371   4.853
 7230SOL     OW22588   2.155   5.173   4.185
 7230SOL    HW122589   2.070   5.225   4.179
 7230SOL    HW222590   2.134   5.076   4.193
 7231SOL     OW22591   4.848   1.273   6.195
 7231SOL    HW122592   4.863   1.366   6.228
 7231SOL    HW222593   4.858   1.209   6.270
 7232SOL     OW22594   5.494   6.833   3.261
 7232SOL    HW122595   5.567   6.870   3.319
 7232SOL    HW222596   5.534   6.773   3.192
 7233SOL     OW22597   6.525   1.196   4.892
 7233SOL    HW122598   6.590   1.272   4.894
 7233SOL    HW222599   6.573   1.111   4.868
 7234SOL     OW22600   5.155   4.229   2.702
 7234SOL    HW122601   5.069   4.280   2.714
 7234SOL    HW222602   5.193   4.250   2.612
 7235SOL     OW22603   0.225   6.320   1.433
 7235SOL    HW122604   0.142   6.266   1.420
 7235SOL    HW222605   0.304   6.266   1.404
 7236SOL     OW22606   2.224   2.574   3.520
 7236SOL    HW122607   2.296   2.528   3.467
 7236SOL    HW222608   2.267   2.635   3.587
 7237SOL     OW22609   5.437   1.002   0.139
 7237SOL    HW122610   5.430   0.914   0.185
 7237SOL    HW222611   5.488   0.991   0.054
 7238SOL     OW22612   4.188   2.890   0.690
 7238SOL    HW122613   4.229   2.980   0.679
 7238SOL    HW222614   4.090   2.900   0.711
 7239SOL     OW22615   0.087   2.929   2.517
 7239SOL    HW122616   0.047   2.953   2.429
 7239SOL    HW222617   0.079   3.006   2.580
 7240SOL     OW22618   6.829   1.955   6.060
 7240SOL    HW122619   6.763   1.938   6.133
 7240SOL    HW222620   6.888   2.031   6.085
 7241SOL     OW22621   2.890   1.869   1.960
 7241SOL    HW122622   2.823   1.844   2.031
 7241SOL    HW222623   2.847   1.860   1.870
 7242SOL     OW22624   6.537   5.446   4.870
 7242SOL    HW122625   6.553   5.365   4.813
 7242SOL    HW222626   6.535   5.418   4.966
 7243SOL     OW22627   6.197   3.850   6.782
 7243SOL    HW122628   6.124   3.912   6.754
 7243SOL    HW222629   6.231   3.877   6.872
 7244SOL     OW22630   6.877   6.529   7.013
 7244SOL    HW122631   6.885   6.459   6.943
 7244SOL    HW222632   6.904   6.492   0.083
 7245SOL     OW22633   1.215   3.011   7.001
 7245SOL    HW122634   1.259   2.924   0.003
 7245SOL    HW222635   1.190   3.014   6.904
 7246SOL     OW22636   3.181   0.273   3.923
 7246SOL    HW122637   3.255   0.214   3.955
 7246SOL    HW222638   3.215   0.366   3.914
 7247SOL     OW22639   2.646   2.687   5.385
 7247SOL    HW122640   2.709   2.622   5.428
 7247SOL    HW222641   2.568   2.638   5.347
 7248SOL     OW22642   3.589   1.017   4.559
 7248SOL    HW122643   3.667   0.975   4.606
 7248SOL    HW222644   3.541   1.078   4.622
 7249SOL     OW22645   3.766   5.305   1.672
 7249SOL    HW122646   3.686   5.277   1.725
 7249SOL    HW222647   3.847   5.300   1.730
 7250SOL     OW22648   5.098   5.920   5.771
 7250SOL    HW122649   5.130   5.976   5.694
 7250SOL    HW222650   5.005   5.946   5.796
 7251SOL     OW22651   0.373   5.656   5.640
 7251SOL    HW122652   0.322   5.571   5.639
 7251SOL    HW222653   0.469   5.638   5.618
 7252SOL     OW22654   3.329   4.082   2.254
 7252SOL    HW122655   3.350   3.985   2.240
 7252SOL    HW222656   3.352   4.133   2.171
 7253SOL     OW22657   1.581   5.559   5.478
 7253SOL    HW122658   1.570   5.462   5.458
 7253SOL    HW222659   1.540   5.613   5.404
 7254SOL     OW22660   4.844   3.964   3.838
 7254SOL    HW122661   4.897   3.950   3.754
 7254SOL    HW222662   4.782   4.042   3.825
 7255SOL     OW22663   5.200   3.382   6.721
 7255SOL    HW122664   5.281   3.438   6.736
 7255SOL    HW222665   5.211   3.329   6.637
 7256SOL     OW22666   3.305   6.270   6.376
 7256SOL    HW122667   3.316   6.177   6.410
 7256SOL    HW222668   3.389   6.299   6.330
 7257SOL     OW22669   0.842   1.238   4.578
 7257SOL    HW122670   0.912   1.233   4.507
 7257SOL    HW222671   0.763   1.290   4.544
 7258SOL     OW22672   6.052   1.910   3.268
 7258SOL    HW122673   5.962   1.867   3.267
 7258SOL    HW222674   6.093   1.901   3.177
 7259SOL     OW22675   0.905   3.988   2.941
 7259SOL    HW122676   0.955   3.908   2.907
 7259SOL    HW222677   0.863   3.966   3.029
 7260SOL     OW22678   5.233   3.177   0.483
 7260SOL    HW122679   5.172   3.105   0.514
 7260SOL    HW222680   5.241   3.174   0.383
 7261SOL     OW22681   0.130   4.103   0.529
 7261SOL    HW122682   0.144   4.018   0.478
 7261SOL    HW222683   0.051   4.152   0.491
 7262SOL     OW22684   6.211   1.900   6.225
 7262SOL    HW122685   6.247   1.842   6.152
 7262SOL    HW222686   6.203   1.994   6.191
 7263SOL     OW22687   0.423   5.345   6.926
 7263SOL    HW122688   0.366   5.326   7.006
 7263SOL    HW222689   0.474   5.429   6.940
 7264SOL     OW22690   5.667   1.012   0.284
 7264SOL    HW122691   5.588   1.019   0.223
 7264SOL    HW222692   5.663   1.085   0.352
 7265SOL     OW22693   4.035   5.789   5.340
 7265SOL    HW122694   4.112   5.747   5.389
 7265SOL    HW222695   4.059   5.800   5.244
 7266SOL     OW22696   0.007   0.393   3.987
 7266SOL    HW122697   6.978   0.360   3.905
 7266SOL    HW222698   6.962   0.444   4.044
 7267SOL     OW22699   6.259   5.638   5.235
 7267SOL    HW122700   6.308   5.611   5.317
 7267SOL    HW222701   6.300   5.594   5.155
 7268SOL     OW22702   6.261   6.162   4.388
 7268SOL    HW122703   6.307   6.177   4.475
 7268SOL    HW222704   6.187   6.096   4.400
 7269SOL     OW22705   2.603   5.135   5.412
 7269SOL    HW122706   2.600   5.177   5.321
 7269SOL    HW222707   2.515   5.091   5.432
 7270SOL     OW22708   0.730   1.436   3.890
 7270SOL    HW122709   0.653   1.394   3.937
 7270SOL    HW222710   0.814   1.388   3.914
 7271SOL     OW22711   0.672   4.161   3.350
 7271SOL    HW122712   0.689   4.211   3.265
 7271SOL    HW222713   0.574   4.161   3.370
 7272SOL     OW22714   6.275   5.625   2.627
 7272SOL    HW122715   6.231   5.705   2.667
 7272SOL    HW222716   6.309   5.565   2.701
 7273SOL     OW22717   0.103   2.816   5.734
 7273SOL    HW122718   0.088   2.768   5.647
 7273SOL    HW222719   0.073   2.910   5.726
 7274SOL     OW22720   0.476   4.475   0.207
 7274SOL    HW122721   0.429   4.522   0.132
 7274SOL    HW222722   0.414   4.408   0.248
 7275SOL     OW22723   6.441   0.019   2.908
 7275SOL    HW122724   6.519   0.073   2.942
 7275SOL    HW222725   6.376   0.080   2.863
 7276SOL     OW22726   4.511   6.362   3.835
 7276SOL    HW122727   4.521   6.362   3.735
 7276SOL    HW222728   4.596   6.332   3.877
 7277SOL     OW22729   4.560   0.460   5.762
 7277SOL    HW122730   4.585   0.500   5.674
 7277SOL    HW222731   4.462   0.439   5.762
 7278SOL     OW22732   3.435   4.142   2.490
 7278SOL    HW122733   3.444   4.148   2.390
 7278SOL    HW222734   3.344   4.111   2.514
 7279SOL     OW22735   3.924   6.037   0.217
 7279SOL    HW122736   3.911   5.978   0.137
 7279SOL    HW222737   3.989   5.994   0.279
 7280SOL     OW22738   4.429   0.149   5.436
 7280SOL    HW122739   4.382   0.116   5.518
 7280SOL    HW222740   4.448   0.246   5.446
 7281SOL     OW22741   3.943   1.819   6.309
 7281SOL    HW122742   3.982   1.903   6.272
 7281SOL    HW222743   3.910   1.762   6.233
 7282SOL     OW22744   5.767   5.763   2.108
 7282SOL    HW122745   5.794   5.845   2.158
 7282SOL    HW222746   5.688   5.721   2.153
 7283SOL     OW22747   2.829   1.079   3.300
 7283SOL    HW122748   2.733   1.106   3.310
 7283SOL    HW222749   2.835   1.002   3.236
 7284SOL     OW22750   6.792   3.427   5.332
 7284SOL    HW122751   6.777   3.446   5.235
 7284SOL    HW222752   6.871   3.480   5.364
 7285SOL     OW22753   4.546   5.768   1.905
 7285SOL    HW122754   4.480   5.836   1.873
 7285SOL    HW222755   4.548   5.691   1.841
 7286SOL     OW22756   2.530   2.632   0.959
 7286SOL    HW122757   2.541   2.533   0.965
 7286SOL    HW222758   2.533   2.671   1.051
 7287SOL     OW22759   6.547   0.701   6.830
 7287SOL    HW122760   6.559   0.618   6.884
 7287SOL    HW222761   6.450   0.718   6.816
 7288SOL     OW22762   3.918   0.106   6.611
 7288SOL    HW122763   3.956   0.082   6.522
 7288SOL    HW222764   3.824   0.074   6.617
 7289SOL     OW22765   5.844   1.771   3.185
 7289SOL    HW122766   5.854   1.798   3.089
 7289SOL    HW222767   5.829   1.672   3.190
 7290SOL     OW22768   2.613   5.232   5.171
 7290SOL    HW122769   2.701   5.230   5.124
 7290SOL    HW222770   2.552   5.296   5.124
 7291SOL     OW22771   2.588   6.272   1.132
 7291SOL    HW122772   2.567   6.367   1.157
 7291SOL    HW222773   2.520   6.239   1.067
 7292SOL     OW22774   2.815   6.735   3.186
 7292SOL    HW122775   2.824   6.831   3.160
 7292SOL    HW222776   2.906   6.697   3.204
 7293SOL     OW22777   1.598   1.793   4.876
 7293SOL    HW122778   1.560   1.884   4.861
 7293SOL    HW222779   1.651   1.792   4.961
 7294SOL     OW22780   2.703   5.013   0.126
 7294SOL    HW122781   2.682   5.033   0.221
 7294SOL    HW222782   2.619   4.983   0.080
 7295SOL     OW22783   0.188   1.764   0.577
 7295SOL    HW122784   0.236   1.795   0.495
 7295SOL    HW222785   0.243   1.788   0.658
 7296SOL     OW22786   2.986   4.859   0.675
 7296SOL    HW122787   2.954   4.785   0.733
 7296SOL    HW222788   3.036   4.926   0.730
 7297SOL     OW22789   4.344   6.641   0.607
 7297SOL    HW122790   4.439   6.611   0.602
 7297SOL    HW222791   4.286   6.562   0.627
 7298SOL     OW22792   5.597   4.104   4.618
 7298SOL    HW122793   5.524   4.170   4.601
 7298SOL    HW222794   5.674   4.150   4.661
 7299SOL     OW22795   6.906   2.686   0.653
 7299SOL    HW122796   6.884   2.758   0.718
 7299SOL    HW222797   6.852   2.699   0.569
 7300SOL     OW22798   5.031   5.874   0.838
 7300SOL    HW122799   4.931   5.874   0.845
 7300SOL    HW222800   5.060   5.949   0.778
 7301SOL     OW22801   6.839   0.081   5.930
 7301SOL    HW122802   6.925   0.040   5.962
 7301SOL    HW222803   6.807   0.147   5.998
 7302SOL     OW22804   0.160   1.160   0.266
 7302SOL    HW122805   0.241   1.207   0.233
 7302SOL    HW222806   0.183   1.104   0.346
 7303SOL     OW22807   3.632   0.405   6.693
 7303SOL    HW122808   3.681   0.318   6.702
 7303SOL    HW222809   3.593   0.412   6.601
 7304SOL     OW22810   4.429   3.586   6.033
 7304SOL    HW122811   4.400   3.573   6.127
 7304SOL    HW222812   4.445   3.684   6.016
 7305SOL     OW22813   5.240   2.068   0.105
 7305SOL    HW122814   5.263   1.972   0.120
 7305SOL    HW222815   5.227   2.113   0.193
 7306SOL     OW22816   5.099   3.939   1.516
 7306SOL    HW122817   5.030   3.931   1.443
 7306SOL    HW222818   5.082   4.023   1.568
 7307SOL     OW22819   3.040   6.826   1.889
 7307SOL    HW122820   3.075   6.735   1.867
 7307SOL    HW222821   2.940   6.825   1.885
 7308SOL     OW22822   6.799   3.585   4.139
 7308SOL    HW122823   6.847   3.640   4.070
 7308SOL    HW222824   6.862   3.518   4.177
 7309SOL     OW22825   5.352   6.190   0.619
 7309SOL    HW122826   5.337   6.154   0.527
 7309SOL    HW222827   5.445   6.225   0.627
 7310SOL     OW22828   2.526   5.664   1.313
 7310SOL    HW122829   2.431   5.665   1.342
 7310SOL    HW222830   2.574   5.742   1.352
 7311SOL     OW22831   2.686   2.218   2.113
 7311SOL    HW122832   2.695   2.172   2.201
 7311SOL    HW222833   2.776   2.225   2.069
 7312SOL     OW22834   6.962   2.122   5.516
 7312SOL    HW122835   6.959   2.204   5.460
 7312SOL    HW222836   0.035   2.112   5.556
 7313SOL     OW22837   4.236   2.479   6.428
 7313SOL    HW122838   4.311   2.464   6.494
 7313SOL    HW222839   4.272   2.524   6.347
 7314SOL     OW22840   6.693   3.750   5.417
 7314SOL    HW122841   6.625   3.703   5.474
 7314SOL    HW222842   6.783   3.710   5.433
 7315SOL     OW22843   6.017   7.003   3.976
 7315SOL    HW122844   6.008   6.963   4.067
 7315SOL    HW222845   6.024   0.084   3.983
 7316SOL     OW22846   3.758   3.020   5.499
 7316SOL    HW122847   3.672   3.056   5.534
 7316SOL    HW222848   3.826   3.017   5.572
 7317SOL     OW22849   3.875   0.929   2.619
 7317SOL    HW122850   3.947   0.965   2.560
 7317SOL    HW222851   3.857   0.833   2.596
 7318SOL     OW22852   0.849   1.592   1.837
 7318SOL    HW122853   0.782   1.544   1.781
 7318SOL    HW222854   0.815   1.602   1.930
 7319SOL     OW22855   6.048   4.156   0.042
 7319SOL    HW122856   6.113   4.219   0.082
 7319SOL    HW222857   6.013   4.194   6.975
 7320SOL     OW22858   0.348   3.522   2.392
 7320SOL    HW122859   0.251   3.525   2.417
 7320SOL    HW222860   0.397   3.461   2.454
 7321SOL     OW22861   2.463   1.028   4.786
 7321SOL    HW122862   2.479   1.030   4.884
 7321SOL    HW222863   2.372   1.066   4.766
 7322SOL     OW22864   1.143   3.802   3.177
 7322SOL    HW122865   1.170   3.898   3.172
 7322SOL    HW222866   1.070   3.791   3.245
 7323SOL     OW22867   1.824   2.115   3.313
 7323SOL    HW122868   1.820   2.069   3.224
 7323SOL    HW222869   1.879   2.198   3.305
 7324SOL     OW22870   5.604   0.627   3.562
 7324SOL    HW122871   5.604   0.531   3.590
 7324SOL    HW222872   5.642   0.635   3.470
 7325SOL     OW22873   4.202   6.406   6.263
 7325SOL    HW122874   4.219   6.486   6.320
 7325SOL    HW222875   4.169   6.331   6.320
 7326SOL     OW22876   2.508   6.470   5.678
 7326SOL    HW122877   2.492   6.542   5.746
 7326SOL    HW222878   2.582   6.410   5.709
 7327SOL     OW22879   1.015   3.305   5.935
 7327SOL    HW122880   1.097   3.263   5.973
 7327SOL    HW222881   0.934   3.253   5.965
 7328SOL     OW22882   3.259   0.062   0.105
 7328SOL    HW122883   3.338   0.087   0.050
 7328SOL    HW222884   3.220   0.144   0.147
 7329SOL     OW22885   4.448   3.386   0.985
 7329SOL    HW122886   4.353   3.403   0.956
 7329SOL    HW222887   4.448   3.315   1.056
 7330SOL     OW22888   3.377   1.909   6.655
 7330SOL    HW122889   3.412   1.822   6.621
 7330SOL    HW222890   3.431   1.938   6.734
 7331SOL     OW22891   5.158   0.983   2.017
 7331SOL    HW122892   5.212   1.057   2.058
 7331SOL    HW222893   5.159   0.904   2.078
 7332SOL     OW22894   2.645   6.186   0.005
 7332SOL    HW122895   2.737   6.148   0.015
 7332SOL    HW222896   2.614   6.175   6.929
 7333SOL     OW22897   0.856   4.712   3.159
 7333SOL    HW122898   0.776   4.729   3.102
 7333SOL    HW222899   0.930   4.774   3.132
 7334SOL     OW22900   3.657   5.700   5.027
 7334SOL    HW122901   3.564   5.733   5.009
 7334SOL    HW222902   3.701   5.760   5.095
 7335SOL     OW22903   1.414   2.592   2.596
 7335SOL    HW122904   1.342   2.530   2.562
 7335SOL    HW222905   1.481   2.608   2.524
 7336SOL     OW22906   1.514   5.920   3.980
 7336SOL    HW122907   1.575   5.996   3.959
 7336SOL    HW222908   1.562   5.833   3.966
 7337SOL     OW22909   1.198   3.084   2.122
 7337SOL    HW122910   1.160   3.043   2.205
 7337SOL    HW222911   1.133   3.074   2.047
 7338SOL     OW22912   6.726   2.622   1.705
 7338SOL    HW122913   6.762   2.649   1.615
 7338SOL    HW222914   6.772   2.674   1.776
 7339SOL     OW22915   6.361   6.023   4.176
 7339SOL    HW122916   6.333   6.071   4.259
 7339SOL    HW222917   6.300   6.047   4.101
 7340SOL     OW22918   2.360   0.238   6.943
 7340SOL    HW122919   2.440   0.198   6.898
 7340SOL    HW222920   2.361   0.214   0.022
 7341SOL     OW22921   6.247   2.003   0.325
 7341SOL    HW122922   6.272   2.012   0.421
 7341SOL    HW222923   6.294   2.073   0.271
 7342SOL     OW22924   6.752   6.562   2.937
 7342SOL    HW122925   6.674   6.553   2.999
 7342SOL    HW222926   6.800   6.648   2.955
 7343SOL     OW22927   5.034   2.721   0.352
 7343SOL    HW122928   5.090   2.638   0.358
 7343SOL    HW222929   4.962   2.717   0.420
 7344SOL     OW22930   1.134   6.016   5.720
 7344SOL    HW122931   1.147   5.949   5.793
 7344SOL    HW222932   1.169   5.980   5.634
 7345SOL     OW22933   3.996   3.157   5.886
 7345SOL    HW122934   3.925   3.187   5.822
 7345SOL    HW222935   3.956   3.096   5.954
 7346SOL     OW22936   3.655   5.589   2.714
 7346SOL    HW122937   3.558   5.587   2.741
 7346SOL    HW222938   3.709   5.540   2.781
 7347SOL     OW22939   6.555   1.959   0.291
 7347SOL    HW122940   6.491   1.885   0.313
 7347SOL    HW222941   6.511   2.023   0.228
 7348SOL     OW22942   1.811   4.367   2.796
 7348SOL    HW122943   1.752   4.412   2.729
 7348SOL    HW222944   1.843   4.280   2.760
 7349SOL     OW22945   3.992   0.658   1.216
 7349SOL    HW122946   4.030   0.750   1.202
 7349SOL    HW222947   3.899   0.655   1.180
 7350SOL     OW22948   2.890   0.502   5.089
 7350SOL    HW122949   2.819   0.547   5.035
 7350SOL    HW222950   2.906   0.410   5.053
 7351SOL     OW22951   4.385   5.180   3.736
 7351SOL    HW122952   4.456   5.139   3.794
 7351SOL    HW222953   4.368   5.120   3.658
 7352SOL     OW22954   0.503   2.516   3.379
 7352SOL    HW122955   0.421   2.567   3.354
 7352SOL    HW222956   0.584   2.567   3.353
 7353SOL     OW22957   6.110   0.105   6.950
 7353SOL    HW122958   6.041   0.149   7.007
 7353SOL    HW222959   6.189   0.166   6.940
 7354SOL     OW22960   1.187   1.750   3.121
 7354SOL    HW122961   1.108   1.776   3.176
 7354SOL    HW222962   1.158   1.686   3.050
 7355SOL     OW22963   0.311   1.761   6.406
 7355SOL    HW122964   0.236   1.799   6.459
 7355SOL    HW222965   0.335   1.824   6.332
 7356SOL     OW22966   4.074   3.469   5.936
 7356SOL    HW122967   4.150   3.483   5.872
 7356SOL    HW222968   4.052   3.371   5.939
 7357SOL     OW22969   4.952   5.373   1.623
 7357SOL    HW122970   5.002   5.408   1.544
 7357SOL    HW222971   5.017   5.342   1.693
 7358SOL     OW22972   5.812   2.200   2.695
 7358SOL    HW122973   5.842   2.275   2.636
 7358SOL    HW222974   5.820   2.227   2.791
 7359SOL     OW22975   4.454   0.700   5.906
 7359SOL    HW122976   4.497   0.636   5.842
 7359SOL    HW222977   4.518   0.720   5.980
 7360SOL     OW22978   2.511   3.343   5.573
 7360SOL    HW122979   2.477   3.271   5.513
 7360SOL    HW222980   2.456   3.426   5.560
 7361SOL     OW22981   4.661   0.200   2.383
 7361SOL    HW122982   4.716   0.201   2.466
 7361SOL    HW222983   4.682   0.118   2.330
 7362SOL     OW22984   4.113   5.642   6.595
 7362SOL    HW122985   4.212   5.651   6.588
 7362SOL    HW222986   4.070   5.726   6.562
 7363SOL     OW22987   3.770   1.023   0.852
 7363SOL    HW122988   3.736   1.117   0.860
 7363SOL    HW222989   3.823   1.000   0.934
 7364SOL     OW22990   4.532   0.226   1.814
 7364SOL    HW122991   4.606   0.229   1.747
 7364SOL    HW222992   4.519   0.317   1.853
 7365SOL     OW22993   6.309   4.747   2.382
 7365SOL    HW122994   6.326   4.842   2.409
 7365SOL    HW222995   6.234   4.744   2.317
 7366SOL     OW22996   2.433   1.209   3.933
 7366SOL    HW122997   2.529   1.234   3.932
 7366SOL    HW222998   2.377   1.293   3.934
 7367SOL     OW22999   5.134   1.206   6.314
 7367SOL    HW123000   5.058   1.163   6.361
 7367SOL    HW223001   5.155   1.155   6.230
 7368SOL     OW23002   3.834   2.990   2.473
 7368SOL    HW123003   3.741   2.982   2.437
 7368SOL    HW223004   3.831   2.990   2.573
 7369SOL     OW23005   4.611   2.485   0.448
 7369SOL    HW123006   4.646   2.479   0.354
 7369SOL    HW223007   4.666   2.426   0.507
 7370SOL     OW23008   2.161   1.521   4.814
 7370SOL    HW123009   2.215   1.601   4.840
 7370SOL    HW223010   2.114   1.486   4.895
 7371SOL     OW23011   4.184   6.788   3.701
 7371SOL    HW123012   4.157   6.850   3.628
 7371SOL    HW223013   4.261   6.828   3.752
 7372SOL     OW23014   3.881   0.077   4.811
 7372SOL    HW123015   3.898   0.173   4.787
 7372SOL    HW223016   3.917   0.018   4.739
 7373SOL     OW23017   4.976   2.662   4.486
 7373SOL    HW123018   4.889   2.706   4.466
 7373SOL    HW223019   5.000   2.676   4.582
 7374SOL     OW23020   0.633   1.533   4.811
 7374SOL    HW123021   0.571   1.460   4.841
 7374SOL    HW223022   0.726   1.511   4.840
 7375SOL     OW23023   2.039   2.917   2.092
 7375SOL    HW123024   1.944   2.919   2.059
 7375SOL    HW223025   2.066   2.822   2.108
 7376SOL     OW23026   0.612   3.965   0.997
 7376SOL    HW123027   0.694   4.020   0.980
 7376SOL    HW223028   0.595   3.905   0.920
 7377SOL     OW23029   3.239   5.807   0.349
 7377SOL    HW123030   3.173   5.751   0.399
 7377SOL    HW223031   3.191   5.865   0.283
 7378SOL     OW23032   1.607   6.599   3.956
 7378SOL    HW123033   1.662   6.516   3.961
 7378SOL    HW223034   1.551   6.607   4.038
 7379SOL     OW23035   4.431   0.766   1.036
 7379SOL    HW123036   4.378   0.790   1.116
 7379SOL    HW223037   4.527   0.792   1.050
 7380SOL     OW23038   5.730   4.162   3.417
 7380SOL    HW123039   5.647   4.145   3.471
 7380SOL    HW223040   5.803   4.195   3.476
 7381SOL     OW23041   3.858   1.061   0.155
 7381SOL    HW123042   3.761   1.065   0.129
 7381SOL    HW223043   3.866   1.065   0.255
 7382SOL     OW23044   0.008   1.469   6.215
 7382SOL    HW123045   0.107   1.469   6.226
 7382SOL    HW223046   6.996   1.559   6.184
 7383SOL     OW23047   1.759   6.879   1.754
 7383SOL    HW123048   1.746   6.788   1.714
 7383SOL    HW223049   1.843   6.879   1.809
 7384SOL     OW23050   0.503   0.121   1.182
 7384SOL    HW123051   0.483   0.209   1.140
 7384SOL    HW223052   0.419   0.068   1.189
 7385SOL     OW23053   4.345   4.955   2.736
 7385SOL    HW123054   4.416   4.944   2.806
 7385SOL    HW223055   4.349   4.878   2.672
 7386SOL     OW23056   6.150   3.155   0.781
 7386SOL    HW123057   6.178   3.060   0.792
 7386SOL    HW223058   6.209   3.214   0.837
 7387SOL     OW23059   6.354   4.651   5.459
 7387SOL    HW123060   6.436   4.655   5.516
 7387SOL    HW223061   6.379   4.666   5.364
 7388SOL     OW23062   1.712   6.352   2.314
 7388SOL    HW123063   1.614   6.356   2.298
 7388SOL    HW223064   1.755   6.292   2.246
 7389SOL     OW23065   6.829   2.935   0.456
 7389SOL    HW123066   6.862   3.007   0.517
 7389SOL    HW223067   6.876   2.941   0.368
 7390SOL     OW23068   2.733   2.210   2.618
 7390SOL    HW123069   2.711   2.266   2.538
 7390SOL    HW223070   2.662   2.140   2.629
 7391SOL     OW23071   3.262   2.968   2.806
 7391SOL    HW123072   3.258   3.034   2.881
 7391SOL    HW223073   3.345   2.914   2.812
 7392SOL     OW23074   4.137   5.206   6.671
 7392SOL    HW123075   4.130   5.199   6.770
 7392SOL    HW223076   4.101   5.123   6.629
 7393SOL     OW23077   5.906   5.246   4.589
 7393SOL    HW123078   5.911   5.295   4.502
 7393SOL    HW223079   5.992   5.259   4.640
 7394SOL     OW23080   2.240   2.620   6.240
 7394SOL    HW123081   2.183   2.540   6.258
 7394SOL    HW223082   2.256   2.627   6.141
 7395SOL     OW23083   2.801   4.155   0.801
 7395SOL    HW123084   2.798   4.125   0.896
 7395SOL    HW223085   2.896   4.164   0.772
 7396SOL     OW23086   2.462   5.232   1.570
 7396SOL    HW123087   2.515   5.241   1.654
 7396SOL    HW223088   2.451   5.136   1.547
 7397SOL     OW23089   5.626   3.918   4.059
 7397SOL    HW123090   5.610   3.827   4.021
 7397SOL    HW223091   5.543   3.949   4.107
 7398SOL     OW23092   2.074   4.516   2.744
 7398SOL    HW123093   2.105   4.471   2.828
 7398SOL    HW223094   1.978   4.494   2.728
 7399SOL     OW23095   5.437   1.818   4.639
 7399SOL    HW123096   5.486   1.850   4.720
 7399SOL    HW223097   5.481   1.855   4.557
 7400SOL     OW23098   5.480   2.263   5.469
 7400SOL    HW123099   5.575   2.294   5.459
 7400SOL    HW223100   5.438   2.310   5.547
 7401SOL     OW23101   0.976   2.655   3.637
 7401SOL    HW123102   0.998   2.670   3.733
 7401SOL    HW223103   1.044   2.594   3.597
 7402SOL     OW23104   2.677   6.146   5.531
 7402SOL    HW123105   2.749   6.168   5.464
 7402SOL    HW223106   2.694   6.198   5.615
 7403SOL     OW23107   1.269   3.064   4.375
 7403SOL    HW123108   1.277   3.068   4.275
 7403SOL    HW223109   1.247   3.155   4.411
 7404SOL     OW23110   3.168   3.606   1.040
 7404SOL    HW123111   3.234   3.649   1.101
 7404SOL    HW223112   3.194   3.511   1.023
 7405SOL     OW23113   2.866   5.778   5.746
 7405SOL    HW123114   2.904   5.832   5.671
 7405SOL    HW223115   2.869   5.831   5.830
 7406SOL     OW23116   0.568   0.890   5.035
 7406SOL    HW123117   0.490   0.874   4.975
 7406SOL    HW223118   0.605   0.981   5.018
 7407SOL     OW23119   0.885   6.379   6.077
 7407SOL    HW123120   0.848   6.289   6.054
 7407SOL    HW223121   0.984   6.373   6.088
 7408SOL     OW23122   3.433   3.745   5.501
 7408SOL    HW123123   3.521   3.754   5.548
 7408SOL    HW223124   3.379   3.673   5.545
 7409SOL     OW23125   6.290   4.254   0.592
 7409SOL    HW123126   6.261   4.344   0.558
 7409SOL    HW223127   6.226   4.222   0.661
 7410SOL     OW23128   6.974   0.224   1.707
 7410SOL    HW123129   6.878   0.227   1.681
 7410SOL    HW223130   7.008   0.318   1.719
 7411SOL     OW23131   1.067   2.211   5.486
 7411SOL    HW123132   1.164   2.220   5.462
 7411SOL    HW223133   1.011   2.214   5.403
 7412SOL     OW23134   4.091   0.374   6.958
 7412SOL    HW123135   4.128   0.331   6.875
 7412SOL    HW223136   4.138   0.337   0.019
 7413SOL     OW23137   4.169   6.127   3.047
 7413SOL    HW123138   4.076   6.116   3.080
 7413SOL    HW223139   4.189   6.058   2.978
 7414SOL     OW23140   2.242   2.010   4.222
 7414SOL    HW123141   2.271   2.106   4.224
 7414SOL    HW223142   2.318   1.951   4.249
 7415SOL     OW23143   4.236   6.024   6.910
 7415SOL    HW123144   4.145   6.062   6.892
 7415SOL    HW223145   4.264   5.969   6.831
 7416SOL     OW23146   0.889   1.750   2.551
 7416SOL    HW123147   0.921   1.844   2.545
 7416SOL    HW223148   0.951   1.696   2.608
 7417SOL     OW23149   0.991   1.754   3.993
 7417SOL    HW123150   0.893   1.748   4.013
 7417SOL    HW223151   1.003   1.797   3.904
 7418SOL     OW23152   1.565   3.704   6.456
 7418SOL    HW123153   1.529   3.633   6.397
 7418SOL    HW223154   1.499   3.779   6.463
 7419SOL     OW23155   6.687   3.881   3.963
 7419SOL    HW123156   6.682   3.930   4.050
 7419SOL    HW223157   6.604   3.829   3.949
 7420SOL     OW23158   6.449   0.199   1.912
 7420SOL    HW123159   6.465   0.190   1.813
 7420SOL    HW223160   6.407   0.288   1.931
 7421SOL     OW23161   5.067   3.878   1.820
 7421SOL    HW123162   5.032   3.969   1.797
 7421SOL    HW223163   4.990   3.814   1.828
 7422SOL     OW23164   5.794   2.746   1.906
 7422SOL    HW123165   5.746   2.734   1.819
 7422SOL    HW223166   5.728   2.764   1.979
 7423SOL     OW23167   5.404   1.695   5.942
 7423SOL    HW123168   5.407   1.794   5.931
 7423SOL    HW223169   5.350   1.655   5.868
 7424SOL     OW23170   0.362   1.189   4.309
 7424SOL    HW123171   0.422   1.159   4.382
 7424SOL    HW223172   0.372   1.128   4.230
 7425SOL     OW23173   5.610   0.041   0.485
 7425SOL    HW123174   5.654   0.009   0.401
 7425SOL    HW223175   5.606   6.985   0.551
 7426SOL     OW23176   3.573   2.696   5.907
 7426SOL    HW123177   3.601   2.693   5.811
 7426SOL    HW223178   3.586   2.607   5.949
 7427SOL     OW23179   3.798   1.685   4.075
 7427SOL    HW123180   3.855   1.765   4.094
 7427SOL    HW223181   3.832   1.637   3.995
 7428SOL     OW23182   4.293   5.994   5.745
 7428SOL    HW123183   4.251   5.945   5.821
 7428SOL    HW223184   4.234   5.991   5.665
 7429SOL     OW23185   1.863   0.335   2.279
 7429SOL    HW123186   1.764   0.348   2.276
 7429SOL    HW223187   1.894   0.300   2.191
 7430SOL     OW23188   6.233   5.180   3.075
 7430SOL    HW123189   6.193   5.247   3.012
 7430SOL    HW223190   6.232   5.090   3.033
 7431SOL     OW23191   1.744   2.047   4.626
 7431SOL    HW123192   1.785   1.992   4.699
 7431SOL    HW223193   1.678   1.992   4.576
 7432SOL     OW23194   1.741   0.215   3.249
 7432SOL    HW123195   1.759   0.218   3.348
 7432SOL    HW223196   1.652   0.256   3.230
 7433SOL     OW23197   2.170   0.207   6.749
 7433SOL    HW123198   2.240   0.226   6.817
 7433SOL    HW223199   2.081   0.236   6.784
 7434SOL     OW23200   3.966   5.921   5.646
 7434SOL    HW123201   4.038   5.961   5.589
 7434SOL    HW223202   3.976   5.821   5.647
 7435SOL     OW23203   4.920   6.126   3.178
 7435SOL    HW123204   4.874   6.078   3.252
 7435SOL    HW223205   4.852   6.172   3.120
 7436SOL     OW23206   5.486   3.086   6.470
 7436SOL    HW123207   5.535   3.020   6.413
 7436SOL    HW223208   5.505   3.067   6.567
 7437SOL     OW23209   4.258   6.360   1.348
 7437SOL    HW123210   4.172   6.410   1.338
 7437SOL    HW223211   4.312   6.369   1.265
 7438SOL     OW23212   2.593   0.719   0.014
 7438SOL    HW123213   2.582   0.635   6.980
 7438SOL    HW223214   2.556   0.796   6.981
 7439SOL     OW23215   1.043   4.703   6.379
 7439SOL    HW123216   0.978   4.742   6.444
 7439SOL    HW223217   1.048   4.604   6.393
 7440SOL     OW23218   5.155   3.493   4.192
 7440SOL    HW123219   5.073   3.466   4.241
 7440SOL    HW223220   5.129   3.541   4.108
 7441SOL     OW23221   6.059   6.642   1.600
 7441SOL    HW123222   6.127   6.572   1.624
 7441SOL    HW223223   5.967   6.604   1.612
 7442SOL     OW23224   5.000   0.628   5.110
 7442SOL    HW123225   4.976   0.531   5.110
 7442SOL    HW223226   5.048   0.650   5.195
 7443SOL     OW23227   0.155   0.078   2.079
 7443SOL    HW123228   0.095   0.071   2.159
 7443SOL    HW223229   0.205   0.164   2.082
 7444SOL     OW23230   0.499   6.415   6.469
 7444SOL    HW123231   0.444   6.497   6.455
 7444SOL    HW223232   0.439   6.335   6.473
 7445SOL     OW23233   4.568   5.794   1.587
 7445SOL    HW123234   4.514   5.719   1.627
 7445SOL    HW223235   4.652   5.757   1.547
 7446SOL     OW23236   5.022   3.880   0.324
 7446SOL    HW123237   4.986   3.865   0.416
 7446SOL    HW223238   4.952   3.858   0.257
 7447SOL     OW23239   1.129   4.875   1.604
 7447SOL    HW123240   1.142   4.972   1.627
 7447SOL    HW223241   1.032   4.853   1.603
 7448SOL     OW23242   4.868   5.019   6.008
 7448SOL    HW123243   4.802   5.016   5.933
 7448SOL    HW223244   4.853   5.102   6.063
 7449SOL     OW23245   0.485   4.431   6.880
 7449SOL    HW123246   0.439   4.346   6.856
 7449SOL    HW223247   0.571   4.438   6.829
 7450SOL     OW23248   5.318   1.595   5.676
 7450SOL    HW123249   5.267   1.617   5.592
 7450SOL    HW223250   5.265   1.529   5.730
 7451SOL     OW23251   5.618   5.000   2.322
 7451SOL    HW123252   5.704   5.031   2.362
 7451SOL    HW223253   5.613   4.900   2.328
 7452SOL     OW23254   5.697   5.415   5.246
 7452SOL    HW123255   5.667   5.352   5.318
 7452SOL    HW223256   5.788   5.387   5.213
 7453SOL     OW23257   4.463   5.650   6.976
 7453SOL    HW123258   4.476   5.551   6.969
 7453SOL    HW223259   4.460   5.690   6.885
 7454SOL     OW23260   3.919   2.211   0.589
 7454SOL    HW123261   3.828   2.180   0.565
 7454SOL    HW223262   3.973   2.224   0.506
 7455SOL     OW23263   6.547   2.857   3.287
 7455SOL    HW123264   6.563   2.768   3.245
 7455SOL    HW223265   6.526   2.925   3.217
 7456SOL     OW23266   3.117   2.116   5.510
 7456SOL    HW123267   3.210   2.145   5.531
 7456SOL    HW223268   3.077   2.178   5.442
 7457SOL     OW23269   2.849   0.001   3.159
 7457SOL    HW123270   2.849   0.100   3.142
 7457SOL    HW223271   2.943   6.989   3.174
 7458SOL     OW23272   1.332   5.966   5.519
 7458SOL    HW123273   1.328   5.872   5.485
 7458SOL    HW223274   1.405   6.015   5.471
 7459SOL     OW23275   5.967   0.857   3.212
 7459SOL    HW123276   6.000   0.941   3.253
 7459SOL    HW223277   6.030   0.828   3.139
 7460SOL     OW23278   1.397   0.035   1.038
 7460SOL    HW123279   1.338   6.991   1.088
 7460SOL    HW223280   1.431   0.106   1.100
 7461SOL     OW23281   1.192   5.274   5.928
 7461SOL    HW123282   1.287   5.289   5.955
 7461SOL    HW223283   1.151   5.360   5.897
 7462SOL     OW23284   1.250   4.927   1.247
 7462SOL    HW123285   1.252   4.991   1.169
 7462SOL    HW223286   1.184   4.854   1.228
 7463SOL     OW23287   3.900   4.449   0.431
 7463SOL    HW123288   3.826   4.513   0.453
 7463SOL    HW223289   3.908   4.381   0.504
 7464SOL     OW23290   6.475   6.159   5.468
 7464SOL    HW123291   6.438   6.157   5.561
 7464SOL    HW223292   6.468   6.068   5.427
 7465SOL     OW23293   2.294   4.972   0.160
 7465SOL    HW123294   2.368   4.918   0.120
 7465SOL    HW223295   2.264   5.041   0.095
 7466SOL     OW23296   0.676   6.563   4.925
 7466SOL    HW123297   0.616   6.636   4.956
 7466SOL    HW223298   0.640   6.522   4.841
 7467SOL     OW23299   0.276   3.410   5.957
 7467SOL    HW123300   0.336   3.459   6.020
 7467SOL    HW223301   0.251   3.322   5.995
 7468SOL     OW23302   5.980   3.551   5.900
 7468SOL    HW123303   5.962   3.532   5.803
 7468SOL    HW223304   6.041   3.630   5.907
 7469SOL     OW23305   0.020   2.486   1.040
 7469SOL    HW123306   0.110   2.445   1.049
 7469SOL    HW223307   0.030   2.584   1.021
 7470SOL     OW23308   5.418   3.550   3.803
 7470SOL    HW123309   5.394   3.587   3.714
 7470SOL    HW223310   5.348   3.484   3.833
 7471SOL     OW23311   5.367   5.668   6.221
 7471SOL    HW123312   5.287   5.686   6.163
 7471SOL    HW223313   5.356   5.578   6.264
 7472SOL     OW23314   6.113   6.176   5.465
 7472SOL    HW123315   6.014   6.182   5.478
 7472SOL    HW223316   6.133   6.159   5.369
 7473SOL     OW23317   3.627   6.081   3.769
 7473SOL    HW123318   3.662   6.175   3.765
 7473SOL    HW223319   3.559   6.074   3.842
 7474SOL     OW23320   6.837   1.987   5.295
 7474SOL    HW123321   6.751   2.033   5.318
 7474SOL    HW223322   6.891   1.975   5.377
 7475SOL     OW23323   4.696   2.295   1.075
 7475SOL    HW123324   4.735   2.350   1.149
 7475SOL    HW223325   4.672   2.354   0.998
 7476SOL     OW23326   2.322   1.264   3.243
 7476SOL    HW123327   2.286   1.186   3.293
 7476SOL    HW223328   2.250   1.305   3.188
 7477SOL     OW23329   0.874   4.391   5.513
 7477SOL    HW123330   0.783   4.371   5.476
 7477SOL    HW223331   0.942   4.382   5.440
 7478SOL     OW23332   0.527   1.606   5.566
 7478SOL    HW123333   0.610   1.573   5.521
 7478SOL    HW223334   0.452   1.543   5.545
 7479SOL     OW23335   6.310   3.015   6.861
 7479SOL    HW123336   6.312   3.064   6.949
 7479SOL    HW223337   6.230   3.044   6.809
 7480SOL     OW23338   3.775   5.189   2.199
 7480SOL    HW123339   3.716   5.254   2.247
 7480SOL    HW223340   3.728   5.101   2.191
 7481SOL     OW23341   0.334   3.955   6.776
 7481SOL    HW123342   0.345   3.884   6.846
 7481SOL    HW223343   0.422   4.001   6.760
 7482SOL     OW23344   4.110   2.194   2.480
 7482SOL    HW123345   4.155   2.233   2.399
 7482SOL    HW223346   4.026   2.148   2.451
 7483SOL     OW23347   4.408   2.265   5.903
 7483SOL    HW123348   4.393   2.172   5.938
 7483SOL    HW223349   4.383   2.268   5.806
 7484SOL     OW23350   2.916   6.549   3.977
 7484SOL    HW123351   2.961   6.462   3.957
 7484SOL    HW223352   2.912   6.604   3.894
 7485SOL     OW23353   2.580   6.828   4.320
 7485SOL    HW123354   2.496   6.880   4.336
 7485SOL    HW223355   2.630   6.819   4.405
 7486SOL     OW23356   2.280   6.250   0.482
 7486SOL    HW123357   2.202   6.190   0.493
 7486SOL    HW223358   2.281   6.287   0.388
 7487SOL     OW23359   3.832   6.405   3.842
 7487SOL    HW123360   3.764   6.380   3.911
 7487SOL    HW223361   3.884   6.484   3.874
 7488SOL     OW23362   0.859   5.592   3.906
 7488SOL    HW123363   0.832   5.579   3.811
 7488SOL    HW223364   0.831   5.513   3.961
 7489SOL     OW23365   6.373   3.461   6.782
 7489SOL    HW123366   6.399   3.558   6.778
 7489SOL    HW223367   6.432   3.408   6.722
 7490SOL     OW23368   1.081   2.122   2.326
 7490SOL    HW123369   1.125   2.123   2.415
 7490SOL    HW223370   0.982   2.137   2.337
 7491SOL     OW23371   4.292   2.959   0.149
 7491SOL    HW123372   4.280   3.038   0.209
 7491SOL    HW223373   4.215   2.953   0.086
 7492SOL     OW23374   1.843   0.281   4.159
 7492SOL    HW123375   1.896   0.311   4.080
 7492SOL    HW223376   1.889   0.203   4.203
 7493SOL     OW23377   6.419   4.394   5.198
 7493SOL    HW123378   6.331   4.351   5.179
 7493SOL    HW223379   6.418   4.489   5.168
 7494SOL     OW23380   5.990   1.465   2.922
 7494SOL    HW123381   5.996   1.368   2.898
 7494SOL    HW223382   6.071   1.492   2.974
 7495SOL     OW23383   1.916   3.444   4.890
 7495SOL    HW123384   1.849   3.509   4.926
 7495SOL    HW223385   1.890   3.418   4.797
 7496SOL     OW23386   5.247   4.189   2.431
 7496SOL    HW123387   5.247   4.099   2.474
 7496SOL    HW223388   5.251   4.178   2.331
 7497SOL     OW23389   0.376   6.564   0.278
 7497SOL    HW123390   0.365   6.567   0.179
 7497SOL    HW223391   0.286   6.555   0.322
 7498SOL     OW23392   2.994   0.292   3.211
 7498SOL    HW123393   3.015   0.202   3.251
 7498SOL    HW223394   3.047   0.304   3.127
 7499SOL     OW23395   3.929   1.821   3.305
 7499SOL    HW123396   4.004   1.776   3.353
 7499SOL    HW223397   3.848   1.825   3.364
 7500SOL     OW23398   3.915   6.325   2.853
 7500SOL    HW123399   3.949   6.401   2.909
 7500SOL    HW223400   3.845   6.275   2.904
 7501SOL     OW23401   6.076   2.327   4.639
 7501SOL    HW123402   6.011   2.267   4.592
 7501SOL    HW223403   6.165   2.282   4.645
 7502SOL     OW23404   4.116   0.206   4.364
 7502SOL    HW123405   4.111   0.166   4.456
 7502SOL    HW223406   4.046   0.164   4.306
 7503SOL     OW23407   1.542   6.202   1.233
 7503SOL    HW123408   1.534   6.255   1.317
 7503SOL    HW223409   1.638   6.181   1.215
 7504SOL     OW23410   6.283   6.749   3.371
 7504SOL    HW123411   6.250   6.799   3.291
 7504SOL    HW223412   6.291   6.812   3.448
 7505SOL     OW23413   1.144   6.664   5.197
 7505SOL    HW123414   1.173   6.673   5.102
 7505SOL    HW223415   1.180   6.578   5.235
 7506SOL     OW23416   2.443   1.797   3.694
 7506SOL    HW123417   2.405   1.889   3.693
 7506SOL    HW223418   2.542   1.802   3.706
 7507SOL     OW23419   6.350   4.098   4.600
 7507SOL    HW123420   6.274   4.139   4.549
 7507SOL    HW223421   6.372   4.009   4.561
 7508SOL     OW23422   1.819   5.854   6.906
 7508SOL    HW123423   1.883   5.891   6.838
 7508SOL    HW223424   1.727   5.852   6.868
 7509SOL     OW23425   4.956   3.980   0.714
 7509SOL    HW123426   5.042   4.032   0.706
 7509SOL    HW223427   4.946   3.947   0.808
 7510SOL     OW23428   3.912   3.877   4.002
 7510SOL    HW123429   3.827   3.903   4.048
 7510SOL    HW223430   3.973   3.833   4.068
 7511SOL     OW23431   3.668   5.603   3.183
 7511SOL    HW123432   3.726   5.655   3.247
 7511SOL    HW223433   3.588   5.658   3.159
 7512SOL     OW23434   3.300   6.653   6.419
 7512SOL    HW123435   3.285   6.630   6.515
 7512SOL    HW223436   3.261   6.581   6.361
 7513SOL     OW23437   1.006   2.255   3.174
 7513SOL    HW123438   0.988   2.351   3.156
 7513SOL    HW223439   1.063   2.217   3.102
 7514SOL     OW23440   2.352   4.267   2.743
 7514SOL    HW123441   2.337   4.250   2.645
 7514SOL    HW223442   2.316   4.190   2.795
 7515SOL     OW23443   0.585   4.488   4.504
 7515SOL    HW123444   0.646   4.426   4.554
 7515SOL    HW223445   0.579   4.575   4.553
 7516SOL     OW23446   1.302   5.619   5.404
 7516SOL    HW123447   1.214   5.667   5.397
 7516SOL    HW223448   1.357   5.639   5.323
 7517SOL     OW23449   0.384   1.630   0.187
 7517SOL    HW123450   0.392   1.619   0.087
 7517SOL    HW223451   0.353   1.723   0.207
 7518SOL     OW23452   4.827   3.026   3.752
 7518SOL    HW123453   4.790   2.933   3.745
 7518SOL    HW223454   4.823   3.070   3.663
 7519SOL     OW23455   3.648   6.443   4.958
 7519SOL    HW123456   3.586   6.521   4.961
 7519SOL    HW223457   3.639   6.391   5.043
 7520SOL     OW23458   1.946   1.808   1.397
 7520SOL    HW123459   1.974   1.716   1.367
 7520SOL    HW223460   1.954   1.871   1.320
 7521SOL     OW23461   4.147   1.453   5.455
 7521SOL    HW123462   4.149   1.547   5.423
 7521SOL    HW223463   4.234   1.430   5.499
 7522SOL     OW23464   1.701   6.724   2.247
 7522SOL    HW123465   1.714   6.812   2.293
 7522SOL    HW223466   1.743   6.651   2.300
 7523SOL     OW23467   5.503   1.474   6.421
 7523SOL    HW123468   5.556   1.416   6.358
 7523SOL    HW223469   5.471   1.555   6.372
 7524SOL     OW23470   0.053   3.355   4.899
 7524SOL    HW123471   0.056   3.368   4.998
 7524SOL    HW223472   6.977   3.364   4.866
 7525SOL     OW23473   4.323   5.903   6.469
 7525SOL    HW123474   4.370   5.981   6.427
 7525SOL    HW223475   4.263   5.937   6.541
 7526SOL     OW23476   2.516   3.291   1.731
 7526SOL    HW123477   2.472   3.347   1.801
 7526SOL    HW223478   2.516   3.340   1.644
 7527SOL     OW23479   3.790   5.779   3.727
 7527SOL    HW123480   3.715   5.812   3.669
 7527SOL    HW223481   3.858   5.731   3.670
 7528SOL     OW23482   6.775   3.083   6.598
 7528SOL    HW123483   6.709   3.124   6.535
 7528SOL    HW223484   6.732   3.008   6.648
 7529SOL     OW23485   6.688   2.843   3.938
 7529SOL    HW123486   6.752   2.785   3.888
 7529SOL    HW223487   6.612   2.786   3.972
 7530SOL     OW23488   6.318   1.995   2.169
 7530SOL    HW123489   6.384   2.062   2.133
 7530SOL    HW223490   6.323   1.994   2.268
 7531SOL     OW23491   4.086   2.205   3.686
 7531SOL    HW123492   3.991   2.236   3.683
 7531SOL    HW223493   4.089   2.109   3.714
 7532SOL     OW23494   4.277   5.434   6.645
 7532SOL    HW123495   4.240   5.344   6.666
 7532SOL    HW223496   4.342   5.426   6.569
 7533SOL     OW23497   4.774   3.578   1.661
 7533SOL    HW123498   4.823   3.510   1.607
 7533SOL    HW223499   4.677   3.553   1.666
 7534SOL     OW23500   4.584   6.813   4.200
 7534SOL    HW123501   4.632   6.752   4.263
 7534SOL    HW223502   4.594   6.780   4.106
 7535SOL     OW23503   0.511   5.516   4.083
 7535SOL    HW123504   0.591   5.455   4.089
 7535SOL    HW223505   0.534   5.595   4.026
 7536SOL     OW23506   4.892   5.617   4.397
 7536SOL    HW123507   4.792   5.618   4.391
 7536SOL    HW223508   4.927   5.542   4.341
 7537SOL     OW23509   2.839   6.269   2.951
 7537SOL    HW123510   2.769   6.335   2.924
 7537SOL    HW223511   2.918   6.318   2.989
 7538SOL     OW23512   1.137   4.270   0.943
 7538SOL    HW123513   1.199   4.193   0.930
 7538SOL    HW223514   1.069   4.272   0.870
 7539SOL     OW23515   0.528   6.117   3.623
 7539SOL    HW123516   0.604   6.077   3.673
 7539SOL    HW223517   0.479   6.181   3.683
 7540SOL     OW23518   5.975   5.217   3.807
 7540SOL    HW123519   5.916   5.249   3.733
 7540SOL    HW223520   5.936   5.134   3.848
 7541SOL     OW23521   1.277   4.168   0.021
 7541SOL    HW123522   1.194   4.210   0.056
 7541SOL    HW223523   1.319   4.112   0.092
 7542SOL     OW23524   6.023   5.716   6.135
 7542SOL    HW123525   5.978   5.635   6.095
 7542SOL    HW223526   6.093   5.686   6.200
 7543SOL     OW23527   2.941   1.077   5.948
 7543SOL    HW123528   2.916   1.156   5.892
 7543SOL    HW223529   2.895   0.996   5.914
 7544SOL     OW23530   0.135   2.778   4.097
 7544SOL    HW123531   0.072   2.701   4.085
 7544SOL    HW223532   0.086   2.857   4.133
 7545SOL     OW23533   0.855   4.870   6.989
 7545SOL    HW123534   0.949   4.871   0.004
 7545SOL    HW223535   0.819   4.776   6.995
 7546SOL     OW23536   3.372   2.996   1.750
 7546SOL    HW123537   3.307   3.071   1.737
 7546SOL    HW223538   3.358   2.955   1.840
 7547SOL     OW23539   4.316   0.237   2.354
 7547SOL    HW123540   4.257   0.245   2.274
 7547SOL    HW223541   4.403   0.283   2.337
 7548SOL     OW23542   4.426   2.470   6.717
 7548SOL    HW123543   4.437   2.397   6.785
 7548SOL    HW223544   4.513   2.518   6.706
 7549SOL     OW23545   4.244   2.767   5.315
 7549SOL    HW123546   4.176   2.838   5.334
 7549SOL    HW223547   4.200   2.689   5.270
 7550SOL     OW23548   2.192   4.111   4.205
 7550SOL    HW123549   2.206   4.101   4.304
 7550SOL    HW223550   2.097   4.137   4.188
 7551SOL     OW23551   5.980   2.465   5.601
 7551SOL    HW123552   6.030   2.489   5.518
 7551SOL    HW223553   6.043   2.460   5.678
 7552SOL     OW23554   2.700   5.959   4.858
 7552SOL    HW123555   2.650   5.883   4.899
 7552SOL    HW223556   2.702   5.946   4.758
 7553SOL     OW23557   5.703   6.116   5.741
 7553SOL    HW123558   5.671   6.207   5.765
 7553SOL    HW223559   5.650   6.048   5.792
 7554SOL     OW23560   5.317   0.895   1.071
 7554SOL    HW123561   5.252   0.885   0.996
 7554SOL    HW223562   5.289   0.837   1.148
 7555SOL     OW23563   3.613   4.867   5.944
 7555SOL    HW123564   3.633   4.779   5.989
 7555SOL    HW223565   3.562   4.850   5.860
 7556SOL     OW23566   0.222   6.973   1.032
 7556SOL    HW123567   0.254   0.015   0.960
 7556SOL    HW223568   0.212   0.007   1.117
 7557SOL     OW23569   4.907   0.541   6.879
 7557SOL    HW123570   4.923   0.632   6.917
 7557SOL    HW223571   4.968   0.527   6.800
 7558SOL     OW23572   1.689   1.975   4.060
 7558SOL    HW123573   1.712   1.917   4.139
 7558SOL    HW223574   1.724   2.067   4.076
 7559SOL     OW23575   4.217   2.328   4.770
 7559SOL    HW123576   4.236   2.426   4.762
 7559SOL    HW223577   4.206   2.304   4.866
 7560SOL     OW23578   0.470   0.615   6.025
 7560SOL    HW123579   0.496   0.632   6.120
 7560SOL    HW223580   0.408   0.687   5.994
 7561SOL     OW23581   5.533   2.341   4.624
 7561SOL    HW123582   5.506   2.249   4.651
 7561SOL    HW223583   5.452   2.397   4.609
 7562SOL     OW23584   1.494   4.499   3.897
 7562SOL    HW123585   1.463   4.557   3.821
 7562SOL    HW223586   1.443   4.521   3.980
 7563SOL     OW23587   3.525   5.557   2.224
 7563SOL    HW123588   3.429   5.538   2.247
 7563SOL    HW223589   3.583   5.534   2.302
 7564SOL     OW23590   4.495   1.426   4.478
 7564SOL    HW123591   4.594   1.432   4.492
 7564SOL    HW223592   4.476   1.413   4.380
 7565SOL     OW23593   5.435   3.589   6.749
 7565SOL    HW123594   5.516   3.573   6.693
 7565SOL    HW223595   5.449   3.670   6.805
 7566SOL     OW23596   3.781   4.014   1.449
 7566SOL    HW123597   3.835   4.098   1.452
 7566SOL    HW223598   3.716   4.019   1.373
 7567SOL     OW23599   1.641   0.457   5.061
 7567SOL    HW123600   1.656   0.359   5.074
 7567SOL    HW223601   1.544   0.478   5.067
 7568SOL     OW23602   6.146   5.543   1.530
 7568SOL    HW123603   6.202   5.621   1.502
 7568SOL    HW223604   6.198   5.458   1.515
 7569SOL     OW23605   4.543   3.496   6.855
 7569SOL    HW123606   4.528   3.453   6.766
 7569SOL    HW223607   4.456   3.515   6.899
 7570SOL     OW23608   6.229   2.963   3.263
 7570SOL    HW123609   6.317   2.992   3.226
 7570SOL    HW223610   6.206   2.872   3.227
 7571SOL     OW23611   4.560   2.227   3.078
 7571SOL    HW123612   4.493   2.263   3.012
 7571SOL    HW223613   4.531   2.251   3.171
 7572SOL     OW23614   4.924   6.237   2.203
 7572SOL    HW123615   4.890   6.316   2.152
 7572SOL    HW223616   4.963   6.171   2.140
 7573SOL     OW23617   4.950   6.216   5.842
 7573SOL    HW123618   4.926   6.247   5.934
 7573SOL    HW223619   4.890   6.141   5.816
 7574SOL     OW23620   6.735   1.395   4.353
 7574SOL    HW123621   6.801   1.345   4.296
 7574SOL    HW223622   6.666   1.438   4.295
 7575SOL     OW23623   0.067   6.633   2.450
 7575SOL    HW123624   7.007   6.570   2.452
 7575SOL    HW223625   0.077   6.672   2.359
 7576SOL     OW23626   5.575   2.900   0.661
 7576SOL    HW123627   5.598   2.812   0.703
 7576SOL    HW223628   5.563   2.969   0.733
 7577SOL     OW23629   1.324   0.341   0.815
 7577SOL    HW123630   1.416   0.368   0.789
 7577SOL    HW223631   1.305   0.249   0.782
 7578SOL     OW23632   6.968   5.885   3.364
 7578SOL    HW123633   0.001   5.946   3.424
 7578SOL    HW223634   7.000   5.791   3.376
 7579SOL     OW23635   6.584   1.055   0.018
 7579SOL    HW123636   6.530   1.020   0.094
 7579SOL    HW223637   6.545   1.142   7.005
 7580SOL     OW23638   2.376   4.907   3.709
 7580SOL    HW123639   2.431   4.944   3.634
 7580SOL    HW223640   2.355   4.981   3.774
 7581SOL     OW23641   6.446   0.998   2.368
 7581SOL    HW123642   6.423   0.914   2.417
 7581SOL    HW223643   6.479   0.975   2.276
 7582SOL     OW23644   3.155   1.218   4.596
 7582SOL    HW123645   3.173   1.191   4.502
 7582SOL    HW223646   3.236   1.263   4.634
 7583SOL     OW23647   4.994   3.372   3.587
 7583SOL    HW123648   5.051   3.295   3.617
 7583SOL    HW223649   4.949   3.349   3.501
 7584SOL     OW23650   0.078   0.380   2.725
 7584SOL    HW123651   0.174   0.391   2.750
 7584SOL    HW223652   0.026   0.461   2.751
 7585SOL     OW23653   0.871   1.782   0.101
 7585SOL    HW123654   0.904   1.714   0.166
 7585SOL    HW223655   0.944   1.847   0.080
 7586SOL     OW23656   1.098   1.903   2.894
 7586SOL    HW123657   1.163   1.887   2.819
 7586SOL    HW223658   1.114   1.836   2.966
 7587SOL     OW23659   3.047   1.002   0.723
 7587SOL    HW123660   3.093   1.064   0.787
 7587SOL    HW223661   3.116   0.956   0.667
 7588SOL     OW23662   1.788   2.541   4.403
 7588SOL    HW123663   1.736   2.573   4.324
 7588SOL    HW223664   1.840   2.616   4.442
 7589SOL     OW23665   0.021   0.794   3.172
 7589SOL    HW123666   6.981   0.727   3.218
 7589SOL    HW223667   0.050   0.758   3.084
 7590SOL     OW23668   0.100   1.546   6.673
 7590SOL    HW123669   0.156   1.528   6.754
 7590SOL    HW223670   0.076   1.643   6.670
 7591SOL     OW23671   4.078   3.271   5.487
 7591SOL    HW123672   4.157   3.263   5.426
 7591SOL    HW223673   4.047   3.366   5.487
 7592SOL     OW23674   6.735   6.615   5.129
 7592SOL    HW123675   6.635   6.606   5.131
 7592SOL    HW223676   6.775   6.549   5.193
 7593SOL     OW23677   1.111   1.660   5.861
 7593SOL    HW123678   1.018   1.641   5.892
 7593SOL    HW223679   1.172   1.587   5.890
 7594SOL     OW23680   0.522   4.353   0.602
 7594SOL    HW123681   0.581   4.369   0.681
 7594SOL    HW223682   0.440   4.303   0.632
 7595SOL     OW23683   6.611   2.755   6.094
 7595SOL    HW123684   6.519   2.747   6.057
 7595SOL    HW223685   6.612   2.720   6.188
 7596SOL     OW23686   3.070   0.738   5.075
 7596SOL    HW123687   3.030   0.827   5.057
 7596SOL    HW223688   2.999   0.668   5.072
 7597SOL     OW23689   1.726   4.471   2.143
 7597SOL    HW123690   1.633   4.469   2.108
 7597SOL    HW223691   1.751   4.565   2.166
 7598SOL     OW23692   6.554   1.301   3.175
 7598SOL    HW123693   6.622   1.351   3.122
 7598SOL    HW223694   6.597   1.262   3.256
 7599SOL     OW23695   3.841   3.472   0.950
 7599SOL    HW123696   3.807   3.564   0.967
 7599SOL    HW223697   3.870   3.430   1.036
 7600SOL     OW23698   1.272   0.654   4.219
 7600SOL    HW123699   1.302   0.636   4.125
 7600SOL    HW223700   1.222   0.575   4.253
 7601SOL     OW23701   3.709   5.979   2.085
 7601SOL    HW123702   3.797   5.958   2.042
 7601SOL    HW223703   3.697   5.921   2.165
 7602SOL     OW23704   6.817   1.686   0.902
 7602SOL    HW123705   6.865   1.650   0.982
 7602SOL    HW223706   6.754   1.758   0.930
 7603SOL     OW23707   2.523   0.545   5.094
 7603SOL    HW123708   2.591   0.607   5.055
 7603SOL    HW223709   2.454   0.525   5.025
 7604SOL     OW23710   0.517   2.841   4.869
 7604SOL    HW123711   0.517   2.935   4.836
 7604SOL    HW223712   0.457   2.786   4.811
 7605SOL     OW23713   2.311   6.803   0.561
 7605SOL    HW123714   2.320   6.741   0.482
 7605SOL    HW223715   2.294   6.896   0.529
 7606SOL     OW23716   6.601   1.515   3.685
 7606SOL    HW123717   6.536   1.456   3.638
 7606SOL    HW223718   6.654   1.567   3.617
 7607SOL     OW23719   2.668   5.668   5.907
 7607SOL    HW123720   2.720   5.713   5.835
 7607SOL    HW223721   2.589   5.621   5.868
 7608SOL     OW23722   6.035   2.708   5.918
 7608SOL    HW123723   6.079   2.628   5.878
 7608SOL    HW223724   6.015   2.690   6.015
 7609SOL     OW23725   0.969   1.595   4.591
 7609SOL    HW123726   1.006   1.680   4.630
 7609SOL    HW223727   0.926   1.542   4.664
 7610SOL     OW23728   3.694   4.709   5.575
 7610SOL    HW123729   3.709   4.791   5.521
 7610SOL    HW223730   3.609   4.718   5.628
 7611SOL     OW23731   4.688   3.437   1.265
 7611SOL    HW123732   4.709   3.413   1.171
 7611SOL    HW223733   4.699   3.356   1.323
 7612SOL     OW23734   2.345   1.634   3.303
 7612SOL    HW123735   2.264   1.689   3.281
 7612SOL    HW223736   2.336   1.594   3.394
 7613SOL     OW23737   0.370   1.072   2.332
 7613SOL    HW123738   0.425   1.155   2.334
 7613SOL    HW223739   0.275   1.095   2.355
 7614SOL     OW23740   5.134   3.545   0.847
 7614SOL    HW123741   5.127   3.461   0.793
 7614SOL    HW223742   5.067   3.542   0.922
 7615SOL     OW23743   5.656   3.589   4.646
 7615SOL    HW123744   5.596   3.666   4.666
 7615SOL    HW223745   5.745   3.624   4.615
 7616SOL     OW23746   6.287   6.784   3.685
 7616SOL    HW123747   6.341   6.804   3.766
 7616SOL    HW223748   6.288   6.685   3.667
 7617SOL     OW23749   5.491   5.363   3.596
 7617SOL    HW123750   5.560   5.416   3.545
 7617SOL    HW223751   5.437   5.309   3.532
 7618SOL     OW23752   2.743   3.172   0.279
 7618SOL    HW123753   2.703   3.138   0.194
 7618SOL    HW223754   2.747   3.098   0.346
 7619SOL     OW23755   1.006   2.332   4.218
 7619SOL    HW123756   0.983   2.299   4.310
 7619SOL    HW223757   0.927   2.379   4.179
 7620SOL     OW23758   3.979   3.852   1.348
 7620SOL    HW123759   3.995   3.773   1.408
 7620SOL    HW223760   3.899   3.902   1.380
 7621SOL     OW23761   0.594   4.757   0.887
 7621SOL    HW123762   0.518   4.806   0.844
 7621SOL    HW223763   0.680   4.790   0.849
 7622SOL     OW23764   2.858   3.499   1.153
 7622SOL    HW123765   2.766   3.511   1.190
 7622SOL    HW223766   2.922   3.556   1.205
 7623SOL     OW23767   4.880   4.503   1.258
 7623SOL    HW123768   4.948   4.570   1.226
 7623SOL    HW223769   4.788   4.538   1.243
 7624SOL     OW23770   0.682   2.831   2.163
 7624SOL    HW123771   0.638   2.878   2.087
 7624SOL    HW223772   0.727   2.897   2.222
 7625SOL     OW23773   5.308   1.533   0.456
 7625SOL    HW123774   5.221   1.582   0.466
 7625SOL    HW223775   5.301   1.445   0.501
 7626SOL     OW23776   5.509   0.917   5.050
 7626SOL    HW123777   5.527   0.879   5.141
 7626SOL    HW223778   5.473   1.010   5.059
 7627SOL     OW23779   3.361   2.284   6.554
 7627SOL    HW123780   3.436   2.222   6.532
 7627SOL    HW223781   3.290   2.233   6.604
 7628SOL     OW23782   3.539   2.924   6.984
 7628SOL    HW123783   3.483   2.857   0.015
 7628SOL    HW223784   3.567   2.996   0.029
 7629SOL     OW23785   6.067   3.163   3.764
 7629SOL    HW123786   6.045   3.232   3.833
 7629SOL    HW223787   6.136   3.199   3.701
 7630SOL     OW23788   1.569   6.650   5.453
 7630SOL    HW123789   1.576   6.623   5.357
 7630SOL    HW223790   1.482   6.618   5.490
 7631SOL     OW23791   1.740   6.987   5.393
 7631SOL    HW123792   1.791   6.907   5.360
 7631SOL    HW223793   1.801   0.026   5.448
 7632SOL     OW23794   4.960   5.167   0.507
 7632SOL    HW123795   4.908   5.181   0.423
 7632SOL    HW223796   5.049   5.212   0.500
 7633SOL     OW23797   6.276   1.324   0.936
 7633SOL    HW123798   6.213   1.309   0.860
 7633SOL    HW223799   6.291   1.237   0.984
 7634SOL     OW23800   0.103   2.031   0.299
 7634SOL    HW123801   0.129   2.126   0.316
 7634SOL    HW223802   0.056   1.995   0.379
 7635SOL     OW23803   2.516   4.575   6.374
 7635SOL    HW123804   2.583   4.544   6.306
 7635SOL    HW223805   2.449   4.634   6.331
 7636SOL     OW23806   0.519   3.640   4.827
 7636SOL    HW123807   0.497   3.683   4.740
 7636SOL    HW223808   0.487   3.545   4.826
 7637SOL     OW23809   0.653   6.320   4.420
 7637SOL    HW123810   0.626   6.351   4.329
 7637SOL    HW223811   0.634   6.223   4.430
 7638SOL     OW23812   0.452   5.535   1.525
 7638SOL    HW123813   0.490   5.449   1.491
 7638SOL    HW223814   0.424   5.524   1.621
 7639SOL     OW23815   1.650   1.115   0.021
 7639SOL    HW123816   1.684   1.208   0.030
 7639SOL    HW223817   1.659   1.068   0.109
 7640SOL     OW23818   3.187   0.883   6.600
 7640SOL    HW123819   3.111   0.948   6.601
 7640SOL    HW223820   3.175   0.816   6.673
 7641SOL     OW23821   0.532   3.847   3.133
 7641SOL    HW123822   0.535   3.816   3.038
 7641SOL    HW223823   0.457   3.911   3.144
 7642SOL     OW23824   6.172   0.693   3.755
 7642SOL    HW123825   6.240   0.755   3.715
 7642SOL    HW223826   6.184   0.691   3.854
 7643SOL     OW23827   5.451   3.444   2.905
 7643SOL    HW123828   5.530   3.504   2.899
 7643SOL    HW223829   5.370   3.492   2.873
 7644SOL     OW23830   5.317   3.802   1.860
 7644SOL    HW123831   5.230   3.836   1.823
 7644SOL    HW223832   5.388   3.808   1.790
 7645SOL     OW23833   3.364   3.944   5.975
 7645SOL    HW123834   3.378   3.856   6.020
 7645SOL    HW223835   3.273   3.978   5.997
 7646SOL     OW23836   0.685   2.575   2.625
 7646SOL    HW123837   0.597   2.559   2.579
 7646SOL    HW223838   0.689   2.670   2.656
 7647SOL     OW23839   6.613   2.917   5.372
 7647SOL    HW123840   6.541   2.984   5.357
 7647SOL    HW223841   6.702   2.963   5.372
 7648SOL     OW23842   2.418   1.523   1.537
 7648SOL    HW123843   2.501   1.552   1.490
 7648SOL    HW223844   2.438   1.443   1.594
 7649SOL     OW23845   4.852   1.256   5.304
 7649SOL    HW123846   4.944   1.252   5.266
 7649SOL    HW223847   4.818   1.350   5.299
 7650SOL     OW23848   4.127   1.912   0.296
 7650SOL    HW123849   4.111   2.011   0.291
 7650SOL    HW223850   4.094   1.878   0.384
 7651SOL     OW23851   2.572   4.795   6.028
 7651SOL    HW123852   2.669   4.804   6.051
 7651SOL    HW223853   2.563   4.765   5.933
 7652SOL     OW23854   6.206   1.242   4.127
 7652SOL    HW123855   6.224   1.263   4.031
 7652SOL    HW223856   6.285   1.193   4.166
 7653SOL     OW23857   0.739   1.472   6.392
 7653SOL    HW123858   0.800   1.547   6.367
 7653SOL    HW223859   0.663   1.506   6.447
 7654SOL     OW23860   5.789   2.462   6.190
 7654SOL    HW123861   5.703   2.509   6.211
 7654SOL    HW223862   5.795   2.379   6.245
 7655SOL     OW23863   3.105   0.699   3.294
 7655SOL    HW123864   3.179   0.744   3.344
 7655SOL    HW223865   3.068   0.625   3.350
 7656SOL     OW23866   6.659   3.236   6.918
 7656SOL    HW123867   6.591   3.226   6.846
 7656SOL    HW223868   6.751   3.226   6.878
 7657SOL     OW23869   1.464   3.993   4.523
 7657SOL    HW123870   1.419   4.077   4.490
 7657SOL    HW223871   1.469   3.927   4.448
 7658SOL     OW23872   2.590   1.507   0.933
 7658SOL    HW123873   2.625   1.450   1.008
 7658SOL    HW223874   2.649   1.587   0.922
 7659SOL     OW23875   4.336   3.729   5.483
 7659SOL    HW123876   4.299   3.667   5.414
 7659SOL    HW223877   4.301   3.822   5.467
 7660SOL     OW23878   0.087   5.783   4.810
 7660SOL    HW123879   0.089   5.880   4.835
 7660SOL    HW223880   0.130   5.771   4.721
 7661SOL     OW23881   4.724   2.632   5.816
 7661SOL    HW123882   4.758   2.571   5.887
 7661SOL    HW223883   4.625   2.619   5.806
 7662SOL     OW23884   0.611   1.569   1.984
 7662SOL    HW123885   0.521   1.613   1.985
 7662SOL    HW223886   0.599   1.471   1.967
 7663SOL     OW23887   6.457   5.307   5.421
 7663SOL    HW123888   6.550   5.331   5.392
 7663SOL    HW223889   6.409   5.390   5.449
 7664SOL     OW23890   3.651   2.090   2.293
 7664SOL    HW123891   3.554   2.103   2.312
 7664SOL    HW223892   3.679   2.153   2.219
 7665SOL     OW23893   4.275   1.211   4.867
 7665SOL    HW123894   4.266   1.124   4.914
 7665SOL    HW223895   4.243   1.285   4.927
 7666SOL     OW23896   5.647   5.148   4.154
 7666SOL    HW123897   5.610   5.066   4.111
 7666SOL    HW223898   5.730   5.124   4.205
 7667SOL     OW23899   4.664   6.187   1.375
 7667SOL    HW123900   4.663   6.267   1.315
 7667SOL    HW223901   4.608   6.206   1.455
 7668SOL     OW23902   2.277   4.944   1.101
 7668SOL    HW123903   2.346   5.010   1.130
 7668SOL    HW223904   2.229   4.910   1.182
 7669SOL     OW23905   2.738   6.761   5.572
 7669SOL    HW123906   2.754   6.839   5.510
 7669SOL    HW223907   2.654   6.776   5.623
 7670SOL     OW23908   0.275   6.509   0.033
 7670SOL    HW123909   0.279   6.439   6.981
 7670SOL    HW223910   0.190   6.561   0.024
 7671SOL     OW23911   4.571   0.187   0.835
 7671SOL    HW123912   4.566   0.252   0.759
 7671SOL    HW223913   4.535   0.231   0.918
 7672SOL     OW23914   5.099   4.474   3.008
 7672SOL    HW123915   5.031   4.514   2.946
 7672SOL    HW223916   5.158   4.412   2.956
 7673SOL     OW23917   0.965   6.072   4.237
 7673SOL    HW123918   1.016   6.078   4.323
 7673SOL    HW223919   0.925   5.981   4.228
 7674SOL     OW23920   3.713   6.352   4.445
 7674SOL    HW123921   3.730   6.303   4.530
 7674SOL    HW223922   3.614   6.354   4.427
 7675SOL     OW23923   4.141   6.768   3.099
 7675SOL    HW123924   4.226   6.763   3.048
 7675SOL    HW223925   4.102   6.859   3.090
 7676SOL     OW23926   3.036   2.829   5.339
 7676SOL    HW123927   3.023   2.826   5.438
 7676SOL    HW223928   3.049   2.924   5.310
 7677SOL     OW23929   5.874   4.972   1.225
 7677SOL    HW123930   5.796   5.010   1.274
 7677SOL    HW223931   5.915   5.043   1.167
 7678SOL     OW23932   1.491   1.052   5.355
 7678SOL    HW123933   1.406   1.004   5.374
 7678SOL    HW223934   1.502   1.061   5.256
 7679SOL     OW23935   1.915   5.394   5.279
 7679SOL    HW123936   1.947   5.371   5.187
 7679SOL    HW223937   1.982   5.361   5.347
 7680SOL     OW23938   2.183   0.117   5.108
 7680SOL    HW123939   2.159   0.141   5.014
 7680SOL    HW223940   2.099   0.108   5.162
 7681SOL     OW23941   2.584   3.556   6.705
 7681SOL    HW123942   2.513   3.625   6.720
 7681SOL    HW223943   2.647   3.588   6.635
 7682SOL     OW23944   3.129   1.726   2.190
 7682SOL    HW123945   3.171   1.659   2.252
 7682SOL    HW223946   3.072   1.789   2.242
 7683SOL     OW23947   1.005   0.674   4.344
 7683SOL    HW123948   1.028   0.637   4.254
 7683SOL    HW223949   1.034   0.770   4.349
 7684SOL     OW23950   4.379   2.231   2.001
 7684SOL    HW123951   4.283   2.227   1.973
 7684SOL    HW223952   4.414   2.324   1.990
 7685SOL     OW23953   2.361   0.528   6.840
 7685SOL    HW123954   2.326   0.571   6.923
 7685SOL    HW223955   2.342   0.430   6.843
 7686SOL     OW23956   5.792   0.163   4.356
 7686SOL    HW123957   5.747   0.092   4.410
 7686SOL    HW223958   5.723   0.224   4.318
 7687SOL     OW23959   5.196   5.040   4.935
 7687SOL    HW123960   5.162   4.948   4.916
 7687SOL    HW223961   5.148   5.078   5.014
 7688SOL     OW23962   0.736   4.831   6.457
 7688SOL    HW123963   0.767   4.924   6.436
 7688SOL    HW223964   0.772   4.803   6.547
 7689SOL     OW23965   4.534   0.294   1.431
 7689SOL    HW123966   4.616   0.306   1.487
 7689SOL    HW223967   4.474   0.373   1.442
 7690SOL     OW23968   6.346   5.725   1.462
 7690SOL    HW123969   6.367   5.758   1.370
 7690SOL    HW223970   6.413   5.763   1.526
 7691SOL     OW23971   4.655   4.239   2.728
 7691SOL    HW123972   4.632   4.249   2.631
 7691SOL    HW223973   4.730   4.173   2.738
 7692SOL     OW23974   2.259   6.794   1.983
 7692SOL    HW123975   2.265   6.890   2.007
 7692SOL    HW223976   2.163   6.764   1.988
 7693SOL     OW23977   2.681   1.981   0.796
 7693SOL    HW123978   2.619   1.906   0.817
 7693SOL    HW223979   2.713   1.972   0.701
 7694SOL     OW23980   5.787   2.092   5.323
 7694SOL    HW123981   5.752   2.163   5.383
 7694SOL    HW223982   5.848   2.031   5.375
 7695SOL     OW23983   5.327   0.407   2.565
 7695SOL    HW123984   5.285   0.318   2.582
 7695SOL    HW223985   5.289   0.474   2.629
 7696SOL     OW23986   0.483   2.797   6.437
 7696SOL    HW123987   0.486   2.837   6.529
 7696SOL    HW223988   0.390   2.801   6.402
 7697SOL     OW23989   4.389   6.761   2.920
 7697SOL    HW123990   4.358   6.809   2.838
 7697SOL    HW223991   4.441   6.680   2.894
 7698SOL     OW23992   6.052   2.140   6.633
 7698SOL    HW123993   6.135   2.149   6.579
 7698SOL    HW223994   6.064   2.068   6.701
 7699SOL     OW23995   3.749   5.456   5.607
 7699SOL    HW123996   3.682   5.433   5.536
 7699SOL    HW223997   3.709   5.440   5.697
 7700SOL     OW23998   4.797   5.515   2.663
 7700SOL    HW123999   4.769   5.443   2.600
 7700SOL    HW224000   4.766   5.604   2.629
 7701SOL     OW24001   0.304   2.766   6.167
 7701SOL    HW124002   0.250   2.733   6.090
 7701SOL    HW224003   0.395   2.792   6.136
 7702SOL     OW24004   4.468   0.204   4.965
 7702SOL    HW124005   4.373   0.225   4.990
 7702SOL    HW224006   4.496   0.266   4.892
 7703SOL     OW24007   6.222   6.778   5.165
 7703SOL    HW124008   6.269   6.866   5.158
 7703SOL    HW224009   6.192   6.764   5.259
 7704SOL     OW24010   6.524   1.949   4.314
 7704SOL    HW124011   6.583   1.918   4.240
 7704SOL    HW224012   6.492   2.042   4.295
 7705SOL     OW24013   1.806   5.043   0.553
 7705SOL    HW124014   1.804   5.016   0.649
 7705SOL    HW224015   1.736   5.112   0.536
 7706SOL     OW24016   3.680   2.828   2.225
 7706SOL    HW124017   3.761   2.882   2.202
 7706SOL    HW224018   3.683   2.741   2.176
 7707SOL     OW24019   6.913   4.982   6.383
 7707SOL    HW124020   6.977   4.940   6.446
 7707SOL    HW224021   6.828   4.929   6.381
 7708SOL     OW24022   2.372   6.951   4.412
 7708SOL    HW124023   2.326   6.913   4.493
 7708SOL    HW224024   2.304   6.983   4.346
 7709SOL     OW24025   0.240   5.071   1.395
 7709SOL    HW124026   0.286   5.045   1.480
 7709SOL    HW224027   0.295   5.041   1.317
 7710SOL     OW24028   0.721   3.947   1.302
 7710SOL    HW124029   0.701   3.961   1.206
 7710SOL    HW224030   0.762   4.029   1.341
 7711SOL     OW24031   6.849   5.105   5.077
 7711SOL    HW124032   6.875   5.139   4.986
 7711SOL    HW224033   6.873   5.173   5.146
 7712SOL     OW24034   6.439   4.348   5.957
 7712SOL    HW124035   6.392   4.344   5.869
 7712SOL    HW224036   6.382   4.305   6.027
 7713SOL     OW24037   2.153   4.649   0.064
 7713SOL    HW124038   2.086   4.575   0.061
 7713SOL    HW224039   2.197   4.657   6.993
 7714SOL     OW24040   6.646   0.757   5.519
 7714SOL    HW124041   6.631   0.664   5.554
 7714SOL    HW224042   6.719   0.755   5.451
 7715SOL     OW24043   2.899   2.761   5.904
 7715SOL    HW124044   2.876   2.854   5.874
 7715SOL    HW224045   2.869   2.748   5.999
 7716SOL     OW24046   1.369   5.551   5.678
 7716SOL    HW124047   1.465   5.567   5.656
 7716SOL    HW224048   1.316   5.544   5.594
 7717SOL     OW24049   1.220   1.823   6.538
 7717SOL    HW124050   1.243   1.729   6.561
 7717SOL    HW224051   1.171   1.865   6.614
 7718SOL     OW24052   1.539   3.861   2.736
 7718SOL    HW124053   1.586   3.889   2.653
 7718SOL    HW224054   1.486   3.778   2.719
 7719SOL     OW24055   1.726   4.290   4.759
 7719SOL    HW124056   1.669   4.230   4.703
 7719SOL    HW224057   1.754   4.241   4.842
 7720SOL     OW24058   5.636   1.755   6.676
 7720SOL    HW124059   5.594   1.833   6.722
 7720SOL    HW224060   5.659   1.780   6.582
 7721SOL     OW24061   0.680   0.686   2.243
 7721SOL    HW124062   0.687   0.784   2.261
 7721SOL    HW224063   0.711   0.635   2.324
 7722SOL     OW24064   2.347   6.151   3.274
 7722SOL    HW124065   2.362   6.237   3.323
 7722SOL    HW224066   2.378   6.074   3.331
 7723SOL     OW24067   4.913   4.411   0.799
 7723SOL    HW124068   4.898   4.510   0.804
 7723SOL    HW224069   4.850   4.364   0.861
 7724SOL     OW24070   2.294   3.980   1.999
 7724SOL    HW124071   2.251   4.016   2.082
 7724SOL    HW224072   2.378   3.931   2.023
 7725SOL     OW24073   5.384   3.217   3.565
 7725SOL    HW124074   5.343   3.233   3.655
 7725SOL    HW224075   5.393   3.304   3.517
 7726SOL     OW24076   0.343   3.171   6.447
 7726SOL    HW124077   0.304   3.079   6.438
 7726SOL    HW224078   0.272   3.239   6.431
 7727SOL     OW24079   5.319   2.026   2.307
 7727SOL    HW124080   5.392   2.093   2.301
 7727SOL    HW224081   5.343   1.945   2.253
 7728SOL     OW24082   1.993   3.487   4.504
 7728SOL    HW124083   1.913   3.448   4.551
 7728SOL    HW224084   2.031   3.562   4.559
 7729SOL     OW24085   6.414   2.185   4.260
 7729SOL    HW124086   6.317   2.165   4.275
 7729SOL    HW224087   6.423   2.249   4.183
 7730SOL     OW24088   6.612   4.346   5.004
 7730SOL    HW124089   6.562   4.383   5.082
 7730SOL    HW224090   6.651   4.257   5.029
 7731SOL     OW24091   6.238   6.667   6.897
 7731SOL    HW124092   6.277   6.678   6.805
 7731SOL    HW224093   6.311   6.649   6.963
 7732SOL     OW24094   4.050   0.061   6.387
 7732SOL    HW124095   4.038   0.122   6.308
 7732SOL    HW224096   4.143   0.071   6.422
 7733SOL     OW24097   6.505   5.893   2.177
 7733SOL    HW124098   6.429   5.848   2.224
 7733SOL    HW224099   6.586   5.889   2.235
 7734SOL     OW24100   3.446   3.712   5.229
 7734SOL    HW124101   3.366   3.756   5.187
 7734SOL    HW224102   3.444   3.725   5.328
 7735SOL     OW24103   0.011   6.099   0.673
 7735SOL    HW124104   0.009   6.059   0.765
 7735SOL    HW224105   0.065   6.184   0.675
 7736SOL     OW24106   2.593   3.214   0.977
 7736SOL    HW124107   2.610   3.116   0.984
 7736SOL    HW224108   2.681   3.263   0.977
 7737SOL     OW24109   3.812   4.495   1.386
 7737SOL    HW124110   3.828   4.585   1.344
 7737SOL    HW224111   3.800   4.506   1.485
 7738SOL     OW24112   2.620   6.501   6.780
 7738SOL    HW124113   2.708   6.467   6.813
 7738SOL    HW224114   2.594   6.583   6.832
 7739SOL     OW24115   1.182   1.987   0.296
 7739SOL    HW124116   1.167   1.975   0.394
 7739SOL    HW224117   1.236   2.070   0.280
 7740SOL     OW24118   1.772   0.591   4.630
 7740SOL    HW124119   1.792   0.558   4.538
 7740SOL    HW224120   1.714   0.672   4.625
 7741SOL     OW24121   1.686   4.101   6.268
 7741SOL    HW124122   1.603   4.149   6.240
 7741SOL    HW224123   1.714   4.037   6.196
 7742SOL     OW24124   4.279   1.506   4.093
 7742SOL    HW124125   4.317   1.559   4.017
 7742SOL    HW224126   4.354   1.477   4.153
 7743SOL     OW24127   4.838   1.776   5.631
 7743SOL    HW124128   4.776   1.845   5.668
 7743SOL    HW224129   4.931   1.795   5.660
 7744SOL     OW24130   0.319   6.576   4.575
 7744SOL    HW124131   0.256   6.511   4.617
 7744SOL    HW224132   0.413   6.544   4.587
 7745SOL     OW24133   2.361   0.172   0.832
 7745SOL    HW124134   2.391   0.139   0.921
 7745SOL    HW224135   2.432   0.229   0.791
 7746SOL     OW24136   1.432   6.157   0.861
 7746SOL    HW124137   1.530   6.173   0.849
 7746SOL    HW224138   1.393   6.227   0.921
 7747SOL     OW24139   1.154   6.206   0.542
 7747SOL    HW124140   1.216   6.221   0.465
 7747SOL    HW224141   1.193   6.139   0.605
 7748SOL     OW24142   4.221   2.396   5.649
 7748SOL    HW124143   4.255   2.423   5.559
 7748SOL    HW224144   4.227   2.474   5.712
 7749SOL     OW24145   3.715   3.468   3.911
 7749SOL    HW124146   3.666   3.418   3.983
 7749SOL    HW224147   3.650   3.522   3.858
 7750SOL     OW24148   5.893   4.158   5.596
 7750SOL    HW124149   5.859   4.132   5.506
 7750SOL    HW224150   5.972   4.101   5.620
 7751SOL     OW24151   6.805   0.800   5.308
 7751SOL    HW124152   6.812   0.741   5.228
 7751SOL    HW224153   6.894   0.840   5.328
 7752SOL     OW24154   6.268   5.910   5.241
 7752SOL    HW124155   6.242   5.815   5.227
 7752SOL    HW224156   6.193   5.970   5.212
 7753SOL     OW24157   2.526   1.033   4.409
 7753SOL    HW124158   2.530   1.007   4.506
 7753SOL    HW224159   2.508   0.952   4.354
 7754SOL     OW24160   5.784   0.809   1.435
 7754SOL    HW124161   5.688   0.830   1.457
 7754SOL    HW224162   5.787   0.752   1.353
 7755SOL     OW24163   0.974   5.713   5.703
 7755SOL    HW124164   0.883   5.754   5.707
 7755SOL    HW224165   1.038   5.778   5.663
 7756SOL     OW24166   3.875   5.436   1.949
 7756SOL    HW124167   3.898   5.343   1.977
 7756SOL    HW224168   3.939   5.500   1.991
 7757SOL     OW24169   4.560   6.188   5.930
 7757SOL    HW124170   4.491   6.153   5.867
 7757SOL    HW224171   4.629   6.118   5.947
 7758SOL     OW24172   2.536   1.965   5.726
 7758SOL    HW124173   2.581   1.914   5.653
 7758SOL    HW224174   2.576   2.057   5.732
 7759SOL     OW24175   2.006   1.086   4.153
 7759SOL    HW124176   2.082   1.032   4.188
 7759SOL    HW224177   2.032   1.126   4.065
 7760SOL     OW24178   5.293   2.951   2.214
 7760SOL    HW124179   5.203   2.943   2.257
 7760SOL    HW224180   5.349   3.016   2.265
 7761SOL     OW24181   3.365   6.576   0.099
 7761SOL    HW124182   3.399   6.562   0.192
 7761SOL    HW224183   3.438   6.556   0.034
 7762SOL     OW24184   4.007   1.238   0.009
 7762SOL    HW124185   3.970   1.247   6.935
 7762SOL    HW224186   3.940   1.190   0.067
 7763SOL     OW24187   1.515   1.849   0.522
 7763SOL    HW124188   1.577   1.888   0.590
 7763SOL    HW224189   1.550   1.870   0.430
 7764SOL     OW24190   3.474   2.892   2.400
 7764SOL    HW124191   3.398   2.885   2.335
 7764SOL    HW224192   3.552   2.840   2.366
 7765SOL     OW24193   6.686   2.307   2.968
 7765SOL    HW124194   6.695   2.345   2.876
 7765SOL    HW224195   6.593   2.323   3.002
 7766SOL     OW24196   6.636   2.211   6.965
 7766SOL    HW124197   6.664   2.116   6.952
 7766SOL    HW224198   6.561   2.214   0.013
 7767SOL     OW24199   4.312   5.781   4.068
 7767SOL    HW124200   4.282   5.769   4.162
 7767SOL    HW224201   4.329   5.878   4.051
 7768SOL     OW24202   3.841   4.819   2.267
 7768SOL    HW124203   3.766   4.871   2.227
 7768SOL    HW224204   3.806   4.736   2.309
 7769SOL     OW24205   5.388   2.041   1.046
 7769SOL    HW124206   5.366   1.945   1.062
 7769SOL    HW224207   5.464   2.068   1.105
 7770SOL     OW24208   2.835   5.049   1.298
 7770SOL    HW124209   2.846   4.960   1.253
 7770SOL    HW224210   2.838   5.036   1.397
 7771SOL     OW24211   2.714   2.495   6.312
 7771SOL    HW124212   2.634   2.548   6.343
 7771SOL    HW224213   2.683   2.418   6.257
 7772SOL     OW24214   4.729   0.441   4.231
 7772SOL    HW124215   4.746   0.531   4.269
 7772SOL    HW224216   4.693   0.451   4.138
 7773SOL     OW24217   4.134   3.830   5.671
 7773SOL    HW124218   4.216   3.790   5.631
 7773SOL    HW224219   4.158   3.909   5.727
 7774SOL     OW24220   5.062   1.824   5.899
 7774SOL    HW124221   5.092   1.865   5.813
 7774SOL    HW224222   5.052   1.725   5.888
 7775SOL     OW24223   3.233   6.535   2.065
 7775SOL    HW124224   3.203   6.580   1.982
 7775SOL    HW224225   3.332   6.545   2.075
 7776SOL     OW24226   3.575   3.511   6.766
 7776SOL    HW124227   3.563   3.524   6.668
 7776SOL    HW224228   3.556   3.597   6.814
 7777SOL     OW24229   2.265   0.392   6.310
 7777SOL    HW124230   2.205   0.466   6.340
 7777SOL    HW224231   2.335   0.428   6.248
 7778SOL     OW24232   5.439   0.269   0.165
 7778SOL    HW124233   5.502   0.311   0.100
 7778SOL    HW224234   5.350   0.313   0.159
 7779SOL     OW24235   3.925   2.645   0.686
 7779SOL    HW124236   3.908   2.688   0.775
 7779SOL    HW224237   3.842   2.650   0.631
 7780SOL     OW24238   2.300   5.911   5.084
 7780SOL    HW124239   2.208   5.880   5.108
 7780SOL    HW224240   2.345   5.840   5.029
 7781SOL     OW24241   1.257   4.477   5.089
 7781SOL    HW124242   1.218   4.565   5.115
 7781SOL    HW224243   1.193   4.428   5.030
 7782SOL     OW24244   2.419   4.229   6.257
 7782SOL    HW124245   2.426   4.273   6.346
 7782SOL    HW224246   2.324   4.206   6.239
 7783SOL     OW24247   2.384   5.448   6.692
 7783SOL    HW124248   2.437   5.529   6.668
 7783SOL    HW224249   2.288   5.464   6.671
 7784SOL     OW24250   0.524   3.002   0.177
 7784SOL    HW124251   0.587   3.037   0.108
 7784SOL    HW224252   0.486   2.914   0.147
 7785SOL     OW24253   2.188   6.341   4.051
 7785SOL    HW124254   2.169   6.260   4.106
 7785SOL    HW224255   2.139   6.420   4.088
 7786SOL     OW24256   3.016   4.327   5.286
 7786SOL    HW124257   3.092   4.360   5.343
 7786SOL    HW224258   2.962   4.405   5.254
 7787SOL     OW24259   2.131   2.969   5.173
 7787SOL    HW124260   2.228   2.972   5.152
 7787SOL    HW224261   2.085   3.048   5.133
 7788SOL     OW24262   0.789   1.627   0.851
 7788SOL    HW124263   0.781   1.530   0.827
 7788SOL    HW224264   0.832   1.635   0.941
 7789SOL     OW24265   2.580   0.873   1.538
 7789SOL    HW124266   2.647   0.924   1.592
 7789SOL    HW224267   2.569   0.915   1.448
 7790SOL     OW24268   5.447   3.174   2.848
 7790SOL    HW124269   5.461   3.272   2.864
 7790SOL    HW224270   5.395   3.134   2.923
 7791SOL     OW24271   1.728   5.146   4.461
 7791SOL    HW124272   1.663   5.070   4.470
 7791SOL    HW224273   1.791   5.146   4.539
 7792SOL     OW24274   2.731   5.899   6.370
 7792SOL    HW124275   2.632   5.908   6.387
 7792SOL    HW224276   2.746   5.842   6.289
 7793SOL     OW24277   1.178   1.156   5.952
 7793SOL    HW124278   1.123   1.075   5.930
 7793SOL    HW224279   1.120   1.224   5.998
 7794SOL     OW24280   5.258   5.663   4.540
 7794SOL    HW124281   5.321   5.713   4.599
 7794SOL    HW224282   5.252   5.707   4.451
 7795SOL     OW24283   2.115   4.450   5.573
 7795SOL    HW124284   2.042   4.398   5.618
 7795SOL    HW224285   2.109   4.546   5.598
 7796SOL     OW24286   3.448   4.093   3.229
 7796SOL    HW124287   3.521   4.111   3.163
 7796SOL    HW224288   3.412   4.001   3.214
 7797SOL     OW24289   0.139   6.790   3.088
 7797SOL    HW124290   0.105   6.750   3.172
 7797SOL    HW224291   0.121   6.889   3.088
 7798SOL     OW24292   3.493   5.720   0.413
 7798SOL    HW124293   3.429   5.654   0.452
 7798SOL    HW224294   3.444   5.782   0.352
 7799SOL     OW24295   0.403   4.750   1.151
 7799SOL    HW124296   0.335   4.735   1.080
 7799SOL    HW224297   0.389   4.685   1.225
 7800SOL     OW24298   0.127   5.428   1.717
 7800SOL    HW124299   0.220   5.458   1.741
 7800SOL    HW224300   0.077   5.404   1.800
 7801SOL     OW24301   2.634   1.873   6.615
 7801SOL    HW124302   2.717   1.863   6.558
 7801SOL    HW224303   2.638   1.960   6.664
 7802SOL     OW24304   5.645   2.624   1.511
 7802SOL    HW124305   5.585   2.689   1.465
 7802SOL    HW224306   5.618   2.615   1.607
 7803SOL     OW24307   4.157   4.192   5.578
 7803SOL    HW124308   4.234   4.250   5.605
 7803SOL    HW224309   4.141   4.201   5.479
 7804SOL     OW24310   5.105   1.871   5.627
 7804SOL    HW124311   5.094   1.965   5.594
 7804SOL    HW224312   5.132   1.812   5.551
 7805SOL     OW24313   5.238   3.335   2.052
 7805SOL    HW124314   5.191   3.336   2.140
 7805SOL    HW224315   5.268   3.427   2.029
 7806SOL     OW24316   5.611   2.898   6.262
 7806SOL    HW124317   5.545   2.848   6.207
 7806SOL    HW224318   5.666   2.957   6.203
 7807SOL     OW24319   7.002   3.844   6.096
 7807SOL    HW124320   0.028   3.777   6.037
 7807SOL    HW224321   6.929   3.891   6.045
 7808SOL     OW24322   0.860   0.947   4.709
 7808SOL    HW124323   0.847   1.033   4.660
 7808SOL    HW224324   0.819   0.873   4.657
 7809SOL     OW24325   2.920   5.698   4.825
 7809SOL    HW124326   2.864   5.643   4.887
 7809SOL    HW224327   2.861   5.748   4.762
 7810SOL     OW24328   2.858   0.503   6.067
 7810SOL    HW124329   2.936   0.565   6.075
 7810SOL    HW224330   2.812   0.496   6.156
 7811SOL     OW24331   5.707   4.727   4.560
 7811SOL    HW124332   5.764   4.680   4.493
 7811SOL    HW224333   5.630   4.771   4.514
 7812SOL     OW24334   1.737   1.311   3.848
 7812SOL    HW124335   1.659   1.284   3.905
 7812SOL    HW224336   1.714   1.296   3.752
 7813SOL     OW24337   6.421   2.715   0.031
 7813SOL    HW124338   6.415   2.684   6.955
 7813SOL    HW224339   6.473   2.801   0.035
 7814SOL     OW24340   6.815   3.556   3.455
 7814SOL    HW124341   6.911   3.558   3.427
 7814SOL    HW224342   6.809   3.538   3.553
 7815SOL     OW24343   6.289   1.406   6.223
 7815SOL    HW124344   6.330   1.447   6.305
 7815SOL    HW224345   6.208   1.459   6.197
 7816SOL     OW24346   1.160   4.208   5.652
 7816SOL    HW124347   1.061   4.203   5.634
 7816SOL    HW224348   1.181   4.294   5.697
 7817SOL     OW24349   5.148   4.448   4.689
 7817SOL    HW124350   5.140   4.531   4.634
 7817SOL    HW224351   5.102   4.372   4.642
 7818SOL     OW24352   5.585   6.274   1.778
 7818SOL    HW124353   5.682   6.254   1.793
 7818SOL    HW224354   5.568   6.280   1.679
 7819SOL     OW24355   6.862   2.489   1.388
 7819SOL    HW124356   6.886   2.569   1.444
 7819SOL    HW224357   6.798   2.518   1.316
 7820SOL     OW24358   1.692   1.384   6.468
 7820SOL    HW124359   1.593   1.387   6.455
 7820SOL    HW224360   1.734   1.328   6.397
 7821SOL     OW24361   3.110   5.153   1.278
 7821SOL    HW124362   3.159   5.208   1.345
 7821SOL    HW224363   3.017   5.187   1.268
 7822SOL     OW24364   1.495   5.690   5.219
 7822SOL    HW124365   1.539   5.778   5.236
 7822SOL    HW224366   1.498   5.670   5.121
 7823SOL     OW24367   1.666   4.522   4.887
 7823SOL    HW124368   1.719   4.592   4.838
 7823SOL    HW224369   1.684   4.433   4.847
 7824SOL     OW24370   0.542   2.798   5.152
 7824SOL    HW124371   0.512   2.803   5.057
 7824SOL    HW224372   0.638   2.825   5.159
 7825SOL     OW24373   2.728   1.538   6.712
 7825SOL    HW124374   2.827   1.552   6.706
 7825SOL    HW224375   2.693   1.586   6.793
 7826SOL     OW24376   0.022   2.331   6.690
 7826SOL    HW124377   0.118   2.357   6.679
 7826SOL    HW224378   0.017   2.239   6.728
 7827SOL     OW24379   6.909   6.101   4.384
 7827SOL    HW124380   6.826   6.120   4.331
 7827SOL    HW224381   6.925   6.175   4.449
 7828SOL     OW24382   0.809   4.108   6.932
 7828SOL    HW124383   0.821   4.024   6.984
 7828SOL    HW224384   0.810   4.186   6.995
 7829SOL     OW24385   3.639   2.306   0.934
 7829SOL    HW124386   3.667   2.220   0.976
 7829SOL    HW224387   3.719   2.355   0.900
 7830SOL     OW24388   2.879   4.751   4.185
 7830SOL    HW124389   2.951   4.773   4.120
 7830SOL    HW224390   2.803   4.706   4.138
 7831SOL     OW24391   1.344   1.740   0.336
 7831SOL    HW124392   1.403   1.780   0.407
 7831SOL    HW224393   1.268   1.802   0.317
 7832SOL     OW24394   5.685   0.662   4.351
 7832SOL    HW124395   5.746   0.717   4.409
 7832SOL    HW224396   5.612   0.624   4.408
 7833SOL     OW24397   2.299   1.014   4.203
 7833SOL    HW124398   2.363   1.091   4.209
 7833SOL    HW224399   2.347   0.930   4.227
 7834SOL     OW24400   5.952   3.239   4.039
 7834SOL    HW124401   6.014   3.163   4.057
 7834SOL    HW224402   5.946   3.297   4.121
 7835SOL     OW24403   4.177   1.793   4.675
 7835SOL    HW124404   4.179   1.694   4.660
 7835SOL    HW224405   4.146   1.812   4.768
 7836SOL     OW24406   3.712   4.215   5.146
 7836SOL    HW124407   3.713   4.247   5.051
 7836SOL    HW224408   3.741   4.290   5.206
 7837SOL     OW24409   5.949   5.947   6.457
 7837SOL    HW124410   6.021   5.937   6.526
 7837SOL    HW224411   5.870   5.993   6.498
 7838SOL     OW24412   5.744   5.391   1.224
 7838SOL    HW124413   5.748   5.471   1.285
 7838SOL    HW224414   5.832   5.378   1.179
 7839SOL     OW24415   6.113   4.080   3.782
 7839SOL    HW124416   6.044   4.010   3.799
 7839SOL    HW224417   6.159   4.103   3.867
 7840SOL     OW24418   2.013   2.929   3.981
 7840SOL    HW124419   1.936   2.984   4.013
 7840SOL    HW224420   2.024   2.850   4.041
 7841SOL     OW24421   4.962   2.260   6.066
 7841SOL    HW124422   4.998   2.219   6.150
 7841SOL    HW224423   4.927   2.188   6.006
 7842SOL     OW24424   2.048   1.484   2.163
 7842SOL    HW124425   2.121   1.460   2.100
 7842SOL    HW224426   1.961   1.452   2.127
 7843SOL     OW24427   0.171   6.443   3.049
 7843SOL    HW124428   0.141   6.500   3.126
 7843SOL    HW224429   0.091   6.403   3.004
 7844SOL     OW24430   3.591   1.250   2.786
 7844SOL    HW124431   3.671   1.229   2.730
 7844SOL    HW224432   3.524   1.301   2.733
 7845SOL     OW24433   6.521   2.658   1.081
 7845SOL    HW124434   6.615   2.691   1.085
 7845SOL    HW224435   6.520   2.558   1.085
 7846SOL     OW24436   0.790   2.630   0.598
 7846SOL    HW124437   0.818   2.673   0.512
 7846SOL    HW224438   0.734   2.694   0.650
 7847SOL     OW24439   5.647   3.064   4.856
 7847SOL    HW124440   5.718   2.995   4.842
 7847SOL    HW224441   5.675   3.150   4.815
 7848SOL     OW24442   3.196   4.612   0.966
 7848SOL    HW124443   3.109   4.622   0.917
 7848SOL    HW224444   3.182   4.627   1.063
 7849SOL     OW24445   4.739   4.065   6.276
 7849SOL    HW124446   4.695   3.976   6.274
 7849SOL    HW224447   4.803   4.068   6.353
 7850SOL     OW24448   6.857   0.959   3.708
 7850SOL    HW124449   6.882   0.949   3.612
 7850SOL    HW224450   6.882   1.050   3.741
 7851SOL     OW24451   0.667   4.195   1.927
 7851SOL    HW124452   0.570   4.173   1.915
 7851SOL    HW224453   0.723   4.120   1.893
 7852SOL     OW24454   1.604   2.331   6.657
 7852SOL    HW124455   1.600   2.388   6.739
 7852SOL    HW224456   1.644   2.242   6.680
 7853SOL     OW24457   4.125   2.818   1.689
 7853SOL    HW124458   4.062   2.848   1.761
 7853SOL    HW224459   4.203   2.880   1.684
 7854SOL     OW24460   5.154   2.569   6.132
 7854SOL    HW124461   5.070   2.621   6.144
 7854SOL    HW224462   5.233   2.629   6.147
 7855SOL     OW24463   4.971   6.946   4.424
 7855SOL    HW124464   4.875   6.971   4.410
 7855SOL    HW224465   5.021   0.006   4.459
 7856SOL     OW24466   2.114   6.202   4.656
 7856SOL    HW124467   2.180   6.153   4.600
 7856SOL    HW224468   2.148   6.207   4.750
 7857SOL     OW24469   5.370   3.606   0.968
 7857SOL    HW124470   5.370   3.704   0.991
 7857SOL    HW224471   5.279   3.580   0.934
 7858SOL     OW24472   0.952   5.253   5.750
 7858SOL    HW124473   0.863   5.289   5.779
 7858SOL    HW224474   0.940   5.162   5.712
 7859SOL     OW24475   5.314   2.783   0.333
 7859SOL    HW124476   5.302   2.766   0.235
 7859SOL    HW224477   5.229   2.818   0.372
 7860SOL     OW24478   2.641   0.797   4.627
 7860SOL    HW124479   2.548   0.775   4.658
 7860SOL    HW224480   2.651   0.768   4.531
 7861SOL     OW24481   2.775   6.198   0.832
 7861SOL    HW124482   2.801   6.276   0.776
 7861SOL    HW224483   2.833   6.193   0.913
 7862SOL     OW24484   2.903   6.319   0.400
 7862SOL    HW124485   2.883   6.408   0.360
 7862SOL    HW224486   2.917   6.330   0.499
 7863SOL     OW24487   6.767   4.575   3.710
 7863SOL    HW124488   6.716   4.570   3.624
 7863SOL    HW224489   6.767   4.486   3.754
 7864SOL     OW24490   2.319   6.880   5.059
 7864SOL    HW124491   2.413   6.884   5.091
 7864SOL    HW224492   2.275   6.969   5.072
 7865SOL     OW24493   6.035   5.815   3.624
 7865SOL    HW124494   6.038   5.829   3.525
 7865SOL    HW224495   6.060   5.721   3.645
 7866SOL     OW24496   1.282   6.732   5.637
 7866SOL    HW124497   1.207   6.760   5.697
 7866SOL    HW224498   1.250   6.661   5.574
 7867SOL     OW24499   5.400   6.294   3.689
 7867SOL    HW124500   5.437   6.210   3.651
 7867SOL    HW224501   5.464   6.369   3.673
 7868SOL     OW24502   3.508   6.783   1.186
 7868SOL    HW124503   3.517   6.811   1.281
 7868SOL    HW224504   3.579   6.717   1.164
 7869SOL     OW24505   5.524   4.352   6.145
 7869SOL    HW124506   5.544   4.308   6.057
 7869SOL    HW224507   5.431   4.389   6.142
 7870SOL     OW24508   5.158   6.103   5.065
 7870SOL    HW124509   5.200   6.041   4.999
 7870SOL    HW224510   5.080   6.058   5.109
 7871SOL     OW24511   4.961   1.461   1.827
 7871SOL    HW124512   4.933   1.372   1.791
 7871SOL    HW224513   4.923   1.534   1.770
 7872SOL     OW24514   1.858   5.973   2.310
 7872SOL    HW124515   1.817   5.944   2.396
 7872SOL    HW224516   1.817   5.922   2.234
 7873SOL     OW24517   6.466   0.953   0.310
 7873SOL    HW124518   6.502   1.041   0.339
 7873SOL    HW224519   6.452   0.894   0.390
 7874SOL     OW24520   5.668   2.373   0.882
 7874SOL    HW124521   5.619   2.345   0.800
 7874SOL    HW224522   5.764   2.344   0.874
 7875SOL     OW24523   4.956   4.066   6.795
 7875SOL    HW124524   4.876   4.007   6.804
 7875SOL    HW224525   4.934   4.145   6.739
 7876SOL     OW24526   1.126   0.345   1.918
 7876SOL    HW124527   1.062   0.340   1.996
 7876SOL    HW224528   1.119   0.435   1.876
 7877SOL     OW24529   0.159   2.348   3.411
 7877SOL    HW124530   0.089   2.399   3.362
 7877SOL    HW224531   0.231   2.409   3.441
 7878SOL     OW24532   4.373   5.023   3.524
 7878SOL    HW124533   4.326   5.065   3.446
 7878SOL    HW224534   4.456   4.978   3.493
 7879SOL     OW24535   2.397   4.706   3.342
 7879SOL    HW124536   2.386   4.801   3.371
 7879SOL    HW224537   2.392   4.700   3.243
 7880SOL     OW24538   1.312   4.105   2.024
 7880SOL    HW124539   1.399   4.141   2.057
 7880SOL    HW224540   1.238   4.168   2.049
 7881SOL     OW24541   5.128   4.088   3.793
 7881SOL    HW124542   5.069   4.064   3.716
 7881SOL    HW224543   5.077   4.078   3.878
 7882SOL     OW24544   1.680   2.840   0.956
 7882SOL    HW124545   1.607   2.771   0.959
 7882SOL    HW224546   1.769   2.794   0.952
 7883SOL     OW24547   1.269   1.340   5.317
 7883SOL    HW124548   1.352   1.315   5.267
 7883SOL    HW224549   1.188   1.320   5.262
 7884SOL     OW24550   0.643   3.536   4.439
 7884SOL    HW124551   0.727   3.582   4.465
 7884SOL    HW224552   0.575   3.546   4.512
 7885SOL     OW24553   5.747   6.036   0.250
 7885SOL    HW124554   5.828   6.072   0.203
 7885SOL    HW224555   5.761   5.939   0.271
 7886SOL     OW24556   4.597   4.839   6.955
 7886SOL    HW124557   4.567   4.770   6.889
 7886SOL    HW224558   4.523   4.857   0.001
 7887SOL     OW24559   5.014   1.727   7.013
 7887SOL    HW124560   4.956   1.670   0.052
 7887SOL    HW224561   5.096   1.675   6.987
 7888SOL     OW24562   4.796   0.683   4.300
 7888SOL    HW124563   4.888   0.701   4.336
 7888SOL    HW224564   4.734   0.754   4.331
 7889SOL     OW24565   0.591   6.799   2.132
 7889SOL    HW124566   0.672   6.797   2.072
 7889SOL    HW224567   0.568   6.894   2.153
 7890SOL     OW24568   1.485   3.489   2.877
 7890SOL    HW124569   1.555   3.475   2.806
 7890SOL    HW224570   1.450   3.401   2.906
 7891SOL     OW24571   2.164   4.988   2.310
 7891SOL    HW124572   2.198   4.915   2.370
 7891SOL    HW224573   2.190   5.077   2.348
 7892SOL     OW24574   1.752   2.337   6.000
 7892SOL    HW124575   1.752   2.310   6.096
 7892SOL    HW224576   1.837   2.386   5.978
 7893SOL     OW24577   6.453   6.425   1.366
 7893SOL    HW124578   6.450   6.523   1.384
 7893SOL    HW224579   6.377   6.380   1.415
 7894SOL     OW24580   2.852   6.740   1.493
 7894SOL    HW124581   2.831   6.704   1.402
 7894SOL    HW224582   2.902   6.671   1.545
 7895SOL     OW24583   6.880   1.553   4.561
 7895SOL    HW124584   6.967   1.504   4.574
 7895SOL    HW224585   6.836   1.520   4.478
 7896SOL     OW24586   4.670   3.031   5.613
 7896SOL    HW124587   4.611   3.066   5.685
 7896SOL    HW224588   4.647   3.077   5.526
 7897SOL     OW24589   2.781   3.118   6.523
 7897SOL    HW124590   2.832   3.188   6.574
 7897SOL    HW224591   2.790   3.135   6.425
 7898SOL     OW24592   4.455   2.475   3.730
 7898SOL    HW124593   4.363   2.443   3.749
 7898SOL    HW224594   4.519   2.399   3.737
 7899SOL     OW24595   5.577   2.056   2.948
 7899SOL    HW124596   5.529   2.040   2.862
 7899SOL    HW224597   5.620   1.971   2.979
 7900SOL     OW24598   1.703   5.257   0.843
 7900SOL    HW124599   1.754   5.325   0.790
 7900SOL    HW224600   1.748   5.168   0.832
 7901SOL     OW24601   6.039   6.311   6.796
 7901SOL    HW124602   6.091   6.316   6.881
 7901SOL    HW224603   5.964   6.378   6.799
 7902SOL     OW24604   4.251   3.487   6.905
 7902SOL    HW124605   4.213   3.495   6.813
 7902SOL    HW224606   4.243   3.392   6.937
 7903SOL     OW24607   6.870   1.716   6.819
 7903SOL    HW124608   6.816   1.702   6.735
 7903SOL    HW224609   6.867   1.633   6.875
 7904SOL     OW24610   6.760   1.076   2.680
 7904SOL    HW124611   6.805   1.157   2.717
 7904SOL    HW224612   6.808   1.046   2.597
 7905SOL     OW24613   4.140   1.051   1.021
 7905SOL    HW124614   4.086   0.970   0.996
 7905SOL    HW224615   4.091   1.133   0.992
 7906SOL     OW24616   6.033   5.623   0.006
 7906SOL    HW124617   6.087   5.566   6.963
 7906SOL    HW224618   6.039   5.587   0.100
 7907SOL     OW24619   0.098   2.496   2.571
 7907SOL    HW124620   0.114   2.538   2.481
 7907SOL    HW224621   0.077   2.568   2.637
 7908SOL     OW24622   6.485   2.359   4.041
 7908SOL    HW124623   6.503   2.307   3.958
 7908SOL    HW224624   6.407   2.419   4.027
 7909SOL     OW24625   4.745   4.573   5.085
 7909SOL    HW124626   4.790   4.548   4.999
 7909SOL    HW224627   4.785   4.520   5.160
 7910SOL     OW24628   5.738   2.956   5.540
 7910SOL    HW124629   5.807   2.884   5.532
 7910SOL    HW224630   5.647   2.916   5.528
 7911SOL     OW24631   5.900   4.621   0.246
 7911SOL    HW124632   5.917   4.523   0.254
 7911SOL    HW224633   5.885   4.660   0.336
 7912SOL     OW24634   6.344   4.944   6.085
 7912SOL    HW124635   6.379   5.019   6.028
 7912SOL    HW224636   6.247   4.961   6.105
 7913SOL     OW24637   6.725   5.516   6.056
 7913SOL    HW124638   6.722   5.547   5.961
 7913SOL    HW224639   6.812   5.543   6.097
 7914SOL     OW24640   6.439   4.556   1.486
 7914SOL    HW124641   6.422   4.517   1.576
 7914SOL    HW224642   6.463   4.653   1.496
 7915SOL     OW24643   3.474   1.453   3.292
 7915SOL    HW124644   3.571   1.455   3.268
 7915SOL    HW224645   3.418   1.449   3.209
 7916SOL     OW24646   5.214   3.942   5.623
 7916SOL    HW124647   5.230   3.932   5.525
 7916SOL    HW224648   5.147   4.015   5.639
 7917SOL     OW24649   3.283   3.748   4.156
 7917SOL    HW124650   3.288   3.742   4.056
 7917SOL    HW224651   3.232   3.670   4.191
 7918SOL     OW24652   6.150   1.864   2.988
 7918SOL    HW124653   6.115   1.935   2.926
 7918SOL    HW224654   6.089   1.785   2.985
 7919SOL     OW24655   5.752   5.230   2.098
 7919SOL    HW124656   5.751   5.149   2.157
 7919SOL    HW224657   5.688   5.216   2.022
 7920SOL     OW24658   0.792   5.297   1.689
 7920SOL    HW124659   0.824   5.292   1.784
 7920SOL    HW224660   0.713   5.238   1.678
 7921SOL     OW24661   2.587   6.899   1.285
 7921SOL    HW124662   2.630   6.827   1.231
 7921SOL    HW224663   2.508   6.862   1.334
 7922SOL     OW24664   0.760   5.392   6.626
 7922SOL    HW124665   0.807   5.400   6.538
 7922SOL    HW224666   0.827   5.374   6.698
 7923SOL     OW24667   1.628   1.989   3.114
 7923SOL    HW124668   1.542   2.001   3.163
 7923SOL    HW224669   1.671   1.903   3.143
 7924SOL     OW24670   2.526   6.856   3.861
 7924SOL    HW124671   2.483   6.770   3.833
 7924SOL    HW224672   2.551   6.908   3.780
 7925SOL     OW24673   6.338   1.052   6.372
 7925SOL    HW124674   6.391   0.988   6.316
 7925SOL    HW224675   6.333   1.018   6.466
 7926SOL     OW24676   3.956   0.255   1.739
 7926SOL    HW124677   4.018   0.178   1.725
 7926SOL    HW224678   3.926   0.257   1.834
 7927SOL     OW24679   4.763   5.268   4.793
 7927SOL    HW124680   4.739   5.205   4.718
 7927SOL    HW224681   4.681   5.313   4.826
 7928SOL     OW24682   1.599   5.441   1.445
 7928SOL    HW124683   1.625   5.345   1.447
 7928SOL    HW224684   1.681   5.498   1.440
 7929SOL     OW24685   3.614   3.789   4.178
 7929SOL    HW124686   3.677   3.711   4.187
 7929SOL    HW224687   3.531   3.770   4.230
 7930SOL     OW24688   4.960   5.891   3.928
 7930SOL    HW124689   4.871   5.849   3.910
 7930SOL    HW224690   4.968   5.976   3.877
 7931SOL     OW24691   2.618   1.722   0.480
 7931SOL    HW124692   2.555   1.705   0.405
 7931SOL    HW224693   2.602   1.654   0.552
 7932SOL     OW24694   2.586   0.304   0.717
 7932SOL    HW124695   2.670   0.307   0.663
 7932SOL    HW224696   2.599   0.353   0.803
 7933SOL     OW24697   1.848   1.218   6.708
 7933SOL    HW124698   1.775   1.180   6.764
 7933SOL    HW224699   1.819   1.306   6.670
 7934SOL     OW24700   2.636   3.578   6.146
 7934SOL    HW124701   2.548   3.585   6.195
 7934SOL    HW224702   2.624   3.609   6.052
 7935SOL     OW24703   4.549   6.493   1.366
 7935SOL    HW124704   4.551   6.590   1.340
 7935SOL    HW224705   4.534   6.437   1.284
 7936SOL     OW24706   4.305   5.742   3.099
 7936SOL    HW124707   4.347   5.833   3.091
 7936SOL    HW224708   4.375   5.676   3.127
 7937SOL     OW24709   6.477   6.425   5.627
 7937SOL    HW124710   6.393   6.372   5.644
 7937SOL    HW224711   6.479   6.455   5.532
 7938SOL     OW24712   5.018   5.375   4.781
 7938SOL    HW124713   5.069   5.388   4.695
 7938SOL    HW224714   4.930   5.333   4.761
 7939SOL     OW24715   1.103   1.039   5.167
 7939SOL    HW124716   1.114   1.137   5.153
 7939SOL    HW224717   1.139   1.013   5.257
 7940SOL     OW24718   1.696   5.906   1.158
 7940SOL    HW124719   1.777   5.866   1.115
 7940SOL    HW224720   1.619   5.901   1.094
 7941SOL     OW24721   0.526   0.244   0.776
 7941SOL    HW124722   0.590   0.314   0.743
 7941SOL    HW224723   0.536   0.234   0.875
 7942SOL     OW24724   0.554   0.867   1.812
 7942SOL    HW124725   0.585   0.786   1.863
 7942SOL    HW224726   0.457   0.858   1.792
 7943SOL     OW24727   5.086   1.517   1.404
 7943SOL    HW124728   5.166   1.512   1.463
 7943SOL    HW224729   5.007   1.477   1.451
 7944SOL     OW24730   0.930   4.439   1.805
 7944SOL    HW124731   0.979   4.526   1.816
 7944SOL    HW224732   0.993   4.364   1.822
 7945SOL     OW24733   5.194   6.770   2.384
 7945SOL    HW124734   5.239   6.825   2.455
 7945SOL    HW224735   5.264   6.730   2.324
 7946SOL     OW24736   1.492   2.508   6.041
 7946SOL    HW124737   1.481   2.575   6.114
 7946SOL    HW224738   1.568   2.446   6.063
 7947SOL     OW24739   4.033   3.430   6.194
 7947SOL    HW124740   4.044   3.454   6.097
 7947SOL    HW224741   3.989   3.340   6.201
 7948SOL     OW24742   0.093   6.009   0.402
 7948SOL    HW124743   0.129   5.916   0.412
 7948SOL    HW224744   0.069   6.045   0.492
 7949SOL     OW24745   5.618   4.518   4.099
 7949SOL    HW124746   5.556   4.442   4.081
 7949SOL    HW224747   5.571   4.588   4.153
 7950SOL     OW24748   3.363   4.949   4.180
 7950SOL    HW124749   3.401   4.912   4.265
 7950SOL    HW224750   3.274   4.991   4.200
 7951SOL     OW24751   3.259   3.346   1.015
 7951SOL    HW124752   3.171   3.307   1.040
 7951SOL    HW224753   3.313   3.362   1.097
 7952SOL     OW24754   5.383   3.126   1.149
 7952SOL    HW124755   5.320   3.052   1.169
 7952SOL    HW224756   5.340   3.191   1.086
 7953SOL     OW24757   1.971   2.721   3.125
 7953SOL    HW124758   2.056   2.774   3.131
 7953SOL    HW224759   1.894   2.778   3.152
 7954SOL     OW24760   3.779   5.089   5.078
 7954SOL    HW124761   3.778   5.028   4.999
 7954SOL    HW224762   3.822   5.175   5.054
 7955SOL     OW24763   0.989   6.656   6.169
 7955SOL    HW124764   1.067   6.616   6.217
 7955SOL    HW224765   0.961   6.596   6.095
 7956SOL     OW24766   5.689   6.711   4.104
 7956SOL    HW124767   5.621   6.780   4.130
 7956SOL    HW224768   5.709   6.719   4.007
 7957SOL     OW24769   0.707   2.517   1.323
 7957SOL    HW124770   0.727   2.420   1.329
 7957SOL    HW224771   0.781   2.570   1.365
 7958SOL     OW24772   2.891   5.195   2.860
 7958SOL    HW124773   2.872   5.183   2.762
 7958SOL    HW224774   2.812   5.162   2.913
 7959SOL     OW24775   5.978   4.913   0.898
 7959SOL    HW124776   6.061   4.916   0.953
 7959SOL    HW224777   5.992   4.963   0.813
 7960SOL     OW24778   2.682   2.097   1.047
 7960SOL    HW124779   2.664   2.057   0.958
 7960SOL    HW224780   2.608   2.076   1.110
 7961SOL     OW24781   1.887   5.578   6.740
 7961SOL    HW124782   1.857   5.487   6.710
 7961SOL    HW224783   1.914   5.574   6.836
 7962SOL     OW24784   1.029   1.080   2.340
 7962SOL    HW124785   0.939   1.101   2.304
 7962SOL    HW224786   1.069   1.003   2.289
 7963SOL     OW24787   0.503   0.451   5.077
 7963SOL    HW124788   0.569   0.526   5.080
 7963SOL    HW224789   0.550   0.364   5.094
 7964SOL     OW24790   5.937   5.803   3.361
 7964SOL    HW124791   5.862   5.750   3.321
 7964SOL    HW224792   5.912   5.900   3.364
 7965SOL     OW24793   5.423   2.181   6.931
 7965SOL    HW124794   5.367   2.158   7.011
 7965SOL    HW224795   5.364   2.219   6.860
 7966SOL     OW24796   6.950   4.987   3.661
 7966SOL    HW124797   6.949   4.901   3.710
 7966SOL    HW224798   7.010   5.052   3.708
 7967SOL     OW24799   3.121   6.110   2.297
 7967SOL    HW124800   3.113   6.086   2.200
 7967SOL    HW224801   3.030   6.130   2.334
 7968SOL     OW24802   2.057   2.154   2.433
 7968SOL    HW124803   2.136   2.174   2.376
 7968SOL    HW224804   2.087   2.125   2.524
 7969SOL     OW24805   3.061   2.090   3.497
 7969SOL    HW124806   3.002   2.019   3.459
 7969SOL    HW224807   3.123   2.124   3.425
 7970SOL     OW24808   0.737   4.226   3.084
 7970SOL    HW124809   0.763   4.130   3.096
 7970SOL    HW224810   0.669   4.233   3.012
 7971SOL     OW24811   2.937   1.621   1.615
 7971SOL    HW124812   2.982   1.536   1.643
 7971SOL    HW224813   3.004   1.681   1.572
 7972SOL     OW24814   0.500   4.721   1.702
 7972SOL    HW124815   0.571   4.755   1.763
 7972SOL    HW224816   0.519   4.750   1.608
 7973SOL     OW24817   4.872   3.123   3.164
 7973SOL    HW124818   4.811   3.052   3.128
 7973SOL    HW224819   4.882   3.111   3.263
 7974SOL     OW24820   5.231   0.170   4.067
 7974SOL    HW124821   5.216   0.257   4.019
 7974SOL    HW224822   5.149   0.113   4.059
 7975SOL     OW24823   3.160   1.172   4.329
 7975SOL    HW124824   3.122   1.093   4.281
 7975SOL    HW224825   3.128   1.256   4.286
 7976SOL     OW24826   0.836   5.634   6.177
 7976SOL    HW124827   0.891   5.558   6.142
 7976SOL    HW224828   0.861   5.718   6.129
 7977SOL     OW24829   5.312   6.054   1.651
 7977SOL    HW124830   5.252   6.021   1.579
 7977SOL    HW224831   5.339   5.978   1.710
 7978SOL     OW24832   4.641   3.371   5.931
 7978SOL    HW124833   4.575   3.438   5.965
 7978SOL    HW224834   4.665   3.392   5.837
 7979SOL     OW24835   3.272   0.092   4.420
 7979SOL    HW124836   3.313   0.158   4.483
 7979SOL    HW224837   3.340   0.062   4.353
 7980SOL     OW24838   3.541   6.414   0.807
 7980SOL    HW124839   3.609   6.440   0.738
 7980SOL    HW224840   3.587   6.373   0.885
 7981SOL     OW24841   1.138   5.126   2.787
 7981SOL    HW124842   1.107   5.046   2.838
 7981SOL    HW224843   1.196   5.182   2.845
 7982SOL     OW24844   6.516   3.249   0.778
 7982SOL    HW124845   6.509   3.228   0.680
 7982SOL    HW224846   6.586   3.319   0.792
 7983SOL     OW24847   5.119   2.149   2.701
 7983SOL    HW124848   5.082   2.217   2.765
 7983SOL    HW224849   5.051   2.131   2.630
 7984SOL     OW24850   0.419   2.006   2.054
 7984SOL    HW124851   0.514   2.016   2.084
 7984SOL    HW224852   0.397   2.077   1.987
 7985SOL     OW24853   0.086   1.460   1.814
 7985SOL    HW124854   0.155   1.530   1.832
 7985SOL    HW224855   7.016   1.490   1.851
 7986SOL     OW24856   3.938   1.086   6.721
 7986SOL    HW124857   4.009   1.154   6.701
 7986SOL    HW224858   3.980   0.996   6.734
 7987SOL     OW24859   0.582   3.093   4.773
 7987SOL    HW124860   0.532   3.080   4.688
 7987SOL    HW224861   0.677   3.066   4.760
 7988SOL     OW24862   2.838   1.497   4.830
 7988SOL    HW124863   2.845   1.541   4.919
 7988SOL    HW224864   2.929   1.474   4.797
 7989SOL     OW24865   2.967   2.585   5.407
 7989SOL    HW124866   2.938   2.621   5.496
 7989SOL    HW224867   3.002   2.660   5.351
 7990SOL     OW24868   1.305   2.350   5.039
 7990SOL    HW124869   1.343   2.385   4.954
 7990SOL    HW224870   1.250   2.421   5.083
 7991SOL     OW24871   0.809   3.100   5.657
 7991SOL    HW124872   0.748   3.039   5.607
 7991SOL    HW224873   0.850   3.051   5.734
 7992SOL     OW24874   2.704   0.744   0.556
 7992SOL    HW124875   2.623   0.685   0.558
 7992SOL    HW224876   2.699   0.806   0.478
 7993SOL     OW24877   1.950   6.440   0.062
 7993SOL    HW124878   2.035   6.421   0.011
 7993SOL    HW224879   1.941   6.539   0.075
 7994SOL     OW24880   6.056   0.954   3.529
 7994SOL    HW124881   6.113   0.889   3.479
 7994SOL    HW224882   5.980   0.905   3.572
 7995SOL     OW24883   3.103   5.115   3.386
 7995SOL    HW124884   3.113   5.048   3.313
 7995SOL    HW224885   3.142   5.078   3.471
 7996SOL     OW24886   3.942   6.773   5.513
 7996SOL    HW124887   3.843   6.775   5.529
 7996SOL    HW224888   3.966   6.842   5.445
 7997SOL     OW24889   5.769   2.460   1.253
 7997SOL    HW124890   5.679   2.490   1.220
 7997SOL    HW224891   5.791   2.371   1.213
 7998SOL     OW24892   6.238   5.054   0.042
 7998SOL    HW124893   6.160   5.061   6.998
 7998SOL    HW224894   6.322   5.044   7.007
 7999SOL     OW24895   2.048   0.408   5.564
 7999SOL    HW124896   2.107   0.455   5.498
 7999SOL    HW224897   2.105   0.365   5.634
 8000SOL     OW24898   6.279   0.136   5.472
 8000SOL    HW124899   6.193   0.143   5.524
 8000SOL    HW224900   6.279   0.205   5.399
 8001SOL     OW24901   1.682   6.906   1.272
 8001SOL    HW124902   1.697   6.973   1.199
 8001SOL    HW224903   1.767   6.891   1.322
 8002SOL     OW24904   5.857   2.867   4.882
 8002SOL    HW124905   5.942   2.815   4.895
 8002SOL    HW224906   5.793   2.844   4.956
 8003SOL     OW24907   3.511   4.879   3.188
 8003SOL    HW124908   3.538   4.945   3.117
 8003SOL    HW224909   3.551   4.905   3.275
 8004SOL     OW24910   2.141   3.823   2.651
 8004SOL    HW124911   2.043   3.841   2.655
 8004SOL    HW224912   2.178   3.855   2.564
 8005SOL     OW24913   2.972   0.835   1.387
 8005SOL    HW124914   2.977   0.839   1.287
 8005SOL    HW224915   3.056   0.871   1.426
 8006SOL     OW24916   3.151   6.045   0.612
 8006SOL    HW124917   3.064   6.028   0.659
 8006SOL    HW224918   3.209   5.964   0.619
 8007SOL     OW24919   0.345   0.344   4.310
 8007SOL    HW124920   0.316   0.440   4.304
 8007SOL    HW224921   0.333   0.311   4.403
 8008SOL     OW24922   6.132   6.805   1.041
 8008SOL    HW124923   6.093   6.891   1.073
 8008SOL    HW224924   6.065   6.732   1.054
 8009SOL     OW24925   6.908   6.558   3.821
 8009SOL    HW124926   6.856   6.492   3.876
 8009SOL    HW224927   6.959   6.619   3.882
 8010SOL     OW24928   2.108   2.537   6.743
 8010SOL    HW124929   2.204   2.529   6.770
 8010SOL    HW224930   2.102   2.590   6.658
 8011SOL     OW24931   3.418   2.433   0.608
 8011SOL    HW124932   3.327   2.466   0.634
 8011SOL    HW224933   3.485   2.464   0.676
 8012SOL     OW24934   2.414   6.474   1.523
 8012SOL    HW124935   2.365   6.418   1.590
 8012SOL    HW224936   2.403   6.435   1.432
 8013SOL     OW24937   6.448   4.058   4.847
 8013SOL    HW124938   6.368   4.039   4.904
 8013SOL    HW224939   6.420   4.072   4.753
 8014SOL     OW24940   2.217   6.869   0.106
 8014SOL    HW124941   2.234   6.835   0.013
 8014SOL    HW224942   2.230   6.794   0.171
 8015SOL     OW24943   2.429   2.656   0.173
 8015SOL    HW124944   2.367   2.724   0.133
 8015SOL    HW224945   2.439   2.579   0.110
 8016SOL     OW24946   4.276   6.768   0.383
 8016SOL    HW124947   4.211   6.838   0.411
 8016SOL    HW224948   4.296   6.708   0.461
 8017SOL     OW24949   5.830   4.832   4.808
 8017SOL    HW124950   5.742   4.875   4.785
 8017SOL    HW224951   5.873   4.797   4.725
 8018SOL     OW24952   5.560   1.888   4.918
 8018SOL    HW124953   5.599   1.796   4.922
 8018SOL    HW224954   5.579   1.937   5.003
 8019SOL     OW24955   2.886   5.988   0.703
 8019SOL    HW124956   2.887   5.909   0.764
 8019SOL    HW224957   2.854   6.068   0.754
 8020SOL     OW24958   5.045   5.062   0.058
 8020SOL    HW124959   5.106   5.100   7.007
 8020SOL    HW224960   5.024   5.132   0.126
 8021SOL     OW24961   0.740   0.512   0.990
 8021SOL    HW124962   0.752   0.415   1.012
 8021SOL    HW224963   0.680   0.521   0.910
 8022SOL     OW24964   4.372   6.496   3.340
 8022SOL    HW124965   4.329   6.460   3.257
 8022SOL    HW224966   4.427   6.576   3.317
 8023SOL     OW24967   5.899   6.466   3.102
 8023SOL    HW124968   5.972   6.522   3.064
 8023SOL    HW224969   5.810   6.502   3.073
 8024SOL     OW24970   4.730   5.061   5.279
 8024SOL    HW124971   4.790   4.996   5.232
 8024SOL    HW224972   4.638   5.055   5.241
 8025SOL     OW24973   4.035   5.718   6.886
 8025SOL    HW124974   4.047   5.686   6.792
 8025SOL    HW224975   4.084   5.657   6.949
 8026SOL     OW24976   1.364   3.005   0.788
 8026SOL    HW124977   1.448   3.038   0.830
 8026SOL    HW224978   1.378   2.994   0.690
 8027SOL     OW24979   4.940   1.717   5.045
 8027SOL    HW124980   4.977   1.767   5.123
 8027SOL    HW224981   4.902   1.781   4.978
 8028SOL     OW24982   5.458   4.757   6.888
 8028SOL    HW124983   5.471   4.682   6.953
 8028SOL    HW224984   5.407   4.831   6.932
 8029SOL     OW24985   3.834   3.953   0.637
 8029SOL    HW124986   3.871   3.941   0.545
 8029SOL    HW224987   3.800   4.046   0.647
 8030SOL     OW24988   6.043   4.112   6.508
 8030SOL    HW124989   5.974   4.047   6.477
 8030SOL    HW224990   6.010   4.160   6.589
 8031SOL     OW24991   3.672   5.338   1.360
 8031SOL    HW124992   3.688   5.428   1.319
 8031SOL    HW224993   3.619   5.349   1.444
 8032SOL     OW24994   5.450   4.028   5.787
 8032SOL    HW124995   5.375   4.013   5.722
 8032SOL    HW224996   5.476   3.941   5.829
 8033SOL     OW24997   5.992   2.578   6.970
 8033SOL    HW124998   5.957   2.546   0.039
 8033SOL    HW224999   6.065   2.518   6.939
 8034SOL     OW25000   5.534   6.924   4.872
 8034SOL    HW125001   5.481   7.007   4.852
 8034SOL    HW225002   5.598   6.943   4.946
 8035SOL     OW25003   5.702   6.876   6.488
 8035SOL    HW125004   5.615   6.908   6.527
 8035SOL    HW225005   5.694   6.780   6.463
 8036SOL     OW25006   1.976   4.441   1.815
 8036SOL    HW125007   1.884   4.404   1.829
 8036SOL    HW225008   2.043   4.380   1.859
 8037SOL     OW25009   1.490   2.597   1.219
 8037SOL    HW125010   1.501   2.541   1.137
 8037SOL    HW225011   1.580   2.622   1.255
 8038SOL     OW25012   0.356   2.089   4.514
 8038SOL    HW125013   0.274   2.102   4.458
 8038SOL    HW225014   0.336   2.113   4.609
 8039SOL     OW25015   2.528   6.857   3.232
 8039SOL    HW125016   2.612   6.803   3.227
 8039SOL    HW225017   2.475   6.828   3.311
 8040SOL     OW25018   0.269   6.003   1.106
 8040SOL    HW125019   0.297   6.099   1.114
 8040SOL    HW225020   0.348   5.944   1.124
 8041SOL     OW25021   4.241   1.199   0.509
 8041SOL    HW125022   4.249   1.212   0.608
 8041SOL    HW225023   4.291   1.116   0.483
 8042SOL     OW25024   3.005   2.979   1.653
 8042SOL    HW125025   3.004   2.894   1.706
 8042SOL    HW225026   2.911   3.003   1.628
 8043SOL     OW25027   2.216   6.616   1.714
 8043SOL    HW125028   2.203   6.517   1.705
 8043SOL    HW225029   2.187   6.645   1.806
 8044SOL     OW25030   3.011   3.752   1.668
 8044SOL    HW125031   3.005   3.672   1.728
 8044SOL    HW225032   3.057   3.826   1.716
 8045SOL     OW25033   5.383   2.663   2.885
 8045SOL    HW125034   5.442   2.735   2.850
 8045SOL    HW225035   5.298   2.703   2.919
 8046SOL     OW25036   6.669   5.142   5.938
 8046SOL    HW125037   6.580   5.183   5.955
 8046SOL    HW225038   6.663   5.043   5.950
 8047SOL     OW25039   3.535   6.205   4.668
 8047SOL    HW125040   3.562   6.135   4.734
 8047SOL    HW225041   3.582   6.290   4.689
 8048SOL     OW25042   6.450   0.211   5.206
 8048SOL    HW125043   6.546   0.197   5.183
 8048SOL    HW225044   6.443   0.254   5.296
 8049SOL     OW25045   1.346   6.405   0.619
 8049SOL    HW125046   1.445   6.407   0.638
 8049SOL    HW225047   1.319   6.312   0.596
 8050SOL     OW25048   1.941   2.971   1.396
 8050SOL    HW125049   1.908   3.019   1.315
 8050SOL    HW225050   2.041   2.966   1.393
 8051SOL     OW25051   4.665   0.788   3.696
 8051SOL    HW125052   4.622   0.824   3.779
 8051SOL    HW225053   4.597   0.781   3.623
 8052SOL     OW25054   2.809   1.373   2.850
 8052SOL    HW125055   2.906   1.363   2.827
 8052SOL    HW225056   2.778   1.292   2.900
 8053SOL     OW25057   3.755   3.607   2.421
 8053SOL    HW125058   3.839   3.636   2.375
 8053SOL    HW225059   3.728   3.675   2.488
 8054SOL     OW25060   4.221   6.404   4.796
 8054SOL    HW125061   4.295   6.339   4.815
 8054SOL    HW225062   4.152   6.398   4.869
 8055SOL     OW25063   1.540   6.788   6.238
 8055SOL    HW125064   1.502   6.749   6.154
 8055SOL    HW225065   1.589   6.873   6.217
 8056SOL     OW25066   4.225   1.725   2.864
 8056SOL    HW125067   4.299   1.706   2.799
 8056SOL    HW225068   4.225   1.655   2.935
 8057SOL     OW25069   3.152   6.504   2.845
 8057SOL    HW125070   3.139   6.568   2.769
 8057SOL    HW225071   3.156   6.555   2.931
 8058SOL     OW25072   2.969   1.039   2.404
 8058SOL    HW125073   2.869   1.047   2.400
 8058SOL    HW225074   2.996   0.949   2.371
 8059SOL     OW25075   3.203   1.507   4.103
 8059SOL    HW125076   3.234   1.494   4.009
 8059SOL    HW225077   3.280   1.500   4.165
 8060SOL     OW25078   0.147   1.089   4.427
 8060SOL    HW125079   0.151   1.004   4.375
 8060SOL    HW225080   0.216   1.153   4.393
 8061SOL     OW25081   6.932   5.277   2.419
 8061SOL    HW125082   6.876   5.256   2.499
 8061SOL    HW225083   0.009   5.252   2.437
 8062SOL     OW25084   1.926   3.939   3.382
 8062SOL    HW125085   1.837   3.919   3.340
 8062SOL    HW225086   1.946   4.036   3.372
 8063SOL     OW25087   3.303   2.987   6.835
 8063SOL    HW125088   3.390   2.964   6.880
 8063SOL    HW225089   3.265   3.069   6.877
 8064SOL     OW25090   6.889   3.703   0.187
 8064SOL    HW125091   6.812   3.690   0.125
 8064SOL    HW225092   6.870   3.781   0.248
 8065SOL     OW25093   4.732   0.244   5.036
 8065SOL    HW125094   4.805   0.176   5.023
 8065SOL    HW225095   4.644   0.204   5.010
 8066SOL     OW25096   1.844   0.988   1.531
 8066SOL    HW125097   1.796   0.951   1.451
 8066SOL    HW225098   1.886   1.076   1.507
 8067SOL     OW25099   5.102   2.585   2.254
 8067SOL    HW125100   5.093   2.491   2.287
 8067SOL    HW225101   5.196   2.601   2.222
 8068SOL     OW25102   1.032   4.351   4.977
 8068SOL    HW125103   1.010   4.385   5.068
 8068SOL    HW225104   0.956   4.296   4.943
 8069SOL     OW25105   1.087   6.758   1.906
 8069SOL    HW125106   1.074   6.846   1.950
 8069SOL    HW225107   1.158   6.766   1.835
 8070SOL     OW25108   3.898   6.959   1.214
 8070SOL    HW125109   3.949   0.004   1.156
 8070SOL    HW225110   3.832   7.009   1.270
 8071SOL     OW25111   3.477   6.402   6.917
 8071SOL    HW125112   3.432   6.329   6.969
 8071SOL    HW225113   3.485   6.374   6.821
 8072SOL     OW25114   5.247   1.162   0.241
 8072SOL    HW125115   5.301   1.088   0.202
 8072SOL    HW225116   5.275   1.249   0.201
 8073SOL     OW25117   4.101   6.345   5.992
 8073SOL    HW125118   4.052   6.262   6.020
 8073SOL    HW225119   4.155   6.379   6.069
 8074SOL     OW25120   3.701   3.689   0.165
 8074SOL    HW125121   3.658   3.713   0.252
 8074SOL    HW225122   3.717   3.590   0.161
 8075SOL     OW25123   6.997   1.719   3.324
 8075SOL    HW125124   0.067   1.702   3.280
 8075SOL    HW225125   6.994   1.813   3.357
 8076SOL     OW25126   6.178   3.024   6.102
 8076SOL    HW125127   6.101   3.028   6.166
 8076SOL    HW225128   6.148   3.049   6.011
 8077SOL     OW25129   1.815   0.551   1.459
 8077SOL    HW125130   1.805   0.624   1.392
 8077SOL    HW225131   1.750   0.565   1.534
 8078SOL     OW25132   6.147   3.299   0.535
 8078SOL    HW125133   6.173   3.234   0.606
 8078SOL    HW225134   6.086   3.255   0.469
 8079SOL     OW25135   6.843   2.394   2.547
 8079SOL    HW125136   6.843   2.442   2.635
 8079SOL    HW225137   6.938   2.380   2.518
 8080SOL     OW25138   3.503   4.756   0.031
 8080SOL    HW125139   3.574   4.763   0.101
 8080SOL    HW225140   3.443   4.836   0.037
 8081SOL     OW25141   5.900   0.887   5.357
 8081SOL    HW125142   5.836   0.950   5.313
 8081SOL    HW225143   5.903   0.907   5.455
 8082SOL     OW25144   0.042   3.017   3.523
 8082SOL    HW125145   0.021   2.932   3.475
 8082SOL    HW225146   0.050   3.000   3.621
 8083SOL     OW25147   4.916   2.511   3.991
 8083SOL    HW125148   4.836   2.533   4.047
 8083SOL    HW225149   4.994   2.489   4.051
 8084SOL     OW25150   6.937   0.454   1.209
 8084SOL    HW125151   0.007   0.494   1.182
 8084SOL    HW225152   6.938   0.356   1.190
 8085SOL     OW25153   5.843   1.244   0.974
 8085SOL    HW125154   5.814   1.166   1.029
 8085SOL    HW225155   5.919   1.290   1.019
 8086SOL     OW25156   3.575   0.146   5.405
 8086SOL    HW125157   3.631   0.223   5.435
 8086SOL    HW225158   3.568   0.080   5.479
 8087SOL     OW25159   2.829   2.310   1.471
 8087SOL    HW125160   2.800   2.405   1.455
 8087SOL    HW225161   2.928   2.304   1.459
 8088SOL     OW25162   4.415   0.838   2.969
 8088SOL    HW125163   4.389   0.935   2.962
 8088SOL    HW225164   4.333   0.782   2.978
 8089SOL     OW25165   6.120   2.829   6.978
 8089SOL    HW125166   6.144   2.733   6.995
 8089SOL    HW225167   6.190   2.870   6.919
 8090SOL     OW25168   4.236   1.940   5.541
 8090SOL    HW125169   4.324   1.903   5.509
 8090SOL    HW225170   4.224   2.033   5.505
 8091SOL     OW25171   3.121   4.854   5.833
 8091SOL    HW125172   3.155   4.933   5.884
 8091SOL    HW225173   3.167   4.771   5.866
 8092SOL     OW25174   1.508   1.511   4.859
 8092SOL    HW125175   1.524   1.592   4.916
 8092SOL    HW225176   1.539   1.530   4.765
 8093SOL     OW25177   5.654   6.085   1.359
 8093SOL    HW125178   5.565   6.117   1.390
 8093SOL    HW225179   5.698   6.032   1.432
 8094SOL     OW25180   0.960   4.146   5.951
 8094SOL    HW125181   0.916   4.212   5.891
 8094SOL    HW225182   0.892   4.085   5.991
 8095SOL     OW25183   5.273   3.796   4.011
 8095SOL    HW125184   5.175   3.778   4.008
 8095SOL    HW225185   5.319   3.744   3.939
 8096SOL     OW25186   3.614   6.227   1.566
 8096SOL    HW125187   3.551   6.299   1.593
 8096SOL    HW225188   3.693   6.227   1.628
 8097SOL     OW25189   5.149   0.985   3.844
 8097SOL    HW125190   5.081   0.980   3.771
 8097SOL    HW225191   5.173   1.081   3.861
 8098SOL     OW25192   2.875   6.710   3.737
 8098SOL    HW125193   2.804   6.715   3.667
 8098SOL    HW225194   2.894   6.802   3.772
 8099SOL     OW25195   4.713   6.398   4.850
 8099SOL    HW125196   4.794   6.370   4.902
 8099SOL    HW225197   4.653   6.319   4.838
 8100SOL     OW25198   0.366   6.752   1.121
 8100SOL    HW125199   0.443   6.778   1.063
 8100SOL    HW225200   0.290   6.814   1.104
 8101SOL     OW25201   1.528   6.184   3.397
 8101SOL    HW125202   1.497   6.237   3.318
 8101SOL    HW225203   1.597   6.117   3.368
 8102SOL     OW25204   6.956   6.190   5.992
 8102SOL    HW125205   0.033   6.216   6.005
 8102SOL    HW225206   6.947   6.091   5.999
 8103SOL     OW25207   3.391   1.266   2.415
 8103SOL    HW125208   3.461   1.200   2.388
 8103SOL    HW225209   3.428   1.326   2.486
 8104SOL     OW25210   2.583   6.546   6.261
 8104SOL    HW125211   2.544   6.526   6.351
 8104SOL    HW225212   2.679   6.572   6.271
 8105SOL     OW25213   2.717   1.846   3.760
 8105SOL    HW125214   2.760   1.931   3.791
 8105SOL    HW225215   2.750   1.822   3.669
 8106SOL     OW25216   1.370   4.194   4.310
 8106SOL    HW125217   1.324   4.277   4.343
 8106SOL    HW225218   1.454   4.219   4.263
 8107SOL     OW25219   1.847   6.457   6.271
 8107SOL    HW125220   1.782   6.391   6.234
 8107SOL    HW225221   1.889   6.509   6.197
 8108SOL     OW25222   0.892   3.399   4.270
 8108SOL    HW125223   0.928   3.444   4.351
 8108SOL    HW225224   0.793   3.387   4.280
 8109SOL     OW25225   1.763   5.300   4.992
 8109SOL    HW125226   1.708   5.234   4.940
 8109SOL    HW225227   1.811   5.361   4.928
 8110SOL     OW25228   2.151   5.303   0.388
 8110SOL    HW125229   2.246   5.318   0.415
 8110SOL    HW225230   2.096   5.285   0.469
 8111SOL     OW25231   2.688   5.413   4.276
 8111SOL    HW125232   2.700   5.323   4.235
 8111SOL    HW225233   2.774   5.445   4.315
 8112SOL     OW25234   3.197   0.780   4.450
 8112SOL    HW125235   3.127   0.786   4.379
 8112SOL    HW225236   3.264   0.854   4.438
 8113SOL     OW25237   3.628   2.133   6.196
 8113SOL    HW125238   3.582   2.166   6.278
 8113SOL    HW225239   3.720   2.171   6.192
 8114SOL     OW25240   2.475   3.023   1.643
 8114SOL    HW125241   2.476   3.114   1.686
 8114SOL    HW225242   2.451   2.954   1.711
 8115SOL     OW25243   3.698   1.300   1.195
 8115SOL    HW125244   3.788   1.279   1.231
 8115SOL    HW225245   3.661   1.220   1.147
 8116SOL     OW25246   5.667   0.533   5.168
 8116SOL    HW125247   5.735   0.511   5.098
 8116SOL    HW225248   5.711   0.586   5.241
 8117SOL     OW25249   1.814   1.919   5.545
 8117SOL    HW125250   1.881   1.915   5.470
 8117SOL    HW225251   1.730   1.872   5.518
 8118SOL     OW25252   0.814   3.628   4.759
 8118SOL    HW125253   0.714   3.624   4.754
 8118SOL    HW225254   0.844   3.602   4.851
 8119SOL     OW25255   0.862   6.413   2.454
 8119SOL    HW125256   0.907   6.325   2.462
 8119SOL    HW225257   0.830   6.427   2.360
 8120SOL     OW25258   4.265   3.928   1.728
 8120SOL    HW125259   4.254   3.927   1.629
 8120SOL    HW225260   4.315   4.011   1.755
 8121SOL     OW25261   6.014   0.514   2.778
 8121SOL    HW125262   5.940   0.447   2.789
 8121SOL    HW225263   6.031   0.529   2.681
 8122SOL     OW25264   6.890   6.248   2.111
 8122SOL    HW125265   6.840   6.180   2.059
 8122SOL    HW225266   6.892   6.221   2.208
 8123SOL     OW25267   1.200   6.449   6.909
 8123SOL    HW125268   1.299   6.440   6.901
 8123SOL    HW225269   1.166   6.506   6.834
 8124SOL     OW25270   0.967   5.747   2.446
 8124SOL    HW125271   0.954   5.751   2.545
 8124SOL    HW225272   1.003   5.657   2.420
 8125SOL     OW25273   5.628   5.308   3.205
 8125SOL    HW125274   5.559   5.369   3.243
 8125SOL    HW225275   5.719   5.349   3.217
 8126SOL     OW25276   5.591   4.715   2.342
 8126SOL    HW125277   5.521   4.662   2.294
 8126SOL    HW225278   5.583   4.699   2.440
 8127SOL     OW25279   2.296   4.707   6.854
 8127SOL    HW125280   2.298   4.632   6.788
 8127SOL    HW225281   2.384   4.755   6.853
 8128SOL     OW25282   4.020   2.226   5.263
 8128SOL    HW125283   4.050   2.188   5.176
 8128SOL    HW225284   4.057   2.319   5.273
 8129SOL     OW25285   5.054   0.182   6.561
 8129SOL    HW125286   5.153   0.171   6.553
 8129SOL    HW225287   5.022   0.133   6.643
 8130SOL     OW25288   2.231   6.426   0.013
 8130SOL    HW125289   2.271   6.374   0.088
 8130SOL    HW225290   2.283   6.511   7.018
 8131SOL     OW25291   2.025   1.403   0.525
 8131SOL    HW125292   1.925   1.402   0.529
 8131SOL    HW225293   2.055   1.477   0.465
 8132SOL     OW25294   6.263   5.017   4.048
 8132SOL    HW125295   6.350   4.975   4.022
 8132SOL    HW225296   6.280   5.094   4.109
 8133SOL     OW25297   1.346   5.336   1.922
 8133SOL    HW125298   1.343   5.407   1.852
 8133SOL    HW225299   1.426   5.279   1.909
 8134SOL     OW25300   2.200   2.488   2.990
 8134SOL    HW125301   2.276   2.553   2.987
 8134SOL    HW225302   2.113   2.539   2.992
 8135SOL     OW25303   4.235   5.869   2.070
 8135SOL    HW125304   4.230   5.956   2.119
 8135SOL    HW225305   4.285   5.803   2.126
 8136SOL     OW25306   4.601   5.663   1.153
 8136SOL    HW125307   4.525   5.660   1.089
 8136SOL    HW225308   4.596   5.746   1.208
 8137SOL     OW25309   2.152   3.978   5.269
 8137SOL    HW125310   2.251   3.992   5.274
 8137SOL    HW225311   2.132   3.907   5.201
 8138SOL     OW25312   4.954   0.955   3.665
 8138SOL    HW125313   4.936   0.907   3.579
 8138SOL    HW225314   4.869   0.966   3.715
 8139SOL     OW25315   1.719   2.491   3.964
 8139SOL    HW125316   1.776   2.504   3.883
 8139SOL    HW225317   1.730   2.398   3.999
 8140SOL     OW25318   4.234   0.613   0.893
 8140SOL    HW125319   4.310   0.661   0.936
 8140SOL    HW225320   4.194   0.672   0.822
 8141SOL     OW25321   4.830   1.264   4.819
 8141SOL    HW125322   4.822   1.345   4.760
 8141SOL    HW225323   4.909   1.210   4.790
 8142SOL     OW25324   1.961   6.137   0.778
 8142SOL    HW125325   2.045   6.149   0.829
 8142SOL    HW225326   1.981   6.101   0.687
 8143SOL     OW25327   6.553   4.738   0.278
 8143SOL    HW125328   6.534   4.688   0.194
 8143SOL    HW225329   6.513   4.830   0.272
 8144SOL     OW25330   0.112   4.697   6.129
 8144SOL    HW125331   0.064   4.610   6.127
 8144SOL    HW225332   0.049   4.771   6.107
 8145SOL     OW25333   5.224   5.761   6.868
 8145SOL    HW125334   5.152   5.828   6.849
 8145SOL    HW225335   5.184   5.676   6.900
 8146SOL     OW25336   5.916   0.476   4.617
 8146SOL    HW125337   5.921   0.430   4.528
 8146SOL    HW225338   5.995   0.449   4.672
 8147SOL     OW25339   1.572   0.984   6.083
 8147SOL    HW125340   1.668   0.958   6.078
 8147SOL    HW225341   1.532   0.984   5.992
 8148SOL     OW25342   4.489   4.521   0.372
 8148SOL    HW125343   4.428   4.451   0.409
 8148SOL    HW225344   4.446   4.564   0.293
 8149SOL     OW25345   1.198   5.957   5.142
 8149SOL    HW125346   1.245   6.042   5.119
 8149SOL    HW225347   1.262   5.893   5.184
 8150SOL     OW25348   0.572   3.270   1.318
 8150SOL    HW125349   0.521   3.266   1.232
 8150SOL    HW225350   0.580   3.365   1.348
 8151SOL     OW25351   6.125   5.593   3.432
 8151SOL    HW125352   6.074   5.676   3.408
 8151SOL    HW225353   6.122   5.529   3.356
 8152SOL     OW25354   4.809   1.607   3.518
 8152SOL    HW125355   4.885   1.551   3.554
 8152SOL    HW225356   4.787   1.577   3.426
 8153SOL     OW25357   0.403   1.059   3.025
 8153SOL    HW125358   0.380   1.086   3.118
 8153SOL    HW225359   0.484   1.001   3.027
 8154SOL     OW25360   1.792   0.492   3.348
 8154SOL    HW125361   1.709   0.437   3.350
 8154SOL    HW225362   1.809   0.522   3.254
 8155SOL     OW25363   1.785   5.379   2.676
 8155SOL    HW125364   1.744   5.290   2.692
 8155SOL    HW225365   1.826   5.413   2.761
 8156SOL     OW25366   6.639   5.337   1.494
 8156SOL    HW125367   6.579   5.379   1.425
 8156SOL    HW225368   6.704   5.406   1.527
 8157SOL     OW25369   0.156   3.189   5.703
 8157SOL    HW125370   0.244   3.208   5.747
 8157SOL    HW225371   0.146   3.248   5.623
 8158SOL     OW25372   5.772   5.054   6.344
 8158SOL    HW125373   5.735   5.137   6.301
 8158SOL    HW225374   5.751   4.975   6.287
 8159SOL     OW25375   3.409   6.552   5.609
 8159SOL    HW125376   3.379   6.590   5.521
 8159SOL    HW225377   3.477   6.613   5.650
 8160SOL     OW25378   4.954   1.143   3.320
 8160SOL    HW125379   4.963   1.143   3.220
 8160SOL    HW225380   4.937   1.050   3.352
 8161SOL     OW25381   5.621   2.980   1.251
 8161SOL    HW125382   5.614   3.047   1.325
 8161SOL    HW225383   5.638   3.027   1.165
 8162SOL     OW25384   0.227   5.152   6.196
 8162SOL    HW125385   0.130   5.136   6.214
 8162SOL    HW225386   0.236   5.216   6.120
 8163SOL     OW25387   4.628   4.672   5.393
 8163SOL    HW125388   4.685   4.614   5.452
 8163SOL    HW225389   4.540   4.688   5.438
 8164SOL     OW25390   4.829   1.654   0.412
 8164SOL    HW125391   4.738   1.673   0.374
 8164SOL    HW225392   4.821   1.583   0.483
 8165SOL     OW25393   0.013   1.201   6.833
 8165SOL    HW125394   6.964   1.247   6.775
 8165SOL    HW225395   0.043   1.116   6.789
 8166SOL     OW25396   1.884   1.977   4.865
 8166SOL    HW125397   1.902   1.884   4.897
 8166SOL    HW225398   1.851   2.032   4.941
 8167SOL     OW25399   0.655   2.952   4.478
 8167SOL    HW125400   0.580   3.017   4.469
 8167SOL    HW225401   0.742   2.996   4.457
 8168SOL     OW25402   2.785   0.843   2.005
 8168SOL    HW125403   2.808   0.749   2.030
 8168SOL    HW225404   2.705   0.873   2.057
 8169SOL     OW25405   5.303   2.479   0.637
 8169SOL    HW125406   5.394   2.443   0.658
 8169SOL    HW225407   5.266   2.525   0.718
 8170SOL     OW25408   6.052   5.285   2.566
 8170SOL    HW125409   6.119   5.229   2.616
 8170SOL    HW225410   6.100   5.343   2.500
 8171SOL     OW25411   1.808   0.942   0.811
 8171SOL    HW125412   1.747   0.867   0.837
 8171SOL    HW225413   1.776   1.028   0.851
 8172SOL     OW25414   0.438   3.011   1.305
 8172SOL    HW125415   0.504   3.084   1.320
 8172SOL    HW225416   0.486   2.923   1.299
 8173SOL     OW25417   5.895   1.364   2.165
 8173SOL    HW125418   5.823   1.347   2.231
 8173SOL    HW225419   5.968   1.418   2.207
 8174SOL     OW25420   2.369   5.154   2.749
 8174SOL    HW125421   2.445   5.167   2.685
 8174SOL    HW225422   2.339   5.243   2.783
 8175SOL     OW25423   0.680   1.681   4.565
 8175SOL    HW125424   0.664   1.641   4.656
 8175SOL    HW225425   0.761   1.639   4.524
 8176SOL     OW25426   2.404   3.991   0.652
 8176SOL    HW125427   2.380   4.068   0.711
 8176SOL    HW225428   2.474   3.935   0.697
 8177SOL     OW25429   3.792   1.062   2.970
 8177SOL    HW125430   3.731   0.987   2.993
 8177SOL    HW225431   3.744   1.149   2.982
 8178SOL     OW25432   2.143   6.567   1.015
 8178SOL    HW125433   2.180   6.476   0.996
 8178SOL    HW225434   2.141   6.583   1.113
 8179SOL     OW25435   5.722   1.106   3.571
 8179SOL    HW125436   5.747   1.021   3.617
 8179SOL    HW225437   5.626   1.103   3.543
 8180SOL     OW25438   5.055   6.217   6.945
 8180SOL    HW125439   5.128   6.199   7.011
 8180SOL    HW225440   4.987   6.279   6.986
 8181SOL     OW25441   0.503   0.855   0.782
 8181SOL    HW125442   0.481   0.907   0.865
 8181SOL    HW225443   0.530   0.919   0.710
 8182SOL     OW25444   3.069   3.428   5.006
 8182SOL    HW125445   2.995   3.495   5.002
 8182SOL    HW225446   3.143   3.464   5.063
 8183SOL     OW25447   0.368   0.219   4.833
 8183SOL    HW125448   0.327   0.216   4.924
 8183SOL    HW225449   0.466   0.237   4.842
 8184SOL     OW25450   0.035   6.105   6.497
 8184SOL    HW125451   0.063   6.022   6.545
 8184SOL    HW225452   6.958   6.126   6.521
 8185SOL     OW25453   0.884   6.552   6.864
 8185SOL    HW125454   0.899   6.557   6.963
 8185SOL    HW225455   0.881   6.456   6.835
 8186SOL     OW25456   1.065   5.580   6.687
 8186SOL    HW125457   1.044   5.569   6.590
 8186SOL    HW225458   1.000   5.644   6.728
 8187SOL     OW25459   0.356   0.841   5.923
 8187SOL    HW125460   0.345   0.934   5.959
 8187SOL    HW225461   0.371   0.846   5.824
 8188SOL     OW25462   2.640   2.371   3.558
 8188SOL    HW125463   2.737   2.356   3.580
 8188SOL    HW225464   2.596   2.419   3.634
 8189SOL     OW25465   5.558   4.701   3.669
 8189SOL    HW125466   5.639   4.669   3.718
 8189SOL    HW225467   5.552   4.656   3.580
 8190SOL     OW25468   6.238   3.576   3.318
 8190SOL    HW125469   6.298   3.652   3.294
 8190SOL    HW225470   6.255   3.500   3.256
 8191SOL     OW25471   3.393   5.364   1.038
 8191SOL    HW125472   3.439   5.281   1.068
 8191SOL    HW225473   3.383   5.426   1.116
 8192SOL     OW25474   1.225   4.957   3.739
 8192SOL    HW125475   1.132   4.923   3.755
 8192SOL    HW225476   1.230   5.053   3.765
 8193SOL     OW25477   0.825   4.173   4.940
 8193SOL    HW125478   0.787   4.182   5.032
 8193SOL    HW225479   0.862   4.081   4.927
 8194SOL     OW25480   4.881   6.499   1.573
 8194SOL    HW125481   4.919   6.475   1.483
 8194SOL    HW225482   4.931   6.451   1.644
 8195SOL     OW25483   5.404   6.370   3.160
 8195SOL    HW125484   5.354   6.358   3.074
 8195SOL    HW225485   5.365   6.446   3.211
 8196SOL     OW25486   4.977   0.342   0.237
 8196SOL    HW125487   5.008   0.322   0.330
 8196SOL    HW225488   4.936   0.433   0.235
 8197SOL     OW25489   4.791   1.710   2.551
 8197SOL    HW125490   4.745   1.672   2.470
 8197SOL    HW225491   4.889   1.688   2.547
 8198SOL     OW25492   1.871   0.856   2.690
 8198SOL    HW125493   1.849   0.857   2.788
 8198SOL    HW225494   1.830   0.774   2.648
 8199SOL     OW25495   5.483   2.883   5.586
 8199SOL    HW125496   5.485   2.799   5.640
 8199SOL    HW225497   5.410   2.877   5.518
 8200SOL     OW25498   4.571   2.648   1.317
 8200SOL    HW125499   4.556   2.661   1.415
 8200SOL    HW225500   4.500   2.587   1.281
 8201SOL     OW25501   6.784   6.862   5.245
 8201SOL    HW125502   6.768   6.779   5.191
 8201SOL    HW225503   6.722   6.863   5.323
 8202SOL     OW25504   0.987   6.473   1.802
 8202SOL    HW125505   1.008   6.553   1.746
 8202SOL    HW225506   0.979   6.500   1.898
 8203SOL     OW25507   1.030   3.669   1.203
 8203SOL    HW125508   0.970   3.660   1.282
 8203SOL    HW225509   1.000   3.746   1.146
 8204SOL     OW25510   3.788   2.997   1.406
 8204SOL    HW125511   3.884   2.977   1.427
 8204SOL    HW225512   3.731   2.921   1.438
 8205SOL     OW25513   1.380   3.676   1.021
 8205SOL    HW125514   1.386   3.607   0.948
 8205SOL    HW225515   1.446   3.749   1.004
 8206SOL     OW25516   3.762   0.687   0.092
 8206SOL    HW125517   3.856   0.695   0.057
 8206SOL    HW225518   3.702   0.654   0.020
 8207SOL     OW25519   3.859   3.013   4.629
 8207SOL    HW125520   3.862   3.068   4.712
 8207SOL    HW225521   3.771   3.027   4.583
 8208SOL     OW25522   2.012   0.930   0.594
 8208SOL    HW125523   1.938   0.939   0.661
 8208SOL    HW225524   2.021   1.016   0.543
 8209SOL     OW25525   6.495   0.981   5.424
 8209SOL    HW125526   6.398   0.963   5.414
 8209SOL    HW225527   6.534   0.922   5.495
 8210SOL     OW25528   1.416   2.819   0.038
 8210SOL    HW125529   1.379   2.731   0.069
 8210SOL    HW225530   1.486   2.850   0.102
 8211SOL     OW25531   2.939   4.593   0.843
 8211SOL    HW125532   2.945   4.556   0.750
 8211SOL    HW225533   2.843   4.594   0.872
 8212SOL     OW25534   1.515   2.560   3.318
 8212SOL    HW125535   1.490   2.498   3.393
 8212SOL    HW225536   1.597   2.611   3.344
 8213SOL     OW25537   0.078   5.478   1.449
 8213SOL    HW125538   0.064   5.381   1.426
 8213SOL    HW225539   0.102   5.487   1.545
 8214SOL     OW25540   5.025   4.427   3.286
 8214SOL    HW125541   5.051   4.476   3.203
 8214SOL    HW225542   4.926   4.418   3.291
 8215SOL     OW25543   3.187   5.189   4.750
 8215SOL    HW125544   3.203   5.101   4.705
 8215SOL    HW225545   3.122   5.243   4.697
 8216SOL     OW25546   4.407   4.606   3.513
 8216SOL    HW125547   4.375   4.647   3.598
 8216SOL    HW225548   4.387   4.508   3.514
 8217SOL     OW25549   2.530   6.502   0.393
 8217SOL    HW125550   2.516   6.423   0.452
 8217SOL    HW225551   2.605   6.558   0.430
 8218SOL     OW25552   0.527   1.366   0.006
 8218SOL    HW125553   0.474   1.318   6.954
 8218SOL    HW225554   0.541   1.460   6.996
 8219SOL     OW25555   5.896   2.011   6.393
 8219SOL    HW125556   5.966   1.970   6.334
 8219SOL    HW225557   5.904   1.972   6.486
 8220SOL     OW25558   3.499   3.481   3.181
 8220SOL    HW125559   3.402   3.489   3.159
 8220SOL    HW225560   3.549   3.448   3.101
 8221SOL     OW25561   5.324   5.868   3.642
 8221SOL    HW125562   5.388   5.933   3.601
 8221SOL    HW225563   5.298   5.901   3.733
 8222SOL     OW25564   5.664   1.524   2.086
 8222SOL    HW125565   5.756   1.487   2.098
 8222SOL    HW225566   5.670   1.623   2.075
 8223SOL     OW25567   0.192   4.617   5.862
 8223SOL    HW125568   0.112   4.559   5.877
 8223SOL    HW225569   0.230   4.646   5.949
 8224SOL     OW25570   1.177   3.165   3.652
 8224SOL    HW125571   1.172   3.239   3.585
 8224SOL    HW225572   1.259   3.176   3.707
 8225SOL     OW25573   4.616   1.172   6.669
 8225SOL    HW125574   4.652   1.265   6.678
 8225SOL    HW225575   4.591   1.138   6.760
 8226SOL     OW25576   5.184   0.900   0.829
 8226SOL    HW125577   5.124   0.943   0.761
 8226SOL    HW225578   5.183   0.801   0.818
 8227SOL     OW25579   6.354   2.905   3.506
 8227SOL    HW125580   6.428   2.874   3.446
 8227SOL    HW225581   6.289   2.960   3.453
 8228SOL     OW25582   6.407   3.123   4.898
 8228SOL    HW125583   6.368   3.032   4.889
 8228SOL    HW225584   6.486   3.120   4.959
 8229SOL     OW25585   3.698   5.291   0.075
 8229SOL    HW125586   3.664   5.210   0.027
 8229SOL    HW225587   3.716   5.364   0.009
 8230SOL     OW25588   5.436   0.335   4.541
 8230SOL    HW125589   5.347   0.333   4.587
 8230SOL    HW225590   5.465   0.241   4.521
 8231SOL     OW25591   5.368   5.501   0.670
 8231SOL    HW125592   5.333   5.554   0.748
 8231SOL    HW225593   5.389   5.408   0.699
 8232SOL     OW25594   3.790   1.963   0.005
 8232SOL    HW125595   3.855   1.896   0.040
 8232SOL    HW225596   3.787   1.957   6.923
 8233SOL     OW25597   0.567   5.315   6.183
 8233SOL    HW125598   0.503   5.276   6.118
 8233SOL    HW225599   0.528   5.310   6.276
 8234SOL     OW25600   3.015   2.530   6.904
 8234SOL    HW125601   3.071   2.547   6.985
 8234SOL    HW225602   3.074   2.525   6.823
 8235SOL     OW25603   4.131   3.560   1.211
 8235SOL    HW125604   4.142   3.579   1.309
 8235SOL    HW225605   4.039   3.525   1.194
 8236SOL     OW25606   6.272   2.894   0.208
 8236SOL    HW125607   6.353   2.841   0.181
 8236SOL    HW225608   6.200   2.883   0.140
 8237SOL     OW25609   3.777   5.874   5.213
 8237SOL    HW125610   3.860   5.858   5.159
 8237SOL    HW225611   3.791   5.838   5.305
 8238SOL     OW25612   1.986   3.311   6.393
 8238SOL    HW125613   1.908   3.346   6.341
 8238SOL    HW225614   2.034   3.242   6.339
 8239SOL     OW25615   0.022   1.569   5.815
 8239SOL    HW125616   6.942   1.571   5.829
 8239SOL    HW225617   0.042   1.578   5.718
 8240SOL     OW25618   3.599   4.111   3.004
 8240SOL    HW125619   3.618   4.017   3.034
 8240SOL    HW225620   3.593   4.112   2.904
 8241SOL     OW25621   3.345   6.873   0.282
 8241SOL    HW125622   3.318   6.960   0.239
 8241SOL    HW225623   3.441   6.880   0.312
 8242SOL     OW25624   0.842   4.661   5.487
 8242SOL    HW125625   0.874   4.568   5.499
 8242SOL    HW225626   0.753   4.672   5.532
 8243SOL     OW25627   0.453   3.124   5.423
 8243SOL    HW125628   0.400   3.095   5.344
 8243SOL    HW225629   0.475   3.045   5.480
 8244SOL     OW25630   0.948   6.446   3.987
 8244SOL    HW125631   0.865   6.419   3.939
 8244SOL    HW225632   1.012   6.369   3.988
 8245SOL     OW25633   4.332   1.785   1.159
 8245SOL    HW125634   4.389   1.825   1.232
 8245SOL    HW225635   4.375   1.803   1.071
 8246SOL     OW25636   5.846   3.368   6.152
 8246SOL    HW125637   5.826   3.457   6.192
 8246SOL    HW225638   5.858   3.378   6.053
 8247SOL     OW25639   0.886   0.144   1.711
 8247SOL    HW125640   0.966   0.098   1.749
 8247SOL    HW225641   0.905   0.173   1.617
 8248SOL     OW25642   5.482   4.262   4.010
 8248SOL    HW125643   5.550   4.249   3.939
 8248SOL    HW225644   5.467   4.175   4.059
 8249SOL     OW25645   1.980   4.487   3.895
 8249SOL    HW125646   1.995   4.388   3.891
 8249SOL    HW225647   1.987   4.517   3.990
 8250SOL     OW25648   4.015   3.797   2.884
 8250SOL    HW125649   4.051   3.706   2.902
 8250SOL    HW225650   3.966   3.831   2.964
 8251SOL     OW25651   5.519   1.540   5.057
 8251SOL    HW125652   5.470   1.478   4.995
 8251SOL    HW225653   5.610   1.559   5.021
 8252SOL     OW25654   2.000   2.745   6.059
 8252SOL    HW125655   2.031   2.802   5.983
 8252SOL    HW225656   2.072   2.740   6.129
 8253SOL     OW25657   3.517   2.760   5.208
 8253SOL    HW125658   3.472   2.672   5.191
 8253SOL    HW225659   3.511   2.782   5.305
 8254SOL     OW25660   4.180   4.832   3.601
 8254SOL    HW125661   4.259   4.893   3.590
 8254SOL    HW225662   4.206   4.757   3.662
 8255SOL     OW25663   4.290   5.531   3.920
 8255SOL    HW125664   4.388   5.520   3.933
 8255SOL    HW225665   4.261   5.618   3.960
 8256SOL     OW25666   5.862   1.439   4.179
 8256SOL    HW125667   5.810   1.413   4.260
 8256SOL    HW225668   5.955   1.402   4.187
 8257SOL     OW25669   5.609   4.889   3.023
 8257SOL    HW125670   5.633   4.953   3.096
 8257SOL    HW225671   5.589   4.799   3.063
 8258SOL     OW25672   3.861   1.420   0.242
 8258SOL    HW125673   3.794   1.477   0.194
 8258SOL    HW225674   3.936   1.399   0.180
 8259SOL     OW25675   3.685   2.017   3.460
 8259SOL    HW125676   3.586   2.029   3.471
 8259SOL    HW225677   3.705   1.921   3.438
 8260SOL     OW25678   3.093   6.991   0.874
 8260SOL    HW125679   2.996   6.972   0.891
 8260SOL    HW225680   3.140   7.007   0.961
 8261SOL     OW25681   5.463   1.276   1.325
 8261SOL    HW125682   5.491   1.183   1.300
 8261SOL    HW225683   5.523   1.342   1.280
 8262SOL     OW25684   0.958   2.609   1.770
 8262SOL    HW125685   1.022   2.683   1.748
 8262SOL    HW225686   1.009   2.532   1.809
 8263SOL     OW25687   6.408   1.485   1.121
 8263SOL    HW125688   6.375   1.448   1.033
 8263SOL    HW225689   6.420   1.410   1.186
 8264SOL     OW25690   1.557   5.806   2.681
 8264SOL    HW125691   1.558   5.805   2.781
 8264SOL    HW225692   1.528   5.716   2.648
 8265SOL     OW25693   1.813   0.705   2.054
 8265SOL    HW125694   1.891   0.643   2.049
 8265SOL    HW225695   1.803   0.753   1.967
 8266SOL     OW25696   2.823   6.636   2.461
 8266SOL    HW125697   2.895   6.599   2.403
 8266SOL    HW225698   2.737   6.641   2.410
 8267SOL     OW25699   1.388   3.487   1.473
 8267SOL    HW125700   1.343   3.428   1.406
 8267SOL    HW225701   1.364   3.583   1.454
 8268SOL     OW25702   2.129   6.779   5.808
 8268SOL    HW125703   2.141   6.681   5.827
 8268SOL    HW225704   2.061   6.817   5.870
 8269SOL     OW25705   5.518   1.481   0.998
 8269SOL    HW125706   5.593   1.446   1.054
 8269SOL    HW225707   5.501   1.577   1.020
 8270SOL     OW25708   3.472   6.609   3.926
 8270SOL    HW125709   3.539   6.683   3.920
 8270SOL    HW225710   3.401   6.622   3.857
 8271SOL     OW25711   6.986   1.709   3.009
 8271SOL    HW125712   6.888   1.696   2.993
 8271SOL    HW225713   0.015   1.623   2.989
 8272SOL     OW25714   4.208   0.650   2.652
 8272SOL    HW125715   4.259   0.665   2.567
 8272SOL    HW225716   4.115   0.621   2.631
 8273SOL     OW25717   2.524   0.099   1.045
 8273SOL    HW125718   2.471   0.162   1.102
 8273SOL    HW225719   2.611   0.078   1.091
 8274SOL     OW25720   4.837   5.352   2.965
 8274SOL    HW125721   4.857   5.256   2.949
 8274SOL    HW225722   4.899   5.409   2.911
 8275SOL     OW25723   4.714   2.027   6.206
 8275SOL    HW125724   4.812   2.015   6.226
 8275SOL    HW225725   4.702   2.106   6.146
 8276SOL     OW25726   1.439   2.237   4.402
 8276SOL    HW125727   1.350   2.272   4.432
 8276SOL    HW225728   1.436   2.218   4.304
 8277SOL     OW25729   6.991   0.003   6.585
 8277SOL    HW125730   6.927   0.080   6.587
 8277SOL    HW225731   0.059   0.030   6.626
 8278SOL     OW25732   2.431   1.717   0.286
 8278SOL    HW125733   2.370   1.768   0.226
 8278SOL    HW225734   2.446   1.626   0.249
 8279SOL     OW25735   0.643   6.369   4.162
 8279SOL    HW125736   0.626   6.457   4.117
 8279SOL    HW225737   0.676   6.303   4.094
 8280SOL     OW25738   3.225   2.346   6.261
 8280SOL    HW125739   3.303   2.336   6.199
 8280SOL    HW225740   3.256   2.338   6.356
 8281SOL     OW25741   0.536   5.933   1.411
 8281SOL    HW125742   0.460   5.873   1.387
 8281SOL    HW225743   0.527   5.962   1.506
 8282SOL     OW25744   5.065   2.909   5.886
 8282SOL    HW125745   5.012   2.863   5.814
 8282SOL    HW225746   5.014   2.907   5.972
 8283SOL     OW25747   1.301   4.215   6.409
 8283SOL    HW125748   1.364   4.166   6.349
 8283SOL    HW225749   1.274   4.301   6.365
 8284SOL     OW25750   6.870   4.647   1.723
 8284SOL    HW125751   6.783   4.614   1.759
 8284SOL    HW225752   6.892   4.735   1.767
 8285SOL     OW25753   4.052   3.334   5.014
 8285SOL    HW125754   4.039   3.402   5.086
 8285SOL    HW225755   4.050   3.242   5.054
 8286SOL     OW25756   6.441   2.249   6.074
 8286SOL    HW125757   6.500   2.250   5.993
 8286SOL    HW225758   6.428   2.343   6.106
 8287SOL     OW25759   0.968   5.691   4.415
 8287SOL    HW125760   0.872   5.701   4.392
 8287SOL    HW225761   0.996   5.765   4.476
 8288SOL     OW25762   2.013   2.914   2.597
 8288SOL    HW125763   1.938   2.955   2.544
 8288SOL    HW225764   1.981   2.892   2.689
 8289SOL     OW25765   1.074   0.431   0.708
 8289SOL    HW125766   1.054   0.518   0.755
 8289SOL    HW225767   1.147   0.383   0.757
 8290SOL     OW25768   6.258   1.912   0.637
 8290SOL    HW125769   6.218   1.960   0.715
 8290SOL    HW225770   6.191   1.849   0.598
 8291SOL     OW25771   3.886   6.849   6.295
 8291SOL    HW125772   3.945   6.908   6.351
 8291SOL    HW225773   3.921   6.846   6.201
 8292SOL     OW25774   3.185   6.375   0.070
 8292SOL    HW125775   3.198   6.310   0.144
 8292SOL    HW225776   3.268   6.430   0.059
 8293SOL     OW25777   4.394   6.693   5.865
 8293SOL    HW125778   4.322   6.680   5.798
 8293SOL    HW225779   4.428   6.604   5.895
 8294SOL     OW25780   5.968   2.908   6.267
 8294SOL    HW125781   5.957   2.918   6.366
 8294SOL    HW225782   5.981   2.811   6.245
 8295SOL     OW25783   5.543   4.318   1.665
 8295SOL    HW125784   5.627   4.350   1.623
 8295SOL    HW225785   5.544   4.218   1.668
 8296SOL     OW25786   1.434   5.740   6.984
 8296SOL    HW125787   1.348   5.787   7.004
 8296SOL    HW225788   1.508   5.781   0.018
 8297SOL     OW25789   6.020   2.390   3.485
 8297SOL    HW125790   6.113   2.419   3.509
 8297SOL    HW225791   6.023   2.333   3.403
 8298SOL     OW25792   4.855   1.217   1.760
 8298SOL    HW125793   4.757   1.205   1.741
 8298SOL    HW225794   4.891   1.135   1.804
 8299SOL     OW25795   6.461   3.233   2.034
 8299SOL    HW125796   6.479   3.306   1.968
 8299SOL    HW225797   6.443   3.274   2.124
 8300SOL     OW25798   0.985   4.449   5.232
 8300SOL    HW125799   0.921   4.517   5.194
 8300SOL    HW225800   0.944   4.358   5.225
 8301SOL     OW25801   4.508   2.666   1.578
 8301SOL    HW125802   4.427   2.626   1.621
 8301SOL    HW225803   4.537   2.746   1.631
 8302SOL     OW25804   6.025   6.691   6.463
 8302SOL    HW125805   6.112   6.721   6.423
 8302SOL    HW225806   5.955   6.760   6.446
 8303SOL     OW25807   0.684   0.086   4.599
 8303SOL    HW125808   0.664   0.111   4.694
 8303SOL    HW225809   0.772   0.038   4.595
 8304SOL     OW25810   0.557   3.780   6.488
 8304SOL    HW125811   0.622   3.736   6.427
 8304SOL    HW225812   0.563   3.880   6.477
 8305SOL     OW25813   3.399   5.243   3.729
 8305SOL    HW125814   3.421   5.320   3.670
 8305SOL    HW225815   3.346   5.275   3.808
 8306SOL     OW25816   0.819   2.870   5.131
 8306SOL    HW125817   0.890   2.823   5.078
 8306SOL    HW225818   0.828   2.845   5.227
 8307SOL     OW25819   3.348   5.555   0.572
 8307SOL    HW125820   3.350   5.469   0.520
 8307SOL    HW225821   3.261   5.601   0.556
 8308SOL     OW25822   4.089   6.787   1.658
 8308SOL    HW125823   4.071   6.832   1.571
 8308SOL    HW225824   4.135   6.699   1.642
 8309SOL     OW25825   5.654   6.112   2.643
 8309SOL    HW125826   5.696   6.203   2.652
 8309SOL    HW225827   5.724   6.042   2.656
 8310SOL     OW25828   0.926   4.963   0.313
 8310SOL    HW125829   0.939   4.964   0.214
 8310SOL    HW225830   0.871   4.883   0.339
 8311SOL     OW25831   6.694   0.598   6.375
 8311SOL    HW125832   6.719   0.545   6.293
 8311SOL    HW225833   6.723   0.549   6.457
 8312SOL     OW25834   5.353   6.680   1.714
 8312SOL    HW125835   5.378   6.636   1.628
 8312SOL    HW225836   5.372   6.618   1.790
 8313SOL     OW25837   3.758   1.553   2.753
 8313SOL    HW125838   3.801   1.636   2.789
 8313SOL    HW225839   3.758   1.557   2.653
 8314SOL     OW25840   5.558   0.097   1.581
 8314SOL    HW125841   5.509   0.184   1.583
 8314SOL    HW225842   5.555   0.059   1.489
 8315SOL     OW25843   4.748   3.102   0.635
 8315SOL    HW125844   4.759   3.199   0.613
 8315SOL    HW225845   4.673   3.064   0.582
 8316SOL     OW25846   1.579   4.523   0.888
 8316SOL    HW125847   1.513   4.589   0.926
 8316SOL    HW225848   1.661   4.572   0.859
 8317SOL     OW25849   1.965   4.169   2.672
 8317SOL    HW125850   1.985   4.235   2.600
 8317SOL    HW225851   2.049   4.146   2.720
 8318SOL     OW25852   3.663   1.568   5.234
 8318SOL    HW125853   3.644   1.624   5.154
 8318SOL    HW225854   3.586   1.571   5.297
 8319SOL     OW25855   3.567   0.870   5.101
 8319SOL    HW125856   3.507   0.825   5.034
 8319SOL    HW225857   3.603   0.955   5.061
 8320SOL     OW25858   2.858   4.757   1.202
 8320SOL    HW125859   2.911   4.678   1.233
 8320SOL    HW225860   2.780   4.771   1.263
 8321SOL     OW25861   0.526   0.730   0.467
 8321SOL    HW125862   0.443   0.752   0.416
 8321SOL    HW225863   0.551   0.806   0.526
 8322SOL     OW25864   0.317   0.083   0.141
 8322SOL    HW125865   0.262   0.000   0.139
 8322SOL    HW225866   0.404   0.064   0.187
 8323SOL     OW25867   1.148   1.037   2.832
 8323SOL    HW125868   1.221   1.048   2.765
 8323SOL    HW225869   1.089   0.962   2.805
 8324SOL     OW25870   5.982   1.029   2.267
 8324SOL    HW125871   6.013   0.995   2.355
 8324SOL    HW225872   6.054   1.084   2.225
 8325SOL     OW25873   3.720   2.953   3.939
 8325SOL    HW125874   3.784   3.021   3.903
 8325SOL    HW225875   3.650   2.999   3.995
 8326SOL     OW25876   4.314   3.417   5.802
 8326SOL    HW125877   4.326   3.385   5.708
 8326SOL    HW225878   4.386   3.483   5.824
 8327SOL     OW25879   5.512   2.545   6.203
 8327SOL    HW125880   5.496   2.486   6.125
 8327SOL    HW225881   5.456   2.628   6.195
 8328SOL     OW25882   2.177   3.065   6.217
 8328SOL    HW125883   2.221   3.054   6.306
 8328SOL    HW225884   2.203   3.153   6.177
 8329SOL     OW25885   0.164   3.132   5.233
 8329SOL    HW125886   0.235   3.098   5.170
 8329SOL    HW225887   0.135   3.058   5.293
 8330SOL     OW25888   1.616   6.457   0.625
 8330SOL    HW125889   1.711   6.435   0.600
 8330SOL    HW225890   1.614   6.543   0.676
 8331SOL     OW25891   3.170   0.566   1.435
 8331SOL    HW125892   3.130   0.477   1.453
 8331SOL    HW225893   3.254   0.556   1.381
 8332SOL     OW25894   4.512   5.138   1.967
 8332SOL    HW125895   4.428   5.086   1.972
 8332SOL    HW225896   4.583   5.092   2.021
 8333SOL     OW25897   0.537   6.022   0.252
 8333SOL    HW125898   0.472   6.060   0.318
 8333SOL    HW225899   0.489   6.004   0.165
 8334SOL     OW25900   6.596   1.739   3.861
 8334SOL    HW125901   6.609   1.658   3.804
 8334SOL    HW225902   6.499   1.763   3.864
 8335SOL     OW25903   6.172   5.653   5.844
 8335SOL    HW125904   6.095   5.590   5.842
 8335SOL    HW225905   6.147   5.735   5.897
 8336SOL     OW25906   0.148   1.937   1.840
 8336SOL    HW125907   0.058   1.917   1.879
 8336SOL    HW225908   0.162   2.036   1.837
 8337SOL     OW25909   1.052   5.979   2.294
 8337SOL    HW125910   1.045   5.933   2.382
 8337SOL    HW225911   1.070   5.911   2.223
 8338SOL     OW25912   1.957   5.270   1.155
 8338SOL    HW125913   1.925   5.219   1.235
 8338SOL    HW225914   1.943   5.216   1.072
 8339SOL     OW25915   5.719   1.176   2.769
 8339SOL    HW125916   5.665   1.199   2.849
 8339SOL    HW225917   5.671   1.107   2.714
 8340SOL     OW25918   4.941   3.754   0.556
 8340SOL    HW125919   4.973   3.673   0.605
 8340SOL    HW225920   4.942   3.833   0.617
 8341SOL     OW25921   1.795   0.075   1.065
 8341SOL    HW125922   1.859   0.147   1.092
 8341SOL    HW225923   1.841   0.009   1.006
 8342SOL     OW25924   3.381   1.069   0.836
 8342SOL    HW125925   3.443   0.999   0.801
 8342SOL    HW225926   3.339   1.118   0.760
 8343SOL     OW25927   1.167   5.851   6.444
 8343SOL    HW125928   1.099   5.792   6.488
 8343SOL    HW225929   1.154   5.945   6.474
 8344SOL     OW25930   4.443   6.244   6.181
 8344SOL    HW125931   4.366   6.306   6.168
 8344SOL    HW225932   4.496   6.238   6.096
 8345SOL     OW25933   6.050   1.123   3.305
 8345SOL    HW125934   6.130   1.182   3.308
 8345SOL    HW225935   6.023   1.096   3.397
 8346SOL     OW25936   2.315   4.647   1.046
 8346SOL    HW125937   2.333   4.602   1.133
 8346SOL    HW225938   2.341   4.744   1.053
 8347SOL     OW25939   2.770   6.576   5.223
 8347SOL    HW125940   2.757   6.531   5.135
 8347SOL    HW225941   2.844   6.643   5.215
 8348SOL     OW25942   1.226   0.569   1.212
 8348SOL    HW125943   1.213   0.522   1.300
 8348SOL    HW225944   1.213   0.503   1.138
 8349SOL     OW25945   5.866   3.446   0.685
 8349SOL    HW125946   5.919   3.374   0.730
 8349SOL    HW225947   5.901   3.536   0.714
 8350SOL     OW25948   6.247   1.143   5.212
 8350SOL    HW125949   6.242   1.075   5.285
 8350SOL    HW225950   6.277   1.099   5.127
 8351SOL     OW25951   3.072   6.349   3.940
 8351SOL    HW125952   3.072   6.286   3.862
 8351SOL    HW225953   3.038   6.301   4.021
 8352SOL     OW25954   6.660   6.868   2.333
 8352SOL    HW125955   6.738   6.807   2.343
 8352SOL    HW225956   6.576   6.814   2.324
 8353SOL     OW25957   6.337   3.957   1.854
 8353SOL    HW125958   6.271   3.913   1.916
 8353SOL    HW225959   6.310   4.052   1.838
 8354SOL     OW25960   2.897   1.394   7.011
 8354SOL    HW125961   2.835   1.463   6.974
 8354SOL    HW225962   2.898   1.315   6.950
 8355SOL     OW25963   3.281   0.321   0.234
 8355SOL    HW125964   3.351   0.392   0.227
 8355SOL    HW225965   3.202   0.345   0.177
 8356SOL     OW25966   1.210   5.799   0.252
 8356SOL    HW125967   1.236   5.827   0.345
 8356SOL    HW225968   1.182   5.703   0.253
 8357SOL     OW25969   3.571   5.606   4.561
 8357SOL    HW125970   3.571   5.675   4.488
 8357SOL    HW225971   3.501   5.628   4.628
 8358SOL     OW25972   2.046   2.695   5.669
 8358SOL    HW125973   2.038   2.598   5.647
 8358SOL    HW225974   1.955   2.735   5.677
 8359SOL     OW25975   4.409   5.368   4.242
 8359SOL    HW125976   4.309   5.377   4.239
 8359SOL    HW225977   4.434   5.274   4.220
 8360SOL     OW25978   4.552   6.972   2.968
 8360SOL    HW125979   4.471   6.919   2.990
 8360SOL    HW225980   4.525   0.044   2.935
 8361SOL     OW25981   1.747   1.673   2.471
 8361SOL    HW125982   1.840   1.636   2.478
 8361SOL    HW225983   1.696   1.651   2.554
 8362SOL     OW25984   2.162   2.470   0.262
 8362SOL    HW125985   2.092   2.421   0.313
 8362SOL    HW225986   2.249   2.466   0.312
 8363SOL     OW25987   0.673   2.719   0.942
 8363SOL    HW125988   0.741   2.647   0.953
 8363SOL    HW225989   0.651   2.730   0.845
 8364SOL     OW25990   5.987   3.609   3.035
 8364SOL    HW125991   6.029   3.524   3.005
 8364SOL    HW225992   6.057   3.679   3.046
 8365SOL     OW25993   1.382   3.302   0.299
 8365SOL    HW125994   1.475   3.311   0.335
 8365SOL    HW225995   1.382   3.241   0.220
 8366SOL     OW25996   4.891   6.352   2.659
 8366SOL    HW125997   4.837   6.416   2.713
 8366SOL    HW225998   4.855   6.347   2.566
 8367SOL     OW25999   4.652   6.182   3.573
 8367SOL    HW126000   4.701   6.138   3.498
 8367SOL    HW226001   4.598   6.259   3.537
 8368SOL     OW26002   2.427   5.347   5.897
 8368SOL    HW126003   2.385   5.432   5.868
 8368SOL    HW226004   2.362   5.272   5.886
 8369SOL     OW26005   2.017   1.178   0.154
 8369SOL    HW126006   2.026   1.262   0.101
 8369SOL    HW226007   1.964   1.111   0.102
 8370SOL     OW26008   1.444   2.007   6.448
 8370SOL    HW126009   1.419   2.013   6.351
 8370SOL    HW226010   1.403   1.926   6.489
 8371SOL     OW26011   1.372   2.845   0.509
 8371SOL    HW126012   1.292   2.852   0.449
 8371SOL    HW226013   1.353   2.781   0.583
 8372SOL     OW26014   0.073   0.378   2.332
 8372SOL    HW126015   0.000   0.438   2.298
 8372SOL    HW226016   0.126   0.427   2.401
 8373SOL     OW26017   1.429   6.141   5.736
 8373SOL    HW126018   1.524   6.117   5.754
 8373SOL    HW226019   1.391   6.079   5.668
 8374SOL     OW26020   6.702   0.752   0.133
 8374SOL    HW126021   6.733   0.678   0.073
 8374SOL    HW226022   6.779   0.811   0.156
 8375SOL     OW26023   3.159   6.461   6.258
 8375SOL    HW126024   3.073   6.456   6.308
 8375SOL    HW226025   3.224   6.395   6.296
 8376SOL     OW26026   2.933   0.330   3.795
 8376SOL    HW126027   2.962   0.359   3.703
 8376SOL    HW226028   3.012   0.292   3.844
 8377SOL     OW26029   6.581   5.460   1.229
 8377SOL    HW126030   6.486   5.483   1.249
 8377SOL    HW226031   6.613   5.515   1.152
 8378SOL     OW26032   5.496   3.328   3.148
 8378SOL    HW126033   5.509   3.231   3.125
 8378SOL    HW226034   5.465   3.378   3.068
 8379SOL     OW26035   6.432   3.736   1.747
 8379SOL    HW126036   6.369   3.716   1.673
 8379SOL    HW226037   6.419   3.831   1.778
 8380SOL     OW26038   5.606   1.555   2.461
 8380SOL    HW126039   5.654   1.627   2.412
 8380SOL    HW226040   5.625   1.563   2.559
 8381SOL     OW26041   1.294   5.258   4.450
 8381SOL    HW126042   1.233   5.272   4.372
 8381SOL    HW226043   1.279   5.166   4.487
 8382SOL     OW26044   1.044   2.334   2.657
 8382SOL    HW126045   1.107   2.261   2.631
 8382SOL    HW226046   1.096   2.415   2.685
 8383SOL     OW26047   2.682   2.115   6.727
 8383SOL    HW126048   2.719   2.190   6.781
 8383SOL    HW226049   2.660   2.147   6.635
 8384SOL     OW26050   6.998   6.413   1.786
 8384SOL    HW126051   7.016   6.428   1.884
 8384SOL    HW226052   0.052   6.356   1.747
 8385SOL     OW26053   4.805   2.382   2.481
 8385SOL    HW126054   4.810   2.336   2.570
 8385SOL    HW226055   4.722   2.355   2.434
 8386SOL     OW26056   0.500   4.200   2.885
 8386SOL    HW126057   0.461   4.262   2.954
 8386SOL    HW226058   0.436   4.126   2.867
 8387SOL     OW26059   1.052   1.853   1.694
 8387SOL    HW126060   1.123   1.786   1.672
 8387SOL    HW226061   0.981   1.810   1.749
 8388SOL     OW26062   2.889   6.523   1.651
 8388SOL    HW126063   2.960   6.461   1.618
 8388SOL    HW226064   2.889   6.523   1.751
 8389SOL     OW26065   5.200   3.063   1.981
 8389SOL    HW126066   5.200   3.042   2.079
 8389SOL    HW226067   5.230   3.158   1.967
 8390SOL     OW26068   4.552   1.811   5.730
 8390SOL    HW126069   4.475   1.749   5.717
 8390SOL    HW226070   4.531   1.899   5.688
 8391SOL     OW26071   6.357   0.580   0.835
 8391SOL    HW126072   6.377   0.544   0.744
 8391SOL    HW226073   6.369   0.507   0.903
 8392SOL     OW26074   5.572   3.393   4.103
 8392SOL    HW126075   5.490   3.393   4.159
 8392SOL    HW226076   5.651   3.369   4.160
 8393SOL     OW26077   4.881   0.117   1.967
 8393SOL    HW126078   4.854   0.213   1.968
 8393SOL    HW226079   4.902   0.089   1.874
 8394SOL     OW26080   6.216   3.920   2.630
 8394SOL    HW126081   6.128   3.872   2.620
 8394SOL    HW226082   6.271   3.906   2.548
 8395SOL     OW26083   2.521   0.963   5.030
 8395SOL    HW126084   2.472   1.047   5.050
 8395SOL    HW226085   2.456   0.889   5.013
 8396SOL     OW26086   4.223   5.455   4.577
 8396SOL    HW126087   4.306   5.401   4.569
 8396SOL    HW226088   4.217   5.492   4.670
 8397SOL     OW26089   6.416   0.802   3.636
 8397SOL    HW126090   6.475   0.751   3.698
 8397SOL    HW226091   6.415   0.898   3.660
 8398SOL     OW26092   5.230   2.135   5.821
 8398SOL    HW126093   5.183   2.117   5.734
 8398SOL    HW226094   5.204   2.225   5.855
 8399SOL     OW26095   0.211   5.770   0.411
 8399SOL    HW126096   0.136   5.703   0.405
 8399SOL    HW226097   0.279   5.750   0.340
 8400SOL     OW26098   1.264   2.314   4.083
 8400SOL    HW126099   1.174   2.312   4.128
 8400SOL    HW226100   1.288   2.408   4.063
 8401SOL     OW26101   2.868   0.266   5.912
 8401SOL    HW126102   2.833   0.336   5.975
 8401SOL    HW226103   2.963   0.286   5.889
 8402SOL     OW26104   4.130   1.118   5.727
 8402SOL    HW126105   4.224   1.137   5.755
 8402SOL    HW226106   4.101   1.030   5.766
 8403SOL     OW26107   6.125   4.813   4.676
 8403SOL    HW126108   6.122   4.732   4.735
 8403SOL    HW226109   6.200   4.873   4.705
 8404SOL     OW26110   1.993   1.911   6.528
 8404SOL    HW126111   1.905   1.927   6.484
 8404SOL    HW226112   2.067   1.925   6.462
 8405SOL     OW26113   3.816   0.990   5.217
 8405SOL    HW126114   3.760   1.067   5.247
 8405SOL    HW226115   3.790   0.908   5.268
 8406SOL     OW26116   5.261   0.694   6.540
 8406SOL    HW126117   5.227   0.701   6.446
 8406SOL    HW226118   5.286   0.599   6.559
 8407SOL     OW26119   3.783   6.800   3.601
 8407SOL    HW126120   3.874   6.778   3.564
 8407SOL    HW226121   3.716   6.739   3.560
 8408SOL     OW26122   5.158   0.542   1.324
 8408SOL    HW126123   5.218   0.462   1.337
 8408SOL    HW226124   5.068   0.511   1.294
 8409SOL     OW26125   4.556   2.520   2.486
 8409SOL    HW126126   4.635   2.518   2.547
 8409SOL    HW226127   4.484   2.462   2.525
 8410SOL     OW26128   6.899   1.960   1.677
 8410SOL    HW126129   6.872   1.907   1.757
 8410SOL    HW226130   6.910   2.056   1.703
 8411SOL     OW26131   1.236   6.035   0.728
 8411SOL    HW126132   1.322   6.067   0.768
 8411SOL    HW226133   1.175   6.005   0.801
 8412SOL     OW26134   2.673   2.908   0.149
 8412SOL    HW126135   2.662   2.910   0.049
 8412SOL    HW226136   2.665   2.814   0.182
 8413SOL     OW26137   4.084   5.115   5.517
 8413SOL    HW126138   4.047   5.026   5.542
 8413SOL    HW226139   4.034   5.187   5.566
 8414SOL     OW26140   1.486   1.435   2.652
 8414SOL    HW126141   1.428   1.497   2.598
 8414SOL    HW226142   1.429   1.388   2.719
 8415SOL     OW26143   2.695   0.388   4.516
 8415SOL    HW126144   2.790   0.377   4.545
 8415SOL    HW226145   2.646   0.302   4.533
 8416SOL     OW26146   6.521   1.780   5.109
 8416SOL    HW126147   6.480   1.709   5.051
 8416SOL    HW226148   6.478   1.776   5.199
 8417SOL     OW26149   1.051   3.603   5.012
 8417SOL    HW126150   1.094   3.674   5.068
 8417SOL    HW226151   1.055   3.629   4.916
 8418SOL     OW26152   0.967   5.790   2.725
 8418SOL    HW126153   1.048   5.791   2.783
 8418SOL    HW226154   0.887   5.820   2.777
 8419SOL     OW26155   5.124   0.601   4.143
 8419SOL    HW126156   5.078   0.539   4.207
 8419SOL    HW226157   5.119   0.694   4.178
 8420SOL     OW26158   3.201   6.708   2.312
 8420SOL    HW126159   3.110   6.748   2.320
 8420SOL    HW226160   3.209   6.660   2.225
 8421SOL     OW26161   4.101   6.149   6.368
 8421SOL    HW126162   4.020   6.149   6.310
 8421SOL    HW226163   4.155   6.067   6.351
 8422SOL     OW26164   4.716   2.726   3.167
 8422SOL    HW126165   4.629   2.676   3.164
 8422SOL    HW226166   4.731   2.761   3.259
 8423SOL     OW26167   5.542   4.690   6.128
 8423SOL    HW126168   5.542   4.637   6.213
 8423SOL    HW226169   5.600   4.645   6.060
 8424SOL     OW26170   2.206   7.006   3.286
 8424SOL    HW126171   2.180   7.005   3.383
 8424SOL    HW226172   2.133   0.028   3.232
 8425SOL     OW26173   2.971   3.856   3.471
 8425SOL    HW126174   3.042   3.807   3.420
 8425SOL    HW226175   2.906   3.897   3.407
 8426SOL     OW26176   3.662   2.960   1.863
 8426SOL    HW126177   3.589   3.024   1.844
 8426SOL    HW226178   3.676   2.953   1.962
 8427SOL     OW26179   2.864   3.582   3.908
 8427SOL    HW126180   2.915   3.596   3.823
 8427SOL    HW226181   2.767   3.600   3.892
 8428SOL     OW26182   0.143   0.426   0.887
 8428SOL    HW126183   0.168   0.489   0.961
 8428SOL    HW226184   0.164   0.468   0.799
 8429SOL     OW26185   1.430   5.806   6.531
 8429SOL    HW126186   1.496   5.854   6.472
 8429SOL    HW226187   1.338   5.817   6.494
 8430SOL     OW26188   4.406   6.051   4.644
 8430SOL    HW126189   4.431   6.132   4.591
 8430SOL    HW226190   4.321   6.014   4.609
 8431SOL     OW26191   3.166   3.475   6.095
 8431SOL    HW126192   3.217   3.411   6.153
 8431SOL    HW226193   3.163   3.440   6.001
 8432SOL     OW26194   6.352   5.744   6.737
 8432SOL    HW126195   6.424   5.786   6.683
 8432SOL    HW226196   6.328   5.655   6.698
 8433SOL     OW26197   5.039   2.350   0.654
 8433SOL    HW126198   5.116   2.410   0.631
 8433SOL    HW226199   5.041   2.329   0.752
 8434SOL     OW26200   2.280   5.455   5.269
 8434SOL    HW126201   2.300   5.400   5.351
 8434SOL    HW226202   2.321   5.546   5.280
 8435SOL     OW26203   5.105   0.784   2.972
 8435SOL    HW126204   5.016   0.764   3.013
 8435SOL    HW226205   5.177   0.747   3.030
 8436SOL     OW26206   2.169   6.979   2.803
 8436SOL    HW126207   2.200   6.968   2.898
 8436SOL    HW226208   2.248   6.979   2.742
 8437SOL     OW26209   2.158   3.099   2.253
 8437SOL    HW126210   2.139   3.056   2.165
 8437SOL    HW226211   2.127   3.194   2.252
 8438SOL     OW26212   1.634   4.521   2.642
 8438SOL    HW126213   1.617   4.505   2.545
 8438SOL    HW226214   1.556   4.569   2.682
 8439SOL     OW26215   5.760   6.050   3.632
 8439SOL    HW126216   5.812   6.044   3.547
 8439SOL    HW226217   5.783   5.972   3.691
 8440SOL     OW26218   1.904   1.344   3.322
 8440SOL    HW126219   1.808   1.369   3.326
 8440SOL    HW226220   1.913   1.245   3.332
 8441SOL     OW26221   5.653   0.333   5.577
 8441SOL    HW126222   5.664   0.260   5.510
 8441SOL    HW226223   5.595   0.300   5.652
 8442SOL     OW26224   3.684   1.142   5.654
 8442SOL    HW126225   3.697   1.118   5.750
 8442SOL    HW226226   3.757   1.203   5.625
 8443SOL     OW26227   1.653   4.628   3.515
 8443SOL    HW126228   1.711   4.653   3.438
 8443SOL    HW226229   1.709   4.594   3.590
 8444SOL     OW26230   4.808   5.724   3.399
 8444SOL    HW126231   4.745   5.650   3.377
 8444SOL    HW226232   4.811   5.737   3.498
 8445SOL     OW26233   3.746   6.330   7.002
 8445SOL    HW126234   3.652   6.356   6.982
 8445SOL    HW226235   3.753   6.230   7.005
 8446SOL     OW26236   0.756   6.050   5.460
 8446SOL    HW126237   0.761   6.132   5.403
 8446SOL    HW226238   0.695   6.068   5.537
 8447SOL     OW26239   4.033   1.497   2.952
 8447SOL    HW126240   3.957   1.550   2.990
 8447SOL    HW226241   4.103   1.485   3.022
 8448SOL     OW26242   4.544   6.666   3.181
 8448SOL    HW126243   4.559   6.703   3.090
 8448SOL    HW226244   4.620   6.694   3.241
 8449SOL     OW26245   1.919   2.140   3.014
 8449SOL    HW126246   1.872   2.105   2.934
 8449SOL    HW226247   1.897   2.237   3.026
 8450SOL     OW26248   6.696   0.509   6.998
 8450SOL    HW126249   6.658   0.448   0.050
 8450SOL    HW226250   6.748   0.455   6.931
 8451SOL     OW26251   4.949   2.244   1.446
 8451SOL    HW126252   4.947   2.145   1.429
 8451SOL    HW226253   4.922   2.262   1.541
 8452SOL     OW26254   5.305   2.033   4.973
 8452SOL    HW126255   5.311   2.132   4.970
 8452SOL    HW226256   5.347   1.995   4.890
 8453SOL     OW26257   0.824   5.674   0.253
 8453SOL    HW126258   0.815   5.757   0.197
 8453SOL    HW226259   0.738   5.655   0.300
 8454SOL     OW26260   0.958   4.229   0.429
 8454SOL    HW126261   0.976   4.245   0.527
 8454SOL    HW226262   0.867   4.191   0.417
 8455SOL     OW26263   0.955   0.599   2.582
 8455SOL    HW126264   0.886   0.666   2.611
 8455SOL    HW226265   0.930   0.560   2.494
 8456SOL     OW26266   5.799   1.358   3.523
 8456SOL    HW126267   5.712   1.406   3.530
 8456SOL    HW226268   5.785   1.260   3.533
 8457SOL     OW26269   5.877   6.147   4.278
 8457SOL    HW126270   5.783   6.112   4.272
 8457SOL    HW226271   5.940   6.070   4.283
 8458SOL     OW26272   6.585   0.104   6.724
 8458SOL    HW126273   6.501   0.101   6.670
 8458SOL    HW226274   6.593   0.019   6.778
 8459SOL     OW26275   1.457   5.602   3.160
 8459SOL    HW126276   1.552   5.593   3.191
 8459SOL    HW226277   1.456   5.627   3.063
 8460SOL     OW26278   3.281   3.911   5.098
 8460SOL    HW126279   3.326   3.994   5.064
 8460SOL    HW226280   3.204   3.937   5.156
 8461SOL     OW26281   6.079   3.781   3.986
 8461SOL    HW126282   6.053   3.818   4.075
 8461SOL    HW226283   5.998   3.744   3.940
 8462SOL     OW26284   2.354   2.202   1.620
 8462SOL    HW126285   2.317   2.204   1.713
 8462SOL    HW226286   2.452   2.182   1.624
 8463SOL     OW26287   5.779   0.816   2.559
 8463SOL    HW126288   5.762   0.755   2.481
 8463SOL    HW226289   5.708   0.886   2.563
 8464SOL     OW26290   5.881   3.119   4.439
 8464SOL    HW126291   5.918   3.049   4.501
 8464SOL    HW226292   5.940   3.127   4.359
 8465SOL     OW26293   1.526   2.519   0.552
 8465SOL    HW126294   1.495   2.574   0.630
 8465SOL    HW226295   1.623   2.537   0.536
 8466SOL     OW26296   0.747   5.952   3.340
 8466SOL    HW126297   0.799   5.904   3.269
 8466SOL    HW226298   0.766   6.050   3.336
 8467SOL     OW26299   3.016   5.618   0.770
 8467SOL    HW126300   2.950   5.628   0.845
 8467SOL    HW226301   3.081   5.694   0.773
 8468SOL     OW26302   4.531   1.743   6.541
 8468SOL    HW126303   4.586   1.826   6.556
 8468SOL    HW226304   4.592   1.666   6.524
 8469SOL     OW26305   3.357   2.568   6.831
 8469SOL    HW126306   3.319   2.476   6.842
 8469SOL    HW226307   3.405   2.574   6.744
 8470SOL     OW26308   2.724   3.346   6.802
 8470SOL    HW126309   2.732   3.365   6.900
 8470SOL    HW226310   2.658   3.409   6.761
 8471SOL     OW26311   3.595   0.910   3.793
 8471SOL    HW126312   3.562   0.896   3.700
 8471SOL    HW226313   3.590   1.008   3.816
 8472SOL     OW26314   1.457   6.534   4.183
 8472SOL    HW126315   1.517   6.454   4.174
 8472SOL    HW226316   1.371   6.507   4.227
 8473SOL     OW26317   6.776   5.341   6.807
 8473SOL    HW126318   6.872   5.317   6.788
 8473SOL    HW226319   6.718   5.261   6.794
 8474SOL     OW26320   3.423   3.636   1.503
 8474SOL    HW126321   3.453   3.722   1.545
 8474SOL    HW226322   3.384   3.577   1.573
 8475SOL     OW26323   5.740   1.501   2.789
 8475SOL    HW126324   5.660   1.478   2.844
 8475SOL    HW226325   5.822   1.464   2.834
 8476SOL     OW26326   4.455   0.594   2.083
 8476SOL    HW126327   4.504   0.522   2.132
 8476SOL    HW226328   4.490   0.683   2.112
 8477SOL     OW26329   2.956   0.916   1.064
 8477SOL    HW126330   3.031   0.880   1.008
 8477SOL    HW226331   2.881   0.850   1.067
 8478SOL     OW26332   1.110   0.313   5.478
 8478SOL    HW126333   1.104   0.213   5.487
 8478SOL    HW226334   1.181   0.347   5.539
 8479SOL     OW26335   6.074   1.001   0.941
 8479SOL    HW126336   6.072   1.025   0.844
 8479SOL    HW226337   5.997   0.942   0.962
 8480SOL     OW26338   2.888   1.114   1.649
 8480SOL    HW126339   2.984   1.123   1.673
 8480SOL    HW226340   2.872   1.151   1.557
 8481SOL     OW26341   3.784   0.853   4.104
 8481SOL    HW126342   3.840   0.781   4.063
 8481SOL    HW226343   3.800   0.939   4.056
 8482SOL     OW26344   1.598   7.009   1.942
 8482SOL    HW126345   1.641   6.955   1.871
 8482SOL    HW226346   1.521   6.958   1.981
 8483SOL     OW26347   4.110   5.743   1.026
 8483SOL    HW126348   4.040   5.778   1.088
 8483SOL    HW226349   4.072   5.732   0.934
 8484SOL     OW26350   0.680   5.005   4.591
 8484SOL    HW126351   0.615   5.015   4.666
 8484SOL    HW226352   0.640   5.042   4.507
 8485SOL     OW26353   2.196   3.178   6.948
 8485SOL    HW126354   2.116   3.232   6.921
 8485SOL    HW226355   2.275   3.238   6.957
 8486SOL     OW26356   5.614   0.855   2.226
 8486SOL    HW126357   5.685   0.918   2.192
 8486SOL    HW226358   5.569   0.897   2.305
 8487SOL     OW26359   4.832   0.284   1.010
 8487SOL    HW126360   4.781   0.257   1.092
 8487SOL    HW226361   4.795   0.370   0.976
 8488SOL     OW26362   4.911   3.514   4.047
 8488SOL    HW126363   4.895   3.458   3.965
 8488SOL    HW226364   4.890   3.460   4.128
 8489SOL     OW26365   4.718   4.663   1.516
 8489SOL    HW126366   4.814   4.634   1.509
 8489SOL    HW226367   4.664   4.587   1.552
 8490SOL     OW26368   4.369   5.188   2.572
 8490SOL    HW126369   4.328   5.102   2.603
 8490SOL    HW226370   4.379   5.186   2.473
 8491SOL     OW26371   2.278   0.747   2.181
 8491SOL    HW126372   2.316   0.655   2.196
 8491SOL    HW226373   2.244   0.783   2.268
 8492SOL     OW26374   6.071   3.115   4.856
 8492SOL    HW126375   6.025   3.072   4.779
 8492SOL    HW226376   6.121   3.196   4.824
 8493SOL     OW26377   4.124   1.460   6.293
 8493SOL    HW126378   4.140   1.553   6.260
 8493SOL    HW226379   4.092   1.403   6.218
 8494SOL     OW26380   3.728   5.452   6.354
 8494SOL    HW126381   3.780   5.460   6.439
 8494SOL    HW226382   3.670   5.371   6.359
 8495SOL     OW26383   6.773   2.926   1.100
 8495SOL    HW126384   6.715   2.963   1.172
 8495SOL    HW226385   6.803   2.834   1.125
 8496SOL     OW26386   0.155   2.998   3.778
 8496SOL    HW126387   0.143   3.041   3.867
 8496SOL    HW226388   0.231   3.042   3.730
 8497SOL     OW26389   5.724   5.771   3.209
 8497SOL    HW126390   5.730   5.867   3.179
 8497SOL    HW226391   5.636   5.755   3.253
 8498SOL     OW26392   0.378   0.970   1.005
 8498SOL    HW126393   0.293   1.000   0.963
 8498SOL    HW226394   0.358   0.906   1.079
 8499SOL     OW26395   3.463   4.097   6.177
 8499SOL    HW126396   3.445   4.035   6.101
 8499SOL    HW226397   3.561   4.095   6.199
 8500SOL     OW26398   2.548   6.313   6.020
 8500SOL    HW126399   2.507   6.238   5.968
 8500SOL    HW226400   2.619   6.277   6.080
 8501SOL     OW26401   1.282   3.349   6.826
 8501SOL    HW126402   1.275   3.411   6.748
 8501SOL    HW226403   1.369   3.363   6.872
 8502SOL     OW26404   6.436   0.207   1.612
 8502SOL    HW126405   6.382   0.291   1.607
 8502SOL    HW226406   6.468   0.183   1.520
 8503SOL     OW26407   2.671   4.853   3.163
 8503SOL    HW126408   2.748   4.916   3.150
 8503SOL    HW226409   2.592   4.904   3.198
 8504SOL     OW26410   1.423   5.214   3.237
 8504SOL    HW126411   1.520   5.198   3.255
 8504SOL    HW226412   1.379   5.250   3.319
 8505SOL     OW26413   5.146   3.601   3.376
 8505SOL    HW126414   5.054   3.570   3.352
 8505SOL    HW226415   5.153   3.613   3.475
 8506SOL     OW26416   1.562   6.565   0.332
 8506SOL    HW126417   1.538   6.528   0.421
 8506SOL    HW226418   1.641   6.626   0.340
 8507SOL     OW26419   1.244   0.942   5.391
 8507SOL    HW126420   1.246   0.850   5.352
 8507SOL    HW226421   1.218   0.936   5.488
 8508SOL     OW26422   0.591   2.287   5.695
 8508SOL    HW126423   0.626   2.376   5.665
 8508SOL    HW226424   0.626   2.267   5.786
 8509SOL     OW26425   6.320   1.949   4.583
 8509SOL    HW126426   6.405   1.988   4.619
 8509SOL    HW226427   6.342   1.876   4.518
 8510SOL     OW26428   5.589   6.045   2.395
 8510SOL    HW126429   5.597   6.078   2.489
 8510SOL    HW226430   5.545   5.956   2.394
 8511SOL     OW26431   6.464   5.052   1.851
 8511SOL    HW126432   6.546   5.001   1.877
 8511SOL    HW226433   6.394   4.988   1.818
 8512SOL     OW26434   5.269   2.420   0.125
 8512SOL    HW126435   5.305   2.391   0.213
 8512SOL    HW226436   5.169   2.419   0.128
 8513SOL     OW26437   6.423   4.553   1.140
 8513SOL    HW126438   6.479   4.496   1.082
 8513SOL    HW226439   6.465   4.561   1.231
 8514SOL     OW26440   2.807   1.995   5.212
 8514SOL    HW126441   2.900   2.029   5.221
 8514SOL    HW226442   2.769   1.979   5.304
 8515SOL     OW26443   0.961   0.910   0.638
 8515SOL    HW126444   0.888   0.859   0.593
 8515SOL    HW226445   0.935   0.929   0.733
 8516SOL     OW26446   6.145   2.374   2.218
 8516SOL    HW126447   6.064   2.364   2.277
 8516SOL    HW226448   6.125   2.336   2.128
 8517SOL     OW26449   1.485   2.830   5.377
 8517SOL    HW126450   1.490   2.844   5.278
 8517SOL    HW226451   1.426   2.751   5.396
 8518SOL     OW26452   5.342   4.828   6.381
 8518SOL    HW126453   5.381   4.781   6.460
 8518SOL    HW226454   5.318   4.921   6.406
 8519SOL     OW26455   1.532   3.942   1.045
 8519SOL    HW126456   1.598   3.901   1.108
 8519SOL    HW226457   1.579   4.009   0.987
 8520SOL     OW26458   4.024   3.605   4.848
 8520SOL    HW126459   4.056   3.520   4.890
 8520SOL    HW226460   4.050   3.606   4.751
 8521SOL     OW26461   1.738   5.928   5.547
 8521SOL    HW126462   1.760   5.841   5.591
 8521SOL    HW226463   1.705   5.911   5.454
 8522SOL     OW26464   1.177   6.436   0.822
 8522SOL    HW126465   1.172   6.534   0.841
 8522SOL    HW226466   1.242   6.420   0.748
 8523SOL     OW26467   2.600   0.104   6.496
 8523SOL    HW126468   2.575   0.010   6.471
 8523SOL    HW226469   2.524   0.166   6.473
 8524SOL     OW26470   1.454   5.493   4.616
 8524SOL    HW126471   1.396   5.470   4.538
 8524SOL    HW226472   1.402   5.547   4.682
 8525SOL     OW26473   0.038   5.000   1.672
 8525SOL    HW126474   6.980   4.999   1.607
 8525SOL    HW226475   0.122   5.023   1.624
 8526SOL     OW26476   2.711   0.008   0.582
 8526SOL    HW126477   2.762   0.092   0.599
 8526SOL    HW226478   2.671   6.994   0.668
 8527SOL     OW26479   3.353   0.102   6.345
 8527SOL    HW126480   3.349   0.167   6.269
 8527SOL    HW226481   3.275   0.040   6.340
 8528SOL     OW26482   5.149   2.478   0.391
 8528SOL    HW126483   5.216   2.496   0.463
 8528SOL    HW226484   5.128   2.381   0.388
 8529SOL     OW26485   1.295   6.077   6.814
 8529SOL    HW126486   1.347   5.998   6.782
 8529SOL    HW226487   1.315   6.156   6.756
 8530SOL     OW26488   3.072   3.584   4.265
 8530SOL    HW126489   3.041   3.667   4.312
 8530SOL    HW226490   2.993   3.534   4.231
 8531SOL     OW26491   6.755   5.614   3.470
 8531SOL    HW126492   6.709   5.698   3.443
 8531SOL    HW226493   6.719   5.584   3.559
 8532SOL     OW26494   3.512   6.235   4.196
 8532SOL    HW126495   3.426   6.281   4.217
 8532SOL    HW226496   3.532   6.169   4.268
 8533SOL     OW26497   1.136   6.397   6.518
 8533SOL    HW126498   1.231   6.396   6.550
 8533SOL    HW226499   1.081   6.455   6.578
 8534SOL     OW26500   4.421   2.505   4.099
 8534SOL    HW126501   4.399   2.552   4.014
 8534SOL    HW226502   4.519   2.484   4.102
 8535SOL     OW26503   6.320   0.977   3.858
 8535SOL    HW126504   6.349   0.924   3.937
 8535SOL    HW226505   6.228   1.013   3.873
 8536SOL     OW26506   0.111   0.841   4.351
 8536SOL    HW126507   0.181   0.786   4.396
 8536SOL    HW226508   0.045   0.782   4.305
 8537SOL     OW26509   6.854   0.995   3.260
 8537SOL    HW126510   6.950   0.967   3.250
 8537SOL    HW226511   6.847   1.094   3.245
 8538SOL     OW26512   1.414   2.479   0.320
 8538SOL    HW126513   1.436   2.511   0.413
 8538SOL    HW226514   1.495   2.486   0.263
 8539SOL     OW26515   6.646   2.597   3.164
 8539SOL    HW126516   6.589   2.589   3.082
 8539SOL    HW226517   6.612   2.535   3.235
 8540SOL     OW26518   4.363   0.081   0.100
 8540SOL    HW126519   4.342   0.115   0.009
 8540SOL    HW226520   4.304   0.002   0.121
 8541SOL     OW26521   2.300   2.373   3.844
 8541SOL    HW126522   2.369   2.439   3.814
 8541SOL    HW226523   2.334   2.280   3.826
 8542SOL     OW26524   3.935   3.862   6.565
 8542SOL    HW126525   3.972   3.770   6.578
 8542SOL    HW226526   3.863   3.879   6.632
 8543SOL     OW26527   1.998   2.845   6.941
 8543SOL    HW126528   2.025   2.749   6.955
 8543SOL    HW226529   2.037   2.878   6.855
 8544SOL     OW26530   5.541   2.687   4.160
 8544SOL    HW126531   5.630   2.691   4.114
 8544SOL    HW226532   5.541   2.752   4.236
 8545SOL     OW26533   5.115   6.363   5.117
 8545SOL    HW126534   5.145   6.271   5.091
 8545SOL    HW226535   5.176   6.400   5.187
 8546SOL     OW26536   4.806   1.300   4.165
 8546SOL    HW126537   4.870   1.331   4.095
 8546SOL    HW226538   4.794   1.201   4.157
 8547SOL     OW26539   1.035   4.798   3.552
 8547SOL    HW126540   0.949   4.788   3.502
 8547SOL    HW226541   1.095   4.720   3.534
 8548SOL     OW26542   5.676   1.167   4.782
 8548SOL    HW126543   5.698   1.072   4.758
 8548SOL    HW226544   5.584   1.189   4.749
 8549SOL     OW26545   6.405   3.582   4.257
 8549SOL    HW126546   6.385   3.491   4.293
 8549SOL    HW226547   6.377   3.587   4.161
 8550SOL     OW26548   1.383   5.126   6.472
 8550SOL    HW126549   1.345   5.035   6.453
 8550SOL    HW226550   1.394   5.176   6.386
 8551SOL     OW26551   3.590   3.957   0.078
 8551SOL    HW126552   3.637   3.869   0.089
 8551SOL    HW226553   3.501   3.953   0.124
 8552SOL     OW26554   2.339   6.239   3.840
 8552SOL    HW126555   2.282   6.291   3.903
 8552SOL    HW226556   2.282   6.173   3.790
 8553SOL     OW26557   4.961   6.755   0.700
 8553SOL    HW126558   5.040   6.748   0.761
 8553SOL    HW226559   4.983   6.817   0.624
 8554SOL     OW26560   6.882   3.890   6.927
 8554SOL    HW126561   6.821   3.948   6.981
 8554SOL    HW226562   6.830   3.812   6.892
 8555SOL     OW26563   1.351   6.917   3.755
 8555SOL    HW126564   1.444   6.881   3.747
 8555SOL    HW226565   1.304   6.874   3.833
 8556SOL     OW26566   6.226   0.318   3.896
 8556SOL    HW126567   6.276   0.231   3.892
 8556SOL    HW226568   6.291   0.392   3.915
 8557SOL     OW26569   6.935   0.196   1.126
 8557SOL    HW126570   7.011   0.163   1.181
 8557SOL    HW226571   6.944   0.164   1.032
 8558SOL     OW26572   1.018   5.060   2.100
 8558SOL    HW126573   1.029   4.989   2.169
 8558SOL    HW226574   1.072   5.038   2.019
 8559SOL     OW26575   1.371   6.998   1.629
 8559SOL    HW126576   1.294   0.030   1.669
 8559SOL    HW226577   1.448   0.042   1.615
 8560SOL     OW26578   6.371   1.764   0.298
 8560SOL    HW126579   6.307   1.841   0.308
 8560SOL    HW226580   6.357   1.700   0.372
 8561SOL     OW26581   4.586   6.173   3.292
 8561SOL    HW126582   4.504   6.169   3.348
 8561SOL    HW226583   4.610   6.269   3.275
 8562SOL     OW26584   3.678   6.765   3.851
 8562SOL    HW126585   3.745   6.777   3.924
 8562SOL    HW226586   3.725   6.741   3.765
 8563SOL     OW26587   2.780   2.335   6.850
 8563SOL    HW126588   2.718   2.344   6.927
 8563SOL    HW226589   2.857   2.398   6.862
 8564SOL     OW26590   1.074   6.938   3.236
 8564SOL    HW126591   1.100   6.857   3.289
 8564SOL    HW226592   1.143   6.955   3.166
 8565SOL     OW26593   3.716   6.559   1.109
 8565SOL    HW126594   3.699   6.461   1.099
 8565SOL    HW226595   3.810   6.579   1.081
 8566SOL     OW26596   1.438   2.360   3.490
 8566SOL    HW126597   1.505   2.288   3.469
 8566SOL    HW226598   1.405   2.349   3.584
 8567SOL     OW26599   5.131   1.301   1.229
 8567SOL    HW126600   5.224   1.267   1.244
 8567SOL    HW226601   5.117   1.383   1.285
 8568SOL     OW26602   5.357   1.555   6.976
 8568SOL    HW126603   5.347   1.582   6.881
 8568SOL    HW226604   5.442   1.593   7.013
 8569SOL     OW26605   4.245   1.524   4.573
 8569SOL    HW126606   4.327   1.499   4.521
 8569SOL    HW226607   4.169   1.539   4.509
 8570SOL     OW26608   0.386   4.095   0.295
 8570SOL    HW126609   0.448   4.068   0.368
 8570SOL    HW226610   0.360   4.191   0.307
 8571SOL     OW26611   6.895   4.108   4.821
 8571SOL    HW126612   6.982   4.122   4.773
 8571SOL    HW226613   6.907   4.040   4.893
 8572SOL     OW26614   2.391   4.931   5.516
 8572SOL    HW126615   2.407   4.982   5.600
 8572SOL    HW226616   2.391   4.833   5.536
 8573SOL     OW26617   3.509   5.637   5.610
 8573SOL    HW126618   3.546   5.655   5.701
 8573SOL    HW226619   3.579   5.653   5.541
 8574SOL     OW26620   0.776   3.385   5.595
 8574SOL    HW126621   0.783   3.290   5.625
 8574SOL    HW226622   0.857   3.436   5.626
 8575SOL     OW26623   3.148   2.485   0.676
 8575SOL    HW126624   3.143   2.573   0.724
 8575SOL    HW226625   3.068   2.430   0.699
 8576SOL     OW26626   1.595   0.102   1.506
 8576SOL    HW126627   1.636   0.186   1.469
 8576SOL    HW226628   1.641   0.023   1.467
 8577SOL     OW26629   6.179   6.185   3.333
 8577SOL    HW126630   6.258   6.125   3.345
 8577SOL    HW226631   6.190   6.267   3.388
 8578SOL     OW26632   4.510   6.787   3.514
 8578SOL    HW126633   4.516   6.886   3.502
 8578SOL    HW226634   4.431   6.765   3.571
 8579SOL     OW26635   1.399   5.206   3.530
 8579SOL    HW126636   1.340   5.278   3.566
 8579SOL    HW226637   1.486   5.205   3.579
 8580SOL     OW26638   2.004   5.618   0.731
 8580SOL    HW126639   2.098   5.653   0.725
 8580SOL    HW226640   1.940   5.694   0.719
 8581SOL     OW26641   3.321   1.807   1.163
 8581SOL    HW126642   3.395   1.866   1.128
 8581SOL    HW226643   3.243   1.810   1.101
 8582SOL     OW26644   4.117   4.544   1.544
 8582SOL    HW126645   4.173   4.621   1.576
 8582SOL    HW226646   4.176   4.477   1.499
 8583SOL     OW26647   6.053   0.131   6.041
 8583SOL    HW126648   5.972   0.190   6.043
 8583SOL    HW226649   6.064   0.086   6.129
 8584SOL     OW26650   6.773   5.620   0.137
 8584SOL    HW126651   6.695   5.605   0.198
 8584SOL    HW226652   6.742   5.666   0.054
 8585SOL     OW26653   0.278   0.815   0.062
 8585SOL    HW126654   0.299   0.812   0.160
 8585SOL    HW226655   0.230   0.900   0.041
 8586SOL     OW26656   3.977   5.311   3.069
 8586SOL    HW126657   4.012   5.383   3.129
 8586SOL    HW226658   3.910   5.256   3.119
 8587SOL     OW26659   0.208   1.998   2.243
 8587SOL    HW126660   0.247   2.014   2.334
 8587SOL    HW226661   0.283   1.989   2.177
 8588SOL     OW26662   4.954   2.670   0.094
 8588SOL    HW126663   4.989   2.709   0.179
 8588SOL    HW226664   4.957   2.570   0.099
 8589SOL     OW26665   3.430   2.000   4.333
 8589SOL    HW126666   3.441   2.038   4.424
 8589SOL    HW226667   3.438   1.900   4.337
 8590SOL     OW26668   5.873   5.068   5.195
 8590SOL    HW126669   5.893   5.164   5.216
 8590SOL    HW226670   5.895   5.050   5.099
 8591SOL     OW26671   1.042   3.446   6.902
 8591SOL    HW126672   1.130   3.399   6.894
 8591SOL    HW226673   0.977   3.405   6.837
 8592SOL     OW26674   6.033   4.355   0.326
 8592SOL    HW126675   5.975   4.347   0.408
 8592SOL    HW226676   6.005   4.286   0.259
 8593SOL     OW26677   1.379   0.822   2.416
 8593SOL    HW126678   1.416   0.913   2.394
 8593SOL    HW226679   1.279   0.828   2.423
 8594SOL     OW26680   3.069   3.789   4.441
 8594SOL    HW126681   3.146   3.762   4.498
 8594SOL    HW226682   3.092   3.872   4.390
 8595SOL     OW26683   1.512   2.180   2.490
 8595SOL    HW126684   1.584   2.114   2.472
 8595SOL    HW226685   1.546   2.251   2.552
 8596SOL     OW26686   6.201   5.532   1.832
 8596SOL    HW126687   6.146   5.537   1.749
 8596SOL    HW226688   6.207   5.623   1.874
 8597SOL     OW26689   2.739   1.451   0.551
 8597SOL    HW126690   2.641   1.430   0.555
 8597SOL    HW226691   2.784   1.416   0.633
 8598SOL     OW26692   5.984   5.343   1.085
 8598SOL    HW126693   6.017   5.435   1.068
 8598SOL    HW226694   6.051   5.291   1.137
 8599SOL     OW26695   1.569   3.087   2.940
 8599SOL    HW126696   1.544   3.036   3.023
 8599SOL    HW226697   1.488   3.129   2.901
 8600SOL     OW26698   6.662   4.867   6.619
 8600SOL    HW126699   6.597   4.906   6.554
 8600SOL    HW226700   6.650   4.768   6.623
 8601SOL     OW26701   0.434   6.900   4.601
 8601SOL    HW126702   0.335   6.912   4.591
 8601SOL    HW226703   0.479   6.924   4.515
 8602SOL     OW26704   2.768   5.647   2.033
 8602SOL    HW126705   2.825   5.618   1.956
 8602SOL    HW226706   2.675   5.614   2.019
 8603SOL     OW26707   3.908   3.024   0.190
 8603SOL    HW126708   3.815   3.060   0.204
 8603SOL    HW226709   3.950   3.006   0.278
 8604SOL     OW26710   5.373   2.788   3.502
 8604SOL    HW126711   5.421   2.876   3.505
 8604SOL    HW226712   5.342   2.771   3.408
 8605SOL     OW26713   2.230   6.534   2.805
 8605SOL    HW126714   2.229   6.631   2.832
 8605SOL    HW226715   2.165   6.520   2.730
 8606SOL     OW26716   4.105   4.655   5.780
 8606SOL    HW126717   4.025   4.664   5.838
 8606SOL    HW226718   4.132   4.559   5.773
 8607SOL     OW26719   4.164   5.703   1.640
 8607SOL    HW126720   4.142   5.785   1.694
 8607SOL    HW226721   4.178   5.626   1.702
 8608SOL     OW26722   4.480   5.606   2.130
 8608SOL    HW126723   4.554   5.580   2.192
 8608SOL    HW226724   4.502   5.693   2.086
 8609SOL     OW26725   3.395   0.515   5.231
 8609SOL    HW126726   3.347   0.574   5.296
 8609SOL    HW226727   3.491   0.543   5.226
 8610SOL     OW26728   0.743   6.290   3.879
 8610SOL    HW126729   0.764   6.205   3.833
 8610SOL    HW226730   0.643   6.300   3.887
 8611SOL     OW26731   1.874   2.076   4.387
 8611SOL    HW126732   1.887   2.174   4.380
 8611SOL    HW226733   1.816   2.055   4.466
 8612SOL     OW26734   4.217   2.590   5.842
 8612SOL    HW126735   4.196   2.525   5.916
 8612SOL    HW226736   4.165   2.674   5.856
 8613SOL     OW26737   1.961   1.649   1.021
 8613SOL    HW126738   1.929   1.696   0.938
 8613SOL    HW226739   1.882   1.615   1.073
 8614SOL     OW26740   0.906   1.964   3.463
 8614SOL    HW126741   0.983   1.990   3.522
 8614SOL    HW226742   0.859   2.047   3.432
 8615SOL     OW26743   4.374   2.150   5.407
 8615SOL    HW126744   4.336   2.106   5.326
 8615SOL    HW226745   4.325   2.236   5.424
 8616SOL     OW26746   1.288   4.619   0.518
 8616SOL    HW126747   1.282   4.556   0.595
 8616SOL    HW226748   1.217   4.690   0.528
 8617SOL     OW26749   6.239   2.885   0.826
 8617SOL    HW126750   6.334   2.895   0.797
 8617SOL    HW226751   6.220   2.789   0.846
 8618SOL     OW26752   4.747   6.921   3.147
 8618SOL    HW126753   4.757   7.003   3.204
 8618SOL    HW226754   4.667   6.931   3.089
 8619SOL     OW26755   4.359   4.645   0.140
 8619SOL    HW126756   4.272   4.684   0.110
 8619SOL    HW226757   4.393   4.581   0.070
 8620SOL     OW26758   6.585   6.725   2.790
 8620SOL    HW126759   6.614   6.796   2.854
 8620SOL    HW226760   6.633   6.640   2.811
 8621SOL     OW26761   5.873   0.752   3.572
 8621SOL    HW126762   5.780   0.751   3.536
 8621SOL    HW226763   5.898   0.660   3.604
 8622SOL     OW26764   4.774   5.159   0.713
 8622SOL    HW126765   4.851   5.170   0.651
 8622SOL    HW226766   4.802   5.108   0.794
 8623SOL     OW26767   0.139   3.863   3.105
 8623SOL    HW126768   0.083   3.869   3.022
 8623SOL    HW226769   0.196   3.780   3.101
 8624SOL     OW26770   0.273   4.461   3.339
 8624SOL    HW126771   0.345   4.530   3.346
 8624SOL    HW226772   0.283   4.395   3.414
 8625SOL     OW26773   3.682   0.689   4.906
 8625SOL    HW126774   3.769   0.730   4.935
 8625SOL    HW226775   3.691   0.590   4.903
 8626SOL     OW26776   3.083   3.981   3.720
 8626SOL    HW126777   3.029   3.973   3.804
 8626SOL    HW226778   3.027   3.954   3.642
 8627SOL     OW26779   1.467   0.754   0.226
 8627SOL    HW126780   1.383   0.802   0.201
 8627SOL    HW226781   1.540   0.820   0.242
 8628SOL     OW26782   5.459   0.658   6.941
 8628SOL    HW126783   5.385   0.712   6.900
 8628SOL    HW226784   5.541   0.665   6.884
 8629SOL     OW26785   1.443   3.944   4.047
 8629SOL    HW126786   1.486   4.013   4.105
 8629SOL    HW226787   1.385   3.885   4.103
 8630SOL     OW26788   5.740   4.628   3.877
 8630SOL    HW126789   5.673   4.597   3.944
 8630SOL    HW226790   5.832   4.615   3.914
 8631SOL     OW26791   3.886   5.746   4.765
 8631SOL    HW126792   3.897   5.649   4.745
 8631SOL    HW226793   3.913   5.800   4.685
 8632SOL     OW26794   4.014   0.327   3.237
 8632SOL    HW126795   4.099   0.377   3.221
 8632SOL    HW226796   3.938   0.378   3.198
 8633SOL     OW26797   5.732   1.235   3.902
 8633SOL    HW126798   5.634   1.214   3.903
 8633SOL    HW226799   5.749   1.310   3.838
 8634SOL     OW26800   6.923   4.888   1.880
 8634SOL    HW126801   6.990   4.881   1.954
 8634SOL    HW226802   6.959   4.945   1.807
 8635SOL     OW26803   6.349   3.649   5.324
 8635SOL    HW126804   6.352   3.632   5.423
 8635SOL    HW226805   6.324   3.744   5.307
 8636SOL     OW26806   6.686   5.516   0.485
 8636SOL    HW126807   6.640   5.433   0.515
 8636SOL    HW226808   6.631   5.562   0.415
 8637SOL     OW26809   1.906   0.570   0.692
 8637SOL    HW126810   1.949   0.631   0.759
 8637SOL    HW226811   1.970   0.551   0.618
 8638SOL     OW26812   3.306   4.985   0.120
 8638SOL    HW126813   3.223   5.003   0.067
 8638SOL    HW226814   3.360   5.069   0.129
 8639SOL     OW26815   6.305   4.069   1.524
 8639SOL    HW126816   6.390   4.038   1.566
 8639SOL    HW226817   6.291   4.020   1.438
 8640SOL     OW26818   4.609   5.317   0.896
 8640SOL    HW126819   4.656   5.284   0.814
 8640SOL    HW226820   4.574   5.410   0.879
 8641SOL     OW26821   6.354   4.288   2.994
 8641SOL    HW126822   6.361   4.235   3.079
 8641SOL    HW226823   6.430   4.263   2.934
 8642SOL     OW26824   4.188   1.150   2.015
 8642SOL    HW126825   4.115   1.209   1.980
 8642SOL    HW226826   4.175   1.057   1.982
 8643SOL     OW26827   4.861   0.215   6.140
 8643SOL    HW126828   4.953   0.227   6.103
 8643SOL    HW226829   4.793   0.231   6.068
 8644SOL     OW26830   5.969   2.958   4.651
 8644SOL    HW126831   5.911   2.929   4.727
 8644SOL    HW226832   6.034   2.885   4.629
 8645SOL     OW26833   6.121   4.772   1.288
 8645SOL    HW126834   6.037   4.817   1.259
 8645SOL    HW226835   6.165   4.729   1.209
 8646SOL     OW26836   5.454   0.697   0.362
 8646SOL    HW126837   5.397   0.682   0.443
 8646SOL    HW226838   5.551   0.683   0.386
 8647SOL     OW26839   4.331   5.003   0.375
 8647SOL    HW126840   4.247   4.949   0.373
 8647SOL    HW226841   4.410   4.942   0.382
 8648SOL     OW26842   5.412   1.166   3.669
 8648SOL    HW126843   5.341   1.095   3.662
 8648SOL    HW226844   5.460   1.156   3.756
 8649SOL     OW26845   6.098   3.962   5.685
 8649SOL    HW126846   6.145   4.050   5.688
 8649SOL    HW226847   6.130   3.905   5.761
 8650SOL     OW26848   2.032   4.987   3.348
 8650SOL    HW126849   2.078   5.064   3.391
 8650SOL    HW226850   2.079   4.962   3.264
 8651SOL     OW26851   3.843   1.395   6.770
 8651SOL    HW126852   3.820   1.354   6.682
 8651SOL    HW226853   3.786   1.476   6.785
 8652SOL     OW26854   2.094   3.753   3.506
 8652SOL    HW126855   2.134   3.677   3.455
 8652SOL    HW226856   2.051   3.817   3.443
 8653SOL     OW26857   0.174   2.797   0.028
 8653SOL    HW126858   0.094   2.809   0.086
 8653SOL    HW226859   0.146   2.756   6.960
 8654SOL     OW26860   0.977   0.189   3.113
 8654SOL    HW126861   1.004   0.093   3.111
 8654SOL    HW226862   0.946   0.212   3.206
 8655SOL     OW26863   6.049   6.261   4.794
 8655SOL    HW126864   5.987   6.283   4.869
 8655SOL    HW226865   6.004   6.197   4.732
 8656SOL     OW26866   6.582   1.150   1.083
 8656SOL    HW126867   6.485   1.157   1.107
 8656SOL    HW226868   6.594   1.168   0.985
 8657SOL     OW26869   4.446   4.088   6.914
 8657SOL    HW126870   4.512   4.107   6.986
 8657SOL    HW226871   4.355   4.117   6.942
 8658SOL     OW26872   5.546   5.342   6.842
 8658SOL    HW126873   5.568   5.294   6.927
 8658SOL    HW226874   5.541   5.440   6.860
 8659SOL     OW26875   5.396   0.531   4.089
 8659SOL    HW126876   5.420   0.448   4.139
 8659SOL    HW226877   5.304   0.560   4.115
 8660SOL     OW26878   5.551   3.542   0.759
 8660SOL    HW126879   5.477   3.547   0.826
 8660SOL    HW226880   5.550   3.452   0.714
 8661SOL     OW26881   0.134   4.126   1.547
 8661SOL    HW126882   0.192   4.171   1.480
 8661SOL    HW226883   0.174   4.037   1.572
 8662SOL     OW26884   6.728   6.679   0.862
 8662SOL    HW126885   6.788   6.698   0.939
 8662SOL    HW226886   6.646   6.737   0.869
 8663SOL     OW26887   2.517   5.582   0.563
 8663SOL    HW126888   2.459   5.593   0.643
 8663SOL    HW226889   2.613   5.581   0.592
 8664SOL     OW26890   4.391   5.873   0.082
 8664SOL    HW126891   4.415   5.794   0.025
 8664SOL    HW226892   4.341   5.939   0.027
 8665SOL     OW26893   4.641   5.737   5.527
 8665SOL    HW126894   4.646   5.642   5.556
 8665SOL    HW226895   4.625   5.796   5.607
 8666SOL     OW26896   5.255   2.673   4.952
 8666SOL    HW126897   5.266   2.663   5.050
 8666SOL    HW226898   5.341   2.652   4.906
 8667SOL     OW26899   5.199   1.257   3.891
 8667SOL    HW126900   5.255   1.254   3.973
 8667SOL    HW226901   5.234   1.328   3.829
 8668SOL     OW26902   4.871   2.203   4.320
 8668SOL    HW126903   4.845   2.114   4.281
 8668SOL    HW226904   4.835   2.276   4.263
 8669SOL     OW26905   4.073   0.071   5.755
 8669SOL    HW126906   4.070   0.146   5.821
 8669SOL    HW226907   4.017   0.094   5.676
 8670SOL     OW26908   3.366   5.706   4.154
 8670SOL    HW126909   3.446   5.695   4.213
 8670SOL    HW226910   3.319   5.619   4.144
 8671SOL     OW26911   6.067   6.880   3.559
 8671SOL    HW126912   6.024   6.807   3.506
 8671SOL    HW226913   6.153   6.847   3.598
 8672SOL     OW26914   3.329   5.184   4.391
 8672SOL    HW126915   3.398   5.254   4.411
 8672SOL    HW226916   3.358   5.097   4.430
 8673SOL     OW26917   6.199   2.165   0.828
 8673SOL    HW126918   6.270   2.234   0.840
 8673SOL    HW226919   6.208   2.095   0.900
 8674SOL     OW26920   6.922   0.299   3.014
 8674SOL    HW126921   6.917   0.199   3.017
 8674SOL    HW226922   6.840   0.338   3.054
 8675SOL     OW26923   2.192   0.998   3.256
 8675SOL    HW126924   2.206   0.975   3.160
 8675SOL    HW226925   2.154   0.919   3.304
 8676SOL     OW26926   4.213   0.070   2.772
 8676SOL    HW126927   4.230   6.990   2.771
 8676SOL    HW226928   4.197   0.102   2.678
 8677SOL     OW26929   2.725   4.504   6.197
 8677SOL    HW126930   2.685   4.436   6.135
 8677SOL    HW226931   2.749   4.586   6.146
 8678SOL     OW26932   1.231   0.233   6.758
 8678SOL    HW126933   1.152   0.291   6.781
 8678SOL    HW226934   1.242   0.231   6.659
 8679SOL     OW26935   6.193   2.223   5.392
 8679SOL    HW126936   6.201   2.280   5.310
 8679SOL    HW226937   6.165   2.131   5.366
 8680SOL     OW26938   1.255   3.621   0.268
 8680SOL    HW126939   1.263   3.522   0.285
 8680SOL    HW226940   1.268   3.639   0.171
 8681SOL     OW26941   4.082   4.173   0.479
 8681SOL    HW126942   4.069   4.221   0.565
 8681SOL    HW226943   4.093   4.075   0.496
 8682SOL     OW26944   2.567   6.181   2.702
 8682SOL    HW126945   2.578   6.177   2.603
 8682SOL    HW226946   2.632   6.118   2.745
 8683SOL     OW26947   0.180   3.085   1.476
 8683SOL    HW126948   0.191   3.141   1.393
 8683SOL    HW226949   0.231   3.000   1.465
 8684SOL     OW26950   6.157   3.375   4.707
 8684SOL    HW126951   6.172   3.462   4.754
 8684SOL    HW226952   6.091   3.387   4.633
 8685SOL     OW26953   0.556   1.989   6.516
 8685SOL    HW126954   0.482   2.037   6.563
 8685SOL    HW226955   0.554   1.892   6.539
 8686SOL     OW26956   0.079   2.136   2.713
 8686SOL    HW126957   0.123   2.187   2.787
 8686SOL    HW226958   0.064   2.042   2.742
 8687SOL     OW26959   3.461   6.795   2.303
 8687SOL    HW126960   3.394   6.721   2.310
 8687SOL    HW226961   3.445   6.861   2.376
 8688SOL     OW26962   2.382   0.321   1.466
 8688SOL    HW126963   2.333   0.235   1.482
 8688SOL    HW226964   2.402   0.364   1.554
 8689SOL     OW26965   4.769   5.942   0.363
 8689SOL    HW126966   4.680   5.967   0.325
 8689SOL    HW226967   4.787   5.998   0.444
 8690SOL     OW26968   0.616   1.816   3.279
 8690SOL    HW126969   0.644   1.722   3.297
 8690SOL    HW226970   0.590   1.860   3.365
 8691SOL     OW26971   4.795   2.476   6.383
 8691SOL    HW126972   4.701   2.448   6.401
 8691SOL    HW226973   4.824   2.541   6.453
 8692SOL     OW26974   2.411   2.132   3.872
 8692SOL    HW126975   2.341   2.061   3.871
 8692SOL    HW226976   2.494   2.096   3.915
 8693SOL     OW26977   5.671   1.976   1.044
 8693SOL    HW126978   5.615   1.962   0.962
 8693SOL    HW226979   5.694   2.073   1.052
 8694SOL     OW26980   4.541   0.031   6.162
 8694SOL    HW126981   4.492   0.029   6.075
 8694SOL    HW226982   4.503   6.980   6.223
 8695SOL     OW26983   5.257   3.681   5.703
 8695SOL    HW126984   5.286   3.627   5.625
 8695SOL    HW226985   5.237   3.775   5.674
 8696SOL     OW26986   2.388   6.091   1.045
 8696SOL    HW126987   2.454   6.078   0.970
 8696SOL    HW226988   2.426   6.052   1.129
 8697SOL     OW26989   6.595   3.649   0.638
 8697SOL    HW126990   6.623   3.684   0.727
 8697SOL    HW226991   6.497   3.628   0.640
 8698SOL     OW26992   5.168   6.127   4.472
 8698SOL    HW126993   5.139   6.213   4.429
 8698SOL    HW226994   5.089   6.068   4.485
 8699SOL     OW26995   1.415   1.590   5.676
 8699SOL    HW126996   1.341   1.592   5.608
 8699SOL    HW226997   1.377   1.567   5.766
 8700SOL     OW26998   2.808   1.015   5.094
 8700SOL    HW126999   2.876   1.030   5.022
 8700SOL    HW227000   2.719   0.998   5.053
 8701SOL     OW27001   0.583   1.054   4.788
 8701SOL    HW127002   0.583   1.096   4.879
 8701SOL    HW227003   0.676   1.026   4.764
 8702SOL     OW27004   5.500   5.024   0.274
 8702SOL    HW127005   5.552   4.942   0.299
 8702SOL    HW227006   5.421   4.997   0.219
 8703SOL     OW27007   2.853   5.800   0.907
 8703SOL    HW127008   2.764   5.788   0.951
 8703SOL    HW227009   2.905   5.870   0.955
 8704SOL     OW27010   0.126   4.837   2.071
 8704SOL    HW127011   0.208   4.788   2.041
 8704SOL    HW227012   0.153   4.926   2.110
 8705SOL     OW27013   4.959   6.904   6.509
 8705SOL    HW127014   4.900   6.980   6.535
 8705SOL    HW227015   4.904   6.831   6.468
 8706SOL     OW27016   5.005   2.020   6.992
 8706SOL    HW127017   5.007   1.920   7.002
 8706SOL    HW227018   5.084   2.060   0.019
 8707SOL     OW27019   4.710   3.196   6.393
 8707SOL    HW127020   4.734   3.242   6.479
 8707SOL    HW227021   4.788   3.200   6.331
 8708SOL     OW27022   4.187   1.121   1.533
 8708SOL    HW127023   4.228   1.031   1.547
 8708SOL    HW227024   4.093   1.120   1.568
 8709SOL     OW27025   6.968   4.235   0.775
 8709SOL    HW127026   6.897   4.282   0.827
 8709SOL    HW227027   7.002   4.295   0.703
 8710SOL     OW27028   2.138   3.624   2.853
 8710SOL    HW127029   2.176   3.682   2.781
 8710SOL    HW227030   2.121   3.532   2.817
 8711SOL     OW27031   6.394   0.734   3.220
 8711SOL    HW127032   6.372   0.665   3.150
 8711SOL    HW227033   6.492   0.755   3.217
 8712SOL     OW27034   3.273   1.199   4.987
 8712SOL    HW127035   3.309   1.287   5.016
 8712SOL    HW227036   3.335   1.158   4.919
 8713SOL     OW27037   6.531   4.657   3.849
 8713SOL    HW127038   6.552   4.744   3.893
 8713SOL    HW227039   6.615   4.611   3.823
 8714SOL     OW27040   1.391   0.700   5.710
 8714SOL    HW127041   1.309   0.646   5.695
 8714SOL    HW227042   1.367   0.786   5.756
 8715SOL     OW27043   6.608   1.865   1.687
 8715SOL    HW127044   6.539   1.925   1.647
 8715SOL    HW227045   6.676   1.921   1.736
 8716SOL     OW27046   1.003   1.424   1.578
 8716SOL    HW127047   1.027   1.355   1.647
 8716SOL    HW227048   1.078   1.432   1.512
 8717SOL     OW27049   4.172   3.691   1.762
 8717SOL    HW127050   4.230   3.773   1.766
 8717SOL    HW227051   4.125   3.680   1.850
 8718SOL     OW27052   0.044   2.863   4.922
 8718SOL    HW127053   7.017   2.889   4.837
 8718SOL    HW227054   0.143   2.870   4.910
 8719SOL     OW27055   1.024   0.530   5.338
 8719SOL    HW127056   1.048   0.456   5.402
 8719SOL    HW227057   0.986   0.491   5.255
 8720SOL     OW27058   5.763   4.375   5.294
 8720SOL    HW127059   5.712   4.290   5.293
 8720SOL    HW227060   5.834   4.372   5.223
 8721SOL     OW27061   6.907   2.407   4.670
 8721SOL    HW127062   6.849   2.393   4.750
 8721SOL    HW227063   6.961   2.490   4.682
 8722SOL     OW27064   3.864   2.371   0.798
 8722SOL    HW127065   3.877   2.318   0.715
 8722SOL    HW227066   3.917   2.456   0.792
 8723SOL     OW27067   6.913   5.341   0.813
 8723SOL    HW127068   6.914   5.362   0.715
 8723SOL    HW227069   6.964   5.411   0.863
 8724SOL     OW27070   5.506   0.547   5.658
 8724SOL    HW127071   5.539   0.457   5.631
 8724SOL    HW227072   5.502   0.554   5.757
 8725SOL     OW27073   1.992   0.010   0.241
 8725SOL    HW127074   1.940   6.952   0.279
 8725SOL    HW227075   2.023   7.006   0.149
 8726SOL     OW27076   5.820   0.387   1.536
 8726SOL    HW127077   5.868   0.301   1.553
 8726SOL    HW227078   5.766   0.411   1.617
 8727SOL     OW27079   6.340   6.745   1.590
 8727SOL    HW127080   6.308   6.664   1.638
 8727SOL    HW227081   6.404   6.796   1.649
 8728SOL     OW27082   2.820   6.579   4.754
 8728SOL    HW127083   2.919   6.562   4.753
 8728SOL    HW227084   2.782   6.557   4.664
 8729SOL     OW27085   3.984   5.679   3.565
 8729SOL    HW127086   4.051   5.627   3.619
 8729SOL    HW227087   4.028   5.761   3.528
 8730SOL     OW27088   0.436   6.091   1.942
 8730SOL    HW127089   0.355   6.136   1.980
 8730SOL    HW227090   0.425   6.078   1.844
 8731SOL     OW27091   1.387   1.963   3.253
 8731SOL    HW127092   1.382   1.913   3.339
 8731SOL    HW227093   1.341   1.911   3.181
 8732SOL     OW27094   5.653   3.470   1.448
 8732SOL    HW127095   5.665   3.374   1.474
 8732SOL    HW227096   5.591   3.476   1.370
 8733SOL     OW27097   1.236   6.581   2.060
 8733SOL    HW127098   1.196   6.645   1.995
 8733SOL    HW227099   1.214   6.609   2.153
 8734SOL     OW27100   0.042   5.967   0.905
 8734SOL    HW127101   0.137   5.968   0.937
 8734SOL    HW227102   0.002   5.877   0.923
 8735SOL     OW27103   6.893   1.402   6.635
 8735SOL    HW127104   6.816   1.466   6.639
 8735SOL    HW227105   6.979   1.453   6.633
 8736SOL     OW27106   0.796   4.596   7.005
 8736SOL    HW127107   0.820   4.553   6.918
 8736SOL    HW227108   0.829   4.541   0.063
 8737SOL     OW27109   3.574   6.241   6.391
 8737SOL    HW127110   3.664   6.284   6.380
 8737SOL    HW227111   3.576   6.149   6.351
 8738SOL     OW27112   1.623   3.784   3.868
 8738SOL    HW127113   1.595   3.729   3.789
 8738SOL    HW227114   1.554   3.776   3.940
 8739SOL     OW27115   7.010   3.519   5.739
 8739SOL    HW127116   6.956   3.436   5.755
 8739SOL    HW227117   0.076   3.496   5.691
 8740SOL     OW27118   2.964   0.060   6.968
 8740SOL    HW127119   2.933   6.987   6.943
 8740SOL    HW227120   3.061   0.057   6.991
 8741SOL     OW27121   1.292   3.198   2.583
 8741SOL    HW127122   1.280   3.101   2.562
 8741SOL    HW227123   1.232   3.253   2.525
 8742SOL     OW27124   4.537   6.998   1.672
 8742SOL    HW127125   4.543   0.067   1.720
 8742SOL    HW227126   4.524   6.924   1.738
 8743SOL     OW27127   2.384   5.554   2.296
 8743SOL    HW127128   2.421   5.551   2.203
 8743SOL    HW227129   2.290   5.520   2.295
 8744SOL     OW27130   4.001   2.626   6.501
 8744SOL    HW127131   4.075   2.567   6.468
 8744SOL    HW227132   4.014   2.644   6.599
 8745SOL     OW27133   6.416   2.419   5.731
 8745SOL    HW127134   6.451   2.491   5.671
 8745SOL    HW227135   6.492   2.381   5.785
 8746SOL     OW27136   5.057   5.131   5.141
 8746SOL    HW127137   5.003   5.215   5.138
 8746SOL    HW227138   5.001   5.057   5.179
 8747SOL     OW27139   1.702   2.683   4.191
 8747SOL    HW127140   1.700   2.783   4.190
 8747SOL    HW227141   1.706   2.649   4.097
 8748SOL     OW27142   1.274   0.593   6.756
 8748SOL    HW127143   1.328   0.620   6.835
 8748SOL    HW227144   1.332   0.593   6.674
 8749SOL     OW27145   3.931   0.537   3.475
 8749SOL    HW127146   3.943   0.484   3.391
 8749SOL    HW227147   3.875   0.485   3.540
 8750SOL     OW27148   1.931   1.725   4.959
 8750SOL    HW127149   1.869   1.740   5.036
 8750SOL    HW227150   1.979   1.638   4.972
 8751SOL     OW27151   1.217   0.397   2.352
 8751SOL    HW127152   1.280   0.472   2.332
 8751SOL    HW227153   1.247   0.349   2.435
 8752SOL     OW27154   1.767   3.414   6.223
 8752SOL    HW127155   1.778   3.351   6.146
 8752SOL    HW227156   1.671   3.443   6.229
 8753SOL     OW27157   5.372   1.367   4.824
 8753SOL    HW127158   5.375   1.285   4.767
 8753SOL    HW227159   5.376   1.448   4.765
 8754SOL     OW27160   1.576   1.911   5.962
 8754SOL    HW127161   1.503   1.859   6.004
 8754SOL    HW227162   1.631   1.850   5.905
 8755SOL     OW27163   2.347   1.235   0.094
 8755SOL    HW127164   2.253   1.220   0.125
 8755SOL    HW227165   2.410   1.226   0.171
 8756SOL     OW27166   2.238   3.023   4.112
 8756SOL    HW127167   2.164   2.988   4.055
 8756SOL    HW227168   2.307   3.066   4.054
 8757SOL     OW27169   4.563   6.158   4.888
 8757SOL    HW127170   4.619   6.076   4.871
 8757SOL    HW227171   4.471   6.143   4.853
 8758SOL     OW27172   6.543   6.666   2.032
 8758SOL    HW127173   6.605   6.737   1.999
 8758SOL    HW227174   6.592   6.579   2.038
 8759SOL     OW27175   4.822   0.488   5.868
 8759SOL    HW127176   4.798   0.393   5.888
 8759SOL    HW227177   4.746   0.531   5.819
 8760SOL     OW27178   1.725   1.419   4.368
 8760SOL    HW127179   1.758   1.504   4.328
 8760SOL    HW227180   1.684   1.362   4.296
 8761SOL     OW27181   4.668   6.976   6.915
 8761SOL    HW127182   4.636   0.022   6.846
 8761SOL    HW227183   4.757   7.006   6.950
 8762SOL     OW27184   1.219   3.926   1.417
 8762SOL    HW127185   1.267   3.850   1.373
 8762SOL    HW227186   1.156   3.968   1.351
 8763SOL     OW27187   0.412   6.324   5.790
 8763SOL    HW127188   0.379   6.418   5.794
 8763SOL    HW227189   0.335   6.260   5.787
 8764SOL     OW27190   4.513   1.711   4.207
 8764SOL    HW127191   4.520   1.614   4.232
 8764SOL    HW227192   4.464   1.720   4.121
 8765SOL     OW27193   6.158   6.775   4.356
 8765SOL    HW127194   6.105   6.747   4.275
 8765SOL    HW227195   6.161   6.875   4.360
 8766SOL     OW27196   2.125   4.786   2.812
 8766SOL    HW127197   2.102   4.693   2.782
 8766SOL    HW227198   2.223   4.801   2.801
 8767SOL     OW27199   4.581   0.901   3.338
 8767SOL    HW127200   4.556   0.821   3.392
 8767SOL    HW227201   4.502   0.960   3.327
 8768SOL     OW27202   2.091   3.143   0.170
 8768SOL    HW127203   2.120   3.153   0.075
 8768SOL    HW227204   2.050   3.229   0.201
 8769SOL     OW27205   1.820   6.835   5.975
 8769SOL    HW127206   1.863   6.924   5.984
 8769SOL    HW227207   1.726   6.847   5.942
 8770SOL     OW27208   5.221   3.045   1.481
 8770SOL    HW127209   5.145   2.989   1.514
 8770SOL    HW227210   5.247   3.014   1.390
 8771SOL     OW27211   1.249   1.545   6.532
 8771SOL    HW127212   1.318   1.500   6.476
 8771SOL    HW227213   1.162   1.497   6.523
 8772SOL     OW27214   5.688   1.304   6.278
 8772SOL    HW127215   5.729   1.216   6.300
 8772SOL    HW227216   5.746   1.378   6.312
 8773SOL     OW27217   2.641   2.400   3.304
 8773SOL    HW127218   2.615   2.446   3.388
 8773SOL    HW227219   2.689   2.315   3.326
 8774SOL     OW27220   0.938   1.624   1.075
 8774SOL    HW127221   1.007   1.572   1.026
 8774SOL    HW227222   0.949   1.609   1.174
 8775SOL     OW27223   6.239   0.023   3.452
 8775SOL    HW127224   6.168   6.982   3.490
 8775SOL    HW227225   6.320   0.020   3.511
 8776SOL     OW27226   3.612   3.147   5.147
 8776SOL    HW127227   3.583   3.222   5.088
 8776SOL    HW227228   3.571   3.062   5.114
 8777SOL     OW27229   6.331   6.535   1.916
 8777SOL    HW127230   6.406   6.588   1.955
 8777SOL    HW227231   6.244   6.568   1.953
 8778SOL     OW27232   0.230   1.942   3.760
 8778SOL    HW127233   0.234   1.989   3.849
 8778SOL    HW227234   0.266   2.003   3.689
 8779SOL     OW27235   1.442   4.776   0.988
 8779SOL    HW127236   1.409   4.738   1.074
 8779SOL    HW227237   1.364   4.805   0.932
 8780SOL     OW27238   0.904   5.399   4.353
 8780SOL    HW127239   0.920   5.382   4.450
 8780SOL    HW227240   0.886   5.497   4.339
 8781SOL     OW27241   0.838   2.230   3.407
 8781SOL    HW127242   0.890   2.242   3.323
 8781SOL    HW227243   0.874   2.293   3.477
 8782SOL     OW27244   4.097   1.264   3.217
 8782SOL    HW127245   4.070   1.206   3.140
 8782SOL    HW227246   4.162   1.333   3.185
 8783SOL     OW27247   6.099   4.048   4.464
 8783SOL    HW127248   6.039   3.977   4.500
 8783SOL    HW227249   6.084   4.059   4.366
 8784SOL     OW27250   5.399   4.851   5.828
 8784SOL    HW127251   5.370   4.890   5.741
 8784SOL    HW227252   5.349   4.766   5.844
 8785SOL     OW27253   6.112   4.562   6.881
 8785SOL    HW127254   6.065   4.638   6.837
 8785SOL    HW227255   6.126   4.584   6.978
 8786SOL     OW27256   1.797   6.850   0.258
 8786SOL    HW127257   1.726   6.914   0.230
 8786SOL    HW227258   1.778   6.818   0.351
 8787SOL     OW27259   1.511   3.793   1.534
 8787SOL    HW127260   1.489   3.844   1.451
 8787SOL    HW227261   1.605   3.815   1.562
 8788SOL     OW27262   0.778   1.781   5.285
 8788SOL    HW127263   0.770   1.881   5.284
 8788SOL    HW227264   0.827   1.753   5.368
 8789SOL     OW27265   6.634   0.266   6.321
 8789SOL    HW127266   6.658   0.291   6.415
 8789SOL    HW227267   6.535   0.273   6.309
 8790SOL     OW27268   6.110   1.936   6.806
 8790SOL    HW127269   6.025   1.924   6.857
 8790SOL    HW227270   6.173   1.861   6.827
 8791SOL     OW27271   4.537   6.469   5.897
 8791SOL    HW127272   4.586   6.519   5.825
 8791SOL    HW227273   4.556   6.371   5.888
 8792SOL     OW27274   4.888   6.799   2.945
 8792SOL    HW127275   4.941   6.717   2.967
 8792SOL    HW227276   4.822   6.817   3.018
 8793SOL     OW27277   1.678   6.103   3.831
 8793SOL    HW127278   1.598   6.118   3.773
 8793SOL    HW227279   1.755   6.075   3.774
 8794SOL     OW27280   1.941   0.163   2.484
 8794SOL    HW127281   1.925   0.242   2.425
 8794SOL    HW227282   1.978   0.087   2.429
 8795SOL     OW27283   1.864   6.399   5.469
 8795SOL    HW127284   1.836   6.445   5.385
 8795SOL    HW227285   1.934   6.453   5.516
 8796SOL     OW27286   4.609   2.316   5.653
 8796SOL    HW127287   4.538   2.379   5.682
 8796SOL    HW227288   4.686   2.367   5.614
 8797SOL     OW27289   0.085   6.691   6.980
 8797SOL    HW127290   0.135   6.708   6.895
 8797SOL    HW227291   0.012   6.625   6.963
 8798SOL     OW27292   5.181   3.623   5.384
 8798SOL    HW127293   5.240   3.703   5.381
 8798SOL    HW227294   5.119   3.625   5.305
 8799SOL     OW27295   3.238   4.906   3.257
 8799SOL    HW127296   3.322   4.884   3.208
 8799SOL    HW227297   3.196   4.822   3.291
 8800SOL     OW27298   4.374   4.936   6.751
 8800SOL    HW127299   4.373   4.839   6.727
 8800SOL    HW227300   4.443   4.983   6.696
 8801SOL     OW27301   2.606   1.325   4.875
 8801SOL    HW127302   2.679   1.282   4.821
 8801SOL    HW227303   2.647   1.389   4.940
 8802SOL     OW27304   2.556   6.230   2.161
 8802SOL    HW127305   2.533   6.327   2.154
 8802SOL    HW227306   2.524   6.182   2.079
 8803SOL     OW27307   3.172   5.288   6.826
 8803SOL    HW127308   3.120   5.373   6.833
 8803SOL    HW227309   3.173   5.242   6.915
 8804SOL     OW27310   4.998   0.840   1.082
 8804SOL    HW127311   5.049   0.843   1.168
 8804SOL    HW227312   4.902   0.861   1.099
 8805SOL     OW27313   0.772   0.233   2.926
 8805SOL    HW127314   0.683   0.192   2.947
 8805SOL    HW227315   0.823   0.247   3.010
 8806SOL     OW27316   1.554   5.010   6.978
 8806SOL    HW127317   1.577   4.914   6.958
 8806SOL    HW227318   1.592   5.069   6.907
 8807SOL     OW27319   0.444   6.197   6.242
 8807SOL    HW127320   0.350   6.162   6.247
 8807SOL    HW227321   0.504   6.137   6.294
 8808SOL     OW27322   4.985   1.297   0.199
 8808SOL    HW127323   5.083   1.274   0.191
 8808SOL    HW227324   4.933   1.243   0.133
 8809SOL     OW27325   5.530   3.488   1.169
 8809SOL    HW127326   5.607   3.428   1.144
 8809SOL    HW227327   5.484   3.519   1.086
 8810SOL     OW27328   4.108   1.282   4.007
 8810SOL    HW127329   4.134   1.225   3.929
 8810SOL    HW227330   4.177   1.352   4.022
 8811SOL     OW27331   1.274   1.859   2.675
 8811SOL    HW127332   1.373   1.854   2.686
 8811SOL    HW227333   1.244   1.788   2.610
 8812SOL     OW27334   1.664   0.937   0.504
 8812SOL    HW127335   1.585   0.999   0.510
 8812SOL    HW227336   1.721   0.948   0.585
 8813SOL     OW27337   2.020   6.629   1.962
 8813SOL    HW127338   1.949   6.697   1.947
 8813SOL    HW227339   2.001   6.579   2.047
 8814SOL     OW27340   6.016   0.783   6.271
 8814SOL    HW127341   6.110   0.785   6.305
 8814SOL    HW227342   5.955   0.825   6.339
 8815SOL     OW27343   0.057   5.946   2.343
 8815SOL    HW127344   0.140   5.996   2.320
 8815SOL    HW227345   0.035   5.882   2.269
 8816SOL     OW27346   1.433   5.914   1.053
 8816SOL    HW127347   1.385   5.967   1.123
 8816SOL    HW227348   1.442   5.970   0.970
 8817SOL     OW27349   1.551   5.116   5.155
 8817SOL    HW127350   1.559   5.193   5.219
 8817SOL    HW227351   1.488   5.048   5.192
 8818SOL     OW27352   0.250   5.286   4.172
 8818SOL    HW127353   0.231   5.384   4.167
 8818SOL    HW227354   0.350   5.272   4.171
 8819SOL     OW27355   4.472   6.577   4.401
 8819SOL    HW127356   4.568   6.603   4.395
 8819SOL    HW227357   4.429   6.589   4.312
 8820SOL     OW27358   1.433   2.113   4.141
 8820SOL    HW127359   1.391   2.189   4.091
 8820SOL    HW227360   1.519   2.089   4.097
 8821SOL     OW27361   2.611   0.440   6.680
 8821SOL    HW127362   2.587   0.529   6.720
 8821SOL    HW227363   2.560   0.368   6.726
 8822SOL     OW27364   0.597   1.953   3.830
 8822SOL    HW127365   0.526   1.989   3.891
 8822SOL    HW227366   0.666   2.023   3.813
 8823SOL     OW27367   1.783   6.613   1.004
 8823SOL    HW127368   1.704   6.573   0.959
 8823SOL    HW227369   1.765   6.620   1.102
 8824SOL     OW27370   3.457   3.668   0.728
 8824SOL    HW127371   3.553   3.646   0.715
 8824SOL    HW227372   3.406   3.584   0.749
 8825SOL     OW27373   0.776   1.561   2.212
 8825SOL    HW127374   0.712   1.574   2.136
 8825SOL    HW227375   0.855   1.508   2.180
 8826SOL     OW27376   5.056   1.344   6.652
 8826SOL    HW127377   5.068   1.378   6.746
 8826SOL    HW227378   5.145   1.343   6.605
 8827SOL     OW27379   1.258   1.415   3.473
 8827SOL    HW127380   1.315   1.416   3.555
 8827SOL    HW227381   1.273   1.499   3.421
 8828SOL     OW27382   3.198   6.953   2.666
 8828SOL    HW127383   3.263   6.998   2.605
 8828SOL    HW227384   3.105   6.978   2.640
 8829SOL     OW27385   0.450   2.038   0.026
 8829SOL    HW127386   0.418   2.110   0.087
 8829SOL    HW227387   0.521   1.985   0.072
 8830SOL     OW27388   0.843   1.822   0.672
 8830SOL    HW127389   0.835   1.740   0.728
 8830SOL    HW227390   0.843   1.903   0.731
 8831SOL     OW27391   6.509   1.086   3.000
 8831SOL    HW127392   6.512   1.163   3.063
 8831SOL    HW227393   6.599   1.043   2.995
 8832SOL     OW27394   6.093   0.711   2.311
 8832SOL    HW127395   6.099   0.770   2.391
 8832SOL    HW227396   6.021   0.743   2.250
 8833SOL     OW27397   2.242   4.762   4.007
 8833SOL    HW127398   2.175   4.756   3.934
 8833SOL    HW227399   2.324   4.808   3.973
 8834SOL     OW27400   5.958   3.374   4.983
 8834SOL    HW127401   5.923   3.297   5.036
 8834SOL    HW227402   6.055   3.388   5.006
 8835SOL     OW27403   6.680   6.941   5.686
 8835SOL    HW127404   6.635   0.007   5.657
 8835SOL    HW227405   6.740   6.961   5.764
 8836SOL     OW27406   4.294   1.241   6.978
 8836SOL    HW127407   4.200   1.226   7.009
 8836SOL    HW227408   4.345   1.155   6.983
 8837SOL     OW27409   0.383   1.406   1.954
 8837SOL    HW127410   0.352   1.501   1.951
 8837SOL    HW227411   0.329   1.351   1.890
 8838SOL     OW27412   2.433   5.068   3.198
 8838SOL    HW127413   2.361   5.000   3.214
 8838SOL    HW227414   2.393   5.160   3.201
 8839SOL     OW27415   6.693   6.273   3.586
 8839SOL    HW127416   6.658   6.355   3.541
 8839SOL    HW227417   6.791   6.264   3.569
 8840SOL     OW27418   5.808   2.318   1.799
 8840SOL    HW127419   5.776   2.370   1.878
 8840SOL    HW227420   5.828   2.381   1.724
 8841SOL     OW27421   1.266   1.332   5.633
 8841SOL    HW127422   1.345   1.362   5.688
 8841SOL    HW227423   1.297   1.310   5.540
 8842SOL     OW27424   2.416   2.828   1.818
 8842SOL    HW127425   2.471   2.775   1.881
 8842SOL    HW227426   2.319   2.820   1.842
 8843SOL     OW27427   1.136   2.767   5.315
 8843SOL    HW127428   1.097   2.773   5.407
 8843SOL    HW227429   1.157   2.859   5.282
 8844SOL     OW27430   6.545   0.936   6.156
 8844SOL    HW127431   6.585   0.919   6.246
 8844SOL    HW227432   6.564   1.030   6.128
 8845SOL     OW27433   5.821   4.533   6.995
 8845SOL    HW127434   5.910   4.565   6.964
 8845SOL    HW227435   5.810   4.553   0.074
 8846SOL     OW27436   1.906   4.624   4.184
 8846SOL    HW127437   1.817   4.660   4.213
 8846SOL    HW227438   1.943   4.565   4.256
 8847SOL     OW27439   3.161   0.072   2.288
 8847SOL    HW127440   3.174   0.007   2.214
 8847SOL    HW227441   3.067   0.065   2.322
 8848SOL     OW27442   1.407   0.701   2.676
 8848SOL    HW127443   1.414   0.745   2.586
 8848SOL    HW227444   1.485   0.728   2.732
 8849SOL     OW27445   2.771   6.664   1.255
 8849SOL    HW127446   2.682   6.624   1.276
 8849SOL    HW227447   2.825   6.598   1.204
 8850SOL     OW27448   3.461   2.540   6.591
 8850SOL    HW127449   3.403   2.465   6.559
 8850SOL    HW227450   3.556   2.510   6.592
 8851SOL     OW27451   1.487   4.207   2.761
 8851SOL    HW127452   1.431   4.125   2.747
 8851SOL    HW227453   1.566   4.185   2.818
 8852SOL     OW27454   1.210   1.769   6.282
 8852SOL    HW127455   1.141   1.826   6.239
 8852SOL    HW227456   1.217   1.792   6.380
 8853SOL     OW27457   3.903   0.943   0.439
 8853SOL    HW127458   3.897   1.019   0.503
 8853SOL    HW227459   3.999   0.916   0.429
 8854SOL     OW27460   1.118   3.801   4.782
 8854SOL    HW127461   1.107   3.763   4.690
 8854SOL    HW227462   1.189   3.872   4.780
 8855SOL     OW27463   6.122   5.745   0.913
 8855SOL    HW127464   6.093   5.829   0.867
 8855SOL    HW227465   6.086   5.666   0.863
 8856SOL     OW27466   0.267   5.553   6.183
 8856SOL    HW127467   0.294   5.568   6.088
 8856SOL    HW227468   0.338   5.588   6.244
 8857SOL     OW27469   6.283   1.498   5.708
 8857SOL    HW127470   6.307   1.460   5.619
 8857SOL    HW227471   6.232   1.583   5.695
 8858SOL     OW27472   6.204   5.281   4.670
 8858SOL    HW127473   6.192   5.219   4.593
 8858SOL    HW227474   6.301   5.287   4.694
 8859SOL     OW27475   0.772   0.403   3.554
 8859SOL    HW127476   0.728   0.313   3.559
 8859SOL    HW227477   0.776   0.443   3.646
 8860SOL     OW27478   6.672   2.877   2.277
 8860SOL    HW127479   6.672   2.966   2.322
 8860SOL    HW227480   6.633   2.886   2.185
 8861SOL     OW27481   4.832   2.219   1.990
 8861SOL    HW127482   4.755   2.193   2.047
 8861SOL    HW227483   4.873   2.304   2.026
 8862SOL     OW27484   4.624   5.324   5.367
 8862SOL    HW127485   4.664   5.234   5.350
 8862SOL    HW227486   4.687   5.395   5.337
 8863SOL     OW27487   2.245   4.104   3.306
 8863SOL    HW127488   2.251   4.039   3.382
 8863SOL    HW227489   2.161   4.157   3.313
 8864SOL     OW27490   5.948   1.808   5.218
 8864SOL    HW127491   5.889   1.728   5.227
 8864SOL    HW227492   5.983   1.813   5.124
 8865SOL     OW27493   2.227   1.109   6.356
 8865SOL    HW127494   2.136   1.110   6.398
 8865SOL    HW227495   2.289   1.166   6.410
 8866SOL     OW27496   5.854   6.007   2.267
 8866SOL    HW127497   5.924   6.020   2.337
 8866SOL    HW227498   5.768   6.047   2.299
 8867SOL     OW27499   6.377   4.209   2.656
 8867SOL    HW127500   6.293   4.224   2.708
 8867SOL    HW227501   6.367   4.245   2.563
 8868SOL     OW27502   0.052   3.630   3.486
 8868SOL    HW127503   0.073   3.726   3.470
 8868SOL    HW227504   0.108   3.596   3.561
 8869SOL     OW27505   3.212   6.625   3.079
 8869SOL    HW127506   3.212   6.697   3.148
 8869SOL    HW227507   3.304   6.585   3.072
 8870SOL     OW27508   1.418   0.536   2.994
 8870SOL    HW127509   1.445   0.628   2.965
 8870SOL    HW227510   1.319   0.529   3.000
 8871SOL     OW27511   0.379   0.471   2.498
 8871SOL    HW127512   0.409   0.388   2.451
 8871SOL    HW227513   0.436   0.486   2.579
 8872SOL     OW27514   0.123   5.272   4.967
 8872SOL    HW127515   0.179   5.279   4.885
 8872SOL    HW227516   0.176   5.229   5.040
 8873SOL     OW27517   1.757   1.172   2.032
 8873SOL    HW127518   1.833   1.204   2.089
 8873SOL    HW227519   1.741   1.075   2.050
 8874SOL     OW27520   3.435   6.155   0.487
 8874SOL    HW127521   3.369   6.100   0.436
 8874SOL    HW227522   3.527   6.139   0.452
 8875SOL     OW27523   0.171   3.264   3.887
 8875SOL    HW127524   0.161   3.258   3.788
 8875SOL    HW227525   0.102   3.328   3.924
 8876SOL     OW27526   3.464   0.874   6.453
 8876SOL    HW127527   3.484   0.917   6.541
 8876SOL    HW227528   3.391   0.806   6.466
 8877SOL     OW27529   1.942   4.357   1.190
 8877SOL    HW127530   1.986   4.366   1.280
 8877SOL    HW227531   1.987   4.418   1.125
 8878SOL     OW27532   4.901   3.886   0.962
 8878SOL    HW127533   4.934   3.821   1.030
 8878SOL    HW227534   4.811   3.857   0.929
 8879SOL     OW27535   5.677   5.111   2.745
 8879SOL    HW127536   5.694   5.146   2.652
 8879SOL    HW227537   5.755   5.057   2.775
 8880SOL     OW27538   4.395   0.352   3.985
 8880SOL    HW127539   4.441   0.354   4.074
 8880SOL    HW227540   4.456   0.388   3.915
 8881SOL     OW27541   4.558   4.858   4.464
 8881SOL    HW127542   4.624   4.798   4.509
 8881SOL    HW227543   4.544   4.828   4.370
 8882SOL     OW27544   4.531   0.642   0.686
 8882SOL    HW127545   4.556   0.548   0.664
 8882SOL    HW227546   4.598   0.681   0.749
 8883SOL     OW27547   6.941   6.310   4.559
 8883SOL    HW127548   6.865   6.353   4.608
 8883SOL    HW227549   0.010   6.341   4.598
 8884SOL     OW27550   5.396   3.534   5.090
 8884SOL    HW127551   5.483   3.493   5.117
 8884SOL    HW227552   5.325   3.463   5.090
 8885SOL     OW27553   6.536   5.653   0.312
 8885SOL    HW127554   6.437   5.650   0.327
 8885SOL    HW227555   6.563   5.747   0.290
 8886SOL     OW27556   3.784   5.413   6.066
 8886SOL    HW127557   3.881   5.394   6.049
 8886SOL    HW227558   3.771   5.436   6.163
 8887SOL     OW27559   4.915   1.366   1.506
 8887SOL    HW127560   4.819   1.393   1.503
 8887SOL    HW227561   4.925   1.286   1.566
 8888SOL     OW27562   2.487   2.129   3.069
 8888SOL    HW127563   2.580   2.163   3.060
 8888SOL    HW227564   2.425   2.205   3.089
 8889SOL     OW27565   0.157   6.111   6.260
 8889SOL    HW127566   0.135   6.118   6.357
 8889SOL    HW227567   0.114   6.029   6.222
 8890SOL     OW27568   0.436   6.510   0.769
 8890SOL    HW127569   0.385   6.556   0.841
 8890SOL    HW227570   0.507   6.451   0.810
 8891SOL     OW27571   5.924   3.773   0.200
 8891SOL    HW127572   5.953   3.822   0.282
 8891SOL    HW227573   5.982   3.693   0.187
 8892SOL     OW27574   3.281   5.072   3.565
 8892SOL    HW127575   3.322   5.083   3.475
 8892SOL    HW227576   3.330   5.128   3.632
 8893SOL     OW27577   1.575   5.214   4.768
 8893SOL    HW127578   1.660   5.186   4.723
 8893SOL    HW227579   1.554   5.308   4.744
 8894SOL     OW27580   4.457   1.286   0.268
 8894SOL    HW127581   4.407   1.216   0.318
 8894SOL    HW227582   4.402   1.320   0.192
 8895SOL     OW27583   6.780   3.848   1.062
 8895SOL    HW127584   6.746   3.934   1.098
 8895SOL    HW227585   6.779   3.779   1.135
 8896SOL     OW27586   0.297   2.325   4.727
 8896SOL    HW127587   0.279   2.360   4.635
 8896SOL    HW227588   0.280   2.397   4.794
 8897SOL     OW27589   2.141   4.018   3.578
 8897SOL    HW127590   2.044   4.012   3.603
 8897SOL    HW227591   2.177   3.926   3.565
 8898SOL     OW27592   4.957   4.391   2.757
 8898SOL    HW127593   4.889   4.322   2.783
 8898SOL    HW227594   4.910   4.476   2.734
 8899SOL     OW27595   0.505   3.776   5.889
 8899SOL    HW127596   0.452   3.859   5.905
 8899SOL    HW227597   0.495   3.749   5.793
 8900SOL     OW27598   5.066   2.909   4.088
 8900SOL    HW127599   5.160   2.880   4.073
 8900SOL    HW227600   5.050   2.923   4.186
 8901SOL     OW27601   1.352   3.059   4.114
 8901SOL    HW127602   1.361   3.092   4.020
 8901SOL    HW227603   1.437   3.074   4.163
 8902SOL     OW27604   0.640   4.515   0.415
 8902SOL    HW127605   0.593   4.538   0.330
 8902SOL    HW227606   0.583   4.451   0.468
 8903SOL     OW27607   1.523   6.945   5.566
 8903SOL    HW127608   1.599   6.952   5.501
 8903SOL    HW227609   1.470   6.863   5.547
 8904SOL     OW27610   0.430   0.713   3.324
 8904SOL    HW127611   0.372   0.635   3.300
 8904SOL    HW227612   0.526   0.684   3.327
 8905SOL     OW27613   1.361   3.733   2.456
 8905SOL    HW127614   1.348   3.718   2.554
 8905SOL    HW227615   1.385   3.647   2.412
 8906SOL     OW27616   6.518   0.054   0.471
 8906SOL    HW127617   6.584   0.010   0.532
 8906SOL    HW227618   6.428   0.012   0.484
 8907SOL     OW27619   3.343   2.918   4.626
 8907SOL    HW127620   3.418   2.884   4.683
 8907SOL    HW227621   3.279   2.970   4.683
 8908SOL     OW27622   1.098   5.556   0.262
 8908SOL    HW127623   1.090   5.464   0.223
 8908SOL    HW227624   1.007   5.594   0.277
 8909SOL     OW27625   3.055   0.390   0.104
 8909SOL    HW127626   3.053   0.489   0.115
 8909SOL    HW227627   2.962   0.356   0.087
 8910SOL     OW27628   2.300   1.718   3.922
 8910SOL    HW127629   2.374   1.748   3.862
 8910SOL    HW227630   2.340   1.678   4.005
 8911SOL     OW27631   4.512   1.967   3.852
 8911SOL    HW127632   4.464   2.048   3.884
 8911SOL    HW227633   4.610   1.983   3.851
 8912SOL     OW27634   3.262   3.724   4.892
 8912SOL    HW127635   3.282   3.787   4.967
 8912SOL    HW227636   3.173   3.681   4.906
 8913SOL     OW27637   5.336   6.153   6.628
 8913SOL    HW127638   5.409   6.203   6.581
 8913SOL    HW227639   5.370   6.122   6.717
 8914SOL     OW27640   4.497   5.673   6.465
 8914SOL    HW127641   4.582   5.661   6.517
 8914SOL    HW227642   4.450   5.755   6.497
 8915SOL     OW27643   1.367   1.261   3.789
 8915SOL    HW127644   1.275   1.242   3.755
 8915SOL    HW227645   1.398   1.184   3.845
 8916SOL     OW27646   4.584   0.897   0.297
 8916SOL    HW127647   4.606   0.986   0.338
 8916SOL    HW227648   4.651   0.875   0.226
 8917SOL     OW27649   5.561   1.745   0.353
 8917SOL    HW127650   5.484   1.809   0.349
 8917SOL    HW227651   5.539   1.671   0.416
 8918SOL     OW27652   1.077   4.361   2.408
 8918SOL    HW127653   1.054   4.456   2.430
 8918SOL    HW227654   1.052   4.302   2.485
 8919SOL     OW27655   5.634   3.795   0.683
 8919SOL    HW127656   5.707   3.813   0.749
 8919SOL    HW227657   5.594   3.706   0.701
 8920SOL     OW27658   6.660   1.587   0.682
 8920SOL    HW127659   6.686   1.605   0.587
 8920SOL    HW227660   6.729   1.627   0.743
 8921SOL     OW27661   1.452   2.989   1.387
 8921SOL    HW127662   1.485   3.013   1.295
 8921SOL    HW227663   1.396   2.906   1.381
 8922SOL     OW27664   3.968   0.071   3.355
 8922SOL    HW127665   4.015   0.146   3.308
 8922SOL    HW227666   3.893   0.107   3.409
 8923SOL     OW27667   1.739   2.188   5.041
 8923SOL    HW127668   1.643   2.173   5.063
 8923SOL    HW227669   1.791   2.199   5.126
 8924SOL     OW27670   4.854   5.559   4.997
 8924SOL    HW127671   4.878   5.466   5.023
 8924SOL    HW227672   4.797   5.558   4.915
 8925SOL     OW27673   1.157   0.721   3.195
 8925SOL    HW127674   1.144   0.623   3.212
 8925SOL    HW227675   1.229   0.756   3.255
 8926SOL     OW27676   6.085   2.888   5.708
 8926SOL    HW127677   6.076   2.834   5.792
 8926SOL    HW227678   6.123   2.977   5.730
 8927SOL     OW27679   0.355   1.101   6.128
 8927SOL    HW127680   0.341   1.151   6.214
 8927SOL    HW227681   0.449   1.114   6.097
 8928SOL     OW27682   2.140   6.488   4.923
 8928SOL    HW127683   2.126   6.424   4.848
 8928SOL    HW227684   2.151   6.580   4.886
 8929SOL     OW27685   0.037   2.682   4.412
 8929SOL    HW127686   7.015   2.610   4.470
 8929SOL    HW227687   0.122   2.714   4.454
 8930SOL     OW27688   1.559   4.383   3.469
 8930SOL    HW127689   1.595   4.476   3.481
 8930SOL    HW227690   1.500   4.360   3.546
 8931SOL     OW27691   4.015   2.178   1.245
 8931SOL    HW127692   3.945   2.238   1.205
 8931SOL    HW227693   3.994   2.162   1.341
 8932SOL     OW27694   0.183   3.166   3.334
 8932SOL    HW127695   0.281   3.162   3.356
 8932SOL    HW227696   0.132   3.113   3.402
 8933SOL     OW27697   3.590   1.513   5.661
 8933SOL    HW127698   3.509   1.457   5.642
 8933SOL    HW227699   3.669   1.475   5.612
 8934SOL     OW27700   2.705   5.873   3.524
 8934SOL    HW127701   2.687   5.888   3.621
 8934SOL    HW227702   2.760   5.790   3.512
 8935SOL     OW27703   0.391   5.024   1.172
 8935SOL    HW127704   0.348   5.069   1.093
 8935SOL    HW227705   0.388   4.925   1.159
 8936SOL     OW27706   2.284   2.876   0.052
 8936SOL    HW127707   2.337   2.904   6.990
 8936SOL    HW227708   2.187   2.871   0.028
 8937SOL     OW27709   0.704   5.719   5.877
 8937SOL    HW127710   0.615   5.760   5.859
 8937SOL    HW227711   0.751   5.771   5.949
 8938SOL     OW27712   6.181   5.265   0.784
 8938SOL    HW127713   6.259   5.217   0.825
 8938SOL    HW227714   6.105   5.201   0.773
 8939SOL     OW27715   5.611   1.971   4.457
 8939SOL    HW127716   5.677   1.990   4.529
 8939SOL    HW227717   5.656   1.924   4.382
 8940SOL     OW27718   6.245   0.797   3.417
 8940SOL    HW127719   6.295   0.774   3.334
 8940SOL    HW227720   6.305   0.788   3.496
 8941SOL     OW27721   4.916   2.677   6.164
 8941SOL    HW127722   4.896   2.620   6.243
 8941SOL    HW227723   4.892   2.772   6.184
 8942SOL     OW27724   0.537   2.253   5.025
 8942SOL    HW127725   0.561   2.218   4.935
 8942SOL    HW227726   0.438   2.248   5.038
 8943SOL     OW27727   4.855   3.128   1.179
 8943SOL    HW127728   4.901   3.057   1.125
 8943SOL    HW227729   4.801   3.085   1.251
 8944SOL     OW27730   4.292   5.579   0.762
 8944SOL    HW127731   4.312   5.610   0.855
 8944SOL    HW227732   4.287   5.658   0.701
 8945SOL     OW27733   2.725   0.860   4.049
 8945SOL    HW127734   2.724   0.940   3.990
 8945SOL    HW227735   2.745   0.888   4.143
 8946SOL     OW27736   3.131   1.821   4.680
 8946SOL    HW127737   3.069   1.762   4.629
 8946SOL    HW227738   3.077   1.887   4.734
 8947SOL     OW27739   4.240   3.935   5.331
 8947SOL    HW127740   4.202   4.027   5.324
 8947SOL    HW227741   4.183   3.871   5.279
 8948SOL     OW27742   5.823   4.817   3.471
 8948SOL    HW127743   5.728   4.835   3.445
 8948SOL    HW227744   5.872   4.904   3.480
 8949SOL     OW27745   2.426   6.031   0.041
 8949SOL    HW127746   2.502   6.093   0.057
 8949SOL    HW227747   2.383   6.053   6.972
 8950SOL     OW27748   4.741   2.653   4.240
 8950SOL    HW127749   4.721   2.726   4.174
 8950SOL    HW227750   4.735   2.690   4.333
 8951SOL     OW27751   1.786   2.783   5.582
 8951SOL    HW127752   1.761   2.723   5.506
 8951SOL    HW227753   1.789   2.878   5.550
 8952SOL     OW27754   0.489   1.542   2.338
 8952SOL    HW127755   0.419   1.605   2.305
 8952SOL    HW227756   0.525   1.576   2.425
 8953SOL     OW27757   1.548   3.344   6.936
 8953SOL    HW127758   1.531   3.419   7.001
 8953SOL    HW227759   1.534   3.257   6.982
 8954SOL     OW27760   1.783   5.804   6.588
 8954SOL    HW127761   1.839   5.726   6.614
 8954SOL    HW227762   1.705   5.812   6.650
 8955SOL     OW27763   6.555   4.081   3.248
 8955SOL    HW127764   6.514   4.023   3.317
 8955SOL    HW227765   6.581   4.169   3.289
 8956SOL     OW27766   0.741   0.689   5.726
 8956SOL    HW127767   0.776   0.605   5.686
 8956SOL    HW227768   0.642   0.683   5.735
 8957SOL     OW27769   2.768   4.715   2.439
 8957SOL    HW127770   2.844   4.712   2.375
 8957SOL    HW227771   2.682   4.705   2.388
 8958SOL     OW27772   1.798   6.564   4.215
 8958SOL    HW127773   1.881   6.568   4.160
 8958SOL    HW227774   1.720   6.544   4.156
 8959SOL     OW27775   1.689   4.511   0.394
 8959SOL    HW127776   1.678   4.586   0.459
 8959SOL    HW227777   1.765   4.453   0.422
 8960SOL     OW27778   3.747   5.597   1.566
 8960SOL    HW127779   3.688   5.532   1.613
 8960SOL    HW227780   3.837   5.556   1.551
 8961SOL     OW27781   1.796   1.939   3.793
 8961SOL    HW127782   1.852   2.014   3.828
 8961SOL    HW227783   1.716   1.927   3.851
 8962SOL     OW27784   6.034   0.551   3.341
 8962SOL    HW127785   6.043   0.560   3.242
 8962SOL    HW227786   6.093   0.618   3.386
 8963SOL     OW27787   6.261   0.663   4.490
 8963SOL    HW127788   6.221   0.747   4.528
 8963SOL    HW227789   6.283   0.677   4.393
 8964SOL     OW27790   5.424   4.512   2.166
 8964SOL    HW127791   5.335   4.478   2.197
 8964SOL    HW227792   5.411   4.574   2.089
 8965SOL     OW27793   1.546   5.158   1.833
 8965SOL    HW127794   1.640   5.193   1.828
 8965SOL    HW227795   1.506   5.156   1.742
 8966SOL     OW27796   1.874   2.524   6.383
 8966SOL    HW127797   1.933   2.479   6.316
 8966SOL    HW227798   1.781   2.486   6.377
 8967SOL     OW27799   4.634   0.491   0.177
 8967SOL    HW127800   4.550   0.541   0.199
 8967SOL    HW227801   4.617   0.393   0.185
 8968SOL     OW27802   4.826   6.094   1.574
 8968SOL    HW127803   4.882   6.014   1.552
 8968SOL    HW227804   4.779   6.126   1.491
 8969SOL     OW27805   6.400   0.611   4.194
 8969SOL    HW127806   6.392   0.600   4.095
 8969SOL    HW227807   6.430   0.525   4.235
 8970SOL     OW27808   3.884   1.740   1.591
 8970SOL    HW127809   3.896   1.821   1.534
 8970SOL    HW227810   3.871   1.768   1.686
 8971SOL     OW27811   4.158   5.242   2.185
 8971SOL    HW127812   4.228   5.264   2.117
 8971SOL    HW227813   4.076   5.209   2.139
 8972SOL     OW27814   5.298   6.487   5.308
 8972SOL    HW127815   5.369   6.502   5.239
 8972SOL    HW227816   5.305   6.393   5.343
 8973SOL     OW27817   1.241   4.576   0.000
 8973SOL    HW127818   1.305   4.537   6.953
 8973SOL    HW227819   1.233   4.516   0.080
 8974SOL     OW27820   0.550   3.668   5.621
 8974SOL    HW127821   0.469   3.647   5.566
 8974SOL    HW227822   0.630   3.623   5.581
 8975SOL     OW27823   3.392   0.065   0.552
 8975SOL    HW127824   3.352   6.992   0.556
 8975SOL    HW227825   3.330   0.127   0.502
 8976SOL     OW27826   1.595   5.561   4.182
 8976SOL    HW127827   1.545   5.480   4.213
 8976SOL    HW227828   1.677   5.573   4.238
 8977SOL     OW27829   6.547   1.355   6.137
 8977SOL    HW127830   6.590   1.400   6.215
 8977SOL    HW227831   6.448   1.357   6.148
 8978SOL     OW27832   5.645   6.836   0.658
 8978SOL    HW127833   5.706   6.758   0.647
 8978SOL    HW227834   5.648   6.868   0.753
 8979SOL     OW27835   1.851   3.872   4.994
 8979SOL    HW127836   1.828   3.963   5.028
 8979SOL    HW227837   1.844   3.806   5.069
 8980SOL     OW27838   4.062   3.171   4.503
 8980SOL    HW127839   4.022   3.083   4.527
 8980SOL    HW227840   4.074   3.226   4.586
 8981SOL     OW27841   3.677   1.295   5.189
 8981SOL    HW127842   3.599   1.284   5.251
 8981SOL    HW227843   3.682   1.391   5.159
 8982SOL     OW27844   3.036   4.106   0.577
 8982SOL    HW127845   3.080   4.160   0.649
 8982SOL    HW227846   3.072   4.134   0.488
 8983SOL     OW27847   4.397   5.384   0.602
 8983SOL    HW127848   4.496   5.400   0.596
 8983SOL    HW227849   4.354   5.459   0.651
 8984SOL     OW27850   1.948   5.994   2.983
 8984SOL    HW127851   2.021   6.054   3.016
 8984SOL    HW227852   1.915   5.937   3.058
 8985SOL     OW27853   3.965   2.803   6.819
 8985SOL    HW127854   4.030   2.731   6.792
 8985SOL    HW227855   3.918   2.775   6.903
 8986SOL     OW27856   4.091   4.884   2.865
 8986SOL    HW127857   4.007   4.875   2.812
 8986SOL    HW227858   4.139   4.968   2.840
 8987SOL     OW27859   5.553   6.091   1.991
 8987SOL    HW127860   5.556   6.143   2.076
 8987SOL    HW227861   5.548   6.155   1.914
 8988SOL     OW27862   0.588   5.430   4.425
 8988SOL    HW127863   0.659   5.360   4.431
 8988SOL    HW227864   0.503   5.390   4.391
 8989SOL     OW27865   4.347   2.826   6.562
 8989SOL    HW127866   4.296   2.908   6.538
 8989SOL    HW227867   4.342   2.810   6.660
 8990SOL     OW27868   6.981   5.432   3.706
 8990SOL    HW127869   6.976   5.377   3.622
 8990SOL    HW227870   6.891   5.473   3.723
 8991SOL     OW27871   1.548   2.310   5.335
 8991SOL    HW127872   1.539   2.306   5.235
 8991SOL    HW227873   1.472   2.261   5.377
 8992SOL     OW27874   6.414   2.103   0.104
 8992SOL    HW127875   6.423   2.010   0.067
 8992SOL    HW227876   6.330   2.145   0.068
 8993SOL     OW27877   4.517   2.688   6.376
 8993SOL    HW127878   4.558   2.764   6.327
 8993SOL    HW227879   4.484   2.720   6.465
 8994SOL     OW27880   2.094   4.405   4.392
 8994SOL    HW127881   2.051   4.381   4.479
 8994SOL    HW227882   2.191   4.383   4.395
 8995SOL     OW27883   0.005   1.792   1.523
 8995SOL    HW127884   6.945   1.735   1.496
 8995SOL    HW227885   6.991   1.865   1.583
 8996SOL     OW27886   5.752   4.068   6.681
 8996SOL    HW127887   5.761   4.154   6.731
 8996SOL    HW227888   5.750   3.992   6.745
 8997SOL     OW27889   5.297   1.199   5.003
 8997SOL    HW127890   5.328   1.276   4.947
 8997SOL    HW227891   5.260   1.128   4.943
 8998SOL     OW27892   5.930   4.492   4.461
 8998SOL    HW127893   5.996   4.561   4.431
 8998SOL    HW227894   5.971   4.434   4.531
 8999SOL     OW27895   5.046   6.693   5.780
 8999SOL    HW127896   4.966   6.641   5.811
 8999SOL    HW227897   5.105   6.633   5.726
 9000SOL     OW27898   1.980   4.692   1.692
 9000SOL    HW127899   1.976   4.594   1.712
 9000SOL    HW227900   2.003   4.706   1.595
 9001SOL     OW27901   0.246   5.216   1.963
 9001SOL    HW127902   0.166   5.265   1.998
 9001SOL    HW227903   0.251   5.229   1.864
 9002SOL     OW27904   1.235   4.495   5.787
 9002SOL    HW127905   1.323   4.513   5.743
 9002SOL    HW227906   1.165   4.555   5.748
 9003SOL     OW27907   5.554   1.739   1.171
 9003SOL    HW127908   5.625   1.806   1.151
 9003SOL    HW227909   5.586   1.678   1.244
 9004SOL     OW27910   3.993   4.951   0.977
 9004SOL    HW127911   4.084   4.979   0.947
 9004SOL    HW227912   3.929   4.953   0.900
 9005SOL     OW27913   5.228   1.096   6.079
 9005SOL    HW127914   5.156   1.067   6.016
 9005SOL    HW227915   5.287   1.163   6.033
 9006SOL     OW27916   3.715   0.037   0.845
 9006SOL    HW127917   3.648   0.005   0.912
 9006SOL    HW227918   3.668   0.084   0.770
 9007SOL     OW27919   2.380   1.717   3.035
 9007SOL    HW127920   2.445   1.642   3.022
 9007SOL    HW227921   2.334   1.706   3.123
 9008SOL     OW27922   0.284   5.775   2.962
 9008SOL    HW127923   0.330   5.811   2.881
 9008SOL    HW227924   0.185   5.786   2.951
 9009SOL     OW27925   4.016   5.695   0.303
 9009SOL    HW127926   4.044   5.790   0.314
 9009SOL    HW227927   4.071   5.652   0.231
 9010SOL     OW27928   2.180   6.686   3.914
 9010SOL    HW127929   2.260   6.627   3.901
 9010SOL    HW227930   2.211   6.778   3.937
 9011SOL     OW27931   4.612   0.515   2.866
 9011SOL    HW127932   4.586   0.559   2.952
 9011SOL    HW227933   4.703   0.547   2.839
 9012SOL     OW27934   2.533   5.616   0.291
 9012SOL    HW127935   2.527   5.609   0.390
 9012SOL    HW227936   2.570   5.706   0.265
 9013SOL     OW27937   1.880   6.593   4.520
 9013SOL    HW127938   1.809   6.572   4.587
 9013SOL    HW227939   1.838   6.609   4.430
 9014SOL     OW27940   6.137   2.214   2.585
 9014SOL    HW127941   6.070   2.231   2.512
 9014SOL    HW227942   6.229   2.212   2.545
 9015SOL     OW27943   5.540   2.303   0.671
 9015SOL    HW127944   5.468   2.245   0.710
 9015SOL    HW227945   5.541   2.293   0.572
 9016SOL     OW27946   5.796   5.459   5.594
 9016SOL    HW127947   5.754   5.383   5.545
 9016SOL    HW227948   5.747   5.475   5.680
 9017SOL     OW27949   3.434   0.786   4.855
 9017SOL    HW127950   3.514   0.727   4.868
 9017SOL    HW227951   3.352   0.729   4.846
 9018SOL     OW27952   3.960   2.949   6.564
 9018SOL    HW127953   4.050   2.959   6.523
 9018SOL    HW227954   3.968   2.896   6.648
 9019SOL     OW27955   1.134   2.947   3.161
 9019SOL    HW127956   1.197   3.018   3.194
 9019SOL    HW227957   1.183   2.885   3.100
 9020SOL     OW27958   6.568   5.821   1.914
 9020SOL    HW127959   6.529   5.846   2.003
 9020SOL    HW227960   6.625   5.740   1.924
 9021SOL     OW27961   0.072   0.165   4.140
 9021SOL    HW127962   6.998   0.128   4.130
 9021SOL    HW227963   0.081   0.246   4.083
 9022SOL     OW27964   4.122   2.586   6.774
 9022SOL    HW127965   4.130   2.512   6.841
 9022SOL    HW227966   4.209   2.595   6.725
 9023SOL     OW27967   4.510   3.093   1.225
 9023SOL    HW127968   4.442   3.077   1.296
 9023SOL    HW227969   4.574   3.163   1.254
 9024SOL     OW27970   1.586   5.002   6.129
 9024SOL    HW127971   1.612   4.965   6.040
 9024SOL    HW227972   1.666   5.040   6.175
 9025SOL     OW27973   0.579   5.502   0.731
 9025SOL    HW127974   0.514   5.429   0.710
 9025SOL    HW227975   0.540   5.590   0.705
 9026SOL     OW27976   4.264   1.872   6.894
 9026SOL    HW127977   4.200   1.918   6.832
 9026SOL    HW227978   4.347   1.928   6.904
 9027SOL     OW27979   0.835   3.856   3.943
 9027SOL    HW127980   0.776   3.853   3.862
 9027SOL    HW227981   0.815   3.778   4.002
 9028SOL     OW27982   3.685   3.743   5.622
 9028SOL    HW127983   3.680   3.644   5.630
 9028SOL    HW227984   3.771   3.769   5.577
 9029SOL     OW27985   4.083   0.488   4.829
 9029SOL    HW127986   4.131   0.418   4.776
 9029SOL    HW227987   4.148   0.556   4.863
 9030SOL     OW27988   2.524   2.568   4.066
 9030SOL    HW127989   2.491   2.597   4.156
 9030SOL    HW227990   2.604   2.510   4.076
 9031SOL     OW27991   4.522   0.333   4.715
 9031SOL    HW127992   4.469   0.390   4.651
 9031SOL    HW227993   4.531   0.241   4.677
 9032SOL     OW27994   5.038   3.339   1.380
 9032SOL    HW127995   5.028   3.253   1.330
 9032SOL    HW227996   5.012   3.327   1.475
 9033SOL     OW27997   0.698   5.380   2.547
 9033SOL    HW127998   0.788   5.404   2.584
 9033SOL    HW227999   0.627   5.408   2.611
 9034SOL     OW28000   3.163   6.482   4.400
 9034SOL    HW128001   3.071   6.482   4.360
 9034SOL    HW228002   3.169   6.554   4.469
 9035SOL     OW28003   1.844   5.403   0.689
 9035SOL    HW128004   1.913   5.472   0.708
 9035SOL    HW228005   1.840   5.385   0.591
 9036SOL     OW28006   1.416   3.718   5.577
 9036SOL    HW128007   1.474   3.789   5.537
 9036SOL    HW228008   1.361   3.757   5.650
 9037SOL     OW28009   0.924   2.370   3.650
 9037SOL    HW128010   1.005   2.333   3.697
 9037SOL    HW228011   0.952   2.410   3.563
 9038SOL     OW28012   4.842   3.263   6.636
 9038SOL    HW128013   4.933   3.225   6.651
 9038SOL    HW228014   4.786   3.247   6.717
 9039SOL     OW28015   3.427   5.228   0.030
 9039SOL    HW128016   3.511   5.264   0.071
 9039SOL    HW228017   3.449   5.184   6.961
 9040SOL     OW28018   2.004   2.169   1.588
 9040SOL    HW128019   2.053   2.102   1.644
 9040SOL    HW228020   2.058   2.189   1.506
 9041SOL     OW28021   0.089   2.229   0.762
 9041SOL    HW128022   0.025   2.153   0.757
 9041SOL    HW228023   0.039   2.315   0.765
 9042SOL     OW28024   3.702   5.993   6.260
 9042SOL    HW128025   3.753   5.908   6.252
 9042SOL    HW228026   3.604   5.973   6.272
 9043SOL     OW28027   2.794   1.201   0.199
 9043SOL    HW128028   2.735   1.164   0.127
 9043SOL    HW228029   2.842   1.282   0.164
 9044SOL     OW28030   0.563   0.101   6.530
 9044SOL    HW128031   0.549   0.199   6.517
 9044SOL    HW228032   0.627   0.067   6.461
 9045SOL     OW28033   4.231   0.070   3.112
 9045SOL    HW128034   4.266   0.160   3.137
 9045SOL    HW228035   4.141   0.080   3.069
 9046SOL     OW28036   3.017   3.213   3.036
 9046SOL    HW128037   2.977   3.304   3.039
 9046SOL    HW228038   3.010   3.175   2.944
 9047SOL     OW28039   1.309   4.348   6.025
 9047SOL    HW128040   1.257   4.384   6.102
 9047SOL    HW228041   1.276   4.389   5.940
 9048SOL     OW28042   5.983   2.334   6.009
 9048SOL    HW128043   5.919   2.395   6.056
 9048SOL    HW228044   5.944   2.242   6.004
 9049SOL     OW28045   2.892   6.672   6.647
 9049SOL    HW128046   2.932   6.583   6.667
 9049SOL    HW228047   2.877   6.680   6.548
 9050SOL     OW28048   0.727   4.307   1.433
 9050SOL    HW128049   0.683   4.368   1.499
 9050SOL    HW228050   0.818   4.282   1.466
 9051SOL     OW28051   2.598   1.707   1.415
 9051SOL    HW128052   2.641   1.737   1.330
 9051SOL    HW228053   2.566   1.787   1.466
 9052SOL     OW28054   1.731   3.099   4.708
 9052SOL    HW128055   1.780   3.043   4.774
 9052SOL    HW228056   1.634   3.075   4.709
 9053SOL     OW28057   1.608   1.398   1.468
 9053SOL    HW128058   1.690   1.443   1.503
 9053SOL    HW228059   1.553   1.464   1.417
 9054SOL     OW28060   3.108   5.580   3.592
 9054SOL    HW128061   3.142   5.538   3.508
 9054SOL    HW228062   3.088   5.509   3.660
 9055SOL     OW28063   0.183   3.792   4.810
 9055SOL    HW128064   0.267   3.821   4.762
 9055SOL    HW228065   0.153   3.704   4.774
 9056SOL     OW28066   6.446   2.194   2.729
 9056SOL    HW128067   6.511   2.137   2.680
 9056SOL    HW228068   6.436   2.161   2.823
 9057SOL     OW28069   4.480   1.109   4.080
 9057SOL    HW128070   4.411   1.091   4.150
 9057SOL    HW228071   4.571   1.111   4.123
 9058SOL     OW28072   1.484   0.604   6.589
 9058SOL    HW128073   1.520   0.659   6.514
 9058SOL    HW228074   1.541   0.522   6.601
 9059SOL     OW28075   1.219   2.120   2.563
 9059SOL    HW128076   1.204   2.022   2.572
 9059SOL    HW228077   1.314   2.137   2.536
 9060SOL     OW28078   4.886   2.929   4.687
 9060SOL    HW128079   4.965   2.870   4.705
 9060SOL    HW228080   4.917   3.018   4.653
 9061SOL     OW28081   4.676   5.549   2.339
 9061SOL    HW128082   4.683   5.649   2.332
 9061SOL    HW228083   4.758   5.507   2.301
 9062SOL     OW28084   1.277   5.334   1.524
 9062SOL    HW128085   1.288   5.373   1.615
 9062SOL    HW228086   1.340   5.257   1.513
 9063SOL     OW28087   2.937   2.124   2.915
 9063SOL    HW128088   3.027   2.157   2.885
 9063SOL    HW228089   2.875   2.120   2.836
 9064SOL     OW28090   6.499   3.245   6.683
 9064SOL    HW128091   6.412   3.204   6.655
 9064SOL    HW228092   6.557   3.258   6.602
 9065SOL     OW28093   2.387   1.121   0.603
 9065SOL    HW128094   2.309   1.170   0.643
 9065SOL    HW228095   2.472   1.166   0.628
 9066SOL     OW28096   4.684   6.675   6.830
 9066SOL    HW128097   4.626   6.631   6.898
 9066SOL    HW228098   4.659   6.772   6.822
 9067SOL     OW28099   1.543   0.219   2.897
 9067SOL    HW128100   1.561   0.128   2.859
 9067SOL    HW228101   1.617   0.281   2.871
 9068SOL     OW28102   1.558   5.495   6.473
 9068SOL    HW128103   1.582   5.444   6.556
 9068SOL    HW228104   1.526   5.587   6.499
 9069SOL     OW28105   1.508   2.663   6.260
 9069SOL    HW128106   1.443   2.739   6.257
 9069SOL    HW228107   1.599   2.697   6.235
 9070SOL     OW28108   1.343   4.551   4.601
 9070SOL    HW128109   1.280   4.534   4.677
 9070SOL    HW228110   1.434   4.571   4.637
 9071SOL     OW28111   6.089   6.861   0.390
 9071SOL    HW128112   6.132   6.847   0.301
 9071SOL    HW228113   6.073   6.772   0.433
 9072SOL     OW28114   6.270   3.977   0.004
 9072SOL    HW128115   6.185   4.031   0.007
 9072SOL    HW228116   6.292   3.943   0.095
 9073SOL     OW28117   2.080   0.893   1.946
 9073SOL    HW128118   2.012   0.888   1.874
 9073SOL    HW228119   2.149   0.822   1.932
 9074SOL     OW28120   1.549   0.024   2.680
 9074SOL    HW128121   1.473   6.981   2.699
 9074SOL    HW228122   1.559   0.034   2.581
 9075SOL     OW28123   6.585   0.981   2.137
 9075SOL    HW128124   6.521   1.025   2.074
 9075SOL    HW228125   6.639   1.051   2.184
 9076SOL     OW28126   6.396   0.875   5.871
 9076SOL    HW128127   6.483   0.873   5.822
 9076SOL    HW228128   6.407   0.827   5.959
 9077SOL     OW28129   5.833   6.492   2.266
 9077SOL    HW128130   5.907   6.425   2.269
 9077SOL    HW228131   5.770   6.476   2.342
 9078SOL     OW28132   3.846   3.177   4.860
 9078SOL    HW128133   3.763   3.232   4.864
 9078SOL    HW228134   3.907   3.204   4.935
 9079SOL     OW28135   3.273   0.055   5.968
 9079SOL    HW128136   3.320   7.003   6.021
 9079SOL    HW228137   3.177   0.059   5.995
 9080SOL     OW28138   5.245   1.673   0.838
 9080SOL    HW128139   5.229   1.574   0.829
 9080SOL    HW228140   5.316   1.702   0.775
 9081SOL     OW28141   5.113   6.323   1.964
 9081SOL    HW128142   5.163   6.372   2.035
 9081SOL    HW228143   5.117   6.225   1.981
 9082SOL     OW28144   3.062   1.414   3.815
 9082SOL    HW128145   2.966   1.428   3.837
 9082SOL    HW228146   3.109   1.375   3.894
 9083SOL     OW28147   4.710   4.676   4.587
 9083SOL    HW128148   4.796   4.714   4.621
 9083SOL    HW228149   4.728   4.620   4.506
 9084SOL     OW28150   3.393   3.830   3.125
 9084SOL    HW128151   3.380   3.816   3.027
 9084SOL    HW228152   3.422   3.745   3.168
 9085SOL     OW28153   1.896   2.042   0.826
 9085SOL    HW128154   1.935   2.121   0.873
 9085SOL    HW228155   1.813   2.013   0.873
 9086SOL     OW28156   0.772   4.371   1.182
 9086SOL    HW128157   0.693   4.401   1.128
 9086SOL    HW228158   0.742   4.347   1.274
 9087SOL     OW28159   4.924   3.465   1.915
 9087SOL    HW128160   4.928   3.365   1.918
 9087SOL    HW228161   4.858   3.494   1.846
 9088SOL     OW28162   5.131   0.356   6.805
 9088SOL    HW128163   5.121   0.341   6.903
 9088SOL    HW228164   5.103   0.274   6.755
 9089SOL     OW28165   4.216   0.141   5.262
 9089SOL    HW128166   4.301   0.161   5.310
 9089SOL    HW228167   4.237   0.105   5.171
 9090SOL     OW28168   5.650   1.512   4.488
 9090SOL    HW128169   5.728   1.564   4.524
 9090SOL    HW228170   5.677   1.417   4.475
 9091SOL     OW28171   3.162   3.761   0.150
 9091SOL    HW128172   3.181   3.665   0.130
 9091SOL    HW228173   3.106   3.769   0.232
 9092SOL     OW28174   0.243   2.619   0.299
 9092SOL    HW128175   0.282   2.606   0.390
 9092SOL    HW228176   0.298   2.686   0.248
 9093SOL     OW28177   1.502   6.367   5.897
 9093SOL    HW128178   1.471   6.285   5.849
 9093SOL    HW228179   1.447   6.445   5.869
 9094SOL     OW28180   0.468   3.749   2.101
 9094SOL    HW128181   0.564   3.770   2.078
 9094SOL    HW228182   0.463   3.714   2.194
 9095SOL     OW28183   5.675   6.048   5.232
 9095SOL    HW128184   5.577   6.047   5.252
 9095SOL    HW228185   5.727   6.044   5.317
 9096SOL     OW28186   6.138   5.793   2.829
 9096SOL    HW128187   6.185   5.767   2.914
 9096SOL    HW228188   6.135   5.893   2.821
 9097SOL     OW28189   0.906   2.881   6.351
 9097SOL    HW128190   0.977   2.945   6.380
 9097SOL    HW228191   0.887   2.816   6.424
 9098SOL     OW28192   1.527   3.805   4.313
 9098SOL    HW128193   1.568   3.846   4.232
 9098SOL    HW228194   1.598   3.767   4.372
 9099SOL     OW28195   2.547   2.652   6.898
 9099SOL    HW128196   2.630   2.626   6.947
 9099SOL    HW228197   2.547   2.751   6.883
 9100SOL     OW28198   1.007   4.806   2.941
 9100SOL    HW128199   0.980   4.779   2.848
 9100SOL    HW228200   0.964   4.893   2.964
 9101SOL     OW28201   0.945   2.359   2.149
 9101SOL    HW128202   1.041   2.331   2.151
 9101SOL    HW228203   0.936   2.451   2.186
 9102SOL     OW28204   4.197   6.413   3.155
 9102SOL    HW128205   4.165   6.328   3.112
 9102SOL    HW228206   4.193   6.487   3.089
 9103SOL     OW28207   6.247   1.639   0.494
 9103SOL    HW128208   6.157   1.683   0.494
 9103SOL    HW228209   6.260   1.588   0.579
 9104SOL     OW28210   6.104   0.974   6.690
 9104SOL    HW128211   6.073   1.019   6.607
 9104SOL    HW228212   6.067   1.023   6.770
 9105SOL     OW28213   1.853   0.092   6.084
 9105SOL    HW128214   1.903   0.105   6.169
 9105SOL    HW228215   1.893   0.150   6.013
 9106SOL     OW28216   1.819   3.917   0.734
 9106SOL    HW128217   1.879   3.997   0.730
 9106SOL    HW228218   1.848   3.850   0.666
 9107SOL     OW28219   2.494   0.913   6.863
 9107SOL    HW128220   2.402   0.873   6.858
 9107SOL    HW228221   2.532   0.920   6.771
 9108SOL     OW28222   5.948   4.950   5.948
 9108SOL    HW128223   5.872   4.907   5.996
 9108SOL    HW228224   6.018   4.977   6.014
 9109SOL     OW28225   5.129   2.893   2.620
 9109SOL    HW128226   5.188   2.972   2.635
 9109SOL    HW228227   5.183   2.809   2.624
 9110SOL     OW28228   1.427   6.132   4.848
 9110SOL    HW128229   1.350   6.153   4.787
 9110SOL    HW228230   1.461   6.040   4.828
 9111SOL     OW28231   4.163   2.831   5.681
 9111SOL    HW128232   4.094   2.761   5.696
 9111SOL    HW228233   4.119   2.914   5.645
 9112SOL     OW28234   1.046   5.259   2.255
 9112SOL    HW128235   1.028   5.188   2.187
 9112SOL    HW228236   1.059   5.218   2.345
 9113SOL     OW28237   5.526   1.418   3.641
 9113SOL    HW128238   5.544   1.464   3.727
 9113SOL    HW228239   5.475   1.334   3.658
 9114SOL     OW28240   1.619   5.918   5.275
 9114SOL    HW128241   1.681   5.929   5.198
 9114SOL    HW228242   1.583   6.007   5.302
 9115SOL     OW28243   5.022   4.207   4.322
 9115SOL    HW128244   4.955   4.134   4.312
 9115SOL    HW228245   5.033   4.230   4.419
 9116SOL     OW28246   1.050   0.281   2.869
 9116SOL    HW128247   1.009   0.257   2.957
 9116SOL    HW228248   1.066   0.198   2.816
 9117SOL     OW28249   3.528   0.465   0.459
 9117SOL    HW128250   3.462   0.452   0.533
 9117SOL    HW228251   3.520   0.391   0.393
 9118SOL     OW28252   6.174   4.552   1.432
 9118SOL    HW128253   6.151   4.642   1.396
 9118SOL    HW228254   6.273   4.538   1.428
 9119SOL     OW28255   3.768   0.652   0.903
 9119SOL    HW128256   3.772   0.556   0.931
 9119SOL    HW228257   3.687   0.695   0.942
 9120SOL     OW28258   6.239   3.354   5.033
 9120SOL    HW128259   6.286   3.284   4.978
 9120SOL    HW228260   6.307   3.410   5.081
 9121SOL     OW28261   3.217   0.639   4.845
 9121SOL    HW128262   3.174   0.670   4.930
 9121SOL    HW228263   3.150   0.642   4.771
 9122SOL     OW28264   1.929   3.854   2.144
 9122SOL    HW128265   1.871   3.831   2.066
 9122SOL    HW228266   2.010   3.795   2.144
 9123SOL     OW28267   0.790   6.852   3.633
 9123SOL    HW128268   0.757   6.768   3.676
 9123SOL    HW228269   0.837   6.908   3.702
 9124SOL     OW28270   2.829   5.629   1.359
 9124SOL    HW128271   2.867   5.543   1.325
 9124SOL    HW228272   2.729   5.623   1.360
 9125SOL     OW28273   4.363   6.370   1.097
 9125SOL    HW128274   4.359   6.452   1.041
 9125SOL    HW228275   4.437   6.311   1.065
 9126SOL     OW28276   4.125   4.554   0.294
 9126SOL    HW128277   4.044   4.529   0.346
 9126SOL    HW228278   4.197   4.486   0.311
 9127SOL     OW28279   0.393   4.545   4.873
 9127SOL    HW128280   0.394   4.586   4.964
 9127SOL    HW228281   0.477   4.568   4.824
 9128SOL     OW28282   5.858   3.533   5.646
 9128SOL    HW128283   5.872   3.469   5.570
 9128SOL    HW228284   5.771   3.511   5.692
 9129SOL     OW28285   1.753   2.208   1.114
 9129SOL    HW128286   1.718   2.302   1.104
 9129SOL    HW228287   1.730   2.174   1.205
 9130SOL     OW28288   2.864   3.784   5.099
 9130SOL    HW128289   2.908   3.799   5.011
 9130SOL    HW228290   2.776   3.740   5.085
 9131SOL     OW28291   5.110   2.262   0.923
 9131SOL    HW128292   5.062   2.175   0.923
 9131SOL    HW228293   5.163   2.272   1.007
 9132SOL     OW28294   6.684   4.311   3.348
 9132SOL    HW128295   6.780   4.302   3.375
 9132SOL    HW228296   6.632   4.350   3.424
 9133SOL     OW28297   4.649   1.154   1.076
 9133SOL    HW128298   4.676   1.240   1.118
 9133SOL    HW228299   4.722   1.120   1.017
 9134SOL     OW28300   4.478   4.619   0.646
 9134SOL    HW128301   4.471   4.579   0.555
 9134SOL    HW228302   4.392   4.606   0.695
 9135SOL     OW28303   6.858   6.466   2.416
 9135SOL    HW128304   6.772   6.515   2.425
 9135SOL    HW228305   6.849   6.375   2.456
 9136SOL     OW28306   6.344   4.260   6.591
 9136SOL    HW128307   6.316   4.326   6.521
 9136SOL    HW228308   6.443   4.264   6.602
 9137SOL     OW28309   5.529   6.071   6.197
 9137SOL    HW128310   5.591   6.006   6.153
 9137SOL    HW228311   5.443   6.025   6.219
 9138SOL     OW28312   3.336   3.044   0.911
 9138SOL    HW128313   3.423   3.081   0.943
 9138SOL    HW228314   3.289   3.112   0.856
 9139SOL     OW28315   6.692   0.480   0.620
 9139SOL    HW128316   6.653   0.465   0.529
 9139SOL    HW228317   6.672   0.573   0.650
 9140SOL     OW28318   1.282   4.025   3.139
 9140SOL    HW128319   1.276   4.092   3.214
 9140SOL    HW228320   1.374   4.030   3.099
 9141SOL     OW28321   6.833   5.698   5.369
 9141SOL    HW128322   6.805   5.683   5.274
 9141SOL    HW228323   6.774   5.645   5.429
 9142SOL     OW28324   1.543   4.119   4.902
 9142SOL    HW128325   1.577   4.051   4.838
 9142SOL    HW228326   1.616   4.183   4.925
 9143SOL     OW28327   6.878   4.251   3.047
 9143SOL    HW128328   6.800   4.311   3.031
 9143SOL    HW228329   6.892   4.240   3.146
 9144SOL     OW28330   2.605   4.446   5.234
 9144SOL    HW128331   2.703   4.460   5.221
 9144SOL    HW228332   2.555   4.524   5.196
 9145SOL     OW28333   1.714   6.083   5.765
 9145SOL    HW128334   1.725   6.045   5.673
 9145SOL    HW228335   1.723   6.011   5.833
 9146SOL     OW28336   5.805   2.736   3.177
 9146SOL    HW128337   5.715   2.731   3.133
 9146SOL    HW228338   5.796   2.779   3.267
 9147SOL     OW28339   4.155   6.688   4.915
 9147SOL    HW128340   4.233   6.629   4.895
 9147SOL    HW228341   4.187   6.776   4.950
 9148SOL     OW28342   5.836   6.241   1.682
 9148SOL    HW128343   5.817   6.153   1.637
 9148SOL    HW228344   5.926   6.236   1.726
 9149SOL     OW28345   0.338   3.458   1.598
 9149SOL    HW128346   0.257   3.516   1.606
 9149SOL    HW228347   0.371   3.460   1.503
 9150SOL     OW28348   2.066   2.722   0.472
 9150SOL    HW128349   2.002   2.795   0.500
 9150SOL    HW228350   2.137   2.761   0.414
 9151SOL     OW28351   1.952   3.227   4.039
 9151SOL    HW128352   1.980   3.219   3.943
 9151SOL    HW228353   2.033   3.242   4.096
 9152SOL     OW28354   1.427   4.227   2.316
 9152SOL    HW128355   1.429   4.305   2.378
 9152SOL    HW228356   1.414   4.143   2.368
 9153SOL     OW28357   0.646   4.074   6.441
 9153SOL    HW128358   0.713   4.147   6.426
 9153SOL    HW228359   0.610   4.044   6.353
 9154SOL     OW28360   5.460   4.935   2.769
 9154SOL    HW128361   5.485   4.942   2.866
 9154SOL    HW228362   5.526   4.986   2.714
 9155SOL     OW28363   1.484   6.348   2.864
 9155SOL    HW128364   1.484   6.315   2.770
 9155SOL    HW228365   1.450   6.442   2.866
 9156SOL     OW28366   6.562   3.941   6.208
 9156SOL    HW128367   6.537   4.016   6.147
 9156SOL    HW228368   6.610   3.977   6.288
 9157SOL     OW28369   1.568   4.186   6.591
 9157SOL    HW128370   1.504   4.157   6.663
 9157SOL    HW228371   1.661   4.178   6.625
 9158SOL     OW28372   6.960   3.896   4.979
 9158SOL    HW128373   6.992   3.811   4.936
 9158SOL    HW228374   6.972   3.890   5.078
 9159SOL     OW28375   2.992   1.369   4.216
 9159SOL    HW128376   3.064   1.428   4.179
 9159SOL    HW228377   2.920   1.424   4.257
 9160SOL     OW28378   0.680   4.456   1.646
 9160SOL    HW128379   0.594   4.456   1.697
 9160SOL    HW228380   0.756   4.470   1.710
 9161SOL     OW28381   6.890   4.524   2.108
 9161SOL    HW128382   6.830   4.599   2.079
 9161SOL    HW228383   6.894   4.521   2.208
 9162SOL     OW28384   4.182   1.878   1.774
 9162SOL    HW128385   4.207   1.829   1.690
 9162SOL    HW228386   4.085   1.864   1.793
 9163SOL     OW28387   1.861   2.536   3.733
 9163SOL    HW128388   1.880   2.459   3.672
 9163SOL    HW228389   1.933   2.541   3.803
 9164SOL     OW28390   2.762   6.679   0.511
 9164SOL    HW128391   2.855   6.645   0.524
 9164SOL    HW228392   2.759   6.777   0.534
 9165SOL     OW28393   5.358   1.658   6.264
 9165SOL    HW128394   5.270   1.611   6.251
 9165SOL    HW228395   5.393   1.686   6.175
 9166SOL     OW28396   5.594   5.961   1.130
 9166SOL    HW128397   5.498   5.934   1.120
 9166SOL    HW228398   5.609   6.002   1.220
 9167SOL     OW28399   1.634   0.849   4.633
 9167SOL    HW128400   1.658   0.896   4.549
 9167SOL    HW228401   1.622   0.915   4.707
 9168SOL     OW28402   6.665   6.109   4.662
 9168SOL    HW128403   6.714   6.035   4.708
 9168SOL    HW228404   6.731   6.175   4.627
 9169SOL     OW28405   6.726   6.497   1.477
 9169SOL    HW128406   6.652   6.527   1.416
 9169SOL    HW228407   6.774   6.577   1.512
 9170SOL     OW28408   1.117   0.916   6.333
 9170SOL    HW128409   1.059   0.855   6.279
 9170SOL    HW228410   1.212   0.884   6.329
 9171SOL     OW28411   3.614   5.088   6.477
 9171SOL    HW128412   3.676   5.083   6.555
 9171SOL    HW228413   3.523   5.060   6.506
 9172SOL     OW28414   4.753   1.616   4.062
 9172SOL    HW128415   4.850   1.606   4.039
 9172SOL    HW228416   4.730   1.714   4.068
 9173SOL     OW28417   5.601   3.359   5.166
 9173SOL    HW128418   5.527   3.311   5.213
 9173SOL    HW228419   5.680   3.298   5.157
 9174SOL     OW28420   0.222   4.746   0.933
 9174SOL    HW128421   0.294   4.714   0.871
 9174SOL    HW228422   0.136   4.701   0.910
 9175SOL     OW28423   1.845   0.521   0.077
 9175SOL    HW128424   1.774   0.532   0.007
 9175SOL    HW228425   1.850   0.425   0.104
 9176SOL     OW28426   1.773   1.479   2.070
 9176SOL    HW128427   1.715   1.442   1.997
 9176SOL    HW228428   1.719   1.487   2.154
 9177SOL     OW28429   0.094   5.199   3.825
 9177SOL    HW128430   0.032   5.278   3.827
 9177SOL    HW228431   0.168   5.216   3.760
 9178SOL     OW28432   2.175   5.337   0.890
 9178SOL    HW128433   2.099   5.371   0.834
 9178SOL    HW228434   2.173   5.237   0.890
 9179SOL     OW28435   3.295   5.430   4.212
 9179SOL    HW128436   3.275   5.430   4.114
 9179SOL    HW228437   3.352   5.350   4.234
 9180SOL     OW28438   0.189   1.169   4.969
 9180SOL    HW128439   0.210   1.112   5.048
 9180SOL    HW228440   0.091   1.189   4.967
 9181SOL     OW28441   2.371   2.306   3.410
 9181SOL    HW128442   2.463   2.312   3.448
 9181SOL    HW228443   2.377   2.286   3.312
 9182SOL     OW28444   0.921   1.564   3.081
 9182SOL    HW128445   0.931   1.645   3.139
 9182SOL    HW228446   0.823   1.547   3.064
 9183SOL     OW28447   1.017   1.923   6.166
 9183SOL    HW128448   0.922   1.930   6.196
 9183SOL    HW228449   1.029   1.975   6.081
 9184SOL     OW28450   4.068   2.954   0.402
 9184SOL    HW128451   4.164   2.976   0.419
 9184SOL    HW228452   4.026   2.917   0.485
 9185SOL     OW28453   0.698   0.682   6.718
 9185SOL    HW128454   0.720   0.588   6.743
 9185SOL    HW228455   0.764   0.714   6.650
 9186SOL     OW28456   5.264   0.799   6.059
 9186SOL    HW128457   5.279   0.826   6.154
 9186SOL    HW228458   5.190   0.853   6.019
 9187SOL     OW28459   5.984   2.082   0.659
 9187SOL    HW128460   5.941   2.168   0.631
 9187SOL    HW228461   6.054   2.101   0.728
 9188SOL     OW28462   1.727   0.914   2.209
 9188SOL    HW128463   1.628   0.905   2.197
 9188SOL    HW228464   1.773   0.841   2.160
 9189SOL     OW28465   4.243   1.367   5.118
 9189SOL    HW128466   4.254   1.426   5.199
 9189SOL    HW228467   4.329   1.362   5.069
 9190SOL     OW28468   6.074   1.743   5.572
 9190SOL    HW128469   5.978   1.772   5.572
 9190SOL    HW228470   6.129   1.813   5.617
 9191SOL     OW28471   5.891   0.326   0.889
 9191SOL    HW128472   5.794   0.328   0.864
 9191SOL    HW228473   5.947   0.341   0.808
 9192SOL     OW28474   4.758   4.061   4.097
 9192SOL    HW128475   4.800   4.029   4.181
 9192SOL    HW228476   4.777   3.997   4.022
 9193SOL     OW28477   2.900   3.353   3.599
 9193SOL    HW128478   2.884   3.343   3.500
 9193SOL    HW228479   2.928   3.447   3.618
 9194SOL     OW28480   4.118   5.679   2.630
 9194SOL    HW128481   4.061   5.645   2.704
 9194SOL    HW228482   4.087   5.771   2.605
 9195SOL     OW28483   0.072   3.207   2.395
 9195SOL    HW128484   0.048   3.280   2.460
 9195SOL    HW228485   7.012   3.145   2.385
 9196SOL     OW28486   4.881   6.547   3.660
 9196SOL    HW128487   4.957   6.541   3.595
 9196SOL    HW228488   4.824   6.626   3.638
 9197SOL     OW28489   3.788   2.884   5.255
 9197SOL    HW128490   3.705   2.836   5.227
 9197SOL    HW228491   3.771   2.932   5.341
 9198SOL     OW28492   5.549   1.966   5.592
 9198SOL    HW128493   5.615   2.042   5.596
 9198SOL    HW228494   5.490   1.970   5.673
 9199SOL     OW28495   1.501   3.477   6.281
 9199SOL    HW128496   1.426   3.504   6.220
 9199SOL    HW228497   1.475   3.394   6.331
 9200SOL     OW28498   5.721   6.418   0.849
 9200SOL    HW128499   5.771   6.364   0.916
 9200SOL    HW228500   5.763   6.508   0.841
 9201SOL     OW28501   1.586   3.972   3.114
 9201SOL    HW128502   1.618   4.029   3.039
 9201SOL    HW228503   1.608   4.017   3.201
 9202SOL     OW28504   3.077   5.807   3.421
 9202SOL    HW128505   3.068   5.749   3.501
 9202SOL    HW228506   3.172   5.806   3.390
 9203SOL     OW28507   5.053   0.613   6.021
 9203SOL    HW128508   5.091   0.686   5.964
 9203SOL    HW228509   4.982   0.565   5.970
 9204SOL     OW28510   5.023   4.154   1.733
 9204SOL    HW128511   5.004   4.246   1.698
 9204SOL    HW228512   4.979   4.143   1.822
 9205SOL     OW28513   4.918   3.087   2.192
 9205SOL    HW128514   4.973   3.007   2.214
 9205SOL    HW228515   4.835   3.058   2.145
 9206SOL     OW28516   0.541   6.623   3.007
 9206SOL    HW128517   0.491   6.709   2.998
 9206SOL    HW228518   0.524   6.565   2.928
 9207SOL     OW28519   3.931   6.555   6.790
 9207SOL    HW128520   3.844   6.520   6.755
 9207SOL    HW228521   3.978   6.605   6.717
 9208SOL     OW28522   5.002   4.596   2.043
 9208SOL    HW128523   4.970   4.686   2.015
 9208SOL    HW228524   5.081   4.570   1.988
 9209SOL     OW28525   3.623   0.360   3.053
 9209SOL    HW128526   3.660   0.358   2.960
 9209SOL    HW228527   3.524   0.370   3.050
 9210SOL     OW28528   1.312   6.815   0.535
 9210SOL    HW128529   1.357   6.904   0.536
 9210SOL    HW228530   1.217   6.827   0.504
 9211SOL     OW28531   4.655   1.394   5.648
 9211SOL    HW128532   4.725   1.323   5.639
 9211SOL    HW228533   4.674   1.450   5.729
 9212SOL     OW28534   5.895   3.798   4.684
 9212SOL    HW128535   5.901   3.733   4.759
 9212SOL    HW228536   5.878   3.890   4.720
 9213SOL     OW28537   6.660   0.157   2.684
 9213SOL    HW128538   6.681   0.232   2.747
 9213SOL    HW228539   6.742   0.101   2.670
 9214SOL     OW28540   2.465   2.473   5.585
 9214SOL    HW128541   2.433   2.487   5.492
 9214SOL    HW228542   2.417   2.536   5.646
 9215SOL     OW28543   0.249   3.071   2.844
 9215SOL    HW128544   0.284   3.157   2.805
 9215SOL    HW228545   0.150   3.074   2.845
 9216SOL     OW28546   3.195   5.543   3.978
 9216SOL    HW128547   3.237   5.623   3.935
 9216SOL    HW228548   3.162   5.481   3.908
 9217SOL     OW28549   4.449   0.741   6.416
 9217SOL    HW128550   4.374   0.734   6.351
 9217SOL    HW228551   4.475   0.837   6.427
 9218SOL     OW28552   5.714   5.434   6.067
 9218SOL    HW128553   5.722   5.477   6.157
 9218SOL    HW228554   5.679   5.341   6.078
 9219SOL     OW28555   3.572   2.420   5.717
 9219SOL    HW128556   3.598   2.507   5.674
 9219SOL    HW228557   3.612   2.344   5.666
 9220SOL     OW28558   0.312   6.988   3.328
 9220SOL    HW128559   0.243   6.932   3.373
 9220SOL    HW228560   0.273   0.010   3.245
 9221SOL     OW28561   2.067   1.617   0.355
 9221SOL    HW128562   1.978   1.652   0.325
 9221SOL    HW228563   2.128   1.610   0.276
 9222SOL     OW28564   1.849   3.036   4.183
 9222SOL    HW128565   1.898   3.111   4.139
 9222SOL    HW228566   1.877   3.029   4.279
 9223SOL     OW28567   0.341   3.084   5.018
 9223SOL    HW128568   0.331   3.044   4.927
 9223SOL    HW228569   0.393   3.170   5.011
 9224SOL     OW28570   2.397   4.624   3.633
 9224SOL    HW128571   2.424   4.668   3.548
 9224SOL    HW228572   2.375   4.695   3.701
 9225SOL     OW28573   5.630   5.693   6.208
 9225SOL    HW128574   5.532   5.673   6.204
 9225SOL    HW228575   5.648   5.777   6.156
 9226SOL     OW28576   0.909   0.970   0.907
 9226SOL    HW128577   1.007   0.949   0.916
 9226SOL    HW228578   0.864   0.952   0.995
 9227SOL     OW28579   2.555   4.305   0.492
 9227SOL    HW128580   2.462   4.278   0.467
 9227SOL    HW228581   2.619   4.231   0.471
 9228SOL     OW28582   3.491   3.105   5.539
 9228SOL    HW128583   3.435   3.108   5.456
 9228SOL    HW228584   3.448   3.161   5.610
 9229SOL     OW28585   0.352   4.640   0.027
 9229SOL    HW128586   0.403   4.578   6.985
 9229SOL    HW228587   0.394   4.731   0.025
 9230SOL     OW28588   4.774   1.491   4.680
 9230SOL    HW128589   4.845   1.556   4.710
 9230SOL    HW228590   4.727   1.528   4.599
 9231SOL     OW28591   6.630   6.089   3.241
 9231SOL    HW128592   6.595   6.178   3.269
 9231SOL    HW228593   6.725   6.097   3.212
 9232SOL     OW28594   1.106   5.166   2.497
 9232SOL    HW128595   1.108   5.163   2.597
 9232SOL    HW228596   1.116   5.073   2.461
 9233SOL     OW28597   0.508   6.547   6.699
 9233SOL    HW128598   0.503   6.486   6.620
 9233SOL    HW228599   0.596   6.595   6.698
 9234SOL     OW28600   2.420   4.021   7.007
 9234SOL    HW128601   2.453   4.056   0.076
 9234SOL    HW228602   2.349   3.953   0.004
 9235SOL     OW28603   1.554   2.136   2.835
 9235SOL    HW128604   1.476   2.199   2.837
 9235SOL    HW228605   1.560   2.087   2.923
 9236SOL     OW28606   2.058   3.152   6.606
 9236SOL    HW128607   2.019   3.209   6.534
 9236SOL    HW228608   2.090   3.210   6.681
 9237SOL     OW28609   5.133   5.215   3.058
 9237SOL    HW128610   5.168   5.307   3.041
 9237SOL    HW228611   5.127   5.165   2.971
 9238SOL     OW28612   1.156   2.606   4.705
 9238SOL    HW128613   1.132   2.654   4.621
 9238SOL    HW228614   1.073   2.589   4.759
 9239SOL     OW28615   1.588   4.838   6.686
 9239SOL    HW128616   1.617   4.803   6.776
 9239SOL    HW228617   1.612   4.771   6.616
 9240SOL     OW28618   4.297   1.756   3.171
 9240SOL    HW128619   4.351   1.758   3.255
 9240SOL    HW228620   4.298   1.846   3.128
 9241SOL     OW28621   5.386   6.969   0.994
 9241SOL    HW128622   5.333   6.960   0.909
 9241SOL    HW228623   5.394   0.047   1.019
 9242SOL     OW28624   1.835   2.460   6.900
 9242SOL    HW128625   1.873   2.494   6.814
 9242SOL    HW228626   1.821   2.537   6.963
 9243SOL     OW28627   1.430   0.686   6.975
 9243SOL    HW128628   1.493   0.753   6.934
 9243SOL    HW228629   1.449   0.678   0.054
 9244SOL     OW28630   3.707   6.922   5.887
 9244SOL    HW128631   3.733   7.006   5.838
 9244SOL    HW228632   3.622   6.938   5.936
 9245SOL     OW28633   1.177   5.052   3.448
 9245SOL    HW128634   1.163   4.968   3.501
 9245SOL    HW228635   1.271   5.084   3.462
 9246SOL     OW28636   5.468   6.975   6.630
 9246SOL    HW128637   5.376   6.942   6.647
 9246SOL    HW228638   5.464   0.051   6.595
 9247SOL     OW28639   4.045   5.786   3.155
 9247SOL    HW128640   4.134   5.773   3.112
 9247SOL    HW228641   3.996   5.699   3.158
 9248SOL     OW28642   2.349   0.252   6.551
 9248SOL    HW128643   2.270   0.239   6.611
 9248SOL    HW228644   2.318   0.288   6.463
 9249SOL     OW28645   3.274   6.350   0.949
 9249SOL    HW128646   3.243   6.404   1.027
 9249SOL    HW228647   3.239   6.390   0.865
 9250SOL     OW28648   0.385   2.844   4.226
 9250SOL    HW128649   0.453   2.771   4.219
 9250SOL    HW228650   0.299   2.814   4.186
 9251SOL     OW28651   3.058   2.471   0.349
 9251SOL    HW128652   3.137   2.423   0.386
 9251SOL    HW228653   3.047   2.559   0.396
 9252SOL     OW28654   5.655   2.003   5.129
 9252SOL    HW128655   5.582   1.958   5.180
 9252SOL    HW228656   5.730   2.026   5.190
 9253SOL     OW28657   1.094   5.807   5.390
 9253SOL    HW128658   1.111   5.886   5.331
 9253SOL    HW228659   1.002   5.771   5.372
 9254SOL     OW28660   0.178   4.695   2.578
 9254SOL    HW128661   0.240   4.741   2.514
 9254SOL    HW228662   0.164   4.600   2.550
 9255SOL     OW28663   6.672   4.438   0.674
 9255SOL    HW128664   6.622   4.380   0.611
 9255SOL    HW228665   6.733   4.498   0.623
 9256SOL     OW28666   2.843   6.220   1.097
 9256SOL    HW128667   2.744   6.227   1.084
 9256SOL    HW228668   2.883   6.312   1.097
 9257SOL     OW28669   6.232   5.760   4.120
 9257SOL    HW128670   6.229   5.752   4.220
 9257SOL    HW228671   6.218   5.855   4.093
 9258SOL     OW28672   3.130   4.910   1.155
 9258SOL    HW128673   3.142   4.993   1.210
 9258SOL    HW228674   3.035   4.879   1.162
 9259SOL     OW28675   1.410   1.892   6.842
 9259SOL    HW128676   1.469   1.862   6.768
 9259SOL    HW228677   1.318   1.854   6.829
 9260SOL     OW28678   5.452   3.822   5.016
 9260SOL    HW128679   5.440   3.730   5.054
 9260SOL    HW228680   5.489   3.883   5.086
 9261SOL     OW28681   3.446   2.184   1.775
 9261SOL    HW128682   3.536   2.215   1.805
 9261SOL    HW228683   3.388   2.264   1.758
 9262SOL     OW28684   6.645   6.297   5.229
 9262SOL    HW128685   6.636   6.279   5.131
 9262SOL    HW228686   6.654   6.211   5.278
 9263SOL     OW28687   2.009   4.592   3.426
 9263SOL    HW128688   2.090   4.551   3.383
 9263SOL    HW228689   2.035   4.676   3.473
 9264SOL     OW28690   5.550   4.440   6.610
 9264SOL    HW128691   5.496   4.395   6.681
 9264SOL    HW228692   5.557   4.380   6.531
 9265SOL     OW28693   6.072   1.623   1.146
 9265SOL    HW128694   5.987   1.673   1.135
 9265SOL    HW228695   6.138   1.652   1.077
 9266SOL     OW28696   1.909   4.660   1.376
 9266SOL    HW128697   1.861   4.585   1.421
 9266SOL    HW228698   1.845   4.710   1.318
 9267SOL     OW28699   6.848   0.517   4.162
 9267SOL    HW128700   6.889   0.606   4.141
 9267SOL    HW228701   6.821   0.516   4.259
 9268SOL     OW28702   0.407   0.295   1.422
 9268SOL    HW128703   0.389   0.390   1.398
 9268SOL    HW228704   0.497   0.268   1.388
 9269SOL     OW28705   3.344   1.323   0.168
 9269SOL    HW128706   3.426   1.338   0.224
 9269SOL    HW228707   3.271   1.384   0.199
 9270SOL     OW28708   1.844   0.331   5.882
 9270SOL    HW128709   1.880   0.379   5.962
 9270SOL    HW228710   1.745   0.321   5.891
 9271SOL     OW28711   1.288   5.738   4.697
 9271SOL    HW128712   1.191   5.758   4.681
 9271SOL    HW228713   1.344   5.789   4.632
 9272SOL     OW28714   6.704   6.389   6.593
 9272SOL    HW128715   6.616   6.407   6.636
 9272SOL    HW228716   6.716   6.451   6.515
 9273SOL     OW28717   4.811   4.169   3.388
 9273SOL    HW128718   4.765   4.225   3.319
 9273SOL    HW228719   4.872   4.227   3.442
 9274SOL     OW28720   0.331   3.043   0.893
 9274SOL    HW128721   0.362   3.067   0.801
 9274SOL    HW228722   0.368   2.953   0.918
 9275SOL     OW28723   0.002   0.836   0.892
 9275SOL    HW128724   0.041   0.927   0.882
 9275SOL    HW228725   0.002   0.810   0.989
 9276SOL     OW28726   2.544   5.387   0.130
 9276SOL    HW128727   2.607   5.319   0.168
 9276SOL    HW228728   2.548   5.470   0.184
 9277SOL     OW28729   5.211   5.314   1.996
 9277SOL    HW128730   5.261   5.233   2.027
 9277SOL    HW228731   5.272   5.393   1.997
 9278SOL     OW28732   0.859   0.217   5.234
 9278SOL    HW128733   0.841   0.307   5.194
 9278SOL    HW228734   0.954   0.191   5.216
 9279SOL     OW28735   3.716   5.930   1.637
 9279SOL    HW128736   3.674   5.975   1.559
 9279SOL    HW228737   3.816   5.930   1.625
 9280SOL     OW28738   1.572   6.340   2.580
 9280SOL    HW128739   1.592   6.438   2.582
 9280SOL    HW228740   1.591   6.303   2.489
 9281SOL     OW28741   2.234   5.149   6.996
 9281SOL    HW128742   2.260   5.244   6.978
 9281SOL    HW228743   2.174   5.116   6.923
 9282SOL     OW28744   3.289   0.124   5.262
 9282SOL    HW128745   3.382   0.154   5.283
 9282SOL    HW228746   3.228   0.203   5.257
 9283SOL     OW28747   4.236   6.782   1.100
 9283SOL    HW128748   4.275   6.717   1.035
 9283SOL    HW228749   4.292   6.865   1.101
 9284SOL     OW28750   4.502   4.002   5.387
 9284SOL    HW128751   4.563   3.929   5.356
 9284SOL    HW228752   4.407   3.975   5.371
 9285SOL     OW28753   0.604   4.977   2.756
 9285SOL    HW128754   0.523   5.023   2.793
 9285SOL    HW228755   0.676   5.045   2.740
 9286SOL     OW28756   4.616   6.480   1.626
 9286SOL    HW128757   4.713   6.493   1.646
 9286SOL    HW228758   4.604   6.473   1.527
 9287SOL     OW28759   3.889   3.680   5.982
 9287SOL    HW128760   3.931   3.767   5.956
 9287SOL    HW228761   3.959   3.609   5.982
 9288SOL     OW28762   3.923   1.853   2.487
 9288SOL    HW128763   3.925   1.923   2.415
 9288SOL    HW228764   3.828   1.828   2.506
 9289SOL     OW28765   5.090   6.359   0.674
 9289SOL    HW128766   5.018   6.292   0.656
 9289SOL    HW228767   5.180   6.315   0.668
 9290SOL     OW28768   4.676   1.069   4.245
 9290SOL    HW128769   4.647   1.123   4.324
 9290SOL    HW228770   4.751   1.009   4.272
 9291SOL     OW28771   1.020   4.425   6.472
 9291SOL    HW128772   0.933   4.375   6.468
 9291SOL    HW228773   1.055   4.424   6.565
 9292SOL     OW28774   0.684   1.410   6.752
 9292SOL    HW128775   0.663   1.323   6.796
 9292SOL    HW228776   0.762   1.453   6.798
 9293SOL     OW28777   5.093   2.876   4.357
 9293SOL    HW128778   5.051   2.787   4.375
 9293SOL    HW228779   5.173   2.887   4.416
 9294SOL     OW28780   4.583   0.139   6.715
 9294SOL    HW128781   4.508   0.202   6.736
 9294SOL    HW228782   4.665   0.192   6.693
 9295SOL     OW28783   0.337   0.833   4.894
 9295SOL    HW128784   0.311   0.880   4.810
 9295SOL    HW228785   0.350   0.735   4.875
 9296SOL     OW28786   2.377   4.764   6.229
 9296SOL    HW128787   2.436   4.777   6.149
 9296SOL    HW228788   2.359   4.852   6.272
 9297SOL     OW28789   6.402   6.147   2.166
 9297SOL    HW128790   6.449   6.059   2.175
 9297SOL    HW228791   6.413   6.182   2.074
 9298SOL     OW28792   1.297   4.759   6.370
 9298SOL    HW128793   1.347   4.719   6.447
 9298SOL    HW228794   1.199   4.739   6.380
 9299SOL     OW28795   2.315   2.701   4.614
 9299SOL    HW128796   2.286   2.771   4.548
 9299SOL    HW228797   2.316   2.740   4.706
 9300SOL     OW28798   1.813   5.914   4.901
 9300SOL    HW128799   1.714   5.909   4.886
 9300SOL    HW228800   1.831   5.971   4.981
 9301SOL     OW28801   0.295   4.539   4.500
 9301SOL    HW128802   0.379   4.487   4.519
 9301SOL    HW228803   0.249   4.560   4.586
 9302SOL     OW28804   2.157   3.522   4.946
 9302SOL    HW128805   2.059   3.514   4.932
 9302SOL    HW228806   2.205   3.453   4.891
 9303SOL     OW28807   2.493   4.341   0.099
 9303SOL    HW128808   2.583   4.302   0.117
 9303SOL    HW228809   2.481   4.351   7.018
 9304SOL     OW28810   4.800   4.897   6.703
 9304SOL    HW128811   4.827   4.833   6.631
 9304SOL    HW228812   4.725   4.954   6.670
 9305SOL     OW28813   2.040   1.535   1.350
 9305SOL    HW128814   2.103   1.589   1.295
 9305SOL    HW228815   2.054   1.556   1.447
 9306SOL     OW28816   0.041   6.290   5.332
 9306SOL    HW128817   0.129   6.336   5.318
 9306SOL    HW228818   6.987   6.358   5.342
 9307SOL     OW28819   1.568   3.404   1.678
 9307SOL    HW128820   1.627   3.339   1.630
 9307SOL    HW228821   1.499   3.439   1.614
 9308SOL     OW28822   1.913   3.252   1.966
 9308SOL    HW128823   1.848   3.305   2.020
 9308SOL    HW228824   1.970   3.313   1.912
 9309SOL     OW28825   4.808   4.744   6.493
 9309SOL    HW128826   4.720   4.779   6.459
 9309SOL    HW228827   4.874   4.742   6.418
 9310SOL     OW28828   5.831   6.135   6.828
 9310SOL    HW128829   5.838   6.036   6.840
 9310SOL    HW228830   5.920   6.173   6.804
 9311SOL     OW28831   4.626   3.807   1.169
 9311SOL    HW128832   4.630   3.811   1.069
 9311SOL    HW228833   4.562   3.735   1.196
 9312SOL     OW28834   0.710   3.180   3.386
 9312SOL    HW128835   0.775   3.105   3.396
 9312SOL    HW228836   0.741   3.259   3.438
 9313SOL     OW28837   0.621   1.081   1.994
 9313SOL    HW128838   0.540   1.086   2.053
 9313SOL    HW228839   0.605   1.014   1.921
 9314SOL     OW28840   5.254   4.007   0.746
 9314SOL    HW128841   5.252   3.909   0.727
 9314SOL    HW228842   5.345   4.043   0.724
 9315SOL     OW28843   4.720   6.728   6.094
 9315SOL    HW128844   4.690   6.768   6.007
 9315SOL    HW228845   4.791   6.786   6.134
 9316SOL     OW28846   5.149   0.770   5.644
 9316SOL    HW128847   5.152   0.672   5.665
 9316SOL    HW228848   5.054   0.799   5.632
 9317SOL     OW28849   3.793   5.904   2.665
 9317SOL    HW128850   3.749   5.823   2.628
 9317SOL    HW228851   3.869   5.930   2.605
 9318SOL     OW28852   3.783   6.663   1.742
 9318SOL    HW128853   3.786   6.716   1.657
 9318SOL    HW228854   3.854   6.593   1.740
 9319SOL     OW28855   3.427   2.809   6.557
 9319SOL    HW128856   3.410   2.711   6.562
 9319SOL    HW228857   3.450   2.844   6.648
 9320SOL     OW28858   6.231   6.358   0.004
 9320SOL    HW128859   6.286   6.416   6.961
 9320SOL    HW228860   6.280   6.343   0.089
 9321SOL     OW28861   0.450   3.369   4.717
 9321SOL    HW128862   0.481   3.320   4.636
 9321SOL    HW228863   0.475   3.317   4.799
 9322SOL     OW28864   6.086   3.152   6.752
 9322SOL    HW128865   6.041   3.153   6.663
 9322SOL    HW228866   6.060   3.233   6.804
 9323SOL     OW28867   0.462   2.071   6.001
 9323SOL    HW128868   0.418   2.002   5.944
 9323SOL    HW228869   0.557   2.084   5.971
 9324SOL     OW28870   0.733   4.439   2.012
 9324SOL    HW128871   0.681   4.354   2.005
 9324SOL    HW228872   0.795   4.447   1.934
 9325SOL     OW28873   1.046   4.437   3.356
 9325SOL    HW128874   0.981   4.383   3.411
 9325SOL    HW228875   1.009   4.449   3.264
 9326SOL     OW28876   4.657   4.242   1.744
 9326SOL    HW128877   4.670   4.332   1.785
 9326SOL    HW228878   4.571   4.202   1.777
 9327SOL     OW28879   3.606   0.866   3.038
 9327SOL    HW128880   3.556   0.905   2.961
 9327SOL    HW228881   3.589   0.920   3.121
 9328SOL     OW28882   2.080   0.028   3.827
 9328SOL    HW128883   2.136   0.078   3.894
 9328SOL    HW228884   2.035   6.970   3.872
 9329SOL     OW28885   0.257   5.863   6.381
 9329SOL    HW128886   0.354   5.841   6.396
 9329SOL    HW228887   0.215   5.889   6.468
 9330SOL     OW28888   6.626   6.206   7.003
 9330SOL    HW128889   6.558   6.146   6.961
 9330SOL    HW228890   6.618   6.298   6.965
 9331SOL     OW28891   2.244   3.025   3.234
 9331SOL    HW128892   2.233   3.120   3.204
 9331SOL    HW228893   2.169   3.001   3.297
 9332SOL     OW28894   5.227   5.696   0.840
 9332SOL    HW128895   5.139   5.743   0.843
 9332SOL    HW228896   5.284   5.726   0.916
 9333SOL     OW28897   4.052   3.647   0.723
 9333SOL    HW128898   4.143   3.680   0.697
 9333SOL    HW228899   4.012   3.709   0.790
 9334SOL     OW28900   6.064   6.114   5.813
 9334SOL    HW128901   6.102   6.026   5.844
 9334SOL    HW228902   5.966   6.115   5.829
 9335SOL     OW28903   0.963   3.542   2.382
 9335SOL    HW128904   0.908   3.460   2.366
 9335SOL    HW228905   1.022   3.558   2.303
 9336SOL     OW28906   5.853   6.830   5.603
 9336SOL    HW128907   5.765   6.838   5.649
 9336SOL    HW228908   5.877   6.919   5.562
 9337SOL     OW28909   2.504   0.315   6.116
 9337SOL    HW128910   2.544   0.356   6.034
 9337SOL    HW228911   2.486   0.218   6.100
 9338SOL     OW28912   5.649   6.620   0.118
 9338SOL    HW128913   5.630   6.532   0.161
 9338SOL    HW228914   5.729   6.662   0.162
 9339SOL     OW28915   6.600   4.015   5.404
 9339SOL    HW128916   6.670   4.061   5.349
 9339SOL    HW228917   6.638   3.930   5.442
 9340SOL     OW28918   3.505   5.086   0.822
 9340SOL    HW128919   3.441   5.113   0.751
 9340SOL    HW228920   3.455   5.042   0.897
 9341SOL     OW28921   5.125   4.399   6.591
 9341SOL    HW128922   5.192   4.369   6.660
 9341SOL    HW228923   5.115   4.329   6.521
 9342SOL     OW28924   3.582   0.315   4.069
 9342SOL    HW128925   3.646   0.388   4.091
 9342SOL    HW228926   3.494   0.333   4.113
 9343SOL     OW28927   4.526   4.208   1.318
 9343SOL    HW128928   4.546   4.187   1.222
 9343SOL    HW228929   4.612   4.227   1.366
 9344SOL     OW28930   6.010   0.044   5.122
 9344SOL    HW128931   6.105   0.020   5.105
 9344SOL    HW228932   5.996   0.141   5.104
 9345SOL     OW28933   1.079   5.312   0.141
 9345SOL    HW128934   1.122   5.299   0.230
 9345SOL    HW228935   1.115   5.244   0.076
 9346SOL     OW28936   6.104   6.531   1.284
 9346SOL    HW128937   6.123   6.536   1.383
 9346SOL    HW228938   6.111   6.437   1.253
 9347SOL     OW28939   3.512   5.529   0.790
 9347SOL    HW128940   3.460   5.546   0.706
 9347SOL    HW228941   3.451   5.492   0.860
 9348SOL     OW28942   2.649   5.856   1.487
 9348SOL    HW128943   2.715   5.843   1.561
 9348SOL    HW228944   2.667   5.942   1.440
 9349SOL     OW28945   6.770   6.017   2.011
 9349SOL    HW128946   6.841   5.969   2.062
 9349SOL    HW228947   6.695   5.954   1.992
 9350SOL     OW28948   6.753   0.765   6.064
 9350SOL    HW128949   6.801   0.763   6.151
 9350SOL    HW228950   6.663   0.807   6.076
 9351SOL     OW28951   3.347   2.826   6.197
 9351SOL    HW128952   3.287   2.874   6.261
 9351SOL    HW228953   3.292   2.782   6.126
 9352SOL     OW28954   3.334   2.456   5.859
 9352SOL    HW128955   3.259   2.436   5.797
 9352SOL    HW228956   3.420   2.463   5.808
 9353SOL     OW28957   0.725   3.633   1.587
 9353SOL    HW128958   0.643   3.688   1.570
 9353SOL    HW228959   0.697   3.541   1.615
 9354SOL     OW28960   5.004   1.873   1.645
 9354SOL    HW128961   4.941   1.795   1.637
 9354SOL    HW228962   5.002   1.908   1.738
 9355SOL     OW28963   6.226   0.773   2.794
 9355SOL    HW128964   6.180   0.755   2.707
 9355SOL    HW228965   6.176   0.728   2.868
 9356SOL     OW28966   4.388   4.546   2.342
 9356SOL    HW128967   4.295   4.571   2.315
 9356SOL    HW228968   4.431   4.494   2.269
 9357SOL     OW28969   3.190   3.060   0.597
 9357SOL    HW128970   3.166   3.156   0.584
 9357SOL    HW228971   3.287   3.053   0.619
 9358SOL     OW28972   5.793   4.746   2.163
 9358SOL    HW128973   5.789   4.840   2.128
 9358SOL    HW228974   5.717   4.731   2.226
 9359SOL     OW28975   6.239   4.122   6.277
 9359SOL    HW128976   6.177   4.170   6.340
 9359SOL    HW228977   6.265   4.034   6.316
 9360SOL     OW28978   1.606   0.465   6.244
 9360SOL    HW128979   1.586   0.390   6.181
 9360SOL    HW228980   1.658   0.535   6.196
 9361SOL     OW28981   2.973   0.270   2.446
 9361SOL    HW128982   2.920   0.347   2.482
 9361SOL    HW228983   2.916   0.218   2.382
 9362SOL     OW28984   2.415   1.956   3.342
 9362SOL    HW128985   2.453   1.977   3.251
 9362SOL    HW228986   2.335   1.898   3.331
 9363SOL     OW28987   2.841   5.932   2.064
 9363SOL    HW128988   2.828   5.973   2.154
 9363SOL    HW228989   2.860   5.835   2.074
 9364SOL     OW28990   5.292   4.521   0.064
 9364SOL    HW128991   5.236   4.451   0.021
 9364SOL    HW228992   5.237   4.603   0.080
 9365SOL     OW28993   2.395   1.224   5.022
 9365SOL    HW128994   2.392   1.280   5.105
 9365SOL    HW228995   2.449   1.271   4.952
 9366SOL     OW28996   3.019   1.808   0.509
 9366SOL    HW128997   3.037   1.804   0.411
 9366SOL    HW228998   3.009   1.715   0.545
 9367SOL     OW28999   6.833   5.681   3.138
 9367SOL    HW129000   6.919   5.694   3.186
 9367SOL    HW229001   6.757   5.689   3.202
 9368SOL     OW29002   3.144   2.577   1.034
 9368SOL    HW129003   3.165   2.624   1.119
 9368SOL    HW229004   3.130   2.480   1.052
 9369SOL     OW29005   0.049   2.599   4.786
 9369SOL    HW129006   0.023   2.694   4.801
 9369SOL    HW229007   0.109   2.568   4.859
 9370SOL     OW29008   6.285   1.244   3.239
 9370SOL    HW129009   6.269   1.157   3.194
 9370SOL    HW229010   6.383   1.263   3.242
 9371SOL     OW29011   0.075   6.540   0.872
 9371SOL    HW129012   0.013   6.547   0.794
 9371SOL    HW229013   0.141   6.614   0.869
 9372SOL     OW29014   5.908   0.286   5.093
 9372SOL    HW129015   5.941   0.369   5.048
 9372SOL    HW229016   5.890   0.305   5.189
 9373SOL     OW29017   4.133   1.654   3.415
 9373SOL    HW129018   4.201   1.621   3.350
 9373SOL    HW229019   4.176   1.666   3.504
 9374SOL     OW29020   5.260   3.730   0.706
 9374SOL    HW129021   5.273   3.679   0.621
 9374SOL    HW229022   5.222   3.669   0.776
 9375SOL     OW29023   0.936   0.908   3.328
 9375SOL    HW129024   1.023   0.879   3.289
 9375SOL    HW229025   0.920   1.004   3.305
 9376SOL     OW29026   1.710   3.561   1.806
 9376SOL    HW129027   1.650   3.496   1.760
 9376SOL    HW229028   1.795   3.516   1.833
 9377SOL     OW29029   5.991   5.691   3.963
 9377SOL    HW129030   5.996   5.629   3.885
 9377SOL    HW229031   6.079   5.695   4.009
 9378SOL     OW29032   2.923   0.059   0.301
 9378SOL    HW129033   2.879   0.128   0.243
 9378SOL    HW229034   2.870   0.046   0.385
 9379SOL     OW29035   5.153   4.741   4.250
 9379SOL    HW129036   5.097   4.822   4.234
 9379SOL    HW229037   5.097   4.659   4.237
 9380SOL     OW29038   5.773   6.873   5.934
 9380SOL    HW129039   5.718   6.857   5.851
 9380SOL    HW229040   5.844   6.803   5.941
 9381SOL     OW29041   2.542   1.581   5.891
 9381SOL    HW129042   2.503   1.672   5.879
 9381SOL    HW229043   2.470   1.517   5.917
 9382SOL     OW29044   5.019   2.296   3.207
 9382SOL    HW129045   5.019   2.307   3.306
 9382SOL    HW229046   4.993   2.203   3.183
 9383SOL     OW29047   3.998   5.779   4.480
 9383SOL    HW129048   4.085   5.739   4.450
 9383SOL    HW229049   3.925   5.752   4.418
 9384SOL     OW29050   4.764   5.579   1.458
 9384SOL    HW129051   4.788   5.566   1.361
 9384SOL    HW229052   4.840   5.550   1.515
 9385SOL     OW29053   3.450   1.265   3.482
 9385SOL    HW129054   3.459   1.327   3.403
 9385SOL    HW229055   3.417   1.317   3.561
 9386SOL     OW29056   3.093   6.778   5.013
 9386SOL    HW129057   3.189   6.757   5.031
 9386SOL    HW229058   3.080   6.791   4.914
 9387SOL     OW29059   3.731   0.062   6.969
 9387SOL    HW129060   3.764   0.001   6.897
 9387SOL    HW229061   3.779   0.150   6.962
 9388SOL     OW29062   6.411   0.355   3.211
 9388SOL    HW129063   6.390   0.378   3.305
 9388SOL    HW229064   6.429   0.257   3.203
 9389SOL     OW29065   2.485   0.559   5.694
 9389SOL    HW129066   2.579   0.592   5.698
 9389SOL    HW229067   2.426   0.630   5.656
 9390SOL     OW29068   3.112   5.235   2.411
 9390SOL    HW129069   3.118   5.329   2.445
 9390SOL    HW229070   3.075   5.235   2.318
 9391SOL     OW29071   0.850   1.157   5.909
 9391SOL    HW129072   0.891   1.232   5.857
 9391SOL    HW229073   0.906   1.075   5.898
 9392SOL     OW29074   1.288   5.954   4.143
 9392SOL    HW129075   1.269   5.858   4.160
 9392SOL    HW229076   1.372   5.963   4.089
 9393SOL     OW29077   3.673   2.238   5.302
 9393SOL    HW129078   3.609   2.311   5.329
 9393SOL    HW229079   3.627   2.177   5.237
 9394SOL     OW29080   6.143   2.425   2.767
 9394SOL    HW129081   6.164   2.342   2.715
 9394SOL    HW229082   6.116   2.497   2.703
 9395SOL     OW29083   2.328   3.311   0.656
 9395SOL    HW129084   2.270   3.367   0.595
 9395SOL    HW229085   2.392   3.257   0.601
 9396SOL     OW29086   6.337   0.232   6.199
 9396SOL    HW129087   6.258   0.278   6.158
 9396SOL    HW229088   6.322   0.222   6.297
 9397SOL     OW29089   2.721   0.695   0.996
 9397SOL    HW129090   2.628   0.704   0.961
 9397SOL    HW229091   2.723   0.628   1.070
 9398SOL     OW29092   2.883   1.404   6.288
 9398SOL    HW129093   2.983   1.410   6.283
 9398SOL    HW229094   2.853   1.319   6.244
 9399SOL     OW29095   6.871   0.521   5.593
 9399SOL    HW129096   6.934   0.518   5.516
 9399SOL    HW229097   6.780   0.491   5.563
 9400SOL     OW29098   6.011   2.673   2.635
 9400SOL    HW129099   5.951   2.671   2.554
 9400SOL    HW229100   6.075   2.750   2.627
 9401SOL     OW29101   3.260   0.008   2.918
 9401SOL    HW129102   3.321   6.977   2.980
 9401SOL    HW229103   3.259   6.982   2.829
 9402SOL     OW29104   2.208   5.046   6.194
 9402SOL    HW129105   2.226   5.054   6.096
 9402SOL    HW229106   2.293   5.019   6.241
 9403SOL     OW29107   5.368   1.286   4.145
 9403SOL    HW129108   5.372   1.227   4.226
 9403SOL    HW229109   5.309   1.364   4.163
 9404SOL     OW29110   1.370   4.056   6.797
 9404SOL    HW129111   1.378   3.957   6.795
 9404SOL    HW229112   1.343   4.086   6.888
 9405SOL     OW29113   6.274   0.095   1.279
 9405SOL    HW129114   6.236   0.083   1.187
 9405SOL    HW229115   6.273   0.008   1.327
 9406SOL     OW29116   0.339   1.715   5.198
 9406SOL    HW129117   0.286   1.756   5.271
 9406SOL    HW229118   0.278   1.669   5.133
 9407SOL     OW29119   3.249   6.043   2.824
 9407SOL    HW129120   3.312   5.977   2.784
 9407SOL    HW229121   3.290   6.135   2.822
 9408SOL     OW29122   3.598   1.848   6.170
 9408SOL    HW129123   3.625   1.945   6.166
 9408SOL    HW229124   3.504   1.839   6.136
 9409SOL     OW29125   5.690   4.267   3.823
 9409SOL    HW129126   5.788   4.273   3.841
 9409SOL    HW229127   5.669   4.303   3.732
 9410SOL     OW29128   4.213   6.210   2.598
 9410SOL    HW129129   4.256   6.144   2.660
 9410SOL    HW229130   4.282   6.269   2.557
 9411SOL     OW29131   4.539   4.876   0.512
 9411SOL    HW129132   4.532   4.968   0.551
 9411SOL    HW229133   4.512   4.809   0.581
 9412SOL     OW29134   6.824   2.640   1.126
 9412SOL    HW129135   6.868   2.558   1.088
 9412SOL    HW229136   6.888   2.687   1.187
 9413SOL     OW29137   3.707   5.849   5.762
 9413SOL    HW129138   3.803   5.856   5.735
 9413SOL    HW229139   3.652   5.908   5.704
 9414SOL     OW29140   2.749   1.747   1.767
 9414SOL    HW129141   2.703   1.665   1.800
 9414SOL    HW229142   2.823   1.720   1.704
 9415SOL     OW29143   2.955   6.841   2.281
 9415SOL    HW129144   2.918   6.919   2.332
 9415SOL    HW229145   2.950   6.859   2.183
 9416SOL     OW29146   1.063   2.395   1.864
 9416SOL    HW129147   1.059   2.357   1.772
 9416SOL    HW229148   0.986   2.360   1.918
 9417SOL     OW29149   2.655   5.839   5.288
 9417SOL    HW129150   2.660   5.787   5.203
 9417SOL    HW229151   2.746   5.873   5.312
 9418SOL     OW29152   3.078   5.339   0.742
 9418SOL    HW129153   3.038   5.431   0.745
 9418SOL    HW229154   3.065   5.295   0.831
 9419SOL     OW29155   2.952   6.779   5.234
 9419SOL    HW129156   2.867   6.819   5.199
 9419SOL    HW229157   3.016   6.767   5.158
 9420SOL     OW29158   0.203   1.425   4.478
 9420SOL    HW129159   0.230   1.425   4.575
 9420SOL    HW229160   0.277   1.462   4.423
 9421SOL     OW29161   1.072   4.690   5.701
 9421SOL    HW129162   1.071   4.662   5.605
 9421SOL    HW229163   0.982   4.726   5.726
 9422SOL     OW29164   4.771   0.999   2.337
 9422SOL    HW129165   4.804   1.044   2.420
 9422SOL    HW229166   4.699   0.935   2.361
 9423SOL     OW29167   3.893   0.845   4.467
 9423SOL    HW129168   3.830   0.884   4.535
 9423SOL    HW229169   3.842   0.784   4.407
 9424SOL     OW29170   3.030   6.189   4.370
 9424SOL    HW129171   3.000   6.207   4.276
 9424SOL    HW229172   3.093   6.262   4.398
 9425SOL     OW29173   1.300   3.351   4.481
 9425SOL    HW129174   1.322   3.393   4.393
 9425SOL    HW229175   1.372   3.373   4.547
 9426SOL     OW29176   3.584   6.919   0.121
 9426SOL    HW129177   3.596   6.949   0.215
 9426SOL    HW229178   3.645   6.970   0.061
 9427SOL     OW29179   2.987   5.342   4.624
 9427SOL    HW129180   3.046   5.401   4.678
 9427SOL    HW229181   2.909   5.395   4.589
 9428SOL     OW29182   5.309   0.102   3.089
 9428SOL    HW129183   5.279   0.013   3.057
 9428SOL    HW229184   5.247   0.135   3.160
 9429SOL     OW29185   0.434   4.060   2.550
 9429SOL    HW129186   0.518   4.084   2.502
 9429SOL    HW229187   0.436   3.964   2.576
 9430SOL     OW29188   6.311   6.910   1.891
 9430SOL    HW129189   6.382   6.914   1.821
 9430SOL    HW229190   6.341   6.962   1.972
 9431SOL     OW29191   6.904   4.474   1.436
 9431SOL    HW129192   6.927   4.417   1.515
 9431SOL    HW229193   6.950   4.437   1.354
 9432SOL     OW29194   6.534   6.676   3.235
 9432SOL    HW129195   6.454   6.733   3.253
 9432SOL    HW229196   6.518   6.621   3.154
 9433SOL     OW29197   3.369   5.057   5.282
 9433SOL    HW129198   3.322   5.135   5.240
 9433SOL    HW229199   3.467   5.075   5.286
 9434SOL     OW29200   5.136   5.109   2.515
 9434SOL    HW129201   5.133   5.135   2.612
 9434SOL    HW229202   5.228   5.126   2.479
 9435SOL     OW29203   1.577   0.693   4.373
 9435SOL    HW129204   1.609   0.786   4.387
 9435SOL    HW229205   1.487   0.682   4.416
 9436SOL     OW29206   2.277   3.504   0.109
 9436SOL    HW129207   2.305   3.597   0.132
 9436SOL    HW229208   2.335   3.469   0.036
 9437SOL     OW29209   1.671   4.992   3.862
 9437SOL    HW129210   1.754   4.937   3.876
 9437SOL    HW229211   1.591   4.933   3.869
 9438SOL     OW29212   0.920   6.541   2.092
 9438SOL    HW129213   0.991   6.591   2.142
 9438SOL    HW229214   0.852   6.605   2.057
 9439SOL     OW29215   0.273   2.768   2.012
 9439SOL    HW129216   0.290   2.823   1.931
 9439SOL    HW229217   0.357   2.720   2.038
 9440SOL     OW29218   5.140   6.178   6.174
 9440SOL    HW129219   5.124   6.090   6.219
 9440SOL    HW229220   5.193   6.237   6.235
 9441SOL     OW29221   1.692   5.075   5.550
 9441SOL    HW129222   1.726   4.984   5.523
 9441SOL    HW229223   1.634   5.065   5.630
 9442SOL     OW29224   6.895   3.329   1.412
 9442SOL    HW129225   6.975   3.358   1.360
 9442SOL    HW229226   6.859   3.244   1.374
 9443SOL     OW29227   1.802   4.005   1.841
 9443SOL    HW129228   1.775   3.933   1.905
 9443SOL    HW229229   1.787   3.974   1.747
 9444SOL     OW29230   0.478   3.412   0.353
 9444SOL    HW129231   0.379   3.417   0.364
 9444SOL    HW229232   0.502   3.437   0.259
 9445SOL     OW29233   5.549   3.727   1.689
 9445SOL    HW129234   5.547   3.659   1.615
 9445SOL    HW229235   5.621   3.704   1.754
 9446SOL     OW29236   6.457   6.082   1.503
 9446SOL    HW129237   6.519   6.120   1.434
 9446SOL    HW229238   6.498   5.999   1.542
 9447SOL     OW29239   6.108   3.248   2.143
 9447SOL    HW129240   6.165   3.188   2.087
 9447SOL    HW229241   6.066   3.318   2.085
 9448SOL     OW29242   5.731   6.606   0.534
 9448SOL    HW129243   5.656   6.548   0.500
 9448SOL    HW229244   5.808   6.548   0.560
 9449SOL     OW29245   5.940   4.817   5.723
 9449SOL    HW129246   5.948   4.723   5.757
 9449SOL    HW229247   5.954   4.881   5.798
 9450SOL     OW29248   3.141   4.928   4.610
 9450SOL    HW129249   3.095   4.875   4.682
 9450SOL    HW229250   3.095   4.911   4.523
 9451SOL     OW29251   4.795   5.245   6.120
 9451SOL    HW129252   4.716   5.255   6.059
 9451SOL    HW229253   4.845   5.331   6.124
 9452SOL     OW29254   2.629   4.929   1.762
 9452SOL    HW129255   2.725   4.904   1.776
 9452SOL    HW229256   2.594   4.882   1.681
 9453SOL     OW29257   2.561   5.245   2.555
 9453SOL    HW129258   2.656   5.232   2.582
 9453SOL    HW229259   2.534   5.340   2.569
 9454SOL     OW29260   1.893   3.394   5.598
 9454SOL    HW129261   1.817   3.425   5.541
 9454SOL    HW229262   1.979   3.423   5.557
 9455SOL     OW29263   3.695   1.641   2.211
 9455SOL    HW129264   3.781   1.617   2.164
 9455SOL    HW229265   3.665   1.732   2.181
 9456SOL     OW29266   1.289   3.671   1.280
 9456SOL    HW129267   1.194   3.696   1.268
 9456SOL    HW229268   1.332   3.656   1.191
 9457SOL     OW29269   0.956   3.066   0.699
 9457SOL    HW129270   0.895   3.042   0.774
 9457SOL    HW229271   0.938   3.159   0.669
 9458SOL     OW29272   6.504   5.402   5.143
 9458SOL    HW129273   6.437   5.328   5.135
 9458SOL    HW229274   6.568   5.381   5.217
 9459SOL     OW29275   6.557   5.881   1.657
 9459SOL    HW129276   6.628   5.817   1.628
 9459SOL    HW229277   6.546   5.876   1.756
 9460SOL     OW29278   0.840   1.939   4.873
 9460SOL    HW129279   0.922   1.996   4.880
 9460SOL    HW229280   0.806   1.942   4.779
 9461SOL     OW29281   1.207   0.668   3.943
 9461SOL    HW129282   1.123   0.721   3.942
 9461SOL    HW229283   1.185   0.570   3.950
 9462SOL     OW29284   0.864   2.603   2.221
 9462SOL    HW129285   0.811   2.683   2.193
 9462SOL    HW229286   0.873   2.601   2.321
 9463SOL     OW29287   5.594   1.593   0.118
 9463SOL    HW129288   5.573   1.657   0.192
 9463SOL    HW229289   5.592   1.500   0.154
 9464SOL     OW29290   5.833   0.302   6.063
 9464SOL    HW129291   5.843   0.380   6.001
 9464SOL    HW229292   5.762   0.323   6.130
 9465SOL     OW29293   6.148   0.683   4.057
 9465SOL    HW129294   6.172   0.656   4.150
 9465SOL    HW229295   6.048   0.692   4.049
 9466SOL     OW29296   2.924   2.562   6.454
 9466SOL    HW129297   2.975   2.628   6.398
 9466SOL    HW229298   2.838   2.540   6.408
 9467SOL     OW29299   2.068   3.343   2.233
 9467SOL    HW129300   2.123   3.384   2.160
 9467SOL    HW229301   2.000   3.410   2.264
 9468SOL     OW29302   0.046   3.342   5.497
 9468SOL    HW129303   0.022   3.384   5.410
 9468SOL    HW229304   6.985   3.293   5.533
 9469SOL     OW29305   6.270   5.209   2.172
 9469SOL    HW129306   6.323   5.259   2.103
 9469SOL    HW229307   6.231   5.274   2.237
 9470SOL     OW29308   4.659   3.801   0.888
 9470SOL    HW129309   4.656   3.869   0.815
 9470SOL    HW229310   4.642   3.710   0.850
 9471SOL     OW29311   0.341   2.219   5.575
 9471SOL    HW129312   0.433   2.222   5.612
 9471SOL    HW229313   0.319   2.307   5.532
 9472SOL     OW29314   6.106   4.437   4.180
 9472SOL    HW129315   6.031   4.434   4.246
 9472SOL    HW229316   6.148   4.527   4.181
 9473SOL     OW29317   2.785   5.495   6.279
 9473SOL    HW129318   2.720   5.432   6.236
 9473SOL    HW229319   2.757   5.589   6.261
 9474SOL     OW29320   4.206   5.020   1.782
 9474SOL    HW129321   4.150   4.948   1.741
 9474SOL    HW229322   4.221   5.000   1.878
 9475SOL     OW29323   2.436   3.430   1.505
 9475SOL    HW129324   2.395   3.518   1.529
 9475SOL    HW229325   2.366   3.358   1.508
 9476SOL     OW29326   3.756   3.242   5.348
 9476SOL    HW129327   3.763   3.177   5.424
 9476SOL    HW229328   3.699   3.203   5.276
 9477SOL     OW29329   1.250   2.757   1.477
 9477SOL    HW129330   1.190   2.748   1.398
 9477SOL    HW229331   1.284   2.666   1.504
 9478SOL     OW29332   5.564   4.589   5.657
 9478SOL    HW129333   5.650   4.605   5.610
 9478SOL    HW229334   5.582   4.554   5.749
 9479SOL     OW29335   5.973   5.822   6.846
 9479SOL    HW129336   5.987   5.773   6.932
 9479SOL    HW229337   6.054   5.811   6.788
 9480SOL     OW29338   5.902   4.822   6.986
 9480SOL    HW129339   5.906   4.760   0.045
 9480SOL    HW229340   5.806   4.839   6.962
 9481SOL     OW29341   6.939   3.721   2.104
 9481SOL    HW129342   6.879   3.646   2.078
 9481SOL    HW229343   6.984   3.700   2.191
 9482SOL     OW29344   4.573   1.120   1.989
 9482SOL    HW129345   4.666   1.129   2.023
 9482SOL    HW229346   4.565   1.167   1.901
 9483SOL     OW29347   1.342   1.569   6.821
 9483SOL    HW129348   1.247   1.570   6.851
 9483SOL    HW229349   1.346   1.554   6.722
 9484SOL     OW29350   6.914   1.227   4.094
 9484SOL    HW129351   6.893   1.318   4.058
 9484SOL    HW229352   6.977   1.236   4.172
 9485SOL     OW29353   1.104   0.813   2.460
 9485SOL    HW129354   1.054   0.736   2.500
 9485SOL    HW229355   1.055   0.898   2.477
 9486SOL     OW29356   3.028   6.325   1.522
 9486SOL    HW129357   3.126   6.347   1.525
 9486SOL    HW229358   3.015   6.234   1.484
 9487SOL     OW29359   3.272   3.618   3.891
 9487SOL    HW129360   3.323   3.654   3.812
 9487SOL    HW229361   3.274   3.518   3.888
 9488SOL     OW29362   1.230   6.551   1.448
 9488SOL    HW129363   1.193   6.473   1.399
 9488SOL    HW229364   1.158   6.594   1.502
 9489SOL     OW29365   3.845   4.934   1.230
 9489SOL    HW129366   3.783   5.012   1.224
 9489SOL    HW229367   3.910   4.937   1.154
 9490SOL     OW29368   4.999   1.107   1.415
 9490SOL    HW129369   5.038   1.167   1.345
 9490SOL    HW229370   5.073   1.059   1.462
 9491SOL     OW29371   5.498   4.775   5.474
 9491SOL    HW129372   5.420   4.836   5.491
 9491SOL    HW229373   5.506   4.709   5.549
 9492SOL     OW29374   3.366   4.112   1.431
 9492SOL    HW129375   3.283   4.156   1.467
 9492SOL    HW229376   3.345   4.018   1.404
 9493SOL     OW29377   4.599   6.093   3.004
 9493SOL    HW129378   4.546   6.072   3.087
 9493SOL    HW229379   4.675   6.154   3.028
 9494SOL     OW29380   4.653   2.791   5.451
 9494SOL    HW129381   4.671   2.861   5.521
 9494SOL    HW229382   4.561   2.755   5.463
 9495SOL     OW29383   5.970   2.371   5.008
 9495SOL    HW129384   5.881   2.374   4.964
 9495SOL    HW229385   5.976   2.290   5.067
 9496SOL     OW29386   5.848   4.285   6.846
 9496SOL    HW129387   5.812   4.370   6.886
 9496SOL    HW229388   5.937   4.303   6.804
 9497SOL     OW29389   5.475   5.656   6.798
 9497SOL    HW129390   5.421   5.739   6.808
 9497SOL    HW229391   5.549   5.656   6.865
 9498SOL     OW29392   3.698   0.018   6.232
 9498SOL    HW129393   3.738   0.097   6.279
 9498SOL    HW229394   3.744   6.953   6.263
 9499SOL     OW29395   2.922   3.876   5.564
 9499SOL    HW129396   2.970   3.795   5.599
 9499SOL    HW229397   2.826   3.872   5.591
 9500SOL     OW29398   4.188   5.938   1.806
 9500SOL    HW129399   4.278   5.964   1.770
 9500SOL    HW229400   4.198   5.904   1.900
 9501SOL     OW29401   3.416   1.429   4.366
 9501SOL    HW129402   3.391   1.390   4.455
 9501SOL    HW229403   3.515   1.437   4.360
 9502SOL     OW29404   6.070   2.653   4.908
 9502SOL    HW129405   6.138   2.684   4.974
 9502SOL    HW229406   6.049   2.557   4.925
 9503SOL     OW29407   1.175   0.108   1.775
 9503SOL    HW129408   1.228   0.061   1.846
 9503SOL    HW229409   1.166   0.204   1.799
 9504SOL     OW29410   0.793   2.870   0.393
 9504SOL    HW129411   0.886   2.865   0.428
 9504SOL    HW229412   0.756   2.961   0.412
 9505SOL     OW29413   5.858   2.843   3.430
 9505SOL    HW129414   5.880   2.750   3.460
 9505SOL    HW229415   5.929   2.906   3.461
 9506SOL     OW29416   0.176   3.897   0.337
 9506SOL    HW129417   0.238   3.969   0.308
 9506SOL    HW229418   0.084   3.915   0.301
 9507SOL     OW29419   0.724   1.566   3.392
 9507SOL    HW129420   0.702   1.578   3.488
 9507SOL    HW229421   0.822   1.548   3.382
 9508SOL     OW29422   5.876   1.655   0.867
 9508SOL    HW129423   5.898   1.693   0.957
 9508SOL    HW229424   5.838   1.727   0.810
 9509SOL     OW29425   2.202   6.285   5.627
 9509SOL    HW129426   2.110   6.317   5.652
 9509SOL    HW229427   2.207   6.186   5.642
 9510SOL     OW29428   5.914   4.530   3.040
 9510SOL    HW129429   5.929   4.604   3.104
 9510SOL    HW229430   5.998   4.511   2.989
 9511SOL     OW29431   0.662   1.871   0.477
 9511SOL    HW129432   0.593   1.915   0.534
 9511SOL    HW229433   0.738   1.840   0.534
 9512SOL     OW29434   0.975   2.104   4.036
 9512SOL    HW129435   1.025   2.031   4.083
 9512SOL    HW229436   0.973   2.185   4.095
 9513SOL     OW29437   2.172   3.846   4.457
 9513SOL    HW129438   2.225   3.930   4.454
 9513SOL    HW229439   2.180   3.799   4.369
 9514SOL     OW29440   1.823   3.450   0.203
 9514SOL    HW129441   1.812   3.504   0.119
 9514SOL    HW229442   1.913   3.406   0.203
 9515SOL     OW29443   1.871   6.054   6.496
 9515SOL    HW129444   1.874   6.127   6.564
 9515SOL    HW229445   1.817   5.977   6.531
 9516SOL     OW29446   5.373   4.028   4.112
 9516SOL    HW129447   5.313   4.067   4.182
 9516SOL    HW229448   5.330   3.947   4.072
 9517SOL     OW29449   0.218   5.718   1.461
 9517SOL    HW129450   0.313   5.689   1.444
 9517SOL    HW229451   0.158   5.638   1.454
 9518SOL     OW29452   0.566   2.353   6.317
 9518SOL    HW129453   0.639   2.285   6.312
 9518SOL    HW229454   0.591   2.425   6.380
 9519SOL     OW29455   3.407   3.737   2.841
 9519SOL    HW129456   3.369   3.648   2.815
 9519SOL    HW229457   3.507   3.734   2.838
 9520SOL     OW29458   0.063   0.240   5.293
 9520SOL    HW129459   7.006   0.182   5.325
 9520SOL    HW229460   0.079   0.313   5.360
 9521SOL     OW29461   3.194   0.699   0.729
 9521SOL    HW129462   3.277   0.666   0.684
 9521SOL    HW229463   3.117   0.639   0.706
 9522SOL     OW29464   3.692   6.015   1.095
 9522SOL    HW129465   3.786   6.023   1.062
 9522SOL    HW229466   3.667   5.918   1.098
 9523SOL     OW29467   2.415   5.185   4.107
 9523SOL    HW129468   2.430   5.087   4.107
 9523SOL    HW229469   2.336   5.207   4.164
 9524SOL     OW29470   1.933   4.355   1.557
 9524SOL    HW129471   1.964   4.388   1.646
 9524SOL    HW229472   1.999   4.288   1.522
 9525SOL     OW29473   2.032   2.886   5.396
 9525SOL    HW129474   1.946   2.935   5.409
 9525SOL    HW229475   2.076   2.916   5.312
 9526SOL     OW29476   5.332   4.929   0.066
 9526SOL    HW129477   5.298   5.000   0.005
 9526SOL    HW229478   5.263   4.858   0.077
 9527SOL     OW29479   3.529   6.701   3.282
 9527SOL    HW129480   3.508   6.670   3.375
 9527SOL    HW229481   3.594   6.777   3.286
 9528SOL     OW29482   5.883   1.412   0.774
 9528SOL    HW129483   5.879   1.508   0.801
 9528SOL    HW229484   5.851   1.354   0.848
 9529SOL     OW29485   6.416   2.096   1.580
 9529SOL    HW129486   6.329   2.104   1.532
 9529SOL    HW229487   6.459   2.186   1.588
 9530SOL     OW29488   0.603   5.725   3.674
 9530SOL    HW129489   0.626   5.661   3.601
 9530SOL    HW229490   0.584   5.815   3.635
 9531SOL     OW29491   3.869   4.850   2.724
 9531SOL    HW129492   3.914   4.824   2.638
 9531SOL    HW229493   3.771   4.860   2.708
 9532SOL     OW29494   5.741   5.484   2.444
 9532SOL    HW129495   5.829   5.480   2.398
 9532SOL    HW229496   5.724   5.577   2.476
 9533SOL     OW29497   2.191   5.142   3.505
 9533SOL    HW129498   2.288   5.156   3.523
 9533SOL    HW229499   2.139   5.218   3.542
 9534SOL     OW29500   5.546   4.558   5.245
 9534SOL    HW129501   5.568   4.652   5.273
 9534SOL    HW229502   5.628   4.502   5.254
 9535SOL     OW29503   1.003   1.272   5.699
 9535SOL    HW129504   0.939   1.285   5.623
 9535SOL    HW229505   1.094   1.305   5.672
 9536SOL     OW29506   3.592   3.889   4.601
 9536SOL    HW129507   3.627   3.976   4.636
 9536SOL    HW229508   3.645   3.861   4.521
 9537SOL     OW29509   1.479   0.752   3.921
 9537SOL    HW129510   1.476   0.777   3.824
 9537SOL    HW229511   1.387   0.734   3.954
 9538SOL     OW29512   3.674   0.625   4.418
 9538SOL    HW129513   3.626   0.606   4.333
 9538SOL    HW229514   3.607   0.643   4.491
 9539SOL     OW29515   3.487   2.857   2.946
 9539SOL    HW129516   3.432   2.804   3.010
 9539SOL    HW229517   3.567   2.895   2.993
 9540SOL     OW29518   5.204   5.195   3.862
 9540SOL    HW129519   5.236   5.167   3.771
 9540SOL    HW229520   5.157   5.118   3.906
 9541SOL     OW29521   1.474   5.606   4.960
 9541SOL    HW129522   1.375   5.611   4.949
 9541SOL    HW229523   1.499   5.516   4.997
 9542SOL     OW29524   5.538   4.887   4.461
 9542SOL    HW129525   5.454   4.916   4.508
 9542SOL    HW229526   5.608   4.958   4.470
 9543SOL     OW29527   2.597   0.943   6.031
 9543SOL    HW129528   2.681   0.890   6.034
 9543SOL    HW229529   2.529   0.895   5.976
 9544SOL     OW29530   5.426   3.654   3.548
 9544SOL    HW129531   5.364   3.716   3.500
 9544SOL    HW229532   5.442   3.573   3.492
 9545SOL     OW29533   1.114   4.675   1.871
 9545SOL    HW129534   1.053   4.747   1.838
 9545SOL    HW229535   1.208   4.699   1.849
 9546SOL     OW29536   2.715   1.562   6.427
 9546SOL    HW129537   2.756   1.476   6.398
 9546SOL    HW229538   2.717   1.568   6.527
 9547SOL     OW29539   3.395   6.269   3.824
 9547SOL    HW129540   3.404   6.339   3.895
 9547SOL    HW229541   3.387   6.179   3.867
 9548SOL     OW29542   1.082   4.997   6.561
 9548SOL    HW129543   1.035   4.909   6.574
 9548SOL    HW229544   1.166   4.998   6.616
 9549SOL     OW29545   4.341   1.892   2.154
 9549SOL    HW129546   4.374   1.936   2.236
 9549SOL    HW229547   4.373   1.942   2.073
 9550SOL     OW29548   5.217   2.666   1.489
 9550SOL    HW129549   5.242   2.633   1.581
 9550SOL    HW229550   5.291   2.723   1.453
 9551SOL     OW29551   6.302   2.172   6.458
 9551SOL    HW129552   6.356   2.243   6.413
 9551SOL    HW229553   6.293   2.093   6.398
 9552SOL     OW29554   2.401   0.640   6.206
 9552SOL    HW129555   2.350   0.629   6.121
 9552SOL    HW229556   2.496   0.614   6.192
 9553SOL     OW29557   5.251   2.292   6.734
 9553SOL    HW129558   5.215   2.379   6.768
 9553SOL    HW229559   5.305   2.308   6.652
 9554SOL     OW29560   2.062   6.567   4.125
 9554SOL    HW129561   2.064   6.624   4.042
 9554SOL    HW229562   2.110   6.614   4.199
 9555SOL     OW29563   6.446   0.869   4.087
 9555SOL    HW129564   6.416   0.790   4.140
 9555SOL    HW229565   6.540   0.854   4.055
 9556SOL     OW29566   2.340   4.170   0.872
 9556SOL    HW129567   2.409   4.236   0.843
 9556SOL    HW229568   2.359   4.141   0.965
 9557SOL     OW29569   4.864   0.552   1.552
 9557SOL    HW129570   4.897   0.644   1.571
 9557SOL    HW229571   4.800   0.523   1.623
 9558SOL     OW29572   5.632   6.515   6.026
 9558SOL    HW129573   5.717   6.487   6.070
 9558SOL    HW229574   5.562   6.445   6.041
 9559SOL     OW29575   1.563   3.832   0.112
 9559SOL    HW129576   1.655   3.871   0.114
 9559SOL    HW229577   1.496   3.903   0.137
 9560SOL     OW29578   3.256   0.139   1.746
 9560SOL    HW129579   3.208   0.111   1.829
 9560SOL    HW229580   3.195   0.128   1.667
 9561SOL     OW29581   1.031   1.079   1.242
 9561SOL    HW129582   1.100   1.013   1.214
 9561SOL    HW229583   1.033   1.158   1.180
 9562SOL     OW29584   2.727   5.196   3.504
 9562SOL    HW129585   2.825   5.175   3.507
 9562SOL    HW229586   2.694   5.216   3.596
 9563SOL     OW29587   0.670   6.406   0.518
 9563SOL    HW129588   0.744   6.347   0.550
 9563SOL    HW229589   0.645   6.470   0.591
 9564SOL     OW29590   1.632   0.262   0.623
 9564SOL    HW129591   1.724   0.231   0.645
 9564SOL    HW229592   1.613   0.349   0.669
 9565SOL     OW29593   3.708   1.248   3.819
 9565SOL    HW129594   3.723   1.336   3.864
 9565SOL    HW229595   3.611   1.224   3.822
 9566SOL     OW29596   2.032   6.647   0.702
 9566SOL    HW129597   2.119   6.630   0.749
 9566SOL    HW229598   1.967   6.574   0.725
 9567SOL     OW29599   6.556   4.482   0.390
 9567SOL    HW129600   6.463   4.447   0.390
 9567SOL    HW229601   6.554   4.582   0.380
 9568SOL     OW29602   4.411   1.648   6.787
 9568SOL    HW129603   4.391   1.744   6.809
 9568SOL    HW229604   4.442   1.642   6.692
 9569SOL     OW29605   5.679   0.438   1.758
 9569SOL    HW129606   5.744   0.509   1.786
 9569SOL    HW229607   5.702   0.352   1.804
 9570SOL     OW29608   0.026   3.397   1.039
 9570SOL    HW129609   6.960   3.343   1.040
 9570SOL    HW229610   0.078   3.378   0.956
 9571SOL     OW29611   2.334   2.497   6.877
 9571SOL    HW129612   2.411   2.560   6.867
 9571SOL    HW229613   2.365   2.404   6.856
 9572SOL     OW29614   2.428   4.329   3.461
 9572SOL    HW129615   2.364   4.366   3.528
 9572SOL    HW229616   2.407   4.232   3.444
 9573SOL     OW29617   6.954   1.243   5.001
 9573SOL    HW129618   6.944   1.262   4.903
 9573SOL    HW229619   6.879   1.185   5.032
 9574SOL     OW29620   4.016   2.855   1.413
 9574SOL    HW129621   4.051   2.834   1.503
 9574SOL    HW229622   4.091   2.860   1.347
 9575SOL     OW29623   5.591   6.624   2.039
 9575SOL    HW129624   5.671   6.594   1.987
 9575SOL    HW229625   5.510   6.575   2.006
 9576SOL     OW29626   1.205   1.345   7.002
 9576SOL    HW129627   1.124   1.357   6.944
 9576SOL    HW229628   1.205   1.413   0.056
 9577SOL     OW29629   6.993   6.136   1.286
 9577SOL    HW129630   6.967   6.228   1.316
 9577SOL    HW229631   0.007   6.139   1.192
 9578SOL     OW29632   1.201   2.502   3.176
 9578SOL    HW129633   1.274   2.448   3.134
 9578SOL    HW229634   1.239   2.566   3.241
 9579SOL     OW29635   5.815   6.777   2.257
 9579SOL    HW129636   5.806   6.678   2.257
 9579SOL    HW229637   5.912   6.802   2.257
 9580SOL     OW29638   5.156   4.922   1.089
 9580SOL    HW129639   5.247   4.929   1.130
 9580SOL    HW229640   5.119   4.830   1.107
 9581SOL     OW29641   6.395   0.501   6.967
 9581SOL    HW129642   6.384   0.599   6.979
 9581SOL    HW229643   6.387   0.455   0.037
 9582SOL     OW29644   3.621   5.433   3.904
 9582SOL    HW129645   3.647   5.349   3.856
 9582SOL    HW229646   3.702   5.473   3.946
 9583SOL     OW29647   3.279   4.681   1.726
 9583SOL    HW129648   3.375   4.665   1.751
 9583SOL    HW229649   3.240   4.596   1.690
 9584SOL     OW29650   1.928   3.973   4.532
 9584SOL    HW129651   2.018   3.954   4.494
 9584SOL    HW229652   1.904   3.905   4.601
 9585SOL     OW29653   5.072   5.946   1.530
 9585SOL    HW129654   5.040   5.875   1.467
 9585SOL    HW229655   5.105   5.903   1.614
 9586SOL     OW29656   4.483   5.158   1.388
 9586SOL    HW129657   4.422   5.082   1.366
 9586SOL    HW229658   4.543   5.132   1.464
 9587SOL     OW29659   2.370   6.099   1.601
 9587SOL    HW129660   2.333   6.012   1.569
 9587SOL    HW229661   2.453   6.120   1.549
 9588SOL     OW29662   6.262   6.353   0.553
 9588SOL    HW129663   6.333   6.410   0.595
 9588SOL    HW229664   6.196   6.412   0.506
 9589SOL     OW29665   1.380   3.529   6.600
 9589SOL    HW129666   1.451   3.592   6.569
 9589SOL    HW229667   1.291   3.565   6.575
 9590SOL     OW29668   5.361   1.557   2.041
 9590SOL    HW129669   5.448   1.517   2.071
 9590SOL    HW229670   5.340   1.525   1.949
 9591SOL     OW29671   3.424   6.936   6.717
 9591SOL    HW129672   3.343   6.892   6.679
 9591SOL    HW229673   3.487   6.866   6.752
 9592SOL     OW29674   2.752   4.257   6.541
 9592SOL    HW129675   2.759   4.185   6.609
 9592SOL    HW229676   2.655   4.278   6.524
 9593SOL     OW29677   1.865   1.334   5.407
 9593SOL    HW129678   1.891   1.357   5.501
 9593SOL    HW229679   1.946   1.313   5.353
 9594SOL     OW29680   1.719   6.353   4.024
 9594SOL    HW129681   1.702   6.275   3.963
 9594SOL    HW229682   1.794   6.330   4.086
 9595SOL     OW29683   0.436   3.257   3.910
 9595SOL    HW129684   0.452   3.187   3.979
 9595SOL    HW229685   0.340   3.283   3.910
 9596SOL     OW29686   0.416   5.752   1.209
 9596SOL    HW129687   0.485   5.681   1.199
 9596SOL    HW229688   0.330   5.720   1.169
 9597SOL     OW29689   1.124   4.300   2.112
 9597SOL    HW129690   1.130   4.272   2.208
 9597SOL    HW229691   1.078   4.388   2.106
 9598SOL     OW29692   1.773   3.837   2.877
 9598SOL    HW129693   1.824   3.848   2.792
 9598SOL    HW229694   1.676   3.825   2.857
 9599SOL     OW29695   3.337   6.868   3.561
 9599SOL    HW129696   3.248   6.912   3.579
 9599SOL    HW229697   3.395   6.878   3.641
 9600SOL     OW29698   2.797   0.284   0.554
 9600SOL    HW129699   2.807   0.367   0.500
 9600SOL    HW229700   2.886   0.258   0.592
 9601SOL     OW29701   6.490   4.793   1.039
 9601SOL    HW129702   6.587   4.772   1.027
 9601SOL    HW229703   6.443   4.713   1.075
 9602SOL     OW29704   4.750   4.424   5.414
 9602SOL    HW129705   4.727   4.345   5.357
 9602SOL    HW229706   4.815   4.397   5.485
 9603SOL     OW29707   5.432   6.658   5.901
 9603SOL    HW129708   5.381   6.687   5.982
 9603SOL    HW229709   5.523   6.627   5.929
 9604SOL     OW29710   5.026   0.675   0.847
 9604SOL    HW129711   4.952   0.730   0.808
 9604SOL    HW229712   5.044   0.706   0.940
 9605SOL     OW29713   6.873   4.939   3.352
 9605SOL    HW129714   6.800   4.878   3.383
 9605SOL    HW229715   6.846   4.982   3.266
 9606SOL     OW29716   1.007   1.442   6.468
 9606SOL    HW129717   0.914   1.471   6.448
 9606SOL    HW229718   1.024   1.352   6.426
 9607SOL     OW29719   3.176   1.583   6.259
 9607SOL    HW129720   3.190   1.484   6.261
 9607SOL    HW229721   3.257   1.629   6.295
 9608SOL     OW29722   6.765   4.399   2.769
 9608SOL    HW129723   6.836   4.466   2.789
 9608SOL    HW229724   6.723   4.420   2.681
 9609SOL     OW29725   3.807   2.420   6.548
 9609SOL    HW129726   3.800   2.438   6.647
 9609SOL    HW229727   3.845   2.500   6.502
 9610SOL     OW29728   2.373   4.888   2.720
 9610SOL    HW129729   2.358   4.982   2.749
 9610SOL    HW229730   2.465   4.859   2.746
 9611SOL     OW29731   1.835   6.874   0.855
 9611SOL    HW129732   1.880   6.895   0.768
 9611SOL    HW229733   1.845   6.777   0.875
 9612SOL     OW29734   0.596   3.352   2.356
 9612SOL    HW129735   0.640   3.435   2.390
 9612SOL    HW229736   0.556   3.369   2.266
 9613SOL     OW29737   5.801   6.315   3.507
 9613SOL    HW129738   5.875   6.382   3.502
 9613SOL    HW229739   5.827   6.241   3.569
 9614SOL     OW29740   4.205   2.317   2.723
 9614SOL    HW129741   4.181   2.328   2.627
 9614SOL    HW229742   4.127   2.280   2.773
 9615SOL     OW29743   2.460   2.138   0.699
 9615SOL    HW129744   2.530   2.087   0.749
 9615SOL    HW229745   2.458   2.108   0.604
 9616SOL     OW29746   3.564   2.557   0.793
 9616SOL    HW129747   3.596   2.483   0.852
 9616SOL    HW229748   3.519   2.627   0.848
 9617SOL     OW29749   1.984   2.639   3.489
 9617SOL    HW129750   1.935   2.616   3.574
 9617SOL    HW229751   2.081   2.617   3.500
 9618SOL     OW29752   3.140   1.274   0.842
 9618SOL    HW129753   3.145   1.269   0.941
 9618SOL    HW229754   3.229   1.300   0.804
 9619SOL     OW29755   1.790   0.489   5.568
 9619SOL    HW129756   1.725   0.413   5.567
 9619SOL    HW229757   1.883   0.452   5.559
 9620SOL     OW29758   4.804   0.376   4.677
 9620SOL    HW129759   4.706   0.382   4.697
 9620SOL    HW229760   4.834   0.281   4.686
 9621SOL     OW29761   1.428   2.787   2.251
 9621SOL    HW129762   1.329   2.776   2.265
 9621SOL    HW229763   1.445   2.821   2.159
 9622SOL     OW29764   6.126   1.283   0.718
 9622SOL    HW129765   6.042   1.337   0.719
 9622SOL    HW229766   6.132   1.231   0.633
 9623SOL     OW29767   2.821   2.902   6.728
 9623SOL    HW129768   2.915   2.867   6.731
 9623SOL    HW229769   2.815   2.975   6.660
 9624SOL     OW29770   5.937   3.568   2.736
 9624SOL    HW129771   5.992   3.491   2.770
 9624SOL    HW229772   5.918   3.631   2.811
 9625SOL     OW29773   5.369   5.940   0.004
 9625SOL    HW129774   5.331   5.868   6.963
 9625SOL    HW229775   5.429   5.999   6.968
 9626SOL     OW29776   3.776   5.066   0.779
 9626SOL    HW129777   3.678   5.051   0.793
 9626SOL    HW229778   3.808   5.136   0.843
 9627SOL     OW29779   0.780   6.332   6.325
 9627SOL    HW129780   0.811   6.362   6.235
 9627SOL    HW229781   0.693   6.378   6.347
 9628SOL     OW29782   5.029   6.045   1.099
 9628SOL    HW129783   5.039   5.991   1.016
 9628SOL    HW229784   5.024   6.142   1.076
 9629SOL     OW29785   2.549   0.534   1.420
 9629SOL    HW129786   2.487   0.456   1.433
 9629SOL    HW229787   2.549   0.590   1.503
 9630SOL     OW29788   6.296   0.575   5.668
 9630SOL    HW129789   6.236   0.641   5.712
 9630SOL    HW229790   6.244   0.518   5.605
 9631SOL     OW29791   6.407   0.401   6.488
 9631SOL    HW129792   6.373   0.479   6.436
 9631SOL    HW229793   6.457   0.433   6.568
 9632SOL     OW29794   1.878   6.230   2.136
 9632SOL    HW129795   1.881   6.154   2.200
 9632SOL    HW229796   1.860   6.196   2.044
 9633SOL     OW29797   5.735   5.626   6.896
 9633SOL    HW129798   5.794   5.561   6.848
 9633SOL    HW229799   5.790   5.702   6.931
 9634SOL     OW29800   1.709   6.238   4.928
 9634SOL    HW129801   1.609   6.237   4.928
 9634SOL    HW229802   1.743   6.194   4.845
 9635SOL     OW29803   2.752   5.518   4.924
 9635SOL    HW129804   2.783   5.429   4.959
 9635SOL    HW229805   2.687   5.504   4.849
 9636SOL     OW29806   3.828   1.319   5.475
 9636SOL    HW129807   3.893   1.391   5.500
 9636SOL    HW229808   3.781   1.344   5.390
 9637SOL     OW29809   2.224   2.118   6.410
 9637SOL    HW129810   2.226   2.148   6.506
 9637SOL    HW229811   2.298   2.052   6.394
 9638SOL     OW29812   6.689   3.455   5.040
 9638SOL    HW129813   6.666   3.452   4.943
 9638SOL    HW229814   6.756   3.528   5.056
 9639SOL     OW29815   4.582   1.507   2.900
 9639SOL    HW129816   4.633   1.580   2.856
 9639SOL    HW229817   4.512   1.472   2.837
 9640SOL     OW29818   2.341   2.789   2.677
 9640SOL    HW129819   2.404   2.852   2.631
 9640SOL    HW229820   2.392   2.734   2.743
 9641SOL     OW29821   4.829   7.013   0.509
 9641SOL    HW129822   4.857   0.028   0.599
 9641SOL    HW229823   4.741   0.035   0.485
 9642SOL     OW29824   3.536   0.191   4.717
 9642SOL    HW129825   3.535   0.289   4.737
 9642SOL    HW229826   3.589   0.174   4.635
 9643SOL     OW29827   5.125   4.575   3.781
 9643SOL    HW129828   5.027   4.585   3.796
 9643SOL    HW229829   5.144   4.486   3.739
 9644SOL     OW29830   0.671   2.923   6.647
 9644SOL    HW129831   0.697   2.988   6.576
 9644SOL    HW229832   0.572   2.928   6.663
 9645SOL     OW29833   3.103   5.297   5.328
 9645SOL    HW129834   3.017   5.250   5.349
 9645SOL    HW229835   3.169   5.281   5.400
 9646SOL     OW29836   4.031   4.844   2.459
 9646SOL    HW129837   4.071   4.935   2.462
 9646SOL    HW229838   3.963   4.839   2.386
 9647SOL     OW29839   6.199   3.403   1.125
 9647SOL    HW129840   6.232   3.402   1.031
 9647SOL    HW229841   6.249   3.472   1.177
 9648SOL     OW29842   4.475   2.136   1.366
 9648SOL    HW129843   4.492   2.221   1.416
 9648SOL    HW229844   4.562   2.089   1.349
 9649SOL     OW29845   2.666   5.850   0.200
 9649SOL    HW129846   2.617   5.906   0.134
 9649SOL    HW229847   2.720   5.909   0.261
 9650SOL     OW29848   6.670   5.650   2.133
 9650SOL    HW129849   6.710   5.573   2.182
 9650SOL    HW229850   6.576   5.664   2.165
 9651SOL     OW29851   1.007   1.169   6.402
 9651SOL    HW129852   0.909   1.148   6.409
 9651SOL    HW229853   1.057   1.086   6.377
 9652SOL     OW29854   0.707   4.686   2.925
 9652SOL    HW129855   0.632   4.657   2.867
 9652SOL    HW229856   0.794   4.658   2.884
 9653SOL     OW29857   5.011   4.976   4.217
 9653SOL    HW129858   4.972   5.040   4.283
 9653SOL    HW229859   5.103   5.005   4.192
 9654SOL     OW29860   2.322   2.599   2.130
 9654SOL    HW129861   2.355   2.658   2.204
 9654SOL    HW229862   2.398   2.544   2.095
 9655SOL     OW29863   6.879   1.173   6.481
 9655SOL    HW129864   6.893   1.261   6.528
 9655SOL    HW229865   6.953   1.159   6.415
 9656SOL     OW29866   3.416   0.328   2.556
 9656SOL    HW129867   3.408   0.328   2.656
 9656SOL    HW229868   3.348   0.391   2.517
 9657SOL     OW29869   6.182   1.300   5.005
 9657SOL    HW129870   6.098   1.272   4.959
 9657SOL    HW229871   6.186   1.258   5.096
 9658SOL     OW29872   6.183   2.877   1.788
 9658SOL    HW129873   6.158   2.784   1.816
 9658SOL    HW229874   6.132   2.902   1.706
 9659SOL     OW29875   0.934   4.492   0.288
 9659SOL    HW129876   0.919   4.408   0.341
 9659SOL    HW229877   0.864   4.559   0.312
 9660SOL     OW29878   0.869   5.133   0.500
 9660SOL    HW129879   0.889   5.085   0.414
 9660SOL    HW229880   0.950   5.131   0.559
 9661SOL     OW29881   4.661   6.761   0.576
 9661SOL    HW129882   4.614   6.701   0.640
 9661SOL    HW229883   4.735   6.809   0.623
 9662SOL     OW29884   6.175   1.610   4.568
 9662SOL    HW129885   6.244   1.678   4.540
 9662SOL    HW229886   6.218   1.542   4.627
 9663SOL     OW29887   2.270   5.456   2.909
 9663SOL    HW129888   2.364   5.433   2.932
 9663SOL    HW229889   2.259   5.458   2.810
 9664SOL     OW29890   3.711   6.748   1.987
 9664SOL    HW129891   3.741   6.707   1.901
 9664SOL    HW229892   3.675   6.676   2.047
 9665SOL     OW29893   5.381   4.285   4.970
 9665SOL    HW129894   5.392   4.380   4.996
 9665SOL    HW229895   5.284   4.264   4.958
 9666SOL     OW29896   5.447   4.384   2.417
 9666SOL    HW129897   5.369   4.325   2.440
 9666SOL    HW229898   5.428   4.431   2.331
 9667SOL     OW29899   4.042   3.729   4.156
 9667SOL    HW129900   4.018   3.636   4.127
 9667SOL    HW229901   4.132   3.753   4.119
 9668SOL     OW29902   0.541   1.125   5.463
 9668SOL    HW129903   0.530   1.195   5.393
 9668SOL    HW229904   0.548   1.035   5.419
 9669SOL     OW29905   0.692   6.914   0.179
 9669SOL    HW129906   0.610   6.936   0.231
 9669SOL    HW229907   0.742   6.840   0.225
 9670SOL     OW29908   5.033   4.805   6.822
 9670SOL    HW129909   4.941   4.806   6.784
 9670SOL    HW229910   5.061   4.898   6.847
 9671SOL     OW29911   7.012   5.331   5.220
 9671SOL    HW129912   0.041   5.362   5.137
 9671SOL    HW229913   0.061   5.310   5.291
 9672SOL     OW29914   0.811   5.948   4.700
 9672SOL    HW129915   0.796   5.981   4.793
 9672SOL    HW229916   0.735   5.978   4.642
 9673SOL     OW29917   3.401   4.168   6.641
 9673SOL    HW129918   3.365   4.120   6.561
 9673SOL    HW229919   3.499   4.182   6.630
 9674SOL     OW29920   3.100   6.106   2.017
 9674SOL    HW129921   3.185   6.070   1.978
 9674SOL    HW229922   3.031   6.034   2.016
 9675SOL     OW29923   6.608   2.279   2.464
 9675SOL    HW129924   6.665   2.328   2.530
 9675SOL    HW229925   6.630   2.311   2.372
 9676SOL     OW29926   0.797   4.001   4.654
 9676SOL    HW129927   0.860   4.066   4.611
 9676SOL    HW229928   0.834   3.972   4.742
 9677SOL     OW29929   2.239   3.517   6.123
 9677SOL    HW129930   2.258   3.612   6.095
 9677SOL    HW229931   2.279   3.501   6.213
 9678SOL     OW29932   3.958   3.881   3.307
 9678SOL    HW129933   3.941   3.889   3.405
 9678SOL    HW229934   3.918   3.959   3.259
 9679SOL     OW29935   1.382   2.522   2.035
 9679SOL    HW129936   1.371   2.464   2.116
 9679SOL    HW229937   1.480   2.539   2.020
 9680SOL     OW29938   5.917   6.056   3.385
 9680SOL    HW129939   6.016   6.068   3.385
 9680SOL    HW229940   5.873   6.141   3.356
 9681SOL     OW29941   2.111   0.855   2.371
 9681SOL    HW129942   2.025   0.891   2.406
 9681SOL    HW229943   2.128   0.895   2.280
 9682SOL     OW29944   5.243   4.234   3.231
 9682SOL    HW129945   5.176   4.309   3.238
 9682SOL    HW229946   5.203   4.160   3.178
 9683SOL     OW29947   4.225   6.547   0.039
 9683SOL    HW129948   4.226   6.589   6.967
 9683SOL    HW229949   4.299   6.585   0.094
 9684SOL     OW29950   0.454   4.002   5.161
 9684SOL    HW129951   0.481   3.915   5.120
 9684SOL    HW229952   0.402   4.055   5.094
 9685SOL     OW29953   1.297   2.654   0.688
 9685SOL    HW129954   1.303   2.624   0.784
 9685SOL    HW229955   1.208   2.628   0.651
 9686SOL     OW29956   6.444   0.770   1.699
 9686SOL    HW129957   6.404   0.861   1.706
 9686SOL    HW229958   6.523   0.764   1.761
 9687SOL     OW29959   2.565   0.010   3.640
 9687SOL    HW129960   2.639   0.017   3.572
 9687SOL    HW229961   2.514   0.096   3.642
 9688SOL     OW29962   0.098   1.341   3.244
 9688SOL    HW129963   0.140   1.398   3.173
 9688SOL    HW229964   0.168   1.283   3.285
 9689SOL     OW29965   2.993   6.143   6.637
 9689SOL    HW129966   3.068   6.123   6.700
 9689SOL    HW229967   2.931   6.065   6.632
 9690SOL     OW29968   6.522   4.873   0.561
 9690SOL    HW129969   6.540   4.843   0.467
 9690SOL    HW229970   6.511   4.793   0.621
 9691SOL     OW29971   1.329   5.065   2.154
 9691SOL    HW129972   1.333   5.161   2.125
 9691SOL    HW229973   1.392   5.011   2.098
 9692SOL     OW29974   2.810   5.352   1.571
 9692SOL    HW129975   2.753   5.368   1.490
 9692SOL    HW229976   2.752   5.348   1.652
 9693SOL     OW29977   6.345   6.265   1.899
 9693SOL    HW129978   6.440   6.275   1.870
 9693SOL    HW229979   6.306   6.356   1.916
 9694SOL     OW29980   1.494   2.849   6.780
 9694SOL    HW129981   1.460   2.759   6.755
 9694SOL    HW229982   1.481   2.864   6.878
 9695SOL     OW29983   6.721   4.551   1.257
 9695SOL    HW129984   6.773   4.540   1.172
 9695SOL    HW229985   6.780   4.537   1.335
 9696SOL     OW29986   3.938   2.911   1.904
 9696SOL    HW129987   3.931   2.904   2.003
 9696SOL    HW229988   3.848   2.933   1.866
 9697SOL     OW29989   0.493   5.088   6.859
 9697SOL    HW129990   0.445   5.176   6.857
 9697SOL    HW229991   0.478   5.040   6.773
 9698SOL     OW29992   6.024   2.131   5.136
 9698SOL    HW129993   6.093   2.062   5.113
 9698SOL    HW229994   5.971   2.101   5.215
 9699SOL     OW29995   1.553   3.534   0.104
 9699SOL    HW129996   1.549   3.632   0.082
 9699SOL    HW229997   1.542   3.521   0.202
 9700SOL     OW29998   3.812   4.464   5.294
 9700SOL    HW129999   3.789   4.436   5.387
 9700SOL    HW230000   3.763   4.548   5.272
 9701SOL     OW30001   4.293   5.080   4.646
 9701SOL    HW130002   4.293   4.982   4.625
 9701SOL    HW230003   4.338   5.095   4.734
 9702SOL     OW30004   4.879   1.068   0.909
 9702SOL    HW130005   4.964   1.056   0.961
 9702SOL    HW230006   4.900   1.073   0.812
 9703SOL     OW30007   2.984   6.140   4.107
 9703SOL    HW130008   2.895   6.096   4.101
 9703SOL    HW230009   3.052   6.074   4.139
 9704SOL     OW30010   3.817   6.439   3.175
 9704SOL    HW130011   3.833   6.502   3.100
 9704SOL    HW230012   3.892   6.446   3.241
 9705SOL     OW30013   3.162   4.613   0.378
 9705SOL    HW130014   3.177   4.597   0.280
 9705SOL    HW230015   3.249   4.639   0.421
 9706SOL     OW30016   6.128   2.913   2.408
 9706SOL    HW130017   6.190   2.967   2.351
 9706SOL    HW230018   6.179   2.873   2.484
 9707SOL     OW30019   2.450   4.926   2.141
 9707SOL    HW130020   2.490   4.957   2.227
 9707SOL    HW230021   2.375   4.863   2.161
 9708SOL     OW30022   2.151   1.818   3.304
 9708SOL    HW130023   2.089   1.842   3.230
 9708SOL    HW230024   2.097   1.794   3.385
 9709SOL     OW30025   1.749   6.383   2.907
 9709SOL    HW130026   1.782   6.413   2.997
 9709SOL    HW230027   1.654   6.352   2.915
 9710SOL     OW30028   0.345   1.182   3.300
 9710SOL    HW130029   0.424   1.241   3.319
 9710SOL    HW230030   0.355   1.097   3.351
 9711SOL     OW30031   1.334   4.030   5.571
 9711SOL    HW130032   1.284   4.110   5.605
 9711SOL    HW230033   1.396   4.058   5.497
 9712SOL     OW30034   5.409   1.703   4.091
 9712SOL    HW130035   5.420   1.737   3.998
 9712SOL    HW230036   5.498   1.701   4.137
 9713SOL     OW30037   6.753   5.136   3.204
 9713SOL    HW130038   6.690   5.113   3.278
 9713SOL    HW230039   6.799   5.222   3.224
 9714SOL     OW30040   2.285   2.474   1.573
 9714SOL    HW130041   2.253   2.380   1.579
 9714SOL    HW230042   2.298   2.511   1.665
 9715SOL     OW30043   5.081   5.735   5.028
 9715SOL    HW130044   4.992   5.692   5.042
 9715SOL    HW230045   5.079   5.790   4.944
 9716SOL     OW30046   4.348   1.715   6.149
 9716SOL    HW130047   4.424   1.780   6.148
 9716SOL    HW230048   4.281   1.741   6.080
 9717SOL     OW30049   5.906   5.832   4.189
 9717SOL    HW130050   5.825   5.796   4.235
 9717SOL    HW230051   5.926   5.777   4.108
 9718SOL     OW30052   3.853   3.466   1.251
 9718SOL    HW130053   3.902   3.422   1.326
 9718SOL    HW230054   3.765   3.501   1.284
 9719SOL     OW30055   0.811   2.157   0.234
 9719SOL    HW130056   0.856   2.193   0.152
 9719SOL    HW230057   0.749   2.083   0.208
 9720SOL     OW30058   0.227   6.940   2.358
 9720SOL    HW130059   0.188   6.864   2.307
 9720SOL    HW230060   0.322   6.954   2.330
 9721SOL     OW30061   6.636   4.321   2.291
 9721SOL    HW130062   6.614   4.327   2.194
 9721SOL    HW230063   6.704   4.250   2.305
 9722SOL     OW30064   0.566   0.750   3.815
 9722SOL    HW130065   0.466   0.758   3.807
 9722SOL    HW230066   0.609   0.805   3.743
 9723SOL     OW30067   7.008   0.809   3.509
 9723SOL    HW130068   0.063   0.745   3.535
 9723SOL    HW230069   0.029   0.888   3.463
 9724SOL     OW30070   3.073   2.189   1.369
 9724SOL    HW130071   3.016   2.107   1.356
 9724SOL    HW230072   3.166   2.161   1.392
 9725SOL     OW30073   5.050   3.018   5.248
 9725SOL    HW130074   5.034   3.111   5.282
 9725SOL    HW230075   5.057   3.020   5.149
 9726SOL     OW30076   4.741   6.668   4.908
 9726SOL    HW130077   4.741   6.575   4.872
 9726SOL    HW230078   4.747   6.666   5.008
 9727SOL     OW30079   1.026   3.422   5.701
 9727SOL    HW130080   1.123   3.415   5.680
 9727SOL    HW230081   1.009   3.387   5.793
 9728SOL     OW30082   2.461   5.953   6.413
 9728SOL    HW130083   2.397   6.007   6.468
 9728SOL    HW230084   2.415   5.919   6.331
 9729SOL     OW30085   1.779   4.611   3.264
 9729SOL    HW130086   1.876   4.600   3.289
 9729SOL    HW230087   1.762   4.566   3.177
 9730SOL     OW30088   6.439   3.299   2.510
 9730SOL    HW130089   6.425   3.247   2.593
 9730SOL    HW230090   6.379   3.265   2.438
 9731SOL     OW30091   3.597   5.267   0.624
 9731SOL    HW130092   3.576   5.276   0.721
 9731SOL    HW230093   3.692   5.239   0.612
 9732SOL     OW30094   6.686   6.056   2.639
 9732SOL    HW130095   6.786   6.052   2.630
 9732SOL    HW230096   6.645   5.980   2.588
 9733SOL     OW30097   4.918   4.894   5.174
 9733SOL    HW130098   4.913   4.839   5.257
 9733SOL    HW230099   4.930   4.834   5.095
 9734SOL     OW30100   5.603   2.054   3.985
 9734SOL    HW130101   5.566   2.130   3.931
 9734SOL    HW230102   5.583   2.068   4.081
 9735SOL     OW30103   2.224   4.990   1.753
 9735SOL    HW130104   2.299   4.965   1.814
 9735SOL    HW230105   2.160   5.050   1.801
 9736SOL     OW30106   4.200   1.006   6.533
 9736SOL    HW130107   4.290   1.024   6.492
 9736SOL    HW230108   4.164   1.091   6.572
 9737SOL     OW30109   4.048   2.166   5.001
 9737SOL    HW130110   4.054   2.265   5.016
 9737SOL    HW230111   3.980   2.148   4.930
 9738SOL     OW30112   1.576   1.028   3.371
 9738SOL    HW130113   1.661   0.977   3.383
 9738SOL    HW230114   1.595   1.115   3.325
 9739SOL     OW30115   5.918   4.931   1.742
 9739SOL    HW130116   5.983   4.963   1.811
 9739SOL    HW230117   5.887   5.009   1.688
 9740SOL     OW30118   6.253   4.915   2.977
 9740SOL    HW130119   6.157   4.930   2.998
 9740SOL    HW230120   6.293   4.853   3.045
 9741SOL     OW30121   4.396   2.024   2.400
 9741SOL    HW130122   4.374   2.108   2.351
 9741SOL    HW230123   4.327   2.007   2.469
 9742SOL     OW30124   5.272   1.199   3.119
 9742SOL    HW130125   5.333   1.153   3.055
 9742SOL    HW230126   5.326   1.247   3.188
 9743SOL     OW30127   1.633   3.187   6.144
 9743SOL    HW130128   1.714   3.131   6.161
 9743SOL    HW230129   1.560   3.160   6.207
 9744SOL     OW30130   1.873   1.185   1.792
 9744SOL    HW130131   1.886   1.086   1.785
 9744SOL    HW230132   1.802   1.205   1.859
 9745SOL     OW30133   0.824   2.315   4.905
 9745SOL    HW130134   0.797   2.346   4.996
 9745SOL    HW230135   0.746   2.323   4.843
 9746SOL     OW30136   6.095   0.770   5.043
 9746SOL    HW130137   6.139   0.860   5.054
 9746SOL    HW230138   6.001   0.782   5.013
 9747SOL     OW30139   0.790   0.454   5.953
 9747SOL    HW130140   0.806   0.552   5.956
 9747SOL    HW230141   0.778   0.425   5.858
 9748SOL     OW30142   1.079   6.206   4.009
 9748SOL    HW130143   1.091   6.147   3.929
 9748SOL    HW230144   1.045   6.152   4.086
 9749SOL     OW30145   0.684   3.849   4.455
 9749SOL    HW130146   0.698   3.911   4.533
 9749SOL    HW230147   0.763   3.855   4.393
 9750SOL     OW30148   4.636   4.908   3.485
 9750SOL    HW130149   4.664   4.865   3.571
 9750SOL    HW230150   4.713   4.959   3.447
 9751SOL     OW30151   1.827   1.952   0.577
 9751SOL    HW130152   1.874   1.972   0.663
 9751SOL    HW230153   1.895   1.943   0.503
 9752SOL     OW30154   4.265   0.759   5.448
 9752SOL    HW130155   4.204   0.812   5.389
 9752SOL    HW230156   4.358   0.762   5.410
 9753SOL     OW30157   6.776   5.944   5.507
 9753SOL    HW130158   6.841   5.907   5.440
 9753SOL    HW230159   6.786   6.043   5.511
 9754SOL     OW30160   1.100   1.855   6.782
 9754SOL    HW130161   1.067   1.760   6.784
 9754SOL    HW230162   1.088   1.896   6.872
 9755SOL     OW30163   3.831   3.731   5.208
 9755SOL    HW130164   3.755   3.759   5.149
 9755SOL    HW230165   3.814   3.764   5.301
 9756SOL     OW30166   5.918   2.657   6.720
 9756SOL    HW130167   5.944   2.567   6.686
 9756SOL    HW230168   5.973   2.681   6.800
 9757SOL     OW30169   6.113   2.527   4.118
 9757SOL    HW130170   6.024   2.565   4.141
 9757SOL    HW230171   6.107   2.427   4.117
 9758SOL     OW30172   2.807   0.299   6.511
 9758SOL    HW130173   2.738   0.226   6.511
 9758SOL    HW230174   2.771   0.378   6.561
 9759SOL     OW30175   2.900   6.505   1.107
 9759SOL    HW130176   2.885   6.544   1.017
 9759SOL    HW230177   2.996   6.516   1.133
 9760SOL     OW30178   5.883   4.445   6.034
 9760SOL    HW130179   5.901   4.363   5.981
 9760SOL    HW230180   5.940   4.445   6.117
 9761SOL     OW30181   5.888   5.506   1.921
 9761SOL    HW130182   5.935   5.418   1.921
 9761SOL    HW230183   5.829   5.512   2.002
 9762SOL     OW30184   2.468   1.948   4.762
 9762SOL    HW130185   2.411   2.029   4.751
 9762SOL    HW230186   2.523   1.958   4.845
 9763SOL     OW30187   2.925   1.957   1.334
 9763SOL    HW130188   2.869   1.952   1.416
 9763SOL    HW230189   2.906   1.878   1.276
 9764SOL     OW30190   0.763   2.014   3.162
 9764SOL    HW130191   0.673   1.996   3.204
 9764SOL    HW230192   0.778   2.113   3.159
 9765SOL     OW30193   0.742   2.607   5.646
 9765SOL    HW130194   0.751   2.664   5.727
 9765SOL    HW230195   0.828   2.557   5.631
 9766SOL     OW30196   2.985   0.265   2.725
 9766SOL    HW130197   2.929   0.347   2.710
 9766SOL    HW230198   3.034   0.243   2.641
 9767SOL     OW30199   5.156   0.725   4.870
 9767SOL    HW130200   5.098   0.649   4.901
 9767SOL    HW230201   5.211   0.695   4.792
 9768SOL     OW30202   4.521   1.980   2.861
 9768SOL    HW130203   4.583   1.916   2.815
 9768SOL    HW230204   4.575   2.043   2.917
 9769SOL     OW30205   1.224   2.004   1.280
 9769SOL    HW130206   1.277   1.948   1.344
 9769SOL    HW230207   1.144   2.042   1.326
 9770SOL     OW30208   5.658   4.543   5.918
 9770SOL    HW130209   5.606   4.467   5.881
 9770SOL    HW230210   5.740   4.508   5.965
 9771SOL     OW30211   4.025   5.383   5.972
 9771SOL    HW130212   4.058   5.309   5.914
 9771SOL    HW230213   4.089   5.460   5.969
 9772SOL     OW30214   6.792   0.541   1.982
 9772SOL    HW130215   6.728   0.466   1.993
 9772SOL    HW230216   6.882   0.513   2.015
 9773SOL     OW30217   6.041   5.526   3.724
 9773SOL    HW130218   5.985   5.498   3.646
 9773SOL    HW230219   6.128   5.477   3.723
 9774SOL     OW30220   6.172   4.982   3.787
 9774SOL    HW130221   6.109   5.057   3.770
 9774SOL    HW230222   6.203   4.985   3.883
 9775SOL     OW30223   1.839   2.561   4.899
 9775SOL    HW130224   1.814   2.475   4.856
 9775SOL    HW230225   1.762   2.596   4.953
 9776SOL     OW30226   0.387   6.124   5.420
 9776SOL    HW130227   0.364   6.029   5.443
 9776SOL    HW230228   0.428   6.127   5.329
 9777SOL     OW30229   5.658   4.327   6.381
 9777SOL    HW130230   5.594   4.341   6.306
 9777SOL    HW230231   5.679   4.230   6.389
 9778SOL     OW30232   4.775   6.876   2.487
 9778SOL    HW130233   4.808   6.840   2.400
 9778SOL    HW230234   4.694   6.932   2.472
 9779SOL     OW30235   2.681   1.998   5.460
 9779SOL    HW130236   2.585   2.000   5.431
 9779SOL    HW230237   2.708   2.089   5.493
 9780SOL     OW30238   2.944   4.572   0.557
 9780SOL    HW130239   3.032   4.602   0.520
 9780SOL    HW230240   2.870   4.604   0.497
 9781SOL     OW30241   2.085   5.028   4.822
 9781SOL    HW130242   2.070   4.935   4.855
 9781SOL    HW230243   2.124   5.084   4.895
 9782SOL     OW30244   6.359   0.469   1.885
 9782SOL    HW130245   6.410   0.545   1.845
 9782SOL    HW230246   6.309   0.501   1.966
 9783SOL     OW30247   5.361   1.377   1.573
 9783SOL    HW130248   5.394   1.471   1.572
 9783SOL    HW230249   5.385   1.333   1.486
 9784SOL     OW30250   4.399   0.430   3.443
 9784SOL    HW130251   4.389   0.374   3.361
 9784SOL    HW230252   4.363   0.381   3.522
 9785SOL     OW30253   1.001   2.937   1.967
 9785SOL    HW130254   1.078   2.875   1.960
 9785SOL    HW230255   0.919   2.886   1.995
 9786SOL     OW30256   2.934   5.939   5.345
 9786SOL    HW130257   3.000   6.008   5.375
 9786SOL    HW230258   2.914   5.952   5.248
 9787SOL     OW30259   5.189   4.511   1.844
 9787SOL    HW130260   5.228   4.429   1.887
 9787SOL    HW230261   5.184   4.497   1.745
 9788SOL     OW30262   6.180   0.982   5.427
 9788SOL    HW130263   6.094   0.954   5.383
 9788SOL    HW230264   6.180   0.951   5.522
 9789SOL     OW30265   2.385   5.377   4.727
 9789SOL    HW130266   2.298   5.407   4.688
 9789SOL    HW230267   2.429   5.312   4.664
 9790SOL     OW30268   5.951   2.272   4.092
 9790SOL    HW130269   5.895   2.272   4.175
 9790SOL    HW230270   5.926   2.194   4.036
 9791SOL     OW30271   0.504   2.120   1.311
 9791SOL    HW130272   0.571   2.193   1.298
 9791SOL    HW230273   0.494   2.101   1.409
 9792SOL     OW30274   4.064   5.282   0.981
 9792SOL    HW130275   4.136   5.324   1.038
 9792SOL    HW230276   4.105   5.242   0.899
 9793SOL     OW30277   5.234   5.874   1.965
 9793SOL    HW130278   5.248   5.915   2.055
 9793SOL    HW230279   5.308   5.902   1.904
 9794SOL     OW30280   4.894   3.002   6.494
 9794SOL    HW130281   4.802   3.037   6.514
 9794SOL    HW230282   4.938   3.060   6.426
 9795SOL     OW30283   1.759   3.431   3.985
 9795SOL    HW130284   1.821   3.355   3.967
 9795SOL    HW230285   1.811   3.516   3.991
 9796SOL     OW30286   2.762   4.984   6.746
 9796SOL    HW130287   2.755   5.071   6.795
 9796SOL    HW230288   2.736   4.998   6.650
 9797SOL     OW30289   4.522   3.124   5.904
 9797SOL    HW130290   4.571   3.209   5.925
 9797SOL    HW230291   4.423   3.141   5.905
 9798SOL     OW30292   2.613   1.794   1.024
 9798SOL    HW130293   2.699   1.816   1.070
 9798SOL    HW230294   2.539   1.850   1.062
 9799SOL     OW30295   3.006   3.903   2.058
 9799SOL    HW130296   2.947   3.829   2.091
 9799SOL    HW230297   2.963   3.991   2.076
 9800SOL     OW30298   4.411   4.697   6.585
 9800SOL    HW130299   4.478   4.674   6.655
 9800SOL    HW230300   4.454   4.752   6.513
 9801SOL     OW30301   4.579   5.558   0.233
 9801SOL    HW130302   4.569   5.599   0.323
 9801SOL    HW230303   4.512   5.597   0.170
 9802SOL     OW30304   6.791   3.366   0.781
 9802SOL    HW130305   6.771   3.388   0.686
 9802SOL    HW230306   6.797   3.451   0.834
 9803SOL     OW30307   6.226   0.388   6.783
 9803SOL    HW130308   6.280   0.422   6.860
 9803SOL    HW230309   6.179   0.465   6.740
 9804SOL     OW30310   6.062   5.964   4.402
 9804SOL    HW130311   6.143   5.906   4.417
 9804SOL    HW230312   5.992   5.912   4.353
 9805SOL     OW30313   1.764   5.226   0.033
 9805SOL    HW130314   1.843   5.222   0.095
 9805SOL    HW230315   1.691   5.167   0.069
 9806SOL     OW30316   0.106   1.903   2.852
 9806SOL    HW130317   0.163   1.971   2.897
 9806SOL    HW230318   0.070   1.839   2.920
 9807SOL     OW30319   4.142   2.426   0.974
 9807SOL    HW130320   4.175   2.386   0.888
 9807SOL    HW230321   4.159   2.361   1.049
 9808SOL     OW30322   0.943   1.529   4.855
 9808SOL    HW130323   0.998   1.450   4.883
 9808SOL    HW230324   0.941   1.596   4.929
 9809SOL     OW30325   0.428   1.073   4.541
 9809SOL    HW130326   0.340   1.040   4.576
 9809SOL    HW230327   0.488   1.097   4.617
 9810SOL     OW30328   3.734   1.041   3.447
 9810SOL    HW130329   3.666   1.051   3.520
 9810SOL    HW230330   3.691   1.058   3.359
 9811SOL     OW30331   0.532   6.880   2.630
 9811SOL    HW130332   0.593   6.866   2.709
 9811SOL    HW230333   0.581   6.857   2.546
 9812SOL     OW30334   4.799   2.480   6.034
 9812SOL    HW130335   4.850   2.559   6.067
 9812SOL    HW230336   4.861   2.402   6.022
 9813SOL     OW30337   0.135   4.535   0.221
 9813SOL    HW130338   0.039   4.562   0.216
 9813SOL    HW230339   0.190   4.596   0.165
 9814SOL     OW30340   6.858   0.090   5.335
 9814SOL    HW130341   6.776   0.142   5.362
 9814SOL    HW230342   6.830   0.005   5.290
 9815SOL     OW30343   6.132   3.237   2.433
 9815SOL    HW130344   6.167   3.175   2.363
 9815SOL    HW230345   6.144   3.332   2.403
 9816SOL     OW30346   6.992   6.130   6.972
 9816SOL    HW130347   6.899   6.144   7.006
 9816SOL    HW230348   0.001   6.207   6.915
 9817SOL     OW30349   2.684   6.804   0.186
 9817SOL    HW130350   2.648   6.804   0.279
 9817SOL    HW230351   2.777   6.765   0.186
 9818SOL     OW30352   0.818   6.588   3.416
 9818SOL    HW130353   0.757   6.665   3.435
 9818SOL    HW230354   0.774   6.503   3.445
 9819SOL     OW30355   0.220   3.713   5.063
 9819SOL    HW130356   0.189   3.744   4.973
 9819SOL    HW230357   0.319   3.726   5.071
 9820SOL     OW30358   3.736   1.877   5.620
 9820SOL    HW130359   3.714   1.823   5.701
 9820SOL    HW230360   3.654   1.888   5.564
 9821SOL     OW30361   4.446   2.499   1.932
 9821SOL    HW130362   4.385   2.507   1.854
 9821SOL    HW230363   4.527   2.557   1.918
 9822SOL     OW30364   3.568   6.250   5.620
 9822SOL    HW130365   3.633   6.301   5.563
 9822SOL    HW230366   3.476   6.288   5.606
 9823SOL     OW30367   1.894   0.274   3.002
 9823SOL    HW130368   1.858   0.270   2.909
 9823SOL    HW230369   1.820   0.299   3.065
 9824SOL     OW30370   1.051   6.215   5.190
 9824SOL    HW130371   1.145   6.194   5.164
 9824SOL    HW230372   1.049   6.244   5.286
 9825SOL     OW30373   5.263   6.304   5.806
 9825SOL    HW130374   5.176   6.279   5.850
 9825SOL    HW230375   5.251   6.389   5.755
 9826SOL     OW30376   2.032   5.848   5.132
 9826SOL    HW130377   1.985   5.933   5.108
 9826SOL    HW230378   1.965   5.776   5.150
 9827SOL     OW30379   1.361   5.533   1.711
 9827SOL    HW130380   1.432   5.536   1.641
 9827SOL    HW230381   1.311   5.620   1.713
 9828SOL     OW30382   4.185   2.195   4.538
 9828SOL    HW130383   4.219   2.214   4.630
 9828SOL    HW230384   4.250   2.231   4.471
 9829SOL     OW30385   4.267   5.636   5.433
 9829SOL    HW130386   4.267   5.541   5.402
 9829SOL    HW230387   4.326   5.645   5.513
 9830SOL     OW30388   5.924   2.430   2.932
 9830SOL    HW130389   5.922   2.466   3.025
 9830SOL    HW230390   6.018   2.427   2.899
 9831SOL     OW30391   0.694   3.871   2.696
 9831SOL    HW130392   0.751   3.833   2.623
 9831SOL    HW230393   0.722   3.964   2.715
 9832SOL     OW30394   4.604   5.045   4.669
 9832SOL    HW130395   4.667   4.983   4.715
 9832SOL    HW230396   4.554   4.995   4.598
 9833SOL     OW30397   3.621   3.958   3.966
 9833SOL    HW130398   3.621   3.893   4.042
 9833SOL    HW230399   3.546   4.023   3.977
 9834SOL     OW30400   2.611   6.236   6.401
 9834SOL    HW130401   2.567   6.326   6.403
 9834SOL    HW230402   2.624   6.204   6.495
 9835SOL     OW30403   3.999   3.858   4.405
 9835SOL    HW130404   4.055   3.839   4.324
 9835SOL    HW230405   3.905   3.874   4.377
 9836SOL     OW30406   0.059   4.171   6.257
 9836SOL    HW130407   0.136   4.231   6.280
 9836SOL    HW230408   0.092   4.077   6.247
 9837SOL     OW30409   5.171   2.041   3.474
 9837SOL    HW130410   5.139   1.947   3.487
 9837SOL    HW230411   5.221   2.048   3.388
 9838SOL     OW30412   1.422   6.551   1.263
 9838SOL    HW130413   1.386   6.576   1.173
 9838SOL    HW230414   1.351   6.565   1.332
 9839SOL     OW30415   4.979   6.675   3.907
 9839SOL    HW130416   5.034   6.732   3.846
 9839SOL    HW230417   4.891   6.656   3.864
 9840SOL     OW30418   6.078   1.051   6.972
 9840SOL    HW130419   6.092   1.066   0.051
 9840SOL    HW230420   6.111   1.130   6.920
 9841SOL     OW30421   0.297   6.688   3.755
 9841SOL    HW130422   0.380   6.741   3.736
 9841SOL    HW230423   0.292   6.670   3.853
 9842SOL     OW30424   2.977   1.644   6.671
 9842SOL    HW130425   3.056   1.603   6.625
 9842SOL    HW230426   3.008   1.693   6.753
 9843SOL     OW30427   0.856   0.745   1.369
 9843SOL    HW130428   0.838   0.824   1.309
 9843SOL    HW230429   0.945   0.705   1.345
 9844SOL     OW30430   4.715   6.650   4.376
 9844SOL    HW130431   4.731   6.700   4.461
 9844SOL    HW230432   4.803   6.628   4.334
 9845SOL     OW30433   1.709   3.379   2.105
 9845SOL    HW130434   1.621   3.382   2.057
 9845SOL    HW230435   1.727   3.467   2.148
 9846SOL     OW30436   6.017   2.538   1.223
 9846SOL    HW130437   5.919   2.522   1.232
 9846SOL    HW230438   6.056   2.562   1.312
 9847SOL     OW30439   4.316   3.684   0.072
 9847SOL    HW130440   4.292   3.600   0.023
 9847SOL    HW230441   4.333   3.757   0.007
 9848SOL     OW30442   3.117   4.016   5.965
 9848SOL    HW130443   3.069   4.059   6.042
 9848SOL    HW230444   3.075   4.045   5.879
 9849SOL     OW30445   0.612   2.355   4.748
 9849SOL    HW130446   0.526   2.304   4.755
 9849SOL    HW230447   0.634   2.370   4.652
 9850SOL     OW30448   1.065   6.986   4.142
 9850SOL    HW130449   1.070   0.004   4.235
 9850SOL    HW230450   1.018   6.898   4.142
 9851SOL     OW30451   3.376   4.916   4.448
 9851SOL    HW130452   3.461   4.897   4.497
 9851SOL    HW230453   3.298   4.900   4.508
 9852SOL     OW30454   2.111   0.612   6.446
 9852SOL    HW130455   2.063   0.684   6.398
 9852SOL    HW230456   2.055   0.577   6.521
 9853SOL     OW30457   6.502   4.402   3.541
 9853SOL    HW130458   6.417   4.427   3.586
 9853SOL    HW230459   6.523   4.306   3.561
 9854SOL     OW30460   0.634   4.392   6.076
 9854SOL    HW130461   0.676   4.447   6.004
 9854SOL    HW230462   0.697   4.318   6.101
 9855SOL     OW30463   1.470   4.878   1.391
 9855SOL    HW130464   1.388   4.909   1.343
 9855SOL    HW230465   1.444   4.810   1.460
 9856SOL     OW30466   5.728   4.291   3.004
 9856SOL    HW130467   5.638   4.328   3.025
 9856SOL    HW230468   5.798   4.358   3.027
 9857SOL     OW30469   4.006   0.332   5.453
 9857SOL    HW130470   4.088   0.306   5.402
 9857SOL    HW230471   3.995   0.431   5.451
 9858SOL     OW30472   5.785   6.357   2.701
 9858SOL    HW130473   5.760   6.394   2.791
 9858SOL    HW230474   5.874   6.395   2.673
 9859SOL     OW30475   0.046   5.614   3.387
 9859SOL    HW130476   0.126   5.605   3.446
 9859SOL    HW230477   0.058   5.556   3.306
 9860SOL     OW30478   1.049   3.261   4.553
 9860SOL    HW130479   1.140   3.281   4.518
 9860SOL    HW230480   1.036   3.162   4.561
 9861SOL     OW30481   3.079   1.787   3.269
 9861SOL    HW130482   3.177   1.798   3.286
 9861SOL    HW230483   3.064   1.704   3.215
 9862SOL     OW30484   1.213   4.492   0.260
 9862SOL    HW130485   1.246   4.521   0.350
 9862SOL    HW230486   1.113   4.498   0.259
 9863SOL     OW30487   3.722   5.624   0.612
 9863SOL    HW130488   3.676   5.592   0.695
 9863SOL    HW230489   3.685   5.712   0.584
 9864SOL     OW30490   2.897   5.517   5.221
 9864SOL    HW130491   2.874   5.479   5.311
 9864SOL    HW230492   2.879   5.449   5.150
 9865SOL     OW30493   0.285   5.921   5.575
 9865SOL    HW130494   0.203   5.892   5.526
 9865SOL    HW230495   0.324   5.842   5.623
 9866SOL     OW30496   6.084   4.624   5.061
 9866SOL    HW130497   5.990   4.654   5.075
 9866SOL    HW230498   6.145   4.703   5.059
 9867SOL     OW30499   4.396   1.505   2.061
 9867SOL    HW130500   4.372   1.590   2.015
 9867SOL    HW230501   4.495   1.497   2.066
 9868SOL     OW30502   2.091   3.505   3.966
 9868SOL    HW130503   2.107   3.514   4.064
 9868SOL    HW230504   2.034   3.580   3.934
 9869SOL     OW30505   6.004   2.702   0.925
 9869SOL    HW130506   6.041   2.617   0.963
 9869SOL    HW230507   6.003   2.773   0.996
 9870SOL     OW30508   2.600   1.743   2.545
 9870SOL    HW130509   2.502   1.730   2.560
 9870SOL    HW230510   2.623   1.714   2.452
 9871SOL     OW30511   6.475   4.994   4.577
 9871SOL    HW130512   6.540   4.921   4.599
 9871SOL    HW230513   6.432   4.976   4.489
 9872SOL     OW30514   0.557   4.817   6.008
 9872SOL    HW130515   0.476   4.836   6.064
 9872SOL    HW230516   0.617   4.755   6.059
 9873SOL     OW30517   1.414   1.718   6.100
 9873SOL    HW130518   1.342   1.728   6.169
 9873SOL    HW230519   1.377   1.673   6.019
 9874SOL     OW30520   0.278   2.564   5.245
 9874SOL    HW130521   0.258   2.662   5.247
 9874SOL    HW230522   0.340   2.541   5.320
 9875SOL     OW30523   6.580   5.727   0.777
 9875SOL    HW130524   6.613   5.652   0.719
 9875SOL    HW230525   6.657   5.769   0.824
 9876SOL     OW30526   1.277   6.441   3.548
 9876SOL    HW130527   1.226   6.513   3.501
 9876SOL    HW230528   1.349   6.483   3.604
 9877SOL     OW30529   0.978   4.852   5.240
 9877SOL    HW130530   1.007   4.804   5.157
 9877SOL    HW230531   0.992   4.792   5.319
 9878SOL     OW30532   2.706   2.684   6.598
 9878SOL    HW130533   2.768   2.606   6.591
 9878SOL    HW230534   2.748   2.755   6.655
 9879SOL     OW30535   6.769   5.338   6.474
 9879SOL    HW130536   6.858   5.293   6.483
 9879SOL    HW230537   6.722   5.303   6.393
 9880SOL     OW30538   2.904   1.297   0.708
 9880SOL    HW130539   2.907   1.223   0.641
 9880SOL    HW230540   2.987   1.295   0.764
 9881SOL     OW30541   5.937   0.959   4.128
 9881SOL    HW130542   5.965   0.999   4.041
 9881SOL    HW230543   5.903   0.867   4.113
 9882SOL     OW30544   3.168   2.924   4.944
 9882SOL    HW130545   3.105   2.847   4.932
 9882SOL    HW230546   3.123   3.009   4.917
 9883SOL     OW30547   2.580   0.077   2.234
 9883SOL    HW130548   2.535   0.059   2.322
 9883SOL    HW230549   2.522   0.045   2.159
 9884SOL     OW30550   2.865   3.003   5.831
 9884SOL    HW130551   2.779   3.012   5.882
 9884SOL    HW230552   2.847   3.008   5.733
 9885SOL     OW30553   5.430   3.044   5.060
 9885SOL    HW130554   5.447   2.966   5.120
 9885SOL    HW230555   5.506   3.053   4.995
 9886SOL     OW30556   3.945   5.751   1.255
 9886SOL    HW130557   4.017   5.800   1.305
 9886SOL    HW230558   3.855   5.779   1.288
 9887SOL     OW30559   3.230   0.295   6.175
 9887SOL    HW130560   3.208   0.250   6.089
 9887SOL    HW230561   3.215   0.394   6.165
 9888SOL     OW30562   6.489   6.327   3.256
 9888SOL    HW130563   6.445   6.334   3.166
 9888SOL    HW230564   6.420   6.344   3.327
 9889SOL     OW30565   6.665   5.898   3.455
 9889SOL    HW130566   6.763   5.917   3.458
 9889SOL    HW230567   6.621   5.958   3.389
 9890SOL     OW30568   0.425   3.592   1.817
 9890SOL    HW130569   0.515   3.569   1.855
 9890SOL    HW230570   0.399   3.524   1.749
 9891SOL     OW30571   5.842   5.837   1.073
 9891SOL    HW130572   5.772   5.895   1.113
 9891SOL    HW230573   5.804   5.788   0.995
 9892SOL     OW30574   1.857   4.836   3.991
 9892SOL    HW130575   1.930   4.847   3.923
 9892SOL    HW230576   1.884   4.766   4.058
 9893SOL     OW30577   5.000   5.385   3.801
 9893SOL    HW130578   5.062   5.317   3.840
 9893SOL    HW230579   5.046   5.435   3.727
 9894SOL     OW30580   4.318   3.112   6.208
 9894SOL    HW130581   4.292   3.016   6.213
 9894SOL    HW230582   4.285   3.152   6.123
 9895SOL     OW30583   5.660   1.831   6.422
 9895SOL    HW130584   5.724   1.904   6.396
 9895SOL    HW230585   5.566   1.863   6.411
 9896SOL     OW30586   4.315   3.102   0.391
 9896SOL    HW130587   4.412   3.101   0.366
 9896SOL    HW230588   4.305   3.113   0.490
 9897SOL     OW30589   6.837   1.918   3.571
 9897SOL    HW130590   6.905   1.862   3.619
 9897SOL    HW230591   6.867   2.013   3.570
 9898SOL     OW30592   1.233   5.265   5.644
 9898SOL    HW130593   1.224   5.363   5.622
 9898SOL    HW230594   1.179   5.245   5.725
 9899SOL     OW30595   5.535   4.886   1.828
 9899SOL    HW130596   5.479   4.907   1.908
 9899SOL    HW230597   5.557   4.789   1.828
 9900SOL     OW30598   0.838   3.585   3.313
 9900SOL    HW130599   0.842   3.541   3.223
 9900SOL    HW230600   0.831   3.514   3.384
 9901SOL     OW30601   3.115   1.739   5.339
 9901SOL    HW130602   3.089   1.647   5.369
 9901SOL    HW230603   3.040   1.780   5.288
 9902SOL     OW30604   4.426   3.834   6.869
 9902SOL    HW130605   4.431   3.934   6.876
 9902SOL    HW230606   4.376   3.809   6.786
 9903SOL     OW30607   3.958   1.263   1.282
 9903SOL    HW130608   4.020   1.226   1.352
 9903SOL    HW230609   3.980   1.359   1.267
 9904SOL     OW30610   6.253   0.500   2.116
 9904SOL    HW130611   6.313   0.567   2.160
 9904SOL    HW230612   6.158   0.523   2.134
 9905SOL     OW30613   1.591   6.310   5.543
 9905SOL    HW130614   1.609   6.264   5.630
 9905SOL    HW230615   1.674   6.356   5.512
 9906SOL     OW30616   3.167   2.887   5.796
 9906SOL    HW130617   3.227   2.835   5.858
 9906SOL    HW230618   3.094   2.929   5.850
 9907SOL     OW30619   1.828   6.545   2.450
 9907SOL    HW130620   1.797   6.461   2.405
 9907SOL    HW230621   1.787   6.551   2.541
 9908SOL     OW30622   0.802   3.657   5.385
 9908SOL    HW130623   0.755   3.744   5.397
 9908SOL    HW230624   0.899   3.668   5.407
 9909SOL     OW30625   4.009   6.785   2.775
 9909SOL    HW130626   4.096   6.805   2.730
 9909SOL    HW230627   3.944   6.858   2.753
 9910SOL     OW30628   0.339   4.165   1.796
 9910SOL    HW130629   0.387   4.103   1.733
 9910SOL    HW230630   0.244   4.135   1.805
 9911SOL     OW30631   2.815   4.875   3.560
 9911SOL    HW130632   2.774   4.802   3.507
 9911SOL    HW230633   2.913   4.857   3.574
 9912SOL     OW30634   4.638   0.194   1.185
 9912SOL    HW130635   4.586   0.211   1.269
 9912SOL    HW230636   4.599   0.115   1.138
 9913SOL     OW30637   4.718   1.761   2.810
 9913SOL    HW130638   4.735   1.742   2.713
 9913SOL    HW230639   4.803   1.790   2.854
 9914SOL     OW30640   1.911   6.117   5.417
 9914SOL    HW130641   1.865   6.060   5.486
 9914SOL    HW230642   1.912   6.212   5.449
 9915SOL     OW30643   5.549   3.847   4.708
 9915SOL    HW130644   5.518   3.828   4.801
 9915SOL    HW230645   5.557   3.946   4.695
 9916SOL     OW30646   2.206   3.035   1.200
 9916SOL    HW130647   2.295   3.031   1.244
 9916SOL    HW230648   2.201   3.114   1.139
 9917SOL     OW30649   2.298   3.569   5.691
 9917SOL    HW130650   2.275   3.512   5.612
 9917SOL    HW230651   2.327   3.660   5.659
 9918SOL     OW30652   1.792   1.259   4.759
 9918SOL    HW130653   1.845   1.174   4.752
 9918SOL    HW230654   1.721   1.260   4.689
 9919SOL     OW30655   6.990   5.436   3.030
 9919SOL    HW130656   6.947   5.415   3.117
 9919SOL    HW230657   6.924   5.482   2.970
 9920SOL     OW30658   4.234   6.470   1.591
 9920SOL    HW130659   4.290   6.539   1.637
 9920SOL    HW230660   4.263   6.462   1.495
 9921SOL     OW30661   4.968   0.102   3.061
 9921SOL    HW130662   4.894   0.064   3.006
 9921SOL    HW230663   4.961   0.202   3.061
 9922SOL     OW30664   4.695   3.223   1.427
 9922SOL    HW130665   4.656   3.257   1.512
 9922SOL    HW230666   4.731   3.131   1.441
 9923SOL     OW30667   6.512   1.182   6.690
 9923SOL    HW130668   6.447   1.215   6.622
 9923SOL    HW230669   6.557   1.260   6.734
 9924SOL     OW30670   5.735   0.622   3.289
 9924SOL    HW130671   5.828   0.585   3.294
 9924SOL    HW230672   5.730   0.689   3.216
 9925SOL     OW30673   2.279   2.795   4.860
 9925SOL    HW130674   2.300   2.863   4.930
 9925SOL    HW230675   2.190   2.753   4.880
 9926SOL     OW30676   1.334   1.454   0.365
 9926SOL    HW130677   1.347   1.548   0.333
 9926SOL    HW230678   1.407   1.430   0.428
 9927SOL     OW30679   0.948   2.709   2.680
 9927SOL    HW130680   0.871   2.768   2.654
 9927SOL    HW230681   0.913   2.627   2.725
 9928SOL     OW30682   0.019   3.151   2.714
 9928SOL    HW130683   0.013   3.237   2.664
 9928SOL    HW230684   6.988   3.158   2.800
 9929SOL     OW30685   2.095   3.870   6.234
 9929SOL    HW130686   2.017   3.849   6.175
 9929SOL    HW230687   2.179   3.838   6.190
 9930SOL     OW30688   0.327   5.709   0.173
 9930SOL    HW130689   0.394   5.743   0.106
 9930SOL    HW230690   0.348   5.613   0.194
 9931SOL     OW30691   2.508   5.663   6.582
 9931SOL    HW130692   2.527   5.653   6.484
 9931SOL    HW230693   2.485   5.759   6.602
 9932SOL     OW30694   2.218   2.110   0.070
 9932SOL    HW130695   2.234   2.145   6.996
 9932SOL    HW230696   2.122   2.123   0.095
 9933SOL     OW30697   1.240   2.042   3.896
 9933SOL    HW130698   1.227   2.053   3.995
 9933SOL    HW230699   1.156   2.009   3.855
 9934SOL     OW30700   3.912   1.047   6.072
 9934SOL    HW130701   3.850   1.036   5.995
 9934SOL    HW230702   3.961   0.961   6.089
 9935SOL     OW30703   2.792   2.184   0.455
 9935SOL    HW130704   2.847   2.235   0.521
 9935SOL    HW230705   2.759   2.099   0.497
 9936SOL     OW30706   5.826   6.442   6.202
 9936SOL    HW130707   5.922   6.469   6.206
 9936SOL    HW230708   5.819   6.342   6.201
 9937SOL     OW30709   0.594   0.343   3.299
 9937SOL    HW130710   0.640   0.429   3.319
 9937SOL    HW230711   0.615   0.276   3.370
 9938SOL     OW30712   0.058   1.787   3.632
 9938SOL    HW130713   0.116   1.741   3.565
 9938SOL    HW230714   0.115   1.847   3.689
 9939SOL     OW30715   3.253   4.269   1.052
 9939SOL    HW130716   3.240   4.333   1.128
 9939SOL    HW230717   3.266   4.177   1.089
 9940SOL     OW30718   0.029   1.303   3.687
 9940SOL    HW130719   0.126   1.322   3.674
 9940SOL    HW230720   0.019   1.224   3.749
 9941SOL     OW30721   5.668   4.814   0.288
 9941SOL    HW130722   5.701   4.831   0.195
 9941SOL    HW230723   5.655   4.715   0.300
 9942SOL     OW30724   5.068   5.101   2.788
 9942SOL    HW130725   5.103   5.024   2.841
 9942SOL    HW230726   4.969   5.105   2.797
 9943SOL     OW30727   2.312   3.772   6.044
 9943SOL    HW130728   2.292   3.777   5.947
 9943SOL    HW230729   2.410   3.787   6.059
 9944SOL     OW30730   0.626   4.686   6.250
 9944SOL    HW130731   0.690   4.746   6.298
 9944SOL    HW230732   0.535   4.693   6.291
 9945SOL     OW30733   6.485   3.493   6.157
 9945SOL    HW130734   6.437   3.487   6.244
 9945SOL    HW230735   6.542   3.576   6.155
 9946SOL     OW30736   5.492   1.953   1.632
 9946SOL    HW130737   5.581   1.999   1.635
 9946SOL    HW230738   5.422   2.017   1.600
 9947SOL     OW30739   1.204   1.596   3.976
 9947SOL    HW130740   1.139   1.672   3.984
 9947SOL    HW230741   1.277   1.621   3.912
 9948SOL     OW30742   5.538   0.091   4.476
 9948SOL    HW130743   5.596   0.073   4.556
 9948SOL    HW230744   5.506   0.004   4.439
 9949SOL     OW30745   6.273   5.270   3.758
 9949SOL    HW130746   6.314   5.179   3.753
 9949SOL    HW230747   6.180   5.262   3.795
 9950SOL     OW30748   5.668   4.048   5.293
 9950SOL    HW130749   5.641   3.952   5.309
 9950SOL    HW230750   5.649   4.072   5.197
 9951SOL     OW30751   0.672   1.829   3.610
 9951SOL    HW130752   0.728   1.885   3.549
 9951SOL    HW230753   0.661   1.877   3.697
 9952SOL     OW30754   0.753   4.956   2.007
 9952SOL    HW130755   0.832   4.981   2.062
 9952SOL    HW230756   0.697   5.037   1.989
 9953SOL     OW30757   5.956   2.700   3.724
 9953SOL    HW130758   5.918   2.792   3.739
 9953SOL    HW230759   5.898   2.651   3.658
 9954SOL     OW30760   3.471   1.454   6.403
 9954SOL    HW130761   3.485   1.433   6.499
 9954SOL    HW230762   3.481   1.553   6.388
 9955SOL     OW30763   5.553   4.182   0.893
 9955SOL    HW130764   5.497   4.261   0.917
 9955SOL    HW230765   5.525   4.103   0.946
 9956SOL     OW30766   2.132   3.301   3.189
 9956SOL    HW130767   2.126   3.296   3.089
 9956SOL    HW230768   2.040   3.298   3.228
 9957SOL     OW30769   5.270   0.220   0.810
 9957SOL    HW130770   5.210   0.298   0.827
 9957SOL    HW230771   5.252   0.185   0.717
 9958SOL     OW30772   5.274   6.013   0.407
 9958SOL    HW130773   5.344   5.998   0.337
 9958SOL    HW230774   5.276   5.936   0.472
 9959SOL     OW30775   4.895   4.691   0.793
 9959SOL    HW130776   4.924   4.740   0.712
 9959SOL    HW230777   4.811   4.731   0.829
 9960SOL     OW30778   0.449   0.353   0.086
 9960SOL    HW130779   0.389   0.273   0.090
 9960SOL    HW230780   0.441   0.395   7.014
 9961SOL     OW30781   2.987   5.429   1.245
 9961SOL    HW130782   2.982   5.387   1.155
 9961SOL    HW230783   3.049   5.507   1.242
 9962SOL     OW30784   3.107   0.077   1.506
 9962SOL    HW130785   3.056   0.161   1.488
 9962SOL    HW230786   3.062   0.001   1.459
 9963SOL     OW30787   0.634   0.954   6.130
 9963SOL    HW130788   0.676   0.869   6.097
 9963SOL    HW230789   0.643   1.025   6.061
 9964SOL     OW30790   4.761   4.121   6.002
 9964SOL    HW130791   4.756   4.115   6.102
 9964SOL    HW230792   4.848   4.085   5.970
 9965SOL     OW30793   2.580   5.280   3.727
 9965SOL    HW130794   2.634   5.239   3.801
 9965SOL    HW230795   2.597   5.378   3.725
 9966SOL     OW30796   3.617   4.966   2.155
 9966SOL    HW130797   3.571   4.952   2.242
 9966SOL    HW230798   3.577   4.906   2.085
 9967SOL     OW30799   6.651   0.182   3.007
 9967SOL    HW130800   6.676   0.263   2.955
 9967SOL    HW230801   6.654   0.203   3.105
 9968SOL     OW30802   3.575   6.176   0.201
 9968SOL    HW130803   3.605   6.269   0.220
 9968SOL    HW230804   3.607   6.115   0.274
 9969SOL     OW30805   1.074   6.273   3.667
 9969SOL    HW130806   1.135   6.332   3.613
 9969SOL    HW230807   1.032   6.326   3.740
 9970SOL     OW30808   6.266   3.888   1.313
 9970SOL    HW130809   6.179   3.842   1.333
 9970SOL    HW230810   6.301   3.856   1.224
 9971SOL     OW30811   0.729   5.414   3.539
 9971SOL    HW130812   0.803   5.348   3.529
 9971SOL    HW230813   0.710   5.457   3.451
 9972SOL     OW30814   2.989   3.814   6.389
 9972SOL    HW130815   3.087   3.809   6.371
 9972SOL    HW230816   2.939   3.772   6.314
 9973SOL     OW30817   2.896   2.238   3.679
 9973SOL    HW130818   2.903   2.177   3.758
 9973SOL    HW230819   2.952   2.203   3.604
 9974SOL     OW30820   1.291   2.915   2.533
 9974SOL    HW130821   1.254   2.890   2.622
 9974SOL    HW230822   1.355   2.843   2.502
 9975SOL     OW30823   1.900   4.775   6.887
 9975SOL    HW130824   1.903   4.810   6.981
 9975SOL    HW230825   1.975   4.815   6.835
 9976SOL     OW30826   3.431   4.461   6.485
 9976SOL    HW130827   3.399   4.384   6.541
 9976SOL    HW230828   3.403   4.447   6.390
 9977SOL     OW30829   4.725   6.598   5.716
 9977SOL    HW130830   4.783   6.600   5.797
 9977SOL    HW230831   4.744   6.677   5.659
 9978SOL     OW30832   0.744   3.402   6.721
 9978SOL    HW130833   0.671   3.432   6.660
 9978SOL    HW230834   0.828   3.388   6.669
 9979SOL     OW30835   3.749   3.527   4.886
 9979SOL    HW130836   3.675   3.577   4.840
 9979SOL    HW230837   3.834   3.578   4.875
 9980SOL     OW30838   2.483   1.386   0.688
 9980SOL    HW130839   2.393   1.341   0.692
 9980SOL    HW230840   2.504   1.424   0.778
 9981SOL     OW30841   6.789   2.741   1.474
 9981SOL    HW130842   6.711   2.797   1.445
 9981SOL    HW230843   6.859   2.800   1.515
 9982SOL     OW30844   1.973   2.458   4.622
 9982SOL    HW130845   1.911   2.469   4.544
 9982SOL    HW230846   1.937   2.388   4.684
 9983SOL     OW30847   1.163   2.886   2.769
 9983SOL    HW130848   1.126   2.974   2.797
 9983SOL    HW230849   1.088   2.826   2.738
 9984SOL     OW30850   0.654   5.609   1.184
 9984SOL    HW130851   0.626   5.514   1.193
 9984SOL    HW230852   0.679   5.646   1.274
 9985SOL     OW30853   4.697   4.262   0.295
 9985SOL    HW130854   4.772   4.217   0.343
 9985SOL    HW230855   4.613   4.210   0.308
 9986SOL     OW30856   5.236   5.104   6.881
 9986SOL    HW130857   5.307   5.158   6.836
 9986SOL    HW230858   5.157   5.095   6.819
 9987SOL     OW30859   5.078   2.604   1.178
 9987SOL    HW130860   5.007   2.553   1.227
 9987SOL    HW230861   5.163   2.601   1.230
 9988SOL     OW30862   5.440   6.203   3.935
 9988SOL    HW130863   5.434   6.237   3.841
 9988SOL    HW230864   5.471   6.276   3.996
 9989SOL     OW30865   6.542   5.098   2.517
 9989SOL    HW130866   6.514   5.194   2.515
 9989SOL    HW230867   6.566   5.073   2.611
 9990SOL     OW30868   0.512   6.564   4.017
 9990SOL    HW130869   0.565   6.588   3.935
 9990SOL    HW230870   0.460   6.643   4.047
 9991SOL     OW30871   1.579   4.820   3.319
 9991SOL    HW130872   1.595   4.721   3.327
 9991SOL    HW230873   1.647   4.869   3.373
 9992SOL     OW30874   3.397   4.699   0.518
 9992SOL    HW130875   3.429   4.793   0.522
 9992SOL    HW230876   3.374   4.667   0.610
 9993SOL     OW30877   3.377   6.232   4.465
 9993SOL    HW130878   3.326   6.317   4.478
 9993SOL    HW230879   3.441   6.219   4.541
 9994SOL     OW30880   6.090   5.425   4.990
 9994SOL    HW130881   6.041   5.438   4.904
 9994SOL    HW230882   6.183   5.459   4.981
 9995SOL     OW30883   3.090   0.289   4.738
 9995SOL    HW130884   3.127   0.373   4.777
 9995SOL    HW230885   3.160   0.218   4.740
 9996SOL     OW30886   2.665   2.928   0.962
 9996SOL    HW130887   2.679   2.855   1.030
 9996SOL    HW230888   2.610   2.893   0.887
 9997SOL     OW30889   5.821   2.575   3.524
 9997SOL    HW130890   5.773   2.589   3.437
 9997SOL    HW230891   5.888   2.502   3.513
 9998SOL     OW30892   4.903   4.614   2.594
 9998SOL    HW130893   4.861   4.693   2.640
 9998SOL    HW230894   4.953   4.646   2.513
 9999SOL     OW30895   1.113   6.598   3.396
 9999SOL    HW130896   1.030   6.581   3.448
 9999SOL    HW230897   1.143   6.692   3.411
10000SOL     OW30898   5.213   2.285   1.383
10000SOL    HW130899   5.240   2.355   1.449
10000SOL    HW230900   5.117   2.261   1.398
10001SOL     OW30901   4.129   6.258   1.994
10001SOL    HW130902   4.119   6.352   1.962
10001SOL    HW230903   4.042   6.225   2.029
10002SOL     OW30904   2.918   0.760   1.636
10002SOL    HW130905   2.971   0.821   1.694
10002SOL    HW230906   2.938   0.778   1.540
10003SOL     OW30907   1.744   0.471   3.865
10003SOL    HW130908   1.654   0.431   3.847
10003SOL    HW230909   1.734   0.543   3.934
10004SOL     OW30910   6.264   3.910   5.018
10004SOL    HW130911   6.277   3.944   5.111
10004SOL    HW230912   6.337   3.845   4.996
10005SOL     OW30913   2.308   5.332   3.248
10005SOL    HW130914   2.335   5.306   3.341
10005SOL    HW230915   2.384   5.378   3.202
10006SOL     OW30916   5.146   0.168   4.705
10006SOL    HW130917   5.052   0.172   4.740
10006SOL    HW230918   5.145   0.180   4.606
10007SOL     OW30919   1.597   4.779   4.165
10007SOL    HW130920   1.524   4.848   4.167
10007SOL    HW230921   1.629   4.767   4.072
10008SOL     OW30922   4.480   1.459   6.157
10008SOL    HW130923   4.479   1.544   6.105
10008SOL    HW230924   4.450   1.476   6.250
10009SOL     OW30925   1.279   3.360   2.136
10009SOL    HW130926   1.243   3.267   2.134
10009SOL    HW230927   1.339   3.374   2.057
10010SOL     OW30928   2.402   3.674   0.303
10010SOL    HW130929   2.480   3.657   0.363
10010SOL    HW230930   2.351   3.754   0.336
10011SOL     OW30931   1.526   3.532   0.563
10011SOL    HW130932   1.554   3.623   0.533
10011SOL    HW230933   1.544   3.466   0.490
10012SOL     OW30934   5.277   1.948   2.959
10012SOL    HW130935   5.320   2.019   2.903
10012SOL    HW230936   5.302   1.858   2.923
10013SOL     OW30937   0.403   6.020   5.166
10013SOL    HW130938   0.319   5.969   5.148
10013SOL    HW230939   0.476   5.987   5.106
10014SOL     OW30940   0.771   6.944   3.122
10014SOL    HW130941   0.774   6.844   3.121
10014SOL    HW230942   0.807   6.977   3.210
10015SOL     OW30943   4.479   4.593   5.635
10015SOL    HW130944   4.462   4.501   5.600
10015SOL    HW230945   4.532   4.588   5.719
10016SOL     OW30946   2.345   0.293   2.832
10016SOL    HW130947   2.325   0.382   2.872
10016SOL    HW230948   2.268   0.232   2.846
10017SOL     OW30949   2.504   2.000   2.604
10017SOL    HW130950   2.466   1.988   2.696
10017SOL    HW230951   2.534   1.911   2.570
10018SOL     OW30952   6.523   3.020   6.150
10018SOL    HW130953   6.575   2.940   6.119
10018SOL    HW230954   6.447   2.990   6.207
10019SOL     OW30955   0.452   1.991   2.779
10019SOL    HW130956   0.406   2.040   2.706
10019SOL    HW230957   0.546   2.023   2.787
10020SOL     OW30958   5.956   0.818   2.085
10020SOL    HW130959   5.963   0.902   2.139
10020SOL    HW230960   5.875   0.822   2.026
10021SOL     OW30961   1.314   3.985   2.446
10021SOL    HW130962   1.333   3.888   2.461
10021SOL    HW230963   1.219   3.997   2.416
10022SOL     OW30964   2.468   5.816   6.847
10022SOL    HW130965   2.405   5.748   6.884
10022SOL    HW230966   2.419   5.903   6.835
10023SOL     OW30967   1.586   6.898   5.842
10023SOL    HW130968   1.519   6.856   5.902
10023SOL    HW230969   1.541   6.931   5.759
10024SOL     OW30970   1.694   4.819   2.693
10024SOL    HW130971   1.706   4.909   2.651
10024SOL    HW230972   1.770   4.759   2.667
10025SOL     OW30973   1.046   4.169   1.792
10025SOL    HW130974   0.968   4.144   1.849
10025SOL    HW230975   1.108   4.090   1.785
10026SOL     OW30976   5.233   1.525   4.209
10026SOL    HW130977   5.238   1.505   4.306
10026SOL    HW230978   5.288   1.606   4.188
10027SOL     OW30979   2.329   1.620   5.474
10027SOL    HW130980   2.276   1.682   5.532
10027SOL    HW230981   2.419   1.605   5.516
10028SOL     OW30982   4.751   0.706   1.327
10028SOL    HW130983   4.794   0.733   1.413
10028SOL    HW230984   4.780   0.614   1.301
10029SOL     OW30985   6.920   3.603   5.112
10029SOL    HW130986   7.006   3.565   5.145
10029SOL    HW230987   6.924   3.615   5.012
10030SOL     OW30988   2.521   0.146   4.575
10030SOL    HW130989   2.466   0.090   4.514
10030SOL    HW230990   2.603   0.096   4.603
10031SOL     OW30991   3.108   4.888   4.044
10031SOL    HW130992   3.199   4.902   4.006
10031SOL    HW230993   3.096   4.945   4.126
10032SOL     OW30994   2.863   6.216   4.898
10032SOL    HW130995   2.824   6.126   4.886
10032SOL    HW230996   2.796   6.277   4.941
10033SOL     OW30997   3.642   1.290   3.064
10033SOL    HW130998   3.591   1.308   2.981
10033SOL    HW230999   3.693   1.372   3.092
10034SOL     OW31000   2.658   0.774   3.597
10034SOL    HW131001   2.614   0.853   3.640
10034SOL    HW231002   2.757   0.783   3.604
10035SOL     OW31003   5.913   2.922   2.252
10035SOL    HW131004   5.893   3.010   2.208
10035SOL    HW231005   5.997   2.929   2.305
10036SOL     OW31006   6.785   0.459   6.602
10036SOL    HW131007   6.713   0.418   6.659
10036SOL    HW231008   6.836   0.526   6.657
10037SOL     OW31009   6.570   0.304   0.119
10037SOL    HW131010   6.506   0.245   0.169
10037SOL    HW231011   6.625   0.248   0.057
10038SOL     OW31012   4.218   0.283   0.191
10038SOL    HW131013   4.267   0.370   0.187
10038SOL    HW231014   4.281   0.208   0.171
10039SOL     OW31015   6.108   5.385   3.248
10039SOL    HW131016   6.166   5.307   3.271
10039SOL    HW231017   6.137   5.423   3.160
10040SOL     OW31018   3.623   7.010   0.375
10040SOL    HW131019   3.566   0.024   0.451
10040SOL    HW231020   3.709   0.043   0.374
10041SOL     OW31021   6.916   5.260   4.808
10041SOL    HW131022   7.005   5.288   4.845
10041SOL    HW231023   6.889   5.323   4.736
10042SOL     OW31024   0.358   0.551   4.887
10042SOL    HW131025   0.264   0.517   4.889
10042SOL    HW231026   0.410   0.509   4.962
10043SOL     OW31027   0.749   0.660   3.093
10043SOL    HW131028   0.763   0.621   3.184
10043SOL    HW231029   0.827   0.718   3.069
10044SOL     OW31030   2.595   1.519   5.588
10044SOL    HW131031   2.614   1.522   5.686
10044SOL    HW231032   2.662   1.574   5.539
10045SOL     OW31033   4.023   6.385   5.006
10045SOL    HW131034   3.956   6.451   4.970
10045SOL    HW231035   3.975   6.301   5.033
10046SOL     OW31036   6.892   2.732   1.898
10046SOL    HW131037   6.922   2.713   1.991
10046SOL    HW231038   6.972   2.742   1.839
10047SOL     OW31039   6.811   1.739   5.173
10047SOL    HW131040   6.719   1.724   5.139
10047SOL    HW231041   6.818   1.832   5.209
10048SOL     OW31042   3.389   1.560   1.227
10048SOL    HW131043   3.359   1.647   1.187
10048SOL    HW231044   3.378   1.563   1.326
10049SOL     OW31045   2.120   0.317   5.877
10049SOL    HW131046   2.020   0.317   5.868
10049SOL    HW231047   2.154   0.224   5.862
10050SOL     OW31048   5.313   2.842   4.524
10050SOL    HW131049   5.356   2.758   4.491
10050SOL    HW231050   5.381   2.915   4.528
10051SOL     OW31051   6.013   3.409   4.480
10051SOL    HW131052   5.926   3.372   4.448
10051SOL    HW231053   6.042   3.484   4.420
10052SOL     OW31054   0.945   3.467   1.803
10052SOL    HW131055   0.986   3.549   1.763
10052SOL    HW231056   0.918   3.404   1.730
10053SOL     OW31057   3.556   5.344   3.193
10053SOL    HW131058   3.572   5.442   3.179
10053SOL    HW231059   3.640   5.294   3.173
10054SOL     OW31060   3.922   5.431   4.827
10054SOL    HW131061   3.827   5.442   4.798
10054SOL    HW231062   3.934   5.472   4.917
10055SOL     OW31063   6.447   2.576   5.187
10055SOL    HW131064   6.502   2.540   5.263
10055SOL    HW231065   6.508   2.621   5.121
10056SOL     OW31066   6.340   4.865   1.642
10056SOL    HW131067   6.425   4.834   1.598
10056SOL    HW231068   6.276   4.898   1.572
10057SOL     OW31069   3.712   2.012   4.585
10057SOL    HW131070   3.790   2.051   4.536
10057SOL    HW231071   3.673   1.938   4.531
10058SOL     OW31072   0.240   5.558   4.108
10058SOL    HW131073   0.208   5.642   4.063
10058SOL    HW231074   0.332   5.537   4.077
10059SOL     OW31075   5.549   0.764   0.984
10059SOL    HW131076   5.473   0.821   1.017
10059SOL    HW231077   5.613   0.821   0.932
10060SOL     OW31078   2.848   2.182   1.738
10060SOL    HW131079   2.860   2.235   1.654
10060SOL    HW231080   2.875   2.238   1.816
10061SOL     OW31081   6.250   1.589   4.217
10061SOL    HW131082   6.308   1.650   4.271
10061SOL    HW231083   6.216   1.515   4.275
10062SOL     OW31084   6.375   5.623   3.546
10062SOL    HW131085   6.411   5.712   3.575
10062SOL    HW231086   6.279   5.633   3.521
10063SOL     OW31087   1.144   3.568   3.825
10063SOL    HW131088   1.195   3.650   3.853
10063SOL    HW231089   1.067   3.554   3.887
10064SOL     OW31090   5.429   6.054   4.548
10064SOL    HW131091   5.379   6.134   4.513
10064SOL    HW231092   5.377   5.971   4.530
10065SOL     OW31093   1.119   6.531   2.551
10065SOL    HW131094   1.075   6.456   2.501
10065SOL    HW231095   1.055   6.569   2.618
10066SOL     OW31096   0.734   6.899   3.993
10066SOL    HW131097   0.756   6.991   4.026
10066SOL    HW231098   0.642   6.874   4.022
10067SOL     OW31099   4.484   4.705   3.970
10067SOL    HW131100   4.578   4.739   3.978
10067SOL    HW231101   4.449   4.680   4.061
10068SOL     OW31102   5.260   3.536   4.847
10068SOL    HW131103   5.301   3.556   4.936
10068SOL    HW231104   5.163   3.513   4.859
10069SOL     OW31105   3.042   1.485   3.438
10069SOL    HW131106   3.132   1.444   3.453
10069SOL    HW231107   3.035   1.514   3.342
10070SOL     OW31108   1.037   6.473   4.789
10070SOL    HW131109   1.020   6.500   4.695
10070SOL    HW231110   0.974   6.523   4.850
10071SOL     OW31111   4.980   5.440   4.203
10071SOL    HW131112   5.007   5.503   4.131
10071SOL    HW231113   5.061   5.394   4.240
10072SOL     OW31114   0.322   6.431   3.438
10072SOL    HW131115   0.282   6.480   3.515
10072SOL    HW231116   0.337   6.495   3.362
10073SOL     OW31117   0.041   5.183   5.659
10073SOL    HW131118   0.066   5.259   5.599
10073SOL    HW231119   6.962   5.163   5.648
10074SOL     OW31120   1.276   0.252   6.202
10074SOL    HW131121   1.279   0.238   6.104
10074SOL    HW231122   1.351   0.203   6.246
10075SOL     OW31123   1.428   2.414   3.766
10075SOL    HW131124   1.511   2.366   3.796
10075SOL    HW231125   1.446   2.512   3.759
10076SOL     OW31126   4.755   6.782   4.650
10076SOL    HW131127   4.854   6.769   4.640
10076SOL    HW231128   4.726   6.748   4.739
10077SOL     OW31129   4.003   2.049   6.170
10077SOL    HW131130   4.026   2.112   6.245
10077SOL    HW231131   3.949   2.098   6.102
10078SOL     OW31132   5.563   0.218   5.106
10078SOL    HW131133   5.539   0.207   5.010
10078SOL    HW231134   5.518   0.300   5.142
10079SOL     OW31135   1.290   3.184   1.500
10079SOL    HW131136   1.353   3.261   1.487
10079SOL    HW231137   1.325   3.103   1.452
10080SOL     OW31138   2.118   2.614   0.020
10080SOL    HW131139   2.130   2.571   0.110
10080SOL    HW231140   2.187   2.578   6.976
10081SOL     OW31141   0.773   0.505   6.282
10081SOL    HW131142   0.811   0.450   6.207
10081SOL    HW231143   0.840   0.513   6.356
10082SOL     OW31144   6.336   2.596   1.837
10082SOL    HW131145   6.241   2.612   1.861
10082SOL    HW231146   6.349   2.498   1.819
10083SOL     OW31147   4.300   0.159   3.597
10083SOL    HW131148   4.238   0.087   3.567
10083SOL    HW231149   4.278   0.186   3.691
10084SOL     OW31150   2.406   1.323   5.642
10084SOL    HW131151   2.493   1.372   5.633
10084SOL    HW231152   2.413   1.234   5.596
10085SOL     OW31153   0.782   5.855   2.906
10085SOL    HW131154   0.768   5.945   2.946
10085SOL    HW231155   0.736   5.786   2.963
10086SOL     OW31156   6.100   4.751   2.184
10086SOL    HW131157   6.152   4.671   2.153
10086SOL    HW231158   6.004   4.740   2.160
10087SOL     OW31159   1.093   0.370   3.922
10087SOL    HW131160   1.096   0.429   3.841
10087SOL    HW231161   1.140   0.285   3.902
10088SOL     OW31162   0.798   6.738   4.694
10088SOL    HW131163   0.759   6.699   4.610
10088SOL    HW231164   0.806   6.667   4.763
10089SOL     OW31165   2.327   1.841   2.180
10089SOL    HW131166   2.293   1.756   2.221
10089SOL    HW231167   2.366   1.899   2.251
10090SOL     OW31168   1.470   4.300   0.788
10090SOL    HW131169   1.551   4.358   0.774
10090SOL    HW231170   1.497   4.212   0.825
10091SOL     OW31171   1.170   3.850   4.126
10091SOL    HW131172   1.202   3.760   4.155
10091SOL    HW231173   1.161   3.851   4.026
10092SOL     OW31174   1.636   3.483   4.986
10092SOL    HW131175   1.602   3.390   5.001
10092SOL    HW231176   1.565   3.538   4.942
10093SOL     OW31177   6.687   5.391   5.344
10093SOL    HW131178   6.709   5.460   5.413
10093SOL    HW231179   6.772   5.351   5.309
10094SOL     OW31180   2.343   1.158   2.647
10094SOL    HW131181   2.363   1.148   2.549
10094SOL    HW231182   2.247   1.138   2.664
10095SOL     OW31183   6.841   1.071   6.069
10095SOL    HW131184   6.757   1.076   6.015
10095SOL    HW231185   6.870   0.975   6.075
10096SOL     OW31186   0.248   5.495   2.309
10096SOL    HW131187   0.230   5.435   2.387
10096SOL    HW231188   0.325   5.460   2.257
10097SOL     OW31189   1.673   1.149   0.880
10097SOL    HW131190   1.657   1.219   0.950
10097SOL    HW231191   1.607   1.074   0.891
10098SOL     OW31192   2.069   5.858   6.301
10098SOL    HW131193   2.055   5.926   6.373
10098SOL    HW231194   2.165   5.861   6.271
10099SOL     OW31195   6.835   4.122   5.271
10099SOL    HW131196   6.798   4.085   5.186
10099SOL    HW231197   6.931   4.094   5.279
10100SOL     OW31198   4.619   0.804   4.674
10100SOL    HW131199   4.555   0.872   4.710
10100SOL    HW231200   4.681   0.775   4.747
10101SOL     OW31201   6.915   4.580   2.384
10101SOL    HW131202   6.935   4.678   2.378
10101SOL    HW231203   6.829   4.566   2.433
10102SOL     OW31204   3.450   1.509   2.148
10102SOL    HW131205   3.411   1.516   2.239
10102SOL    HW231206   3.544   1.543   2.149
10103SOL     OW31207   2.688   1.147   5.287
10103SOL    HW131208   2.684   1.244   5.262
10103SOL    HW231209   2.714   1.093   5.207
10104SOL     OW31210   1.211   5.046   5.126
10104SOL    HW131211   1.234   5.081   5.218
10104SOL    HW231212   1.112   5.036   5.118
10105SOL     OW31213   1.775   0.682   6.200
10105SOL    HW131214   1.821   0.720   6.280
10105SOL    HW231215   1.797   0.737   6.120
10106SOL     OW31216   5.452   5.762   0.987
10106SOL    HW131217   5.417   5.734   1.076
10106SOL    HW231218   5.531   5.705   0.962
10107SOL     OW31219   5.929   1.587   5.862
10107SOL    HW131220   5.894   1.505   5.816
10107SOL    HW231221   5.853   1.638   5.901
10108SOL     OW31222   6.258   6.973   0.570
10108SOL    HW131223   6.218   6.914   0.640
10108SOL    HW231224   6.209   6.960   0.484
10109SOL     OW31225   4.946   5.889   3.624
10109SOL    HW131226   4.912   5.976   3.661
10109SOL    HW231227   4.992   5.838   3.696
10110SOL     OW31228   3.482   6.922   6.095
10110SOL    HW131229   3.543   6.979   6.150
10110SOL    HW231230   3.503   6.826   6.112
10111SOL     OW31231   6.578   3.384   3.418
10111SOL    HW131232   6.620   3.336   3.495
10111SOL    HW231233   6.582   3.483   3.433
10112SOL     OW31234   5.123   4.110   5.391
10112SOL    HW131235   5.184   4.163   5.450
10112SOL    HW231236   5.151   4.120   5.296
10113SOL     OW31237   4.342   0.516   0.195
10113SOL    HW131238   4.259   0.564   0.168
10113SOL    HW231239   4.362   0.536   0.291
10114SOL     OW31240   5.081   1.376   6.925
10114SOL    HW131241   5.023   1.321   6.984
10114SOL    HW231242   5.159   1.411   6.979
10115SOL     OW31243   1.973   2.174   3.880
10115SOL    HW131244   2.046   2.106   3.866
10115SOL    HW231245   1.985   2.249   3.814
10116SOL     OW31246   0.476   0.377   1.080
10116SOL    HW131247   0.554   0.391   1.140
10116SOL    HW231248   0.463   0.458   1.022
10117SOL     OW31249   6.131   0.378   5.538
10117SOL    HW131250   6.100   0.317   5.611
10117SOL    HW231251   6.055   0.401   5.478
10118SOL     OW31252   6.834   5.216   2.672
10118SOL    HW131253   6.928   5.210   2.704
10118SOL    HW231254   6.777   5.259   2.742
10119SOL     OW31255   2.795   0.544   5.370
10119SOL    HW131256   2.799   0.490   5.287
10119SOL    HW231257   2.870   0.517   5.431
10120SOL     OW31258   0.726   3.443   3.944
10120SOL    HW131259   0.682   3.463   3.857
10120SOL    HW231260   0.746   3.345   3.951
10121SOL     OW31261   5.716   4.847   5.308
10121SOL    HW131262   5.642   4.840   5.375
10121SOL    HW231263   5.729   4.943   5.282
10122SOL     OW31264   5.001   3.164   0.075
10122SOL    HW131265   5.041   3.138   7.006
10122SOL    HW231266   5.063   3.227   0.123
10123SOL     OW31267   0.310   6.004   0.775
10123SOL    HW131268   0.402   5.990   0.737
10123SOL    HW231269   0.313   6.076   0.845
10124SOL     OW31270   3.352   4.038   0.246
10124SOL    HW131271   3.315   4.124   0.281
10124SOL    HW231272   3.300   4.010   0.165
10125SOL     OW31273   1.834   0.884   2.954
10125SOL    HW131274   1.836   0.976   2.992
10125SOL    HW231275   1.880   0.820   3.016
10126SOL     OW31276   6.636   5.129   6.970
10126SOL    HW131277   6.700   5.052   6.967
10126SOL    HW231278   6.651   5.181   0.036
10127SOL     OW31279   3.360   5.310   5.552
10127SOL    HW131280   3.305   5.390   5.577
10127SOL    HW231281   3.442   5.340   5.503
10128SOL     OW31282   6.969   1.899   0.524
10128SOL    HW131283   6.949   1.961   0.600
10128SOL    HW231284   0.024   1.837   0.551
10129SOL     OW31285   4.979   2.773   3.565
10129SOL    HW131286   4.996   2.780   3.663
10129SOL    HW231287   4.963   2.677   3.541
10130SOL     OW31288   0.398   5.820   2.710
10130SOL    HW131289   0.434   5.896   2.657
10130SOL    HW231290   0.328   5.773   2.657
10131SOL     OW31291   0.678   1.775   2.350
10131SOL    HW131292   0.690   1.703   2.282
10131SOL    HW231293   0.763   1.788   2.401
10132SOL     OW31294   3.350   6.344   2.805
10132SOL    HW131295   3.278   6.413   2.802
10132SOL    HW231296   3.380   6.321   2.712
10133SOL     OW31297   4.319   6.054   3.637
10133SOL    HW131298   4.234   6.090   3.676
10133SOL    HW231299   4.337   6.100   3.550
10134SOL     OW31300   6.443   1.319   3.529
10134SOL    HW131301   6.376   1.247   3.550
10134SOL    HW231302   6.530   1.276   3.502
10135SOL     OW31303   4.545   4.972   2.971
10135SOL    HW131304   4.557   4.914   3.051
10135SOL    HW231305   4.507   5.060   2.999
10136SOL     OW31306   5.906   6.996   3.725
10136SOL    HW131307   5.971   6.957   3.660
10136SOL    HW231308   5.939   6.982   3.818
10137SOL     OW31309   6.537   5.792   4.508
10137SOL    HW131310   6.613   5.857   4.504
10137SOL    HW231311   6.571   5.700   4.493
10138SOL     OW31312   5.502   2.300   0.384
10138SOL    HW131313   5.548   2.262   0.304
10138SOL    HW231314   5.510   2.400   0.383
10139SOL     OW31315   3.193   3.071   3.360
10139SOL    HW131316   3.165   3.007   3.288
10139SOL    HW231317   3.272   3.124   3.328
10140SOL     OW31318   6.092   5.241   0.163
10140SOL    HW131319   6.019   5.266   0.098
10140SOL    HW231320   6.151   5.172   0.121
10141SOL     OW31321   2.392   1.460   5.239
10141SOL    HW131322   2.472   1.494   5.190
10141SOL    HW231323   2.409   1.465   5.338
10142SOL     OW31324   4.542   6.238   5.176
10142SOL    HW131325   4.584   6.162   5.226
10142SOL    HW231326   4.571   6.234   5.080
10143SOL     OW31327   4.974   0.058   1.364
10143SOL    HW131328   4.913   7.013   1.411
10143SOL    HW231329   5.015   0.120   1.430
10144SOL     OW31330   3.351   5.752   5.847
10144SOL    HW131331   3.328   5.849   5.850
10144SOL    HW231332   3.329   5.715   5.757
10145SOL     OW31333   2.788   5.746   6.141
10145SOL    HW131334   2.880   5.779   6.124
10145SOL    HW231335   2.757   5.691   6.063
10146SOL     OW31336   3.560   5.328   4.424
10146SOL    HW131337   3.562   5.427   4.438
10146SOL    HW231338   3.643   5.300   4.376
10147SOL     OW31339   4.824   4.638   3.921
10147SOL    HW131340   4.871   4.634   4.009
10147SOL    HW231341   4.754   4.566   3.917
10148SOL     OW31342   6.196   5.944   0.345
10148SOL    HW131343   6.184   5.958   0.247
10148SOL    HW231344   6.265   6.008   0.380
10149SOL     OW31345   4.744   1.409   0.823
10149SOL    HW131346   4.698   1.331   0.779
10149SOL    HW231347   4.677   1.480   0.843
10150SOL     OW31348   4.658   4.764   0.901
10150SOL    HW131349   4.635   4.690   0.965
10150SOL    HW231350   4.574   4.808   0.870
10151SOL     OW31351   0.951   0.178   6.523
10151SOL    HW131352   0.907   0.098   6.482
10151SOL    HW231353   0.968   0.161   6.620
10152SOL     OW31354   1.626   5.202   3.683
10152SOL    HW131355   1.577   5.280   3.724
10152SOL    HW231356   1.621   5.124   3.744
10153SOL     OW31357   4.447   5.877   3.455
10153SOL    HW131358   4.419   5.782   3.445
10153SOL    HW231359   4.394   5.920   3.528
10154SOL     OW31360   6.604   6.230   5.751
10154SOL    HW131361   6.558   6.300   5.698
10154SOL    HW231362   6.671   6.183   5.694
10155SOL     OW31363   3.766   0.494   6.137
10155SOL    HW131364   3.705   0.522   6.211
10155SOL    HW231365   3.725   0.416   6.089
10156SOL     OW31366   5.295   0.191   2.727
10156SOL    HW131367   5.363   0.256   2.759
10156SOL    HW231368   5.288   0.115   2.791
10157SOL     OW31369   6.028   1.470   6.093
10157SOL    HW131370   6.003   1.533   6.167
10157SOL    HW231371   6.020   1.516   6.005
10158SOL     OW31372   4.623   3.722   0.042
10158SOL    HW131373   4.565   3.722   6.979
10158SOL    HW231374   4.640   3.628   0.072
10159SOL     OW31375   2.868   2.966   6.174
10159SOL    HW131376   2.825   3.041   6.224
10159SOL    HW231377   2.809   2.885   6.177
10160SOL     OW31378   0.920   4.456   3.117
10160SOL    HW131379   0.888   4.543   3.155
10160SOL    HW231380   0.848   4.388   3.125
10161SOL     OW31381   3.152   4.717   0.122
10161SOL    HW131382   3.183   4.811   0.114
10161SOL    HW231383   3.057   4.715   0.154
10162SOL     OW31384   2.431   3.333   6.959
10162SOL    HW131385   2.432   3.318   6.860
10162SOL    HW231386   2.525   3.344   6.991
10163SOL     OW31387   5.938   3.628   6.264
10163SOL    HW131388   6.021   3.591   6.305
10163SOL    HW231389   5.868   3.639   6.335
10164SOL     OW31390   6.701   3.210   4.519
10164SOL    HW131391   6.603   3.210   4.541
10164SOL    HW231392   6.747   3.279   4.573
10165SOL     OW31393   0.905   2.254   4.460
10165SOL    HW131394   0.923   2.157   4.442
10165SOL    HW231395   0.819   2.264   4.509
10166SOL     OW31396   3.161   1.178   1.702
10166SOL    HW131397   3.191   1.176   1.607
10166SOL    HW231398   3.212   1.110   1.754
10167SOL     OW31399   5.302   1.304   6.488
10167SOL    HW131400   5.385   1.345   6.450
10167SOL    HW231401   5.234   1.293   6.416
10168SOL     OW31402   0.351   4.258   4.838
10168SOL    HW131403   0.442   4.244   4.876
10168SOL    HW231404   0.343   4.353   4.806
10169SOL     OW31405   6.168   5.034   3.327
10169SOL    HW131406   6.209   4.985   3.404
10169SOL    HW231407   6.176   4.979   3.244
10170SOL     OW31408   0.626   4.335   5.406
10170SOL    HW131409   0.630   4.235   5.394
10170SOL    HW231410   0.533   4.362   5.428
10171SOL     OW31411   6.677   3.709   6.138
10171SOL    HW131412   6.752   3.724   6.203
10171SOL    HW231413   6.616   3.788   6.137
10172SOL     OW31414   5.441   0.306   2.953
10172SOL    HW131415   5.377   0.381   2.965
10172SOL    HW231416   5.414   0.228   3.009
10173SOL     OW31417   2.198   1.735   0.713
10173SOL    HW131418   2.152   1.791   0.644
10173SOL    HW231419   2.137   1.661   0.742
10174SOL     OW31420   5.679   4.584   2.858
10174SOL    HW131421   5.779   4.576   2.861
10174SOL    HW231422   5.643   4.522   2.789
10175SOL     OW31423   6.477   2.787   4.134
10175SOL    HW131424   6.482   2.828   4.225
10175SOL    HW231425   6.399   2.826   4.084
10176SOL     OW31426   1.536   3.276   5.909
10176SOL    HW131427   1.584   3.263   5.996
10176SOL    HW231428   1.473   3.201   5.894
10177SOL     OW31429   2.909   0.483   0.372
10177SOL    HW131430   2.881   0.409   0.311
10177SOL    HW231431   2.918   0.567   0.320
10178SOL     OW31432   6.043   3.063   4.238
10178SOL    HW131433   6.006   3.002   4.168
10178SOL    HW231434   6.127   3.023   4.276
10179SOL     OW31435   0.726   2.139   6.316
10179SOL    HW131436   0.752   2.091   6.232
10179SOL    HW231437   0.678   2.076   6.376
10180SOL     OW31438   2.995   5.430   6.072
10180SOL    HW131439   2.971   5.338   6.042
10180SOL    HW231440   2.924   5.465   6.133
10181SOL     OW31441   5.390   3.583   1.963
10181SOL    HW131442   5.351   3.666   1.924
10181SOL    HW231443   5.435   3.604   2.050
10182SOL     OW31444   5.968   1.348   1.206
10182SOL    HW131445   5.997   1.285   1.277
10182SOL    HW231446   6.033   1.424   1.200
10183SOL     OW31447   1.327   2.174   6.628
10183SOL    HW131448   1.375   2.125   6.555
10183SOL    HW231449   1.394   2.209   6.694
10184SOL     OW31450   4.569   1.852   6.064
10184SOL    HW131451   4.603   1.866   5.971
10184SOL    HW231452   4.614   1.915   6.127
10185SOL     OW31453   4.808   6.857   0.916
10185SOL    HW131454   4.876   6.850   0.843
10185SOL    HW231455   4.846   6.911   0.991
10186SOL     OW31456   5.552   2.908   3.251
10186SOL    HW131457   5.474   2.963   3.279
10186SOL    HW231458   5.609   2.888   3.332
10187SOL     OW31459   0.298   2.215   1.910
10187SOL    HW131460   0.266   2.236   1.818
10187SOL    HW231461   0.249   2.271   1.977
10188SOL     OW31462   3.830   6.296   0.243
10188SOL    HW131463   3.814   6.335   0.153
10188SOL    HW231464   3.873   6.206   0.235
10189SOL     OW31465   2.183   6.764   5.260
10189SOL    HW131466   2.265   6.784   5.314
10189SOL    HW231467   2.200   6.787   5.164
10190SOL     OW31468   4.970   2.012   0.922
10190SOL    HW131469   4.874   2.019   0.895
10190SOL    HW231470   4.985   1.925   0.970
10191SOL     OW31471   5.142   4.319   6.944
10191SOL    HW131472   5.080   4.249   6.977
10191SOL    HW231473   5.092   4.386   6.890
10192SOL     OW31474   4.067   0.833   4.817
10192SOL    HW131475   4.145   0.778   4.786
10192SOL    HW231476   4.031   0.887   4.741
10193SOL     OW31477   4.192   4.006   1.455
10193SOL    HW131478   4.116   3.959   1.411
10193SOL    HW231479   4.278   3.964   1.426
10194SOL     OW31480   5.786   4.282   4.691
10194SOL    HW131481   5.878   4.283   4.652
10194SOL    HW231482   5.758   4.375   4.714
10195SOL     OW31483   5.791   4.731   1.422
10195SOL    HW131484   5.880   4.775   1.407
10195SOL    HW231485   5.770   4.673   1.343
10196SOL     OW31486   6.388   1.684   4.886
10196SOL    HW131487   6.384   1.594   4.842
10196SOL    HW231488   6.301   1.703   4.930
10197SOL     OW31489   6.732   1.077   5.099
10197SOL    HW131490   6.683   1.028   5.171
10197SOL    HW231491   6.720   1.029   5.012
10198SOL     OW31492   3.798   0.742   2.387
10198SOL    HW131493   3.707   0.773   2.362
10198SOL    HW231494   3.850   0.722   2.304
10199SOL     OW31495   1.005   2.844   5.558
10199SOL    HW131496   1.028   2.806   5.647
10199SOL    HW231497   0.986   2.942   5.567
10200SOL     OW31498   5.142   2.550   0.923
10200SOL    HW131499   5.122   2.576   1.017
10200SOL    HW231500   5.112   2.456   0.908
10201SOL     OW31501   1.665   4.101   0.862
10201SOL    HW131502   1.714   4.025   0.819
10201SOL    HW231503   1.730   4.174   0.883
10202SOL     OW31504   3.870   1.601   5.565
10202SOL    HW131505   3.959   1.643   5.581
10202SOL    HW231506   3.798   1.664   5.596
10203SOL     OW31507   5.490   2.605   4.778
10203SOL    HW131508   5.544   2.528   4.745
10203SOL    HW231509   5.541   2.690   4.763
10204SOL     OW31510   4.715   6.372   6.673
10204SOL    HW131511   4.634   6.380   6.616
10204SOL    HW231512   4.695   6.407   6.765
10205SOL     OW31513   0.739   1.153   0.108
10205SOL    HW131514   0.690   1.210   0.042
10205SOL    HW231515   0.737   1.058   0.077
10206SOL     OW31516   1.121   0.646   5.742
10206SOL    HW131517   1.055   0.591   5.691
10206SOL    HW231518   1.166   0.588   5.811
10207SOL     OW31519   1.531   2.172   5.892
10207SOL    HW131520   1.538   2.083   5.937
10207SOL    HW231521   1.610   2.228   5.915
10208SOL     OW31522   5.182   5.459   4.962
10208SOL    HW131523   5.106   5.433   4.902
10208SOL    HW231524   5.157   5.542   5.012
10209SOL     OW31525   0.141   0.159   5.955
10209SOL    HW131526   0.148   0.184   6.052
10209SOL    HW231527   0.102   0.236   5.904
10210SOL     OW31528   4.230   6.215   1.719
10210SOL    HW131529   4.199   6.220   1.814
10210SOL    HW231530   4.196   6.294   1.669
10211SOL     OW31531   4.149   6.775   5.222
10211SOL    HW131532   4.188   6.797   5.311
10211SOL    HW231533   4.159   6.677   5.204
10212SOL     OW31534   0.971   0.004   5.747
10212SOL    HW131535   0.897   6.987   5.690
10212SOL    HW231536   0.961   0.103   5.758
10213SOL     OW31537   5.260   2.197   0.360
10213SOL    HW131538   5.348   2.234   0.391
10213SOL    HW231539   5.232   2.123   0.421
10214SOL     OW31540   1.131   2.798   1.713
10214SOL    HW131541   1.164   2.780   1.621
10214SOL    HW231542   1.083   2.885   1.715
10215SOL     OW31543   4.128   3.464   2.460
10215SOL    HW131544   4.063   3.477   2.535
10215SOL    HW231545   4.141   3.366   2.444
10216SOL     OW31546   5.832   0.435   2.216
10216SOL    HW131547   5.793   0.344   2.233
10216SOL    HW231548   5.777   0.483   2.148
10217SOL     OW31549   2.822   1.505   3.585
10217SOL    HW131550   2.842   1.462   3.673
10217SOL    HW231551   2.905   1.503   3.528
10218SOL     OW31552   1.067   2.930   2.348
10218SOL    HW131553   1.121   2.932   2.432
10218SOL    HW231554   1.066   2.837   2.311
10219SOL     OW31555   0.802   1.180   2.179
10219SOL    HW131556   0.785   1.257   2.240
10219SOL    HW231557   0.717   1.151   2.136
10220SOL     OW31558   3.715   2.483   1.695
10220SOL    HW131559   3.809   2.467   1.668
10220SOL    HW231560   3.690   2.421   1.769
10221SOL     OW31561   0.825   6.496   2.717
10221SOL    HW131562   0.841   6.496   2.619
10221SOL    HW231563   0.730   6.522   2.736
10222SOL     OW31564   2.979   3.697   4.819
10222SOL    HW131565   3.003   3.794   4.811
10222SOL    HW231566   2.954   3.661   4.730
10223SOL     OW31567   0.764   5.499   0.962
10223SOL    HW131568   0.702   5.530   0.890
10223SOL    HW231569   0.733   5.535   1.051
10224SOL     OW31570   5.987   4.218   3.200
10224SOL    HW131571   6.085   4.203   3.210
10224SOL    HW231572   5.969   4.314   3.181
10225SOL     OW31573   1.771   3.531   5.818
10225SOL    HW131574   1.796   3.473   5.741
10225SOL    HW231575   1.706   3.482   5.876
10226SOL     OW31576   4.623   2.385   6.981
10226SOL    HW131577   4.652   2.421   0.051
10226SOL    HW231578   4.666   2.438   6.908
10227SOL     OW31579   5.854   3.878   0.856
10227SOL    HW131580   5.835   3.967   0.898
10227SOL    HW231581   5.854   3.807   0.926
10228SOL     OW31582   5.280   1.117   0.529
10228SOL    HW131583   5.191   1.088   0.566
10228SOL    HW231584   5.270   1.137   0.431
10229SOL     OW31585   0.361   3.498   5.248
10229SOL    HW131586   0.392   3.562   5.178
10229SOL    HW231587   0.440   3.455   5.291
10230SOL     OW31588   6.553   5.605   2.554
10230SOL    HW131589   6.604   5.610   2.639
10230SOL    HW231590   6.457   5.629   2.570
10231SOL     OW31591   1.479   6.385   3.235
10231SOL    HW131592   1.475   6.484   3.242
10231SOL    HW231593   1.388   6.349   3.215
10232SOL     OW31594   4.462   6.530   2.829
10232SOL    HW131595   4.390   6.555   2.763
10232SOL    HW231596   4.438   6.444   2.873
10233SOL     OW31597   4.136   4.061   6.318
10233SOL    HW131598   4.117   4.076   6.416
10233SOL    HW231599   4.072   3.994   6.282
10234SOL     OW31600   6.821   1.055   1.493
10234SOL    HW131601   6.741   1.032   1.437
10234SOL    HW231602   6.903   1.058   1.436
10235SOL     OW31603   0.869   1.195   3.316
10235SOL    HW131604   0.860   1.185   3.217
10235SOL    HW231605   0.799   1.258   3.350
10236SOL     OW31606   2.096   0.113   0.815
10236SOL    HW131607   2.178   0.169   0.820
10236SOL    HW231608   2.101   0.039   0.882
10237SOL     OW31609   0.437   3.665   6.710
10237SOL    HW131610   0.486   3.731   6.653
10237SOL    HW231611   0.414   3.707   6.798
10238SOL     OW31612   4.010   5.575   0.797
10238SOL    HW131613   4.010   5.538   0.704
10238SOL    HW231614   4.070   5.520   0.854
10239SOL     OW31615   1.536   2.417   4.573
10239SOL    HW131616   1.633   2.438   4.579
10239SOL    HW231617   1.523   2.337   4.514
10240SOL     OW31618   2.827   6.932   0.914
10240SOL    HW131619   2.812   6.944   1.012
10240SOL    HW231620   2.744   6.956   0.864
10241SOL     OW31621   4.535   2.123   1.685
10241SOL    HW131622   4.538   2.220   1.662
10241SOL    HW231623   4.483   2.110   1.769
10242SOL     OW31624   6.874   2.312   0.490
10242SOL    HW131625   6.868   2.409   0.469
10242SOL    HW231626   6.821   2.292   0.573
10243SOL     OW31627   2.671   4.944   0.968
10243SOL    HW131628   2.747   5.004   0.941
10243SOL    HW231629   2.703   4.850   0.973
10244SOL     OW31630   2.664   4.109   1.713
10244SOL    HW131631   2.617   4.034   1.668
10244SOL    HW231632   2.598   4.180   1.738
10245SOL     OW31633   4.032   4.332   0.681
10245SOL    HW131634   3.984   4.329   0.769
10245SOL    HW231635   4.092   4.411   0.678
10246SOL     OW31636   3.723   2.881   4.290
10246SOL    HW131637   3.671   2.798   4.268
10246SOL    HW231638   3.689   2.920   4.375
10247SOL     OW31639   1.328   3.990   4.776
10247SOL    HW131640   1.383   4.041   4.842
10247SOL    HW231641   1.369   3.998   4.685
10248SOL     OW31642   1.146   0.437   3.206
10248SOL    HW131643   1.108   0.345   3.222
10248SOL    HW231644   1.135   0.461   3.110
10249SOL     OW31645   2.220   4.422   6.699
10249SOL    HW131646   2.125   4.447   6.719
10249SOL    HW231647   2.222   4.343   6.639
10250SOL     OW31648   5.216   2.556   6.745
10250SOL    HW131649   5.199   2.573   6.648
10250SOL    HW231650   5.299   2.604   6.773
10251SOL     OW31651   1.963   0.312   3.901
10251SOL    HW131652   1.966   0.261   3.814
10251SOL    HW231653   1.902   0.390   3.891
10252SOL     OW31654   5.232   4.252   5.826
10252SOL    HW131655   5.329   4.233   5.845
10252SOL    HW231656   5.223   4.283   5.731
10253SOL     OW31657   4.372   6.753   6.893
10253SOL    HW131658   4.386   6.825   6.826
10253SOL    HW231659   4.359   6.793   6.983
10254SOL     OW31660   5.875   1.659   4.610
10254SOL    HW131661   5.973   1.644   4.594
10254SOL    HW231662   5.853   1.755   4.597
10255SOL     OW31663   3.485   5.465   1.632
10255SOL    HW131664   3.488   5.365   1.634
10255SOL    HW231665   3.447   5.499   1.717
10256SOL     OW31666   5.092   0.975   2.792
10256SOL    HW131667   5.084   0.942   2.698
10256SOL    HW231668   5.085   0.897   2.855
10257SOL     OW31669   2.979   5.003   2.438
10257SOL    HW131670   3.052   5.071   2.430
10257SOL    HW231671   2.989   4.936   2.365
10258SOL     OW31672   1.897   1.824   2.107
10258SOL    HW131673   1.933   1.827   2.013
10258SOL    HW231674   1.869   1.915   2.135
10259SOL     OW31675   0.945   4.071   4.066
10259SOL    HW131676   1.044   4.070   4.080
10259SOL    HW231677   0.920   4.004   3.996
10260SOL     OW31678   1.597   1.260   3.597
10260SOL    HW131679   1.623   1.170   3.562
10260SOL    HW231680   1.517   1.251   3.656
10261SOL     OW31681   6.509   3.921   0.425
10261SOL    HW131682   6.469   3.935   0.515
10261SOL    HW231683   6.604   3.890   0.435
10262SOL     OW31684   3.598   1.139   6.871
10262SOL    HW131685   3.607   1.143   6.971
10262SOL    HW231686   3.657   1.208   6.830
10263SOL     OW31687   5.748   1.074   1.814
10263SOL    HW131688   5.762   1.093   1.912
10263SOL    HW231689   5.668   1.125   1.782
10264SOL     OW31690   5.919   5.447   6.772
10264SOL    HW131691   6.005   5.448   6.722
10264SOL    HW231692   5.858   5.378   6.732
10265SOL     OW31693   2.287   1.834   0.082
10265SOL    HW131694   2.318   1.802   7.011
10265SOL    HW231695   2.302   1.933   0.089
10266SOL     OW31696   2.876   3.692   2.190
10266SOL    HW131697   2.876   3.593   2.199
10266SOL    HW231698   2.866   3.734   2.280
10267SOL     OW31699   5.700   1.131   0.727
10267SOL    HW131700   5.716   1.182   0.812
10267SOL    HW231701   5.608   1.091   0.729
10268SOL     OW31702   5.045   6.848   1.199
10268SOL    HW131703   5.040   6.917   1.271
10268SOL    HW231704   5.079   6.889   1.115
10269SOL     OW31705   2.257   2.103   6.012
10269SOL    HW131706   2.288   2.093   6.106
10269SOL    HW231707   2.272   2.017   5.962
10270SOL     OW31708   3.339   6.072   1.819
10270SOL    HW131709   3.438   6.078   1.826
10270SOL    HW231710   3.311   5.975   1.822
10271SOL     OW31711   1.962   2.108   0.174
10271SOL    HW131712   1.950   2.191   0.230
10271SOL    HW231713   1.966   2.028   0.234
10272SOL     OW31714   6.618   0.708   4.553
10272SOL    HW131715   6.673   0.786   4.585
10272SOL    HW231716   6.551   0.740   4.486
10273SOL     OW31717   2.902   5.007   3.862
10273SOL    HW131718   2.927   4.952   3.782
10273SOL    HW231719   2.954   4.974   3.941
10274SOL     OW31720   0.340   5.449   5.113
10274SOL    HW131721   0.301   5.478   5.025
10274SOL    HW231722   0.267   5.446   5.182
10275SOL     OW31723   0.336   0.397   2.864
10275SOL    HW131724   0.374   0.315   2.820
10275SOL    HW231725   0.386   0.478   2.833
10276SOL     OW31726   4.255   5.872   6.006
10276SOL    HW131727   4.350   5.875   6.036
10276SOL    HW231728   4.215   5.783   6.031
10277SOL     OW31729   1.224   6.425   4.276
10277SOL    HW131730   1.128   6.411   4.297
10277SOL    HW231731   1.271   6.337   4.277
10278SOL     OW31732   0.356   0.599   5.303
10278SOL    HW131733   0.360   0.557   5.393
10278SOL    HW231734   0.427   0.560   5.244
10279SOL     OW31735   1.841   5.280   4.247
10279SOL    HW131736   1.806   5.224   4.322
10279SOL    HW231737   1.772   5.284   4.174
10280SOL     OW31738   5.319   4.389   0.611
10280SOL    HW131739   5.342   4.485   0.597
10280SOL    HW231740   5.364   4.356   0.694
10281SOL     OW31741   6.341   2.075   3.679
10281SOL    HW131742   6.264   2.089   3.618
10281SOL    HW231743   6.408   2.015   3.636
10282SOL     OW31744   4.888   3.596   2.789
10282SOL    HW131745   4.983   3.566   2.786
10282SOL    HW231746   4.884   3.696   2.788
10283SOL     OW31747   0.334   4.447   1.132
10283SOL    HW131748   0.265   4.475   1.198
10283SOL    HW231749   0.357   4.351   1.147
10284SOL     OW31750   0.235   2.719   3.796
10284SOL    HW131751   0.148   2.698   3.750
10284SOL    HW231752   0.217   2.773   3.878
10285SOL     OW31753   4.537   6.014   3.779
10285SOL    HW131754   4.446   6.018   3.737
10285SOL    HW231755   4.603   6.061   3.721
10286SOL     OW31756   2.985   1.481   4.571
10286SOL    HW131757   2.925   1.401   4.564
10286SOL    HW231758   2.955   1.552   4.507
10287SOL     OW31759   1.904   5.640   2.239
10287SOL    HW131760   1.997   5.667   2.216
10287SOL    HW231761   1.899   5.616   2.336
10288SOL     OW31762   3.852   0.041   5.090
10288SOL    HW131763   3.832   0.137   5.107
10288SOL    HW231764   3.915   0.033   5.013
10289SOL     OW31765   2.682   6.446   0.164
10289SOL    HW131766   2.638   6.434   0.253
10289SOL    HW231767   2.681   6.359   0.114
10290SOL     OW31768   3.027   3.067   2.427
10290SOL    HW131769   3.108   3.078   2.484
10290SOL    HW231770   2.990   3.156   2.401
10291SOL     OW31771   3.148   1.184   2.545
10291SOL    HW131772   3.233   1.190   2.493
10291SOL    HW231773   3.084   1.123   2.498
10292SOL     OW31774   6.851   0.203   6.168
10292SOL    HW131775   6.939   0.188   6.214
10292SOL    HW231776   6.783   0.233   6.235
10293SOL     OW31777   0.590   4.302   3.608
10293SOL    HW131778   0.626   4.387   3.570
10293SOL    HW231779   0.523   4.263   3.545
10294SOL     OW31780   3.396   1.676   2.714
10294SOL    HW131781   3.309   1.703   2.757
10294SOL    HW231782   3.403   1.718   2.624
10295SOL     OW31783   0.950   2.242   6.976
10295SOL    HW131784   1.038   2.288   6.982
10295SOL    HW231785   0.876   2.309   6.970
10296SOL     OW31786   5.973   1.032   5.874
10296SOL    HW131787   5.939   1.107   5.930
10296SOL    HW231788   6.039   0.978   5.925
10297SOL     OW31789   2.849   1.877   6.458
10297SOL    HW131790   2.873   1.806   6.392
10297SOL    HW231791   2.922   1.885   6.527
10298SOL     OW31792   0.562   3.138   2.518
10298SOL    HW131793   0.571   3.217   2.458
10298SOL    HW231794   0.583   3.055   2.468
10299SOL     OW31795   4.517   6.442   1.974
10299SOL    HW131796   4.530   6.420   1.878
10299SOL    HW231797   4.570   6.524   1.997
10300SOL     OW31798   0.696   3.576   1.897
10300SOL    HW131799   0.703   3.667   1.938
10300SOL    HW231800   0.788   3.541   1.878
10301SOL     OW31801   4.446   1.195   6.308
10301SOL    HW131802   4.504   1.252   6.249
10301SOL    HW231803   4.355   1.236   6.314
10302SOL     OW31804   2.544   5.796   4.430
10302SOL    HW131805   2.532   5.705   4.391
10302SOL    HW231806   2.458   5.828   4.469
10303SOL     OW31807   1.054   5.897   4.590
10303SOL    HW131808   1.100   5.981   4.560
10303SOL    HW231809   0.969   5.921   4.637
10304SOL     OW31810   6.297   0.228   0.281
10304SOL    HW131811   6.263   0.203   0.372
10304SOL    HW231812   6.304   0.146   0.225
10305SOL     OW31813   2.587   3.759   5.926
10305SOL    HW131814   2.665   3.818   5.945
10305SOL    HW231815   2.606   3.702   5.846
10306SOL     OW31816   5.921   0.565   1.020
10306SOL    HW131817   5.977   0.542   1.099
10306SOL    HW231818   5.911   0.485   0.961
10307SOL     OW31819   3.060   0.660   4.632
10307SOL    HW131820   3.006   0.597   4.577
10307SOL    HW231821   3.121   0.713   4.573
10308SOL     OW31822   2.566   4.625   2.269
10308SOL    HW131823   2.494   4.673   2.217
10308SOL    HW231824   2.524   4.558   2.330
10309SOL     OW31825   6.194   0.912   5.700
10309SOL    HW131826   6.110   0.947   5.742
10309SOL    HW231827   6.260   0.891   5.773
10310SOL     OW31828   2.524   3.336   6.395
10310SOL    HW131829   2.481   3.418   6.359
10310SOL    HW231830   2.551   3.351   6.490
10311SOL     OW31831   5.667   5.912   6.595
10311SOL    HW131832   5.597   5.851   6.559
10311SOL    HW231833   5.665   5.998   6.544
10312SOL     OW31834   4.557   0.329   2.167
10312SOL    HW131835   4.606   0.285   2.243
10312SOL    HW231836   4.508   0.259   2.115
10313SOL     OW31837   4.391   6.094   2.766
10313SOL    HW131838   4.381   5.998   2.789
10313SOL    HW231839   4.449   6.139   2.834
10314SOL     OW31840   0.711   6.892   6.921
10314SOL    HW131841   0.801   6.856   6.946
10314SOL    HW231842   0.658   6.909   7.004
10315SOL     OW31843   5.042   6.544   3.433
10315SOL    HW131844   5.057   6.456   3.386
10315SOL    HW231845   5.107   6.612   3.398
10316SOL     OW31846   6.588   2.018   6.228
10316SOL    HW131847   6.651   2.095   6.234
10316SOL    HW231848   6.506   2.046   6.178
10317SOL     OW31849   3.415   5.962   6.252
10317SOL    HW131850   3.331   5.963   6.305
10317SOL    HW231851   3.408   6.026   6.175
10318SOL     OW31852   5.298   7.009   0.097
10318SOL    HW131853   5.374   7.016   0.032
10318SOL    HW231854   5.300   0.069   0.159
10319SOL     OW31855   0.515   4.729   4.632
10319SOL    HW131856   0.416   4.738   4.647
10319SOL    HW231857   0.545   4.796   4.564
10320SOL     OW31858   6.984   0.428   3.574
10320SOL    HW131859   6.962   0.388   3.485
10320SOL    HW231860   6.910   0.409   3.638
10321SOL     OW31861   5.639   1.949   2.042
10321SOL    HW131862   5.678   1.979   2.130
10321SOL    HW231863   5.540   1.959   2.044
10322SOL     OW31864   4.296   4.702   4.296
10322SOL    HW131865   4.278   4.755   4.379
10322SOL    HW231866   4.341   4.616   4.321
10323SOL     OW31867   6.613   4.648   5.546
10323SOL    HW131868   6.610   4.686   5.454
10323SOL    HW231869   6.684   4.695   5.599
10324SOL     OW31870   3.112   3.548   2.357
10324SOL    HW131871   3.062   3.635   2.363
10324SOL    HW231872   3.207   3.566   2.332
10325SOL     OW31873   0.320   5.811   1.820
10325SOL    HW131874   0.221   5.824   1.821
10325SOL    HW231875   0.353   5.805   1.914
10326SOL     OW31876   5.511   4.052   0.048
10326SOL    HW131877   5.454   3.989   7.013
10326SOL    HW231878   5.456   4.096   0.119
10327SOL     OW31879   2.863   3.867   1.245
10327SOL    HW131880   2.765   3.846   1.240
10327SOL    HW231881   2.899   3.835   1.332
10328SOL     OW31882   6.570   3.484   1.851
10328SOL    HW131883   6.571   3.399   1.797
10328SOL    HW231884   6.530   3.557   1.795
10329SOL     OW31885   3.137   1.250   2.966
10329SOL    HW131886   3.174   1.158   2.958
10329SOL    HW231887   3.058   1.249   3.027
10330SOL     OW31888   4.851   0.093   0.765
10330SOL    HW131889   4.767   0.121   0.812
10330SOL    HW231890   4.926   0.151   0.795
10331SOL     OW31891   6.185   5.929   0.066
10331SOL    HW131892   6.254   5.861   0.042
10331SOL    HW231893   6.101   5.911   0.016
10332SOL     OW31894   1.106   1.016   0.414
10332SOL    HW131895   1.095   0.952   0.338
10332SOL    HW231896   1.046   0.989   0.489
10333SOL     OW31897   0.708   5.708   4.363
10333SOL    HW131898   0.701   5.746   4.270
10333SOL    HW231899   0.658   5.622   4.366
10334SOL     OW31900   2.942   6.961   3.810
10334SOL    HW131901   2.854   6.994   3.845
10334SOL    HW231902   3.005   6.946   3.886
10335SOL     OW31903   0.215   4.535   6.497
10335SOL    HW131904   0.215   4.598   6.575
10335SOL    HW231905   0.273   4.457   6.517
10336SOL     OW31906   5.953   0.118   2.800
10336SOL    HW131907   5.899   0.202   2.793
10336SOL    HW231908   5.948   0.068   2.714
10337SOL     OW31909   6.205   5.471   6.856
10337SOL    HW131910   6.304   5.460   6.866
10337SOL    HW231911   6.165   5.386   6.822
10338SOL     OW31912   1.996   6.317   1.762
10338SOL    HW131913   2.095   6.304   1.765
10338SOL    HW231914   1.972   6.364   1.677
10339SOL     OW31915   6.968   3.058   5.839
10339SOL    HW131916   0.012   3.118   5.790
10339SOL    HW231917   6.946   3.098   5.928
10340SOL     OW31918   1.215   3.298   6.409
10340SOL    HW131919   1.213   3.376   6.346
10340SOL    HW231920   1.309   3.281   6.437
10341SOL     OW31921   2.164   3.119   2.539
10341SOL    HW131922   2.176   3.102   2.441
10341SOL    HW231923   2.133   3.035   2.583
10342SOL     OW31924   1.806   0.367   3.621
10342SOL    HW131925   1.740   0.384   3.548
10342SOL    HW231926   1.769   0.401   3.708
10343SOL     OW31927   2.341   5.556   0.777
10343SOL    HW131928   2.275   5.600   0.716
10343SOL    HW231929   2.293   5.506   0.848
10344SOL     OW31930   3.446   3.721   6.857
10344SOL    HW131931   3.398   3.786   6.798
10344SOL    HW231932   3.385   3.689   6.929
10345SOL     OW31933   1.444   2.845   5.084
10345SOL    HW131934   1.542   2.866   5.093
10345SOL    HW231935   1.429   2.790   5.003
10346SOL     OW31936   6.863   5.942   1.443
10346SOL    HW131937   6.903   6.018   1.391
10346SOL    HW231938   6.813   5.978   1.521
10347SOL     OW31939   4.518   0.855   3.932
10347SOL    HW131940   4.439   0.794   3.926
10347SOL    HW231941   4.492   0.937   3.982
10348SOL     OW31942   5.898   3.363   0.193
10348SOL    HW131943   5.808   3.349   0.234
10348SOL    HW231944   5.939   3.447   0.230
10349SOL     OW31945   0.668   0.012   6.266
10349SOL    HW131946   0.657   0.087   6.201
10349SOL    HW231947   0.589   6.969   6.260
10350SOL     OW31948   2.938   6.398   5.449
10350SOL    HW131949   3.024   6.410   5.398
10350SOL    HW231950   2.861   6.405   5.385
10351SOL     OW31951   4.326   5.033   5.725
10351SOL    HW131952   4.343   4.944   5.768
10351SOL    HW231953   4.253   5.080   5.774
10352SOL     OW31954   3.591   1.252   6.197
10352SOL    HW131955   3.542   1.287   6.277
10352SOL    HW231956   3.611   1.328   6.135
10353SOL     OW31957   6.517   2.851   4.418
10353SOL    HW131958   6.543   2.835   4.514
10353SOL    HW231959   6.585   2.911   4.376
10354SOL     OW31960   5.201   1.019   1.664
10354SOL    HW131961   5.297   1.020   1.693
10354SOL    HW231962   5.161   1.110   1.678
10355SOL     OW31963   2.512   5.936   2.410
10355SOL    HW131964   2.493   6.028   2.443
10355SOL    HW231965   2.551   5.881   2.484
10356SOL     OW31966   6.869   4.296   5.511
10356SOL    HW131967   6.783   4.328   5.470
10356SOL    HW231968   6.944   4.313   5.447
10357SOL     OW31969   2.103   2.271   6.616
10357SOL    HW131970   2.010   2.278   6.580
10357SOL    HW231971   2.127   2.355   6.665
10358SOL     OW31972   0.472   2.897   2.851
10358SOL    HW131973   0.504   2.958   2.924
10358SOL    HW231974   0.378   2.922   2.826
10359SOL     OW31975   0.239   1.368   1.473
10359SOL    HW131976   0.141   1.383   1.488
10359SOL    HW231977   0.277   1.317   1.550
10360SOL     OW31978   5.290   6.034   3.202
10360SOL    HW131979   5.353   6.091   3.254
10360SOL    HW231980   5.214   6.005   3.261
10361SOL     OW31981   2.779   5.977   2.335
10361SOL    HW131982   2.778   6.058   2.393
10361SOL    HW231983   2.689   5.932   2.339
10362SOL     OW31984   2.112   4.423   4.763
10362SOL    HW131985   2.159   4.336   4.746
10362SOL    HW231986   2.150   4.494   4.704
10363SOL     OW31987   5.005   0.113   3.603
10363SOL    HW131988   4.941   0.189   3.611
10363SOL    HW231989   5.034   0.083   3.694
10364SOL     OW31990   2.266   4.297   1.223
10364SOL    HW131991   2.310   4.387   1.231
10364SOL    HW231992   2.211   4.295   1.140
10365SOL     OW31993   4.855   4.850   0.059
10365SOL    HW131994   4.909   4.934   0.053
10365SOL    HW231995   4.788   4.848   7.003
10366SOL     OW31996   2.780   6.997   3.437
10366SOL    HW131997   2.875   6.988   3.468
10366SOL    HW231998   2.780   0.010   3.342
10367SOL     OW31999   5.818   2.464   3.204
10367SOL    HW132000   5.723   2.434   3.215
10367SOL    HW232001   5.820   2.563   3.191
10368SOL     OW32002   2.188   1.436   1.943
10368SOL    HW132003   2.253   1.512   1.945
10368SOL    HW232004   2.237   1.351   1.923
10369SOL     OW32005   4.134   2.188   0.332
10369SOL    HW132006   4.092   2.217   0.246
10369SOL    HW232007   4.227   2.227   0.338
10370SOL     OW32008   4.397   1.089   5.255
10370SOL    HW132009   4.301   1.091   5.229
10370SOL    HW232010   4.440   1.176   5.230
10371SOL     OW32011   4.583   5.891   5.303
10371SOL    HW132012   4.660   5.851   5.353
10371SOL    HW232013   4.526   5.943   5.366
10372SOL     OW32014   2.298   0.946   3.844
10372SOL    HW132015   2.291   0.890   3.926
10372SOL    HW232016   2.315   1.041   3.869
10373SOL     OW32017   1.243   6.760   3.982
10373SOL    HW132018   1.159   6.777   4.033
10373SOL    HW232019   1.247   6.664   3.954
10374SOL     OW32020   2.906   2.013   3.186
10374SOL    HW132021   2.963   1.931   3.187
10374SOL    HW232022   2.893   2.043   3.092
10375SOL     OW32023   5.897   1.823   1.090
10375SOL    HW132024   5.966   1.893   1.106
10375SOL    HW232025   5.809   1.866   1.072
10376SOL     OW32026   0.302   0.968   3.763
10376SOL    HW132027   0.279   0.872   3.772
10376SOL    HW232028   0.267   1.003   3.676
10377SOL     OW32029   0.281   0.689   3.789
10377SOL    HW132030   0.268   0.618   3.858
10377SOL    HW232031   0.256   0.653   3.699
10378SOL     OW32032   6.841   0.478   6.155
10378SOL    HW132033   6.940   0.490   6.150
10378SOL    HW232034   6.818   0.382   6.136
10379SOL     OW32035   5.402   1.167   4.652
10379SOL    HW132036   5.378   1.070   4.646
10379SOL    HW232037   5.432   1.200   4.563
10380SOL     OW32038   5.108   0.501   1.940
10380SOL    HW132039   5.047   0.512   2.018
10380SOL    HW232040   5.132   0.591   1.903
10381SOL     OW32041   4.641   4.607   5.860
10381SOL    HW132042   4.669   4.583   5.953
10381SOL    HW232043   4.719   4.645   5.810
10382SOL     OW32044   2.000   5.231   6.857
10382SOL    HW132045   1.985   5.267   6.765
10382SOL    HW232046   1.914   5.235   6.909
10383SOL     OW32047   0.515   2.739   1.312
10383SOL    HW132048   0.445   2.684   1.265
10383SOL    HW232049   0.603   2.692   1.307
10384SOL     OW32050   6.230   0.223   0.639
10384SOL    HW132051   6.221   0.124   0.631
10384SOL    HW232052   6.142   0.262   0.669
10385SOL     OW32053   6.229   1.247   6.849
10385SOL    HW132054   6.256   1.316   6.782
10385SOL    HW232055   6.303   1.180   6.859
10386SOL     OW32056   6.363   3.117   5.501
10386SOL    HW132057   6.422   3.197   5.513
10386SOL    HW232058   6.376   3.079   5.409
10387SOL     OW32059   1.966   2.376   3.301
10387SOL    HW132060   1.907   2.420   3.233
10387SOL    HW232061   1.995   2.445   3.368
10388SOL     OW32062   1.508   5.116   2.984
10388SOL    HW132063   1.414   5.150   2.991
10388SOL    HW232064   1.558   5.138   3.068
10389SOL     OW32065   0.780   4.833   3.385
10389SOL    HW132066   0.804   4.800   3.294
10389SOL    HW232067   0.726   4.917   3.377
10390SOL     OW32068   1.023   3.509   3.600
10390SOL    HW132069   1.050   3.526   3.694
10390SOL    HW232070   1.076   3.567   3.538
10391SOL     OW32071   2.423   6.585   6.043
10391SOL    HW132072   2.454   6.492   6.065
10391SOL    HW232073   2.418   6.639   6.127
10392SOL     OW32074   7.006   5.190   0.182
10392SOL    HW132075   6.925   5.248   0.175
10392SOL    HW232076   7.013   5.153   0.275
10393SOL     OW32077   1.381   1.345   4.212
10393SOL    HW132078   1.406   1.274   4.145
10393SOL    HW232079   1.285   1.371   4.198
10394SOL     OW32080   2.525   6.644   0.024
10394SOL    HW132081   2.568   6.725   0.063
10394SOL    HW232082   2.578   6.563   0.049
10395SOL     OW32083   0.222   0.985   4.694
10395SOL    HW132084   0.170   0.985   4.608
10395SOL    HW232085   0.176   1.045   4.760
10396SOL     OW32086   1.301   6.682   4.949
10396SOL    HW132087   1.392   6.718   4.968
10396SOL    HW232088   1.279   6.698   4.853
10397SOL     OW32089   3.515   1.533   2.902
10397SOL    HW132090   3.608   1.520   2.869
10397SOL    HW232091   3.467   1.598   2.844
10398SOL     OW32092   6.457   2.644   2.517
10398SOL    HW132093   6.557   2.644   2.517
10398SOL    HW232094   6.424   2.616   2.428
10399SOL     OW32095   5.483   2.333   5.153
10399SOL    HW132096   5.439   2.338   5.243
10399SOL    HW232097   5.526   2.244   5.142
10400SOL     OW32098   2.339   5.463   1.701
10400SOL    HW132099   2.344   5.392   1.630
10400SOL    HW232100   2.397   5.540   1.675
10401SOL     OW32101   0.702   5.993   1.865
10401SOL    HW132102   0.767   6.068   1.869
10401SOL    HW232103   0.618   6.018   1.914
10402SOL     OW32104   0.520   3.358   4.282
10402SOL    HW132105   0.561   3.418   4.351
10402SOL    HW232106   0.495   3.412   4.202
10403SOL     OW32107   5.735   1.079   2.105
10403SOL    HW132108   5.800   1.089   2.181
10403SOL    HW232109   5.650   1.125   2.128
10404SOL     OW32110   0.619   6.386   3.459
10404SOL    HW132111   0.600   6.313   3.525
10404SOL    HW232112   0.537   6.440   3.443
10405SOL     OW32113   1.609   6.304   6.132
10405SOL    HW132114   1.602   6.331   6.036
10405SOL    HW232115   1.520   6.318   6.177
10406SOL     OW32116   2.246   4.583   6.018
10406SOL    HW132117   2.300   4.524   5.957
10406SOL    HW232118   2.277   4.571   6.112
10407SOL     OW32119   0.656   1.913   0.201
10407SOL    HW132120   0.715   1.847   0.155
10407SOL    HW232121   0.663   1.899   0.300
10408SOL     OW32122   4.412   5.822   2.790
10408SOL    HW132123   4.392   5.761   2.714
10408SOL    HW232124   4.477   5.779   2.852
10409SOL     OW32125   6.241   4.876   2.665
10409SOL    HW132126   6.262   4.954   2.606
10409SOL    HW232127   6.142   4.863   2.670
10410SOL     OW32128   5.023   0.380   0.822
10410SOL    HW132129   4.981   0.349   0.906
10410SOL    HW232130   5.016   0.480   0.816
10411SOL     OW32131   2.177   4.887   3.119
10411SOL    HW132132   2.257   4.833   3.094
10411SOL    HW232133   2.105   4.872   3.052
10412SOL     OW32134   0.488   2.029   0.601
10412SOL    HW132135   0.419   1.967   0.639
10412SOL    HW232136   0.446   2.118   0.581
10413SOL     OW32137   0.379   1.824   6.911
10413SOL    HW132138   0.299   1.853   6.859
10413SOL    HW232139   0.408   1.898   6.972
10414SOL     OW32140   6.093   6.564   5.417
10414SOL    HW132141   6.052   6.500   5.481
10414SOL    HW232142   6.136   6.639   5.467
10415SOL     OW32143   0.387   5.890   3.541
10415SOL    HW132144   0.420   5.982   3.564
10415SOL    HW232145   0.403   5.873   3.444
10416SOL     OW32146   5.524   1.319   5.890
10416SOL    HW132147   5.431   1.350   5.910
10416SOL    HW232148   5.531   1.298   5.792
10417SOL     OW32149   3.657   4.945   4.146
10417SOL    HW132150   3.707   4.880   4.204
10417SOL    HW232151   3.559   4.941   4.167
10418SOL     OW32152   5.847   3.666   6.545
10418SOL    HW132153   5.815   3.739   6.605
10418SOL    HW232154   5.884   3.591   6.600
10419SOL     OW32155   2.486   1.386   4.634
10419SOL    HW132156   2.531   1.360   4.719
10419SOL    HW232157   2.395   1.346   4.631
10420SOL     OW32158   6.224   3.809   2.920
10420SOL    HW132159   6.213   3.776   2.827
10420SOL    HW232160   6.319   3.798   2.950
10421SOL     OW32161   1.091   4.555   4.833
10421SOL    HW132162   1.014   4.590   4.780
10421SOL    HW232163   1.070   4.463   4.866
10422SOL     OW32164   6.504   3.759   4.943
10422SOL    HW132165   6.547   3.784   4.856
10422SOL    HW232166   6.569   3.775   5.018
10423SOL     OW32167   3.185   5.240   3.948
10423SOL    HW132168   3.115   5.237   4.020
10423SOL    HW232169   3.224   5.149   3.935
10424SOL     OW32170   3.852   1.164   0.592
10424SOL    HW132171   3.853   1.115   0.680
10424SOL    HW232172   3.867   1.262   0.609
10425SOL     OW32173   1.447   2.267   0.829
10425SOL    HW132174   1.488   2.267   0.738
10425SOL    HW232175   1.349   2.286   0.822
10426SOL     OW32176   6.201   2.154   6.168
10426SOL    HW132177   6.144   2.214   6.225
10426SOL    HW232178   6.285   2.202   6.142
10427SOL     OW32179   5.284   6.571   4.509
10427SOL    HW132180   5.292   6.477   4.541
10427SOL    HW232181   5.376   6.611   4.500
10428SOL     OW32182   2.707   0.476   3.822
10428SOL    HW132183   2.664   0.475   3.732
10428SOL    HW232184   2.784   0.412   3.822
10429SOL     OW32185   1.121   2.673   2.231
10429SOL    HW132186   1.133   2.698   2.135
10429SOL    HW232187   1.027   2.642   2.245
10430SOL     OW32188   3.471   0.106   3.446
10430SOL    HW132189   3.467   0.113   3.346
10430SOL    HW232190   3.411   0.033   3.477
10431SOL     OW32191   3.375   0.393   2.809
10431SOL    HW132192   3.297   0.362   2.863
10431SOL    HW232193   3.398   0.487   2.836
10432SOL     OW32194   1.293   5.679   6.239
10432SOL    HW132195   1.221   5.726   6.290
10432SOL    HW232196   1.329   5.740   6.169
10433SOL     OW32197   2.240   0.279   2.426
10433SOL    HW132198   2.296   0.196   2.433
10433SOL    HW232199   2.289   0.355   2.469
10434SOL     OW32200   5.057   0.316   5.479
10434SOL    HW132201   5.084   0.259   5.557
10434SOL    HW232202   5.069   0.265   5.394
10435SOL     OW32203   2.304   1.829   6.790
10435SOL    HW132204   2.333   1.836   6.695
10435SOL    HW232205   2.204   1.826   6.795
10436SOL     OW32206   6.548   3.353   5.455
10436SOL    HW132207   6.631   3.391   5.414
10436SOL    HW232208   6.485   3.427   5.479
10437SOL     OW32209   5.510   6.571   5.128
10437SOL    HW132210   5.581   6.639   5.113
10437SOL    HW232211   5.540   6.483   5.092
10438SOL     OW32212   6.471   6.210   6.693
10438SOL    HW132213   6.398   6.160   6.741
10438SOL    HW232214   6.433   6.253   6.611
10439SOL     OW32215   6.486   6.555   5.103
10439SOL    HW132216   6.468   6.458   5.084
10439SOL    HW232217   6.421   6.611   5.050
10440SOL     OW32218   6.653   2.379   0.665
10440SOL    HW132219   6.734   2.399   0.720
10440SOL    HW232220   6.599   2.463   0.653
10441SOL     OW32221   4.369   1.678   0.461
10441SOL    HW132222   4.365   1.763   0.514
10441SOL    HW232223   4.325   1.605   0.513
10442SOL     OW32224   2.241   2.314   5.831
10442SOL    HW132225   2.267   2.390   5.891
10442SOL    HW232226   2.237   2.230   5.885
10443SOL     OW32227   0.400   1.292   2.883
10443SOL    HW132228   0.315   1.301   2.832
10443SOL    HW232229   0.401   1.204   2.931
10444SOL     OW32230   3.774   5.259   4.187
10444SOL    HW132231   3.850   5.243   4.123
10444SOL    HW232232   3.713   5.179   4.187
10445SOL     OW32233   0.857   3.341   3.167
10445SOL    HW132234   0.764   3.311   3.190
10445SOL    HW232235   0.862   3.361   3.070
10446SOL     OW32236   1.941   4.362   5.771
10446SOL    HW132237   1.842   4.365   5.781
10446SOL    HW232238   1.979   4.294   5.834
10447SOL     OW32239   0.315   1.885   3.066
10447SOL    HW132240   0.349   1.812   3.008
10447SOL    HW232241   0.385   1.955   3.078
10448SOL     OW32242   2.328   6.432   2.391
10448SOL    HW132243   2.355   6.468   2.480
10448SOL    HW232244   2.313   6.507   2.327
10449SOL     OW32245   3.513   4.977   5.021
10449SOL    HW132246   3.521   4.934   5.111
10449SOL    HW232247   3.561   4.922   4.953
10450SOL     OW32248   0.059   0.921   6.091
10450SOL    HW132249   0.085   0.825   6.097
10450SOL    HW232250   0.067   0.952   5.996
10451SOL     OW32251   3.119   1.199   3.348
10451SOL    HW132252   3.089   1.277   3.293
10451SOL    HW232253   3.056   1.185   3.423
10452SOL     OW32254   6.580   3.703   4.589
10452SOL    HW132255   6.607   3.659   4.503
10452SOL    HW232256   6.512   3.774   4.570
10453SOL     OW32257   3.927   6.038   3.173
10453SOL    HW132258   3.833   6.071   3.180
10453SOL    HW232259   3.927   5.941   3.151
10454SOL     OW32260   6.631   1.108   5.940
10454SOL    HW132261   6.589   1.199   5.935
10454SOL    HW232262   6.617   1.060   5.853
10455SOL     OW32263   6.461   5.853   3.690
10455SOL    HW132264   6.555   5.883   3.707
10455SOL    HW232265   6.415   5.833   3.777
10456SOL     OW32266   1.084   5.278   6.602
10456SOL    HW132267   1.068   5.180   6.593
10456SOL    HW232268   1.113   5.315   6.514
10457SOL     OW32269   3.639   2.622   6.784
10457SOL    HW132270   3.641   2.718   6.756
10457SOL    HW232271   3.733   2.590   6.798
10458SOL     OW32272   0.399   5.888   6.773
10458SOL    HW132273   0.441   5.800   6.750
10458SOL    HW232274   0.426   5.956   6.705
10459SOL     OW32275   0.448   4.927   0.707
10459SOL    HW132276   0.385   4.901   0.634
10459SOL    HW232277   0.540   4.940   0.670
10460SOL     OW32278   0.145   1.704   1.043
10460SOL    HW132279   0.135   1.660   0.954
10460SOL    HW232280   0.071   1.676   1.103
10461SOL     OW32281   6.711   5.267   6.183
10461SOL    HW132282   6.715   5.364   6.158
10461SOL    HW232283   6.689   5.213   6.102
10462SOL     OW32284   4.639   1.989   0.600
10462SOL    HW132285   4.697   1.938   0.664
10462SOL    HW232286   4.672   1.974   0.507
10463SOL     OW32287   4.544   2.378   6.383
10463SOL    HW132288   4.546   2.352   6.286
10463SOL    HW232289   4.517   2.474   6.391
10464SOL     OW32290   6.702   4.957   2.233
10464SOL    HW132291   6.633   4.977   2.303
10464SOL    HW232292   6.790   4.992   2.264
10465SOL     OW32293   5.403   4.137   1.247
10465SOL    HW132294   5.432   4.068   1.312
10465SOL    HW232295   5.304   4.128   1.231
10466SOL     OW32296   6.442   5.034   6.473
10466SOL    HW132297   6.358   5.003   6.517
10466SOL    HW232298   6.474   4.963   6.409
10467SOL     OW32299   0.857   3.304   0.621
10467SOL    HW132300   0.796   3.359   0.679
10467SOL    HW232301   0.817   3.297   0.529
10468SOL     OW32302   2.269   4.608   4.227
10468SOL    HW132303   2.204   4.532   4.228
10468SOL    HW232304   2.255   4.662   4.143
10469SOL     OW32305   0.064   1.381   4.253
10469SOL    HW132306   0.110   1.398   4.340
10469SOL    HW232307   0.111   1.430   4.180
10470SOL     OW32308   1.852   2.452   3.089
10470SOL    HW132309   1.880   2.548   3.096
10470SOL    HW232310   1.763   2.446   3.043
10471SOL     OW32311   2.884   6.819   6.882
10471SOL    HW132312   2.902   6.773   6.795
10471SOL    HW232313   2.852   6.752   6.949
10472SOL     OW32314   3.919   4.642   6.682
10472SOL    HW132315   3.844   4.579   6.700
10472SOL    HW232316   3.955   4.626   6.590
10473SOL     OW32317   5.446   5.236   0.451
10473SOL    HW132318   5.458   5.159   0.389
10473SOL    HW232319   5.468   5.207   0.545
10474SOL     OW32320   5.321   0.798   4.533
10474SOL    HW132321   5.365   0.713   4.503
10474SOL    HW232322   5.230   0.804   4.491
10475SOL     OW32323   1.588   6.419   0.960
10475SOL    HW132324   1.519   6.484   0.928
10475SOL    HW232325   1.552   6.368   1.039
10476SOL     OW32326   4.675   5.318   0.255
10476SOL    HW132327   4.620   5.243   0.219
10476SOL    HW232328   4.620   5.402   0.257
10477SOL     OW32329   6.722   5.237   3.913
10477SOL    HW132330   6.799   5.267   3.970
10477SOL    HW232331   6.651   5.308   3.912
10478SOL     OW32332   5.707   1.263   6.974
10478SOL    HW132333   5.617   1.306   6.982
10478SOL    HW232334   5.758   1.274   0.041
10479SOL     OW32335   1.250   2.297   2.208
10479SOL    HW132336   1.186   2.224   2.235
10479SOL    HW232337   1.342   2.259   2.201
10480SOL     OW32338   2.193   0.288   2.178
10480SOL    HW132339   2.222   0.282   2.273
10480SOL    HW232340   2.168   0.382   2.156
10481SOL     OW32341   6.733   1.145   2.259
10481SOL    HW132342   6.761   1.075   2.325
10481SOL    HW232343   6.775   1.233   2.284
10482SOL     OW32344   4.795   3.930   4.643
10482SOL    HW132345   4.729   3.894   4.709
10482SOL    HW232346   4.874   3.869   4.638
10483SOL     OW32347   6.064   6.592   0.391
10483SOL    HW132348   6.041   6.525   0.320
10483SOL    HW232349   6.048   6.551   0.481
10484SOL     OW32350   6.052   1.166   2.600
10484SOL    HW132351   6.074   1.153   2.697
10484SOL    HW232352   5.982   1.237   2.592
10485SOL     OW32353   6.120   3.856   5.428
10485SOL    HW132354   6.044   3.795   5.405
10485SOL    HW232355   6.129   3.863   5.527
10486SOL     OW32356   5.345   2.807   1.854
10486SOL    HW132357   5.403   2.874   1.901
10486SOL    HW232358   5.249   2.833   1.866
10487SOL     OW32359   5.868   6.893   1.666
10487SOL    HW132360   5.909   6.912   1.756
10487SOL    HW232361   5.940   6.862   1.603
10488SOL     OW32362   2.488   2.627   6.397
10488SOL    HW132363   2.484   2.598   6.492
10488SOL    HW232364   2.411   2.589   6.347
10489SOL     OW32365   0.905   6.079   6.324
10489SOL    HW132366   0.952   6.038   6.403
10489SOL    HW232367   0.894   6.177   6.339
10490SOL     OW32368   6.703   0.855   3.895
10490SOL    HW132369   6.725   0.907   3.977
10490SOL    HW232370   6.752   0.893   3.817
10491SOL     OW32371   1.680   4.033   5.945
10491SOL    HW132372   1.649   4.115   5.993
10491SOL    HW232373   1.602   3.988   5.902
10492SOL     OW32374   4.637   3.210   5.385
10492SOL    HW132375   4.568   3.278   5.357
10492SOL    HW232376   4.727   3.254   5.389
10493SOL     OW32377   2.682   0.988   1.794
10493SOL    HW132378   2.728   0.918   1.848
10493SOL    HW232379   2.750   1.042   1.745
10494SOL     OW32380   6.094   2.521   4.455
10494SOL    HW132381   6.188   2.526   4.421
10494SOL    HW232382   6.076   2.428   4.488
10495SOL     OW32383   1.090   6.927   0.362
10495SOL    HW132384   1.181   6.966   0.350
10495SOL    HW232385   1.044   6.924   0.273
10496SOL     OW32386   6.909   6.871   5.531
10496SOL    HW132387   6.837   6.891   5.597
10496SOL    HW232388   6.915   6.946   5.464
10497SOL     OW32389   1.455   0.976   0.973
10497SOL    HW132390   1.416   1.027   1.050
10497SOL    HW232391   1.393   0.980   0.895
10498SOL     OW32392   2.353   5.868   6.163
10498SOL    HW132393   2.433   5.922   6.136
10498SOL    HW232394   2.334   5.799   6.094
10499SOL     OW32395   3.435   5.710   3.157
10499SOL    HW132396   3.439   5.740   3.252
10499SOL    HW232397   3.339   5.693   3.132
10500SOL     OW32398   1.193   2.084   6.327
10500SOL    HW132399   1.194   2.070   6.426
10500SOL    HW232400   1.119   2.030   6.286
10501SOL     OW32401   1.335   3.222   2.869
10501SOL    HW132402   1.252   3.171   2.894
10501SOL    HW232403   1.337   3.234   2.770
10502SOL     OW32404   3.127   5.788   6.601
10502SOL    HW132405   3.215   5.815   6.640
10502SOL    HW232406   3.130   5.691   6.576
10503SOL     OW32407   2.951   3.320   6.638
10503SOL    HW132408   2.898   3.330   6.722
10503SOL    HW232409   2.933   3.397   6.577
10504SOL     OW32410   2.863   3.107   0.865
10504SOL    HW132411   2.795   3.043   0.898
10504SOL    HW232412   2.897   3.077   0.775
10505SOL     OW32413   6.755   6.239   1.648
10505SOL    HW132414   6.834   6.288   1.686
10505SOL    HW232415   6.706   6.300   1.585
10506SOL     OW32416   0.391   4.023   5.738
10506SOL    HW132417   0.398   3.972   5.652
10506SOL    HW232418   0.474   4.076   5.753
10507SOL     OW32419   1.010   0.268   5.882
10507SOL    HW132420   0.983   0.306   5.970
10507SOL    HW232421   1.104   0.233   5.888
10508SOL     OW32422   5.114   3.919   3.170
10508SOL    HW132423   5.159   3.836   3.138
10508SOL    HW232424   5.024   3.896   3.206
10509SOL     OW32425   1.200   0.201   6.480
10509SOL    HW132426   1.225   0.277   6.420
10509SOL    HW232427   1.103   0.208   6.504
10510SOL     OW32428   6.702   5.706   6.898
10510SOL    HW132429   6.778   5.761   6.863
10510SOL    HW232430   6.622   5.764   6.911
10511SOL     OW32431   4.283   2.658   0.786
10511SOL    HW132432   4.255   2.742   0.739
10511SOL    HW232433   4.202   2.613   0.824
10512SOL     OW32434   3.770   6.587   6.368
10512SOL    HW132435   3.822   6.658   6.321
10512SOL    HW232436   3.731   6.626   6.452
10513SOL     OW32437   0.498   2.403   6.927
10513SOL    HW132438   0.494   2.323   6.867
10513SOL    HW232439   0.593   2.423   6.950
10514SOL     OW32440   0.641   5.042   1.008
10514SOL    HW132441   0.708   4.968   1.015
10514SOL    HW232442   0.563   5.021   1.068
10515SOL     OW32443   6.948   2.159   3.528
10515SOL    HW132444   6.972   2.205   3.613
10515SOL    HW232445   0.012   2.117   3.489
10516SOL     OW32446   4.064   0.302   5.909
10516SOL    HW132447   3.969   0.328   5.890
10516SOL    HW232448   4.088   0.329   6.002
10517SOL     OW32449   6.774   1.987   2.858
10517SOL    HW132450   6.753   1.911   2.919
10517SOL    HW232451   6.790   2.070   2.912
10518SOL     OW32452   0.987   6.484   1.161
10518SOL    HW132453   1.004   6.452   1.067
10518SOL    HW232454   0.997   6.407   1.224
10519SOL     OW32455   2.910   3.515   5.369
10519SOL    HW132456   2.897   3.419   5.343
10519SOL    HW232457   2.826   3.550   5.411
10520SOL     OW32458   4.765   2.178   6.851
10520SOL    HW132459   4.722   2.208   6.765
10520SOL    HW232460   4.725   2.230   6.927
10521SOL     OW32461   6.415   5.763   1.209
10521SOL    HW132462   6.496   5.821   1.209
10521SOL    HW232463   6.370   5.767   1.120
10522SOL     OW32464   6.363   1.099   1.995
10522SOL    HW132465   6.332   1.166   2.062
10522SOL    HW232466   6.292   1.029   1.982
10523SOL     OW32467   6.874   5.654   6.373
10523SOL    HW132468   6.794   5.609   6.414
10523SOL    HW232469   6.857   5.752   6.365
10524SOL     OW32470   2.952   0.821   3.622
10524SOL    HW132471   2.929   0.776   3.709
10524SOL    HW232472   2.914   0.913   3.622
10525SOL     OW32473   2.390   5.902   4.778
10525SOL    HW132474   2.343   5.817   4.755
10525SOL    HW232475   2.406   5.906   4.876
10526SOL     OW32476   6.737   0.776   2.725
10526SOL    HW132477   6.773   0.866   2.704
10526SOL    HW232478   6.661   0.784   2.789
10527SOL     OW32479   0.984   2.810   4.222
10527SOL    HW132480   1.047   2.760   4.164
10527SOL    HW232481   0.897   2.823   4.174
10528SOL     OW32482   0.485   5.052   4.813
10528SOL    HW132483   0.551   5.053   4.889
10528SOL    HW232484   0.408   4.993   4.837
10529SOL     OW32485   6.977   6.963   3.748
10529SOL    HW132486   6.880   6.943   3.733
10529SOL    HW232487   7.017   6.889   3.802
10530SOL     OW32488   2.559   1.836   6.154
10530SOL    HW132489   2.551   1.739   6.177
10530SOL    HW232490   2.642   1.850   6.100
10531SOL     OW32491   1.744   2.882   5.185
10531SOL    HW132492   1.805   2.805   5.204
10531SOL    HW232493   1.746   2.945   5.263
10532SOL     OW32494   3.977   2.282   5.655
10532SOL    HW132495   4.050   2.350   5.658
10532SOL    HW232496   3.927   2.282   5.741
10533SOL     OW32497   2.594   1.094   5.534
10533SOL    HW132498   2.626   1.112   5.441
10533SOL    HW232499   2.562   1.000   5.540
10534SOL     OW32500   6.903   5.722   0.766
10534SOL    HW132501   6.976   5.656   0.784
10534SOL    HW232502   6.921   5.768   0.679
10535SOL     OW32503   0.486   1.314   2.219
10535SOL    HW132504   0.448   1.334   2.128
10535SOL    HW232505   0.480   1.395   2.276
10536SOL     OW32506   4.624   0.233   2.969
10536SOL    HW132507   4.668   0.254   3.056
10536SOL    HW232508   4.598   0.317   2.923
10537SOL     OW32509   1.184   4.938   2.326
10537SOL    HW132510   1.243   4.988   2.263
10537SOL    HW232511   1.223   4.848   2.345
10538SOL     OW32512   4.328   3.520   0.614
10538SOL    HW132513   4.351   3.485   0.523
10538SOL    HW232514   4.321   3.620   0.611
10539SOL     OW32515   0.489   4.064   6.195
10539SOL    HW132516   0.452   4.137   6.251
10539SOL    HW232517   0.430   3.983   6.203
10540SOL     OW32518   2.042   0.201   6.266
10540SOL    HW132519   2.101   0.280   6.284
10540SOL    HW232520   1.967   0.199   6.332
10541SOL     OW32521   3.553   3.231   0.116
10541SOL    HW132522   3.604   3.278   0.044
10541SOL    HW232523   3.485   3.293   0.155
10542SOL     OW32524   6.994   2.620   0.300
10542SOL    HW132525   6.952   2.542   0.255
10542SOL    HW232526   0.074   2.605   0.309
10543SOL     OW32527   1.142   1.034   5.649
10543SOL    HW132528   1.112   1.117   5.695
10543SOL    HW232529   1.063   0.988   5.608
10544SOL     OW32530   1.632   2.566   1.988
10544SOL    HW132531   1.700   2.634   2.015
10544SOL    HW232532   1.644   2.544   1.891
10545SOL     OW32533   6.443   0.780   2.542
10545SOL    HW132534   6.483   0.688   2.542
10545SOL    HW232535   6.423   0.807   2.636
10546SOL     OW32536   2.871   0.709   3.853
10546SOL    HW132537   2.823   0.621   3.845
10546SOL    HW232538   2.822   0.766   3.919
10547SOL     OW32539   4.408   1.423   1.391
10547SOL    HW132540   4.375   1.360   1.321
10547SOL    HW232541   4.364   1.402   1.478
10548SOL     OW32542   5.121   4.200   4.892
10548SOL    HW132543   5.039   4.164   4.937
10548SOL    HW232544   5.100   4.220   4.796
10549SOL     OW32545   1.179   1.189   1.703
10549SOL    HW132546   1.137   1.153   1.620
10549SOL    HW232547   1.131   1.154   1.783
10550SOL     OW32548   4.931   6.645   4.179
10550SOL    HW132549   4.930   6.662   4.080
10550SOL    HW232550   5.014   6.683   4.219
10551SOL     OW32551   0.996   2.732   6.129
10551SOL    HW132552   0.974   2.776   6.216
10551SOL    HW232553   1.051   2.651   6.145
10552SOL     OW32554   3.433   2.163   5.162
10552SOL    HW132555   3.401   2.076   5.200
10552SOL    HW232556   3.355   2.224   5.149
10553SOL     OW32557   1.385   5.018   0.182
10553SOL    HW132558   1.439   5.041   0.101
10553SOL    HW232559   1.367   4.919   0.183
10554SOL     OW32560   6.960   4.674   6.917
10554SOL    HW132561   6.883   4.737   6.918
10554SOL    HW232562   6.926   4.580   6.910
10555SOL     OW32563   3.401   1.485   1.724
10555SOL    HW132564   3.436   1.566   1.772
10555SOL    HW232565   3.478   1.426   1.700
10556SOL     OW32566   1.920   3.348   5.152
10556SOL    HW132567   1.882   3.414   5.087
10556SOL    HW232568   1.946   3.396   5.236
10557SOL     OW32569   6.969   2.796   3.350
10557SOL    HW132570   6.959   2.697   3.340
10557SOL    HW232571   6.890   2.833   3.397
10558SOL     OW32572   4.809   6.229   5.377
10558SOL    HW132573   4.745   6.175   5.432
10558SOL    HW232574   4.887   6.255   5.434
10559SOL     OW32575   4.371   1.956   0.805
10559SOL    HW132576   4.406   2.027   0.865
10559SOL    HW232577   4.285   1.986   0.763
10560SOL     OW32578   1.031   3.181   4.186
10560SOL    HW132579   0.988   3.265   4.217
10560SOL    HW232580   0.981   3.145   4.107
10561SOL     OW32581   2.546   4.088   6.784
10561SOL    HW132582   2.632   4.132   6.809
10561SOL    HW232583   2.502   4.051   6.867
10562SOL     OW32584   4.239   1.334   0.766
10562SOL    HW132585   4.317   1.298   0.817
10562SOL    HW232586   4.157   1.331   0.823
10563SOL     OW32587   1.519   1.841   5.521
10563SOL    HW132588   1.492   1.920   5.577
10563SOL    HW232589   1.485   1.757   5.562
10564SOL     OW32590   6.280   2.299   1.827
10564SOL    HW132591   6.344   2.227   1.850
10564SOL    HW232592   6.213   2.310   1.901
10565SOL     OW32593   5.760   1.633   4.874
10565SOL    HW132594   5.838   1.597   4.925
10565SOL    HW232595   5.788   1.657   4.781
10566SOL     OW32596   3.506   3.835   6.447
10566SOL    HW132597   3.424   3.886   6.422
10566SOL    HW232598   3.578   3.899   6.474
10567SOL     OW32599   1.897   3.687   3.910
10567SOL    HW132600   1.807   3.718   3.878
10567SOL    HW232601   1.939   3.759   3.966
10568SOL     OW32602   4.632   1.038   3.088
10568SOL    HW132603   4.681   1.023   3.173
10568SOL    HW232604   4.545   0.987   3.089
10569SOL     OW32605   5.668   3.228   4.565
10569SOL    HW132606   5.697   3.280   4.645
10569SOL    HW232607   5.748   3.187   4.521
10570SOL     OW32608   1.632   5.162   2.721
10570SOL    HW132609   1.605   5.173   2.817
10570SOL    HW232610   1.559   5.116   2.671
10571SOL     OW32611   6.220   6.434   2.829
10571SOL    HW132612   6.149   6.488   2.874
10571SOL    HW232613   6.265   6.489   2.759
10572SOL     OW32614   5.831   3.704   2.045
10572SOL    HW132615   5.755   3.640   2.041
10572SOL    HW232616   5.811   3.783   1.987
10573SOL     OW32617   5.916   5.498   4.740
10573SOL    HW132618   5.903   5.409   4.698
10573SOL    HW232619   5.838   5.557   4.719
10574SOL     OW32620   0.260   1.618   3.520
10574SOL    HW132621   0.357   1.641   3.534
10574SOL    HW232622   0.239   1.623   3.422
10575SOL     OW32623   1.171   0.047   5.398
10575SOL    HW132624   1.225   6.983   5.417
10575SOL    HW232625   1.172   0.066   5.300
10576SOL     OW32626   1.820   5.574   3.609
10576SOL    HW132627   1.729   5.584   3.568
10576SOL    HW232628   1.816   5.506   3.682
10577SOL     OW32629   1.738   2.691   6.089
10577SOL    HW132630   1.707   2.676   5.995
10577SOL    HW232631   1.834   2.720   6.088
10578SOL     OW32632   6.243   0.329   5.917
10578SOL    HW132633   6.325   0.276   5.894
10578SOL    HW232634   6.172   0.268   5.951
10579SOL     OW32635   4.584   1.610   0.845
10579SOL    HW132636   4.618   1.666   0.920
10579SOL    HW232637   4.487   1.629   0.831
10580SOL     OW32638   6.510   5.929   6.996
10580SOL    HW132639   6.433   5.866   6.999
10580SOL    HW232640   6.556   5.930   0.067
10581SOL     OW32641   5.562   0.374   3.593
10581SOL    HW132642   5.546   0.314   3.515
10581SOL    HW232643   5.517   0.335   3.674
10582SOL     OW32644   4.012   4.985   6.480
10582SOL    HW132645   3.997   4.957   6.575
10582SOL    HW232646   3.996   4.908   6.419
10583SOL     OW32647   4.067   1.242   0.311
10583SOL    HW132648   4.002   1.318   0.319
10583SOL    HW232649   4.129   1.243   0.389
10584SOL     OW32650   5.594   6.964   1.301
10584SOL    HW132651   5.599   0.038   1.262
10584SOL    HW232652   5.586   6.898   1.227
10585SOL     OW32653   0.818   3.162   6.072
10585SOL    HW132654   0.826   3.207   6.162
10585SOL    HW232655   0.770   3.075   6.082
10586SOL     OW32656   3.012   6.180   6.244
10586SOL    HW132657   3.108   6.205   6.250
10586SOL    HW232658   2.999   6.088   6.282
10587SOL     OW32659   6.139   4.195   0.819
10587SOL    HW132660   6.206   4.177   0.891
10587SOL    HW232661   6.061   4.244   0.858
10588SOL     OW32662   0.682   5.684   3.160
10588SOL    HW132663   0.680   5.615   3.088
10588SOL    HW232664   0.743   5.655   3.233
10589SOL     OW32665   5.990   1.851   3.916
10589SOL    HW132666   5.982   1.828   3.819
10589SOL    HW232667   5.991   1.951   3.927
10590SOL     OW32668   1.294   0.206   3.007
10590SOL    HW132669   1.228   0.271   2.970
10590SOL    HW232670   1.383   0.220   2.963
10591SOL     OW32671   0.917   2.111   0.478
10591SOL    HW132672   0.986   2.038   0.470
10591SOL    HW232673   0.893   2.143   0.387
10592SOL     OW32674   6.273   1.365   0.386
10592SOL    HW132675   6.241   1.453   0.423
10592SOL    HW232676   6.243   1.292   0.447
10593SOL     OW32677   2.189   5.413   1.162
10593SOL    HW132678   2.110   5.359   1.190
10593SOL    HW232679   2.222   5.381   1.074
10594SOL     OW32680   0.188   2.072   4.110
10594SOL    HW132681   0.159   2.073   4.206
10594SOL    HW232682   0.283   2.041   4.104
10595SOL     OW32683   3.491   6.381   6.643
10595SOL    HW132684   3.449   6.471   6.642
10595SOL    HW232685   3.462   6.330   6.562
10596SOL     OW32686   3.764   0.430   2.389
10596SOL    HW132687   3.845   0.374   2.404
10596SOL    HW232688   3.714   0.440   2.475
10597SOL     OW32689   1.621   0.763   4.996
10597SOL    HW132690   1.706   0.738   5.044
10597SOL    HW232691   1.591   0.686   4.941
10598SOL     OW32692   2.054   2.044   6.782
10598SOL    HW132693   2.039   1.994   6.697
10598SOL    HW232694   2.091   2.135   6.761
10599SOL     OW32695   5.801   1.702   7.002
10599SOL    HW132696   5.714   1.674   0.025
10599SOL    HW232697   5.876   1.678   0.044
10600SOL     OW32698   2.520   3.036   6.177
10600SOL    HW132699   2.521   2.964   6.247
10600SOL    HW232700   2.491   3.122   6.219
10601SOL     OW32701   3.282   6.037   6.490
10601SOL    HW132702   3.336   5.967   6.538
10601SOL    HW232703   3.195   6.050   6.537
10602SOL     OW32704   4.584   1.549   1.817
10602SOL    HW132705   4.631   1.527   1.903
10602SOL    HW232706   4.527   1.631   1.831
10603SOL     OW32707   1.469   5.734   4.349
10603SOL    HW132708   1.528   5.690   4.281
10603SOL    HW232709   1.375   5.703   4.336
10604SOL     OW32710   6.776   4.712   4.537
10604SOL    HW132711   6.807   4.621   4.565
10604SOL    HW232712   6.678   4.721   4.554
10605SOL     OW32713   1.322   5.240   6.751
10605SOL    HW132714   1.401   5.301   6.751
10605SOL    HW232715   1.328   5.178   6.674
10606SOL     OW32716   0.688   0.651   1.964
10606SOL    HW132717   0.679   0.648   2.064
10606SOL    HW232718   0.692   0.558   1.928
10607SOL     OW32719   5.671   4.929   6.891
10607SOL    HW132720   5.592   4.878   6.856
10607SOL    HW232721   5.652   5.027   6.887
10608SOL     OW32722   6.510   1.441   4.164
10608SOL    HW132723   6.428   1.499   4.165
10608SOL    HW232724   6.506   1.379   4.085
10609SOL     OW32725   3.943   6.756   1.014
10609SOL    HW132726   3.889   6.818   1.071
10609SOL    HW232727   4.036   6.793   1.003
10610SOL     OW32728   1.286   3.358   5.635
10610SOL    HW132729   1.315   3.353   5.539
10610SOL    HW232730   1.365   3.375   5.693
10611SOL     OW32731   5.817   2.636   5.779
10611SOL    HW132732   5.902   2.653   5.830
10611SOL    HW232733   5.840   2.593   5.692
10612SOL     OW32734   1.630   0.055   0.161
10612SOL    HW132735   1.627   0.101   0.250
10612SOL    HW232736   1.538   0.051   0.122
10613SOL     OW32737   0.559   6.095   5.637
10613SOL    HW132738   0.496   6.091   5.560
10613SOL    HW232739   0.528   6.164   5.703
10614SOL     OW32740   6.475   0.945   4.535
10614SOL    HW132741   6.380   0.964   4.559
10614SOL    HW232742   6.516   1.026   4.493
10615SOL     OW32743   5.105   5.658   5.397
10615SOL    HW132744   5.145   5.664   5.488
10615SOL    HW232745   5.133   5.572   5.353
10616SOL     OW32746   2.737   5.788   6.843
10616SOL    HW132747   2.756   5.727   6.920
10616SOL    HW232748   2.638   5.796   6.830
10617SOL     OW32749   1.409   2.201   6.895
10617SOL    HW132750   1.503   2.234   6.895
10617SOL    HW232751   1.409   2.101   6.886
10618SOL     OW32752   5.895   2.951   0.034
10618SOL    HW132753   5.867   3.020   6.986
10618SOL    HW232754   5.975   2.901   7.017
10619SOL     OW32755   0.823   4.374   4.389
10619SOL    HW132756   0.784   4.332   4.307
10619SOL    HW232757   0.866   4.304   4.446
10620SOL     OW32758   1.560   5.865   4.844
10620SOL    HW132759   1.535   5.780   4.891
10620SOL    HW232760   1.531   5.860   4.748
10621SOL     OW32761   2.048   6.566   0.416
10621SOL    HW132762   2.032   6.601   0.508
10621SOL    HW232763   1.965   6.521   0.382
10622SOL     OW32764   3.676   0.891   1.443
10622SOL    HW132765   3.592   0.937   1.472
10622SOL    HW232766   3.660   0.793   1.437
10623SOL     OW32767   6.112   1.980   3.535
10623SOL    HW132768   6.110   1.941   3.443
10623SOL    HW232769   6.065   1.918   3.598
10624SOL     OW32770   1.778   0.486   4.355
10624SOL    HW132771   1.782   0.427   4.275
10624SOL    HW232772   1.685   0.520   4.367
10625SOL     OW32773   0.273   3.389   0.828
10625SOL    HW132774   0.189   3.430   0.791
10625SOL    HW232775   0.265   3.290   0.824
10626SOL     OW32776   0.492   2.535   1.722
10626SOL    HW132777   0.528   2.442   1.737
10626SOL    HW232778   0.562   2.602   1.745
10627SOL     OW32779   6.164   6.279   3.765
10627SOL    HW132780   6.082   6.316   3.808
10627SOL    HW232781   6.141   6.192   3.719
10628SOL     OW32782   5.851   5.778   5.875
10628SOL    HW132783   5.864   5.814   5.783
10628SOL    HW232784   5.902   5.692   5.885
10629SOL     OW32785   2.325   5.612   5.957
10629SOL    HW132786   2.228   5.596   5.936
10629SOL    HW232787   2.370   5.651   5.876
10630SOL     OW32788   6.517   1.897   3.483
10630SOL    HW132789   6.496   1.802   3.457
10630SOL    HW232790   6.596   1.898   3.543
10631SOL     OW32791   0.771   6.576   3.782
10631SOL    HW132792   0.865   6.569   3.749
10631SOL    HW232793   0.770   6.618   3.872
10632SOL     OW32794   0.143   2.005   5.088
10632SOL    HW132795   0.227   1.977   5.042
10632SOL    HW232796   0.066   1.954   5.051
10633SOL     OW32797   1.774   5.294   1.773
10633SOL    HW132798   1.784   5.392   1.789
10633SOL    HW232799   1.860   5.248   1.792
10634SOL     OW32800   3.618   6.306   1.075
10634SOL    HW132801   3.520   6.321   1.063
10634SOL    HW232802   3.635   6.210   1.097
10635SOL     OW32803   2.369   0.770   1.283
10635SOL    HW132804   2.431   0.828   1.231
10635SOL    HW232805   2.403   0.676   1.282
10636SOL     OW32806   1.025   2.330   1.577
10636SOL    HW132807   1.058   2.236   1.569
10636SOL    HW232808   0.948   2.344   1.515
10637SOL     OW32809   3.398   4.091   4.944
10637SOL    HW132810   3.319   4.109   4.885
10637SOL    HW232811   3.478   4.071   4.888
10638SOL     OW32812   0.471   6.517   5.508
10638SOL    HW132813   0.475   6.453   5.585
10638SOL    HW232814   0.421   6.599   5.536
10639SOL     OW32815   2.274   0.545   4.504
10639SOL    HW132816   2.324   0.621   4.545
10639SOL    HW232817   2.176   0.560   4.512
10640SOL     OW32818   4.122   0.648   0.116
10640SOL    HW132819   4.079   0.734   0.088
10640SOL    HW232820   4.054   0.590   0.161
10641SOL     OW32821   5.887   1.945   6.937
10641SOL    HW132822   5.852   1.854   6.959
10641SOL    HW232823   5.811   2.010   6.935
10642SOL     OW32824   0.121   3.077   1.813
10642SOL    HW132825   0.152   3.139   1.741
10642SOL    HW232826   0.135   3.120   1.902
10643SOL     OW32827   2.741   2.898   5.609
10643SOL    HW132828   2.746   2.940   5.518
10643SOL    HW232829   2.769   2.802   5.602
10644SOL     OW32830   4.524   1.408   4.209
10644SOL    HW132831   4.623   1.417   4.220
10644SOL    HW232832   4.503   1.325   4.157
10645SOL     OW32833   2.737   0.742   5.014
10645SOL    HW132834   2.782   0.769   4.929
10645SOL    HW232835   2.672   0.813   5.042
10646SOL     OW32836   1.094   3.641   6.548
10646SOL    HW132837   1.034   3.631   6.468
10646SOL    HW232838   1.067   3.722   6.600
10647SOL     OW32839   0.193   5.200   0.652
10647SOL    HW132840   0.161   5.156   0.736
10647SOL    HW232841   0.148   5.157   0.574
10648SOL     OW32842   4.810   2.963   6.870
10648SOL    HW132843   4.905   2.931   6.875
10648SOL    HW232844   4.748   2.885   6.872
10649SOL     OW32845   0.101   5.110   5.909
10649SOL    HW132846   0.190   5.154   5.920
10649SOL    HW232847   0.072   5.115   5.814
10650SOL     OW32848   3.256   6.676   3.778
10650SOL    HW132849   3.174   6.651   3.727
10650SOL    HW232850   3.230   6.722   3.863
10651SOL     OW32851   4.487   6.161   6.450
10651SOL    HW132852   4.484   6.178   6.351
10651SOL    HW232853   4.488   6.249   6.499
10652SOL     OW32854   3.485   0.838   6.156
10652SOL    HW132855   3.572   0.855   6.110
10652SOL    HW232856   3.496   0.851   6.255
10653SOL     OW32857   5.152   3.793   4.289
10653SOL    HW132858   5.225   3.787   4.220
10653SOL    HW232859   5.183   3.850   4.365
10654SOL     OW32860   4.146   0.801   0.414
10654SOL    HW132861   4.234   0.769   0.450
10654SOL    HW232862   4.162   0.869   0.343
10655SOL     OW32863   2.738   6.060   1.327
10655SOL    HW132864   2.805   5.987   1.323
10655SOL    HW232865   2.748   6.119   1.246
10656SOL     OW32866   6.783   2.462   6.478
10656SOL    HW132867   6.773   2.372   6.522
10656SOL    HW232868   6.844   2.519   6.533
10657SOL     OW32869   6.449   0.778   1.206
10657SOL    HW132870   6.487   0.698   1.251
10657SOL    HW232871   6.354   0.761   1.182
10658SOL     OW32872   0.016   5.522   4.794
10658SOL    HW132873   0.083   5.464   4.746
10658SOL    HW232874   0.055   5.614   4.804
10659SOL     OW32875   5.849   0.844   0.422
10659SOL    HW132876   5.779   0.786   0.464
10659SOL    HW232877   5.815   0.879   0.335
10660SOL     OW32878   4.706   5.008   5.537
10660SOL    HW132879   4.732   5.049   5.449
10660SOL    HW232880   4.788   4.995   5.593
10661SOL     OW32881   0.360   6.855   2.949
10661SOL    HW132882   0.314   6.822   2.866
10661SOL    HW232883   0.294   6.862   3.023
10662SOL     OW32884   5.658   1.207   0.459
10662SOL    HW132885   5.720   1.284   0.445
10662SOL    HW232886   5.666   1.175   0.553
10663SOL     OW32887   0.008   0.341   0.164
10663SOL    HW132888   6.957   0.408   0.191
10663SOL    HW232889   6.994   0.249   0.186
10664SOL     OW32890   2.036   5.186   0.162
10664SOL    HW132891   2.108   5.158   0.098
10664SOL    HW232892   2.077   5.232   0.241
10665SOL     OW32893   6.764   1.444   1.132
10665SOL    HW132894   6.738   1.394   1.049
10665SOL    HW232895   6.713   1.407   1.210
10666SOL     OW32896   1.261   6.938   0.063
10666SOL    HW132897   1.232   6.965   6.990
10666SOL    HW232898   1.262   6.838   0.069
10667SOL     OW32899   3.620   1.867   5.321
10667SOL    HW132900   3.595   1.838   5.229
10667SOL    HW232901   3.718   1.888   5.324
10668SOL     OW32902   1.945   1.116   5.653
10668SOL    HW132903   1.890   1.106   5.736
10668SOL    HW232904   1.977   1.210   5.645
10669SOL     OW32905   1.084   6.884   6.577
10669SOL    HW132906   1.141   6.899   6.497
10669SOL    HW232907   0.988   6.902   6.555
10670SOL     OW32908   6.226   4.729   5.995
10670SOL    HW132909   6.299   4.789   6.028
10670SOL    HW232910   6.236   4.714   5.897
10671SOL     OW32911   2.112   1.062   3.551
10671SOL    HW132912   2.121   1.051   3.452
10671SOL    HW232913   2.182   1.126   3.583
10672SOL     OW32914   0.420   3.235   1.089
10672SOL    HW132915   0.325   3.242   1.120
10672SOL    HW232916   0.429   3.156   1.028
10673SOL     OW32917   2.871   3.226   5.455
10673SOL    HW132918   2.775   3.199   5.444
10673SOL    HW232919   2.929   3.168   5.399
10674SOL     OW32920   3.805   2.080   1.771
10674SOL    HW132921   3.820   2.009   1.840
10674SOL    HW232922   3.762   2.160   1.814
10675SOL     OW32923   0.481   0.587   5.718
10675SOL    HW132924   0.394   0.571   5.765
10675SOL    HW232925   0.482   0.536   5.632
10676SOL     OW32926   6.709   6.995   6.382
10676SOL    HW132927   6.768   6.944   6.444
10676SOL    HW232928   6.754   0.061   6.353
10677SOL     OW32929   0.286   0.170   0.855
10677SOL    HW132930   0.241   0.255   0.882
10677SOL    HW232931   0.380   0.189   0.825
10678SOL     OW32932   2.401   6.443   3.304
10678SOL    HW132933   2.333   6.466   3.235
10678SOL    HW232934   2.489   6.485   3.280
10679SOL     OW32935   5.343   5.173   4.495
10679SOL    HW132936   5.341   5.171   4.595
10679SOL    HW232937   5.418   5.232   4.464
10680SOL     OW32938   1.605   2.154   3.440
10680SOL    HW132939   1.547   2.086   3.394
10680SOL    HW232940   1.701   2.137   3.416
10681SOL     OW32941   0.043   1.162   6.281
10681SOL    HW132942   0.024   1.072   6.242
10681SOL    HW232943   0.138   1.166   6.312
10682SOL     OW32944   6.918   1.791   2.710
10682SOL    HW132945   7.011   1.797   2.743
10682SOL    HW232946   6.864   1.866   2.747
10683SOL     OW32947   2.104   1.908   4.740
10683SOL    HW132948   2.082   1.885   4.645
10683SOL    HW232949   2.020   1.933   4.788
10684SOL     OW32950   5.945   5.526   0.525
10684SOL    HW132951   6.000   5.521   0.609
10684SOL    HW232952   5.849   5.541   0.549
10685SOL     OW32953   0.055   2.751   2.706
10685SOL    HW132954   0.051   2.809   2.787
10685SOL    HW232955   0.064   2.809   2.624
10686SOL     OW32956   3.595   5.030   0.349
10686SOL    HW132957   3.630   5.123   0.337
10686SOL    HW232958   3.500   5.033   0.379
10687SOL     OW32959   0.379   4.838   2.410
10687SOL    HW132960   0.463   4.824   2.463
10687SOL    HW232961   0.397   4.817   2.313
10688SOL     OW32962   6.403   5.407   1.984
10688SOL    HW132963   6.482   5.412   1.923
10688SOL    HW232964   6.321   5.439   1.936
10689SOL     OW32965   0.032   0.942   2.252
10689SOL    HW132966   0.066   1.017   2.310
10689SOL    HW232967   0.039   0.969   2.156
10690SOL     OW32968   4.658   5.320   1.835
10690SOL    HW132969   4.611   5.246   1.883
10690SOL    HW232970   4.673   5.293   1.740
10691SOL     OW32971   0.026   1.448   1.263
10691SOL    HW132972   6.988   1.522   1.227
10691SOL    HW232973   0.028   1.453   1.363
10692SOL     OW32974   4.170   6.124   3.987
10692SOL    HW132975   4.164   6.142   3.888
10692SOL    HW232976   4.107   6.050   4.011
10693SOL     OW32977   6.457   2.102   1.889
10693SOL    HW132978   6.496   2.012   1.905
10693SOL    HW232979   6.523   2.159   1.841
10694SOL     OW32980   3.915   6.274   0.844
10694SOL    HW132981   3.902   6.368   0.875
10694SOL    HW232982   3.932   6.273   0.745
10695SOL     OW32983   6.285   3.346   3.911
10695SOL    HW132984   6.265   3.344   3.813
10695SOL    HW232985   6.262   3.258   3.951
10696SOL     OW32986   6.269   6.482   1.659
10696SOL    HW132987   6.247   6.387   1.637
10696SOL    HW232988   6.316   6.486   1.747
10697SOL     OW32989   2.782   5.852   3.270
10697SOL    HW132990   2.767   5.916   3.195
10697SOL    HW232991   2.751   5.893   3.356
10698SOL     OW32992   3.006   0.569   3.564
10698SOL    HW132993   2.941   0.528   3.500
10698SOL    HW232994   2.973   0.659   3.592
10699SOL     OW32995   2.062   2.299   2.790
10699SOL    HW132996   2.125   2.357   2.842
10699SOL    HW232997   1.983   2.352   2.761
10700SOL     OW32998   6.596   0.538   1.628
10700SOL    HW132999   6.524   0.606   1.646
10700SOL    HW233000   6.567   0.479   1.553
10701SOL     OW33001   3.725   6.321   0.484
10701SOL    HW133002   3.741   6.302   0.387
10701SOL    HW233003   3.753   6.241   0.538
10702SOL     OW33004   6.091   3.227   1.323
10702SOL    HW133005   6.123   3.289   1.252
10702SOL    HW233006   6.098   3.133   1.292
10703SOL     OW33007   3.983   3.603   3.531
10703SOL    HW133008   3.952   3.621   3.624
10703SOL    HW233009   3.908   3.561   3.479
10704SOL     OW33010   5.412   6.456   1.887
10704SOL    HW133011   5.492   6.438   1.829
10704SOL    HW233012   5.337   6.397   1.859
10705SOL     OW33013   0.557   2.536   6.511
10705SOL    HW133014   0.538   2.633   6.523
10705SOL    HW233015   0.481   2.482   6.549
10706SOL     OW33016   3.755   1.289   2.105
10706SOL    HW133017   3.761   1.308   2.202
10706SOL    HW233018   3.704   1.203   2.091
10707SOL     OW33019   6.235   0.012   5.863
10707SOL    HW133020   6.154   0.026   5.920
10707SOL    HW233021   6.279   6.944   5.887
10708SOL     OW33022   4.684   0.854   1.103
10708SOL    HW133023   4.679   0.947   1.140
10708SOL    HW233024   4.698   0.789   1.179
10709SOL     OW33025   0.560   6.226   6.007
10709SOL    HW133026   0.483   6.259   5.952
10709SOL    HW233027   0.527   6.198   6.097
10710SOL     OW33028   6.258   5.761   3.081
10710SOL    HW133029   6.305   5.844   3.109
10710SOL    HW233030   6.298   5.682   3.128
10711SOL     OW33031   1.926   5.670   4.783
10711SOL    HW133032   1.886   5.755   4.819
10711SOL    HW233033   1.859   5.623   4.726
10712SOL     OW33034   4.072   1.462   4.886
10712SOL    HW133035   4.158   1.500   4.853
10712SOL    HW233036   4.075   1.453   4.986
10713SOL     OW33037   1.326   6.052   1.241
10713SOL    HW133038   1.403   6.113   1.222
10713SOL    HW233039   1.338   6.009   1.330
10714SOL     OW33040   0.006   4.962   5.359
10714SOL    HW133041   0.077   4.892   5.362
10714SOL    HW233042   7.002   4.982   5.263
10715SOL     OW33043   6.259   1.320   3.872
10715SOL    HW133044   6.206   1.402   3.891
10715SOL    HW233045   6.249   1.295   3.775
10716SOL     OW33046   6.342   0.536   3.040
10716SOL    HW133047   6.369   0.513   2.946
10716SOL    HW233048   6.373   0.463   3.102
10717SOL     OW33049   6.709   6.451   2.055
10717SOL    HW133050   6.665   6.388   1.990
10717SOL    HW233051   6.799   6.414   2.079
10718SOL     OW33052   6.973   4.501   6.360
10718SOL    HW133053   7.001   4.477   6.267
10718SOL    HW233054   0.036   4.524   6.414
10719SOL     OW33055   4.533   0.868   2.153
10719SOL    HW133056   4.500   0.891   2.245
10719SOL    HW233057   4.556   0.952   2.104
10720SOL     OW33058   0.747   3.323   0.362
10720SOL    HW133059   0.802   3.327   0.278
10720SOL    HW233060   0.652   3.344   0.341
10721SOL     OW33061   4.737   2.881   4.025
10721SOL    HW133062   4.781   2.952   4.080
10721SOL    HW233063   4.719   2.916   3.933
10722SOL     OW33064   0.301   4.213   0.739
10722SOL    HW133065   0.267   4.185   0.828
10722SOL    HW233066   0.234   4.189   0.669
10723SOL     OW33067   6.380   4.175   0.343
10723SOL    HW133068   6.440   4.101   0.373
10723SOL    HW233069   6.331   4.213   0.422
10724SOL     OW33070   3.660   6.837   5.408
10724SOL    HW133071   3.653   6.897   5.329
10724SOL    HW233072   3.626   6.746   5.384
10725SOL     OW33073   6.776   6.658   4.873
10725SOL    HW133074   6.766   6.573   4.821
10725SOL    HW233075   6.781   6.637   4.971
10726SOL     OW33076   4.958   1.015   4.751
10726SOL    HW133077   5.016   1.050   4.677
10726SOL    HW233078   5.015   0.994   4.830
10727SOL     OW33079   2.113   6.334   6.796
10727SOL    HW133080   2.088   6.418   6.750
10727SOL    HW233081   2.164   6.355   6.880
10728SOL     OW33082   5.551   5.755   3.404
10728SOL    HW133083   5.603   5.769   3.489
10728SOL    HW233084   5.457   5.730   3.426
10729SOL     OW33085   5.876   3.779   4.209
10729SOL    HW133086   5.863   3.863   4.261
10729SOL    HW233087   5.803   3.770   4.141
10730SOL     OW33088   1.566   5.770   2.945
10730SOL    HW133089   1.661   5.741   2.959
10730SOL    HW233090   1.548   5.852   3.000
10731SOL     OW33091   4.525   6.461   6.988
10731SOL    HW133092   4.440   6.498   0.009
10731SOL    HW233093   4.546   6.373   0.012
10732SOL     OW33094   5.739   6.050   3.125
10732SOL    HW133095   5.660   6.110   3.136
10732SOL    HW233096   5.822   6.098   3.154
10733SOL     OW33097   0.255   0.824   6.625
10733SOL    HW133098   0.281   0.823   6.528
10733SOL    HW233099   0.163   0.863   6.634
10734SOL     OW33100   1.292   0.926   4.162
10734SOL    HW133101   1.268   0.829   4.164
10734SOL    HW233102   1.345   0.949   4.244
10735SOL     OW33103   0.046   6.446   2.057
10735SOL    HW133104   0.009   6.531   2.095
10735SOL    HW233105   7.007   6.370   2.085
10736SOL     OW33106   6.069   6.554   3.791
10736SOL    HW133107   6.094   6.638   3.839
10736SOL    HW233108   6.004   6.502   3.847
10737SOL     OW33109   6.429   1.379   2.553
10737SOL    HW133110   6.462   1.286   2.569
10737SOL    HW233111   6.377   1.382   2.467
10738SOL     OW33112   3.797   0.997   1.211
10738SOL    HW133113   3.736   0.966   1.284
10738SOL    HW233114   3.855   1.071   1.245
10739SOL     OW33115   5.629   2.928   3.547
10739SOL    HW133116   5.720   2.912   3.511
10739SOL    HW233117   5.630   3.008   3.607
10740SOL     OW33118   2.542   0.312   5.463
10740SOL    HW133119   2.460   0.365   5.441
10740SOL    HW233120   2.543   0.291   5.560
10741SOL     OW33121   2.173   1.993   3.794
10741SOL    HW133122   2.175   1.893   3.798
10741SOL    HW233123   2.181   2.023   3.699
10742SOL     OW33124   6.008   6.045   2.464
10742SOL    HW133125   5.938   5.990   2.510
10742SOL    HW233126   6.098   6.023   2.502
10743SOL     OW33127   2.693   1.266   5.788
10743SOL    HW133128   2.701   1.237   5.693
10743SOL    HW233129   2.606   1.234   5.826
10744SOL     OW33130   2.036   1.151   0.433
10744SOL    HW133131   2.015   1.152   0.335
10744SOL    HW233132   2.027   1.244   0.470
10745SOL     OW33133   1.560   4.217   2.076
10745SOL    HW133134   1.543   4.242   2.172
10745SOL    HW233135   1.646   4.259   2.046
10746SOL     OW33136   1.895   6.183   6.773
10746SOL    HW133137   1.861   6.215   6.862
10746SOL    HW233138   1.989   6.214   6.760
10747SOL     OW33139   6.349   1.390   4.817
10747SOL    HW133140   6.280   1.373   4.886
10747SOL    HW233141   6.420   1.319   4.822
10748SOL     OW33142   3.620   6.036   1.393
10748SOL    HW133143   3.625   6.124   1.440
10748SOL    HW233144   3.665   6.043   1.304
10749SOL     OW33145   5.962   4.670   1.848
10749SOL    HW133146   5.917   4.742   1.796
10749SOL    HW233147   5.894   4.622   1.904
10750SOL     OW33148   4.348   2.311   4.298
10750SOL    HW133149   4.407   2.305   4.378
10750SOL    HW233150   4.377   2.387   4.239
10751SOL     OW33151   0.571   5.739   4.647
10751SOL    HW133152   0.559   5.830   4.607
10751SOL    HW233153   0.650   5.694   4.605
10752SOL     OW33154   5.943   6.420   0.579
10752SOL    HW133155   5.995   6.431   0.664
10752SOL    HW233156   5.961   6.330   0.540
10753SOL     OW33157   5.141   6.727   4.333
10753SOL    HW133158   5.103   6.815   4.361
10753SOL    HW233159   5.187   6.684   4.410
10754SOL     OW33160   0.680   4.110   2.438
10754SOL    HW133161   0.744   4.167   2.387
10754SOL    HW233162   0.695   4.122   2.536
10755SOL     OW33163   0.014   2.842   1.247
10755SOL    HW133164   0.062   2.868   1.331
10755SOL    HW233165   0.021   2.917   1.181
10756SOL     OW33166   1.233   0.782   0.674
10756SOL    HW133167   1.230   0.802   0.772
10756SOL    HW233168   1.140   0.775   0.638
10757SOL     OW33169   0.409   3.855   1.793
10757SOL    HW133170   0.414   3.757   1.812
10757SOL    HW233171   0.399   3.905   1.879
10758SOL     OW33172   0.655   0.663   0.176
10758SOL    HW133173   0.589   0.596   0.213
10758SOL    HW233174   0.747   0.638   0.205
10759SOL     OW33175   2.873   2.093   5.684
10759SOL    HW133176   2.961   2.077   5.638
10759SOL    HW233177   2.817   2.154   5.629
10760SOL     OW33178   1.090   4.848   0.067
10760SOL    HW133179   1.142   4.906   0.003
10760SOL    HW233180   1.152   4.783   0.110
10761SOL     OW33181   1.116   1.942   5.763
10761SOL    HW133182   1.129   1.852   5.806
10761SOL    HW233183   1.049   1.934   5.689
10762SOL     OW33184   3.018   5.921   6.370
10762SOL    HW133185   2.928   5.927   6.413
10762SOL    HW233186   3.084   5.883   6.435
10763SOL     OW33187   5.117   6.795   3.725
10763SOL    HW133188   5.161   6.877   3.689
10763SOL    HW233189   5.048   6.763   3.661
10764SOL     OW33190   4.425   6.880   4.559
10764SOL    HW133191   4.375   6.913   4.479
10764SOL    HW233192   4.404   6.783   4.574
10765SOL     OW33193   0.412   2.532   2.614
10765SOL    HW133194   0.377   2.586   2.691
10765SOL    HW233195   0.341   2.524   2.545
10766SOL     OW33196   2.131   4.902   6.751
10766SOL    HW133197   2.177   4.986   6.722
10766SOL    HW233198   2.199   4.839   6.789
10767SOL     OW33199   1.237   5.232   0.358
10767SOL    HW133200   1.305   5.285   0.408
10767SOL    HW233201   1.281   5.149   0.321
10768SOL     OW33202   5.539   6.044   6.835
10768SOL    HW133203   5.598   6.018   6.758
10768SOL    HW233204   5.580   6.121   6.884
10769SOL     OW33205   3.218   3.021   4.410
10769SOL    HW133206   3.249   2.967   4.489
10769SOL    HW233207   3.266   2.990   4.328
10770SOL     OW33208   5.731   0.108   3.558
10770SOL    HW133209   5.788   0.066   3.629
10770SOL    HW233210   5.759   0.203   3.545
10771SOL     OW33211   4.559   5.891   5.721
10771SOL    HW133212   4.461   5.910   5.729
10771SOL    HW233213   4.589   5.837   5.800
10772SOL     OW33214   5.780   5.208   2.490
10772SOL    HW133215   5.878   5.204   2.507
10772SOL    HW233216   5.754   5.301   2.462
10773SOL     OW33217   6.811   3.582   1.226
10773SOL    HW133218   6.825   3.554   1.320
10773SOL    HW233219   6.715   3.569   1.200
10774SOL     OW33220   0.775   2.973   0.921
10774SOL    HW133221   0.818   3.024   0.996
10774SOL    HW233222   0.745   2.884   0.955
10775SOL     OW33223   1.544   3.847   0.711
10775SOL    HW133224   1.642   3.857   0.728
10775SOL    HW233225   1.516   3.911   0.640
10776SOL     OW33226   0.599   2.698   4.072
10776SOL    HW133227   0.612   2.659   3.981
10776SOL    HW233228   0.633   2.634   4.141
10777SOL     OW33229   2.770   1.207   1.380
10777SOL    HW133230   2.749   1.294   1.424
10777SOL    HW233231   2.686   1.157   1.362
10778SOL     OW33232   5.640   0.294   3.152
10778SOL    HW133233   5.739   0.306   3.150
10778SOL    HW233234   5.598   0.352   3.082
10779SOL     OW33235   5.626   3.807   5.397
10779SOL    HW133236   5.636   3.825   5.495
10779SOL    HW233237   5.612   3.710   5.382
10780SOL     OW33238   2.145   5.337   4.486
10780SOL    HW133239   2.071   5.337   4.419
10780SOL    HW233240   2.159   5.245   4.521
10781SOL     OW33241   5.767   2.356   4.762
10781SOL    HW133242   5.712   2.327   4.683
10781SOL    HW233243   5.811   2.443   4.742
10782SOL     OW33244   0.989   1.681   5.483
10782SOL    HW133245   1.064   1.621   5.457
10782SOL    HW233246   1.021   1.749   5.549
10783SOL     OW33247   1.176   2.322   3.785
10783SOL    HW133248   1.266   2.365   3.775
10783SOL    HW233249   1.173   2.271   3.871
10784SOL     OW33250   3.771   5.474   2.956
10784SOL    HW133251   3.714   5.525   3.021
10784SOL    HW233252   3.848   5.433   3.005
10785SOL     OW33253   1.169   5.055   1.864
10785SOL    HW133254   1.248   5.064   1.924
10785SOL    HW233255   1.173   5.125   1.793
10786SOL     OW33256   4.370   1.588   2.309
10786SOL    HW133257   4.375   1.551   2.216
10786SOL    HW233258   4.315   1.672   2.308
10787SOL     OW33259   4.158   0.640   3.521
10787SOL    HW133260   4.187   0.699   3.446
10787SOL    HW233261   4.063   0.613   3.507
10788SOL     OW33262   1.810   3.916   0.085
10788SOL    HW133263   1.860   3.875   0.161
10788SOL    HW233264   1.821   4.016   0.088
10789SOL     OW33265   6.700   1.270   1.724
10789SOL    HW133266   6.654   1.181   1.727
10789SOL    HW233267   6.794   1.261   1.758
10790SOL     OW33268   0.480   1.881   5.608
10790SOL    HW133269   0.553   1.946   5.584
10790SOL    HW233270   0.517   1.788   5.606
10791SOL     OW33271   1.481   1.907   3.892
10791SOL    HW133272   1.517   1.945   3.977
10791SOL    HW233273   1.382   1.920   3.889
10792SOL     OW33274   3.917   2.070   2.323
10792SOL    HW133275   3.955   2.115   2.242
10792SOL    HW233276   3.820   2.090   2.330
10793SOL     OW33277   4.444   1.884   4.614
10793SOL    HW133278   4.471   1.878   4.518
10793SOL    HW233279   4.350   1.851   4.624
10794SOL     OW33280   5.305   1.790   1.086
10794SOL    HW133281   5.307   1.761   0.990
10794SOL    HW233282   5.396   1.779   1.126
10795SOL     OW33283   6.884   3.457   3.040
10795SOL    HW133284   6.946   3.478   2.964
10795SOL    HW233285   6.938   3.433   3.121
10796SOL     OW33286   0.315   6.729   5.634
10796SOL    HW133287   0.285   6.683   5.717
10796SOL    HW233288   0.320   6.828   5.651
10797SOL     OW33289   4.392   4.289   6.568
10797SOL    HW133290   4.314   4.349   6.589
10797SOL    HW233291   4.413   4.295   6.471
10798SOL     OW33292   1.416   6.737   6.769
10798SOL    HW133293   1.339   6.786   6.809
10798SOL    HW233294   1.408   6.735   6.670
10799SOL     OW33295   3.082   1.028   2.768
10799SOL    HW133296   3.114   1.106   2.714
10799SOL    HW233297   2.993   0.998   2.733
10800SOL     OW33298   2.406   0.089   5.356
10800SOL    HW133299   2.464   0.160   5.396
10800SOL    HW233300   2.356   0.127   5.278
10801SOL     OW33301   2.604   5.967   6.081
10801SOL    HW133302   2.667   6.030   6.125
10801SOL    HW233303   2.650   5.879   6.066
10802SOL     OW33304   0.945   4.947   4.590
10802SOL    HW133305   0.846   4.959   4.600
10802SOL    HW233306   0.984   4.922   4.679
10803SOL     OW33307   0.314   4.029   4.683
10803SOL    HW133308   0.397   4.019   4.629
10803SOL    HW233309   0.322   4.109   4.742
10804SOL     OW33310   5.090   4.679   1.201
10804SOL    HW133311   5.106   4.606   1.135
10804SOL    HW233312   5.170   4.690   1.259
10805SOL     OW33313   3.919   6.148   0.554
10805SOL    HW133314   3.975   6.218   0.511
10805SOL    HW233315   3.977   6.086   0.606
10806SOL     OW33316   5.980   3.912   6.974
10806SOL    HW133317   5.998   4.007   7.000
10806SOL    HW233318   5.969   3.856   0.038
10807SOL     OW33319   4.617   0.137   3.949
10807SOL    HW133320   4.699   0.174   3.905
10807SOL    HW233321   4.603   0.043   3.919
10808SOL     OW33322   0.785   2.466   6.966
10808SOL    HW133323   0.771   2.555   7.010
10808SOL    HW233324   0.816   2.480   6.872
10809SOL     OW33325   3.361   0.793   3.365
10809SOL    HW133326   3.415   0.786   3.449
10809SOL    HW233327   3.377   0.881   3.322
10810SOL     OW33328   0.784   1.729   6.798
10810SOL    HW133329   0.857   1.797   6.797
10810SOL    HW233330   0.741   1.725   6.708
10811SOL     OW33331   4.874   4.659   5.710
10811SOL    HW133332   4.940   4.678   5.782
10811SOL    HW233333   4.912   4.592   5.646
10812SOL     OW33334   6.857   2.668   2.996
10812SOL    HW133335   6.831   2.625   2.910
10812SOL    HW233336   6.782   2.658   3.062
10813SOL     OW33337   2.832   5.489   2.626
10813SOL    HW133338   2.877   5.579   2.618
10813SOL    HW233339   2.786   5.484   2.715
10814SOL     OW33340   1.850   6.072   5.156
10814SOL    HW133341   1.836   6.160   5.110
10814SOL    HW233342   1.867   6.088   5.253
10815SOL     OW33343   4.552   2.613   3.520
10815SOL    HW133344   4.509   2.604   3.430
10815SOL    HW233345   4.505   2.554   3.585
10816SOL     OW33346   2.023   2.400   2.314
10816SOL    HW133347   2.043   2.468   2.384
10816SOL    HW233348   1.977   2.321   2.354
10817SOL     OW33349   4.923   6.676   2.032
10817SOL    HW133350   4.990   6.700   1.962
10817SOL    HW233351   4.899   6.579   2.024
10818SOL     OW33352   4.632   2.907   6.232
10818SOL    HW133353   4.559   2.971   6.255
10818SOL    HW233354   4.643   2.903   6.132
10819SOL     OW33355   0.740   3.743   6.015
10819SOL    HW133356   0.660   3.773   5.963
10819SOL    HW233357   0.808   3.704   5.954
10820SOL     OW33358   0.289   0.223   4.554
10820SOL    HW133359   0.196   0.258   4.566
10820SOL    HW233360   0.341   0.238   4.638
10821SOL     OW33361   6.894   0.075   0.879
10821SOL    HW133362   6.976   0.102   0.829
10821SOL    HW233363   6.816   0.126   0.843
10822SOL     OW33364   1.206   4.935   0.704
10822SOL    HW133365   1.275   4.948   0.774
10822SOL    HW233366   1.147   5.015   0.699
10823SOL     OW33367   1.071   1.927   2.125
10823SOL    HW133368   1.071   1.983   2.208
10823SOL    HW233369   1.093   1.983   2.046
10824SOL     OW33370   5.088   0.457   3.289
10824SOL    HW133371   5.144   0.539   3.303
10824SOL    HW233372   5.124   0.382   3.345
10825SOL     OW33373   3.716   2.042   0.982
10825SOL    HW133374   3.748   2.028   1.076
10825SOL    HW233375   3.767   1.981   0.921
10826SOL     OW33376   6.783   3.061   1.382
10826SOL    HW133377   6.693   3.033   1.415
10826SOL    HW233378   6.851   3.042   1.452
10827SOL     OW33379   1.346   2.606   4.058
10827SOL    HW133380   1.362   2.552   4.141
10827SOL    HW233381   1.399   2.690   4.062
10828SOL     OW33382   1.357   6.302   0.153
10828SOL    HW133383   1.354   6.401   0.168
10828SOL    HW233384   1.265   6.267   0.139
10829SOL     OW33385   2.361   3.648   1.658
10829SOL    HW133386   2.361   3.581   1.733
10829SOL    HW233387   2.267   3.677   1.640
10830SOL     OW33388   5.033   1.573   4.033
10830SOL    HW133389   5.106   1.564   4.100
10830SOL    HW233390   5.007   1.482   3.999
10831SOL     OW33391   5.148   2.830   2.988
10831SOL    HW133392   5.052   2.851   2.972
10831SOL    HW233393   5.201   2.915   2.987
10832SOL     OW33394   6.761   2.577   2.733
10832SOL    HW133395   6.759   2.623   2.644
10832SOL    HW233396   6.683   2.514   2.740
10833SOL     OW33397   3.102   0.246   4.300
10833SOL    HW133398   3.160   0.172   4.335
10833SOL    HW233399   3.082   0.230   4.203
10834SOL     OW33400   6.882   1.320   5.552
10834SOL    HW133401   6.798   1.267   5.543
10834SOL    HW233402   6.873   1.406   5.502
10835SOL     OW33403   6.917   2.128   2.486
10835SOL    HW133404   6.847   2.193   2.514
10835SOL    HW233405   6.977   2.108   2.564
10836SOL     OW33406   1.777   2.655   0.649
10836SOL    HW133407   1.866   2.680   0.686
10836SOL    HW233408   1.710   2.649   0.724
10837SOL     OW33409   0.958   5.746   1.330
10837SOL    HW133410   0.866   5.745   1.369
10837SOL    HW233411   1.011   5.671   1.370
10838SOL     OW33412   6.398   6.834   1.115
10838SOL    HW133413   6.444   6.752   1.150
10838SOL    HW233414   6.309   6.809   1.077
10839SOL     OW33415   1.829   1.712   0.285
10839SOL    HW133416   1.749   1.769   0.302
10839SOL    HW233417   1.799   1.627   0.241
10840SOL     OW33418   3.769   5.097   2.486
10840SOL    HW133419   3.792   5.133   2.576
10840SOL    HW233420   3.854   5.083   2.434
10841SOL     OW33421   4.979   3.281   5.308
10841SOL    HW133422   4.904   3.338   5.341
10841SOL    HW233423   5.065   3.313   5.347
10842SOL     OW33424   6.851   3.223   1.085
10842SOL    HW133425   6.759   3.247   1.117
10842SOL    HW233426   6.869   3.127   1.105
10843SOL     OW33427   0.345   1.220   1.693
10843SOL    HW133428   0.409   1.147   1.672
10843SOL    HW233429   0.255   1.181   1.715
10844SOL     OW33430   3.198   6.779   3.305
10844SOL    HW133431   3.155   6.704   3.355
10844SOL    HW233432   3.287   6.800   3.346
10845SOL     OW33433   1.243   3.143   1.070
10845SOL    HW133434   1.242   3.045   1.053
10845SOL    HW233435   1.179   3.189   1.008
10846SOL     OW33436   3.797   1.940   2.029
10846SOL    HW133437   3.779   2.036   2.046
10846SOL    HW233438   3.739   1.884   2.089
10847SOL     OW33439   3.806   2.335   6.213
10847SOL    HW133440   3.821   2.344   6.312
10847SOL    HW233441   3.807   2.426   6.171
10848SOL     OW33442   0.745   1.130   0.798
10848SOL    HW133443   0.807   1.061   0.835
10848SOL    HW233444   0.774   1.221   0.829
10849SOL     OW33445   2.599   4.903   4.254
10849SOL    HW133446   2.527   4.874   4.317
10849SOL    HW233447   2.644   4.822   4.216
10850SOL     OW33448   5.747   0.790   1.888
10850SOL    HW133449   5.714   0.870   1.837
10850SOL    HW233450   5.788   0.724   1.825
10851SOL     OW33451   4.102   2.220   6.353
10851SOL    HW133452   4.192   2.192   6.388
10851SOL    HW233453   4.100   2.319   6.341
10852SOL     OW33454   0.217   6.504   6.347
10852SOL    HW133455   0.156   6.425   6.341
10852SOL    HW233456   0.216   6.554   6.261
10853SOL     OW33457   1.793   0.925   4.183
10853SOL    HW133458   1.860   0.998   4.168
10853SOL    HW233459   1.838   0.847   4.226
10854SOL     OW33460   0.184   6.284   0.902
10854SOL    HW133461   0.147   6.361   0.850
10854SOL    HW233462   0.209   6.314   0.994
10855SOL     OW33463   1.699   5.810   1.818
10855SOL    HW133464   1.641   5.885   1.850
10855SOL    HW233465   1.721   5.824   1.722
10856SOL     OW33466   6.129   0.409   6.266
10856SOL    HW133467   6.111   0.422   6.363
10856SOL    HW233468   6.100   0.490   6.215
10857SOL     OW33469   6.313   0.619   5.074
10857SOL    HW133470   6.380   0.664   5.134
10857SOL    HW233471   6.234   0.678   5.062
10858SOL     OW33472   2.444   2.122   0.228
10858SOL    HW133473   2.465   2.215   0.255
10858SOL    HW233474   2.349   2.117   0.196
10859SOL     OW33475   1.118   5.755   2.091
10859SOL    HW133476   1.193   5.810   2.055
10859SOL    HW233477   1.067   5.713   2.016
10860SOL     OW33478   5.698   3.242   0.611
10860SOL    HW133479   5.739   3.288   0.690
10860SOL    HW233480   5.752   3.160   0.588
10861SOL     OW33481   3.010   2.740   1.793
10861SOL    HW133482   3.025   2.702   1.884
10861SOL    HW233483   2.921   2.711   1.758
10862SOL     OW33484   3.110   3.298   5.529
10862SOL    HW133485   3.144   3.205   5.540
10862SOL    HW233486   3.024   3.296   5.477
10863SOL     OW33487   2.367   0.854   3.022
10863SOL    HW133488   2.390   0.792   3.097
10863SOL    HW233489   2.435   0.846   2.949
10864SOL     OW33490   3.139   4.460   1.645
10864SOL    HW133491   3.070   4.451   1.718
10864SOL    HW233492   3.203   4.384   1.650
10865SOL     OW33493   4.073   1.328   2.725
10865SOL    HW133494   4.053   1.393   2.799
10865SOL    HW233495   4.074   1.376   2.638
10866SOL     OW33496   6.951   3.357   3.678
10866SOL    HW133497   6.861   3.314   3.679
10866SOL    HW233498   6.993   3.344   3.588
10867SOL     OW33499   4.532   2.745   0.852
10867SOL    HW133500   4.513   2.797   0.936
10867SOL    HW233501   4.452   2.691   0.827
10868SOL     OW33502   1.524   6.793   5.050
10868SOL    HW133503   1.500   6.838   5.137
10868SOL    HW233504   1.564   6.861   4.988
10869NA      NA33505   6.992   1.256   6.087
10870NA      NA33506   4.514   4.588   5.198
10871NA      NA33507   1.499   4.852   2.858
10872NA      NA33508   5.798   4.060   3.222
10873NA      NA33509   3.865   2.240   5.446
10874NA      NA33510   2.132   4.830   0.259
10875NA      NA33511   1.147   5.395   6.789
10876NA      NA33512   3.707   4.287   0.933
10877NA      NA33513   4.723   4.499   0.304
10878NA      NA33514   3.347   1.054   6.837
10879NA      NA33515   5.468   6.912   1.701
10880NA      NA33516   2.350   6.452   5.508
10881NA      NA33517   3.888   5.208   1.483
10882NA      NA33518   3.816   3.150   6.506
   7.01844   7.01844   7.01844
