Generated by trjconv : CNT in water t= 266.00000
33518
    1C        C    1   2.844   2.773   4.746
    1C        C    2   2.899   2.720   4.866
    1C        C    3   2.843   2.775   4.982
    1C        C    4   2.850   2.779   4.259
    1C        C    5   2.903   2.730   4.380
    1C        C    6   2.852   2.778   4.503
    1C        C    7   3.012   2.642   4.626
    1C        C    8   2.897   2.723   4.625
    1C        C    9   3.079   2.608   4.746
    1C        C   10   3.011   2.634   4.867
    1C        C   11   3.181   2.490   4.975
    1C        C   12   3.061   2.563   4.976
    1C        C   13   2.849   2.773   3.772
    1C        C   14   2.905   2.726   3.892
    1C        C   15   2.852   2.776   4.014
    1C        C   16   3.016   2.645   4.139
    1C        C   17   2.901   2.728   4.137
    1C        C   18   3.079   2.614   4.261
    1C        C   19   3.018   2.649   4.384
    1C        C   20   3.207   2.552   4.501
    1C        C   21   3.075   2.603   4.505
    1C        C   22   3.277   2.532   4.622
    1C        C   23   3.209   2.550   4.744
    1C        C   24   3.411   2.477   4.863
    1C        C   25   3.270   2.503   4.864
    1C        C   26   3.487   2.484   4.980
    1C        C   27   2.850   2.765   3.280
    1C        C   28   2.904   2.724   3.404
    1C        C   29   2.855   2.776   3.526
    1C        C   30   3.019   2.645   3.647
    1C        C   31   2.905   2.729   3.650
    1C        C   32   3.078   2.605   3.769
    1C        C   33   3.019   2.644   3.891
    1C        C   34   3.208   2.556   4.016
    1C        C   35   3.078   2.612   4.016
    1C        C   36   3.276   2.532   4.137
    1C        C   37   3.208   2.558   4.258
    1C        C   38   3.413   2.500   4.379
    1C        C   39   3.275   2.528   4.380
    1C        C   40   3.485   2.495   4.501
    1C        C   41   3.413   2.497   4.623
    1C        C   42   3.629   2.484   4.742
    1C        C   43   3.487   2.480   4.742
    1C        C   44   3.704   2.486   4.862
    1C        C   45   3.626   2.476   4.977
    1C        C   46   2.836   2.751   2.793
    1C        C   47   2.892   2.709   2.916
    1C        C   48   2.840   2.761   3.037
    1C        C   49   3.015   2.634   3.162
    1C        C   50   2.898   2.714   3.157
    1C        C   51   3.080   2.603   3.283
    1C        C   52   3.018   2.641   3.405
    1C        C   53   3.207   2.543   3.528
    1C        C   54   3.078   2.601   3.526
    1C        C   55   3.275   2.525   3.651
    1C        C   56   3.207   2.549   3.772
    1C        C   57   3.413   2.503   3.893
    1C        C   58   3.273   2.526   3.895
    1C        C   59   3.485   2.493   4.015
    1C        C   60   3.415   2.505   4.137
    1C        C   61   3.627   2.501   4.258
    1C        C   62   3.486   2.497   4.258
    1C        C   63   3.699   2.501   4.380
    1C        C   64   3.626   2.497   4.500
    1C        C   65   3.835   2.541   4.620
    1C        C   66   3.699   2.501   4.621
    1C        C   67   3.905   2.558   4.742
    1C        C   68   3.839   2.525   4.863
    1C        C   69   4.050   2.588   4.975
    1C        C   70   3.925   2.526   4.974
    1C        C   71   2.827   2.735   2.309
    1C        C   72   2.885   2.691   2.430
    1C        C   73   2.828   2.739   2.551
    1C        C   74   3.008   2.623   2.672
    1C        C   75   2.890   2.700   2.672
    1C        C   76   3.070   2.594   2.796
    1C        C   77   3.009   2.629   2.918
    1C        C   78   3.204   2.543   3.038
    1C        C   79   3.074   2.597   3.039
    1C        C   80   3.275   2.522   3.158
    1C        C   81   3.208   2.545   3.281
    1C        C   82   3.411   2.497   3.403
    1C        C   83   3.272   2.523   3.405
    1C        C   84   3.482   2.491   3.525
    1C        C   85   3.414   2.499   3.649
    1C        C   86   3.625   2.498   3.769
    1C        C   87   3.484   2.496   3.772
    1C        C   88   3.696   2.504   3.892
    1C        C   89   3.626   2.492   4.014
    1C        C   90   3.833   2.547   4.133
    1C        C   91   3.696   2.513   4.135
    1C        C   92   3.900   2.569   4.256
    1C        C   93   3.834   2.542   4.378
    1C        C   94   4.026   2.635   4.496
    1C        C   95   3.903   2.567   4.499
    1C        C   96   4.087   2.674   4.617
    1C        C   97   4.030   2.625   4.736
    1C        C   98   4.189   2.766   4.862
    1C        C   99   4.095   2.658   4.859
    1C        C  100   4.204   2.849   4.974
    1C        C  101   2.824   2.731   2.068
    1C        C  102   2.988   2.591   2.189
    1C        C  103   2.874   2.678   2.188
    1C        C  104   3.062   2.571   2.309
    1C        C  105   3.002   2.611   2.430
    1C        C  106   3.201   2.534   2.550
    1C        C  107   3.069   2.584   2.551
    1C        C  108   3.271   2.525   2.672
    1C        C  109   3.200   2.539   2.793
    1C        C  110   3.410   2.500   2.913
    1C        C  111   3.271   2.522   2.915
    1C        C  112   3.483   2.486   3.034
    1C        C  113   3.413   2.493   3.156
    1C        C  114   3.622   2.494   3.279
    1C        C  115   3.481   2.491   3.281
    1C        C  116   3.692   2.510   3.401
    1C        C  117   3.623   2.501   3.524
    1C        C  118   3.829   2.545   3.643
    1C        C  119   3.693   2.508   3.646
    1C        C  120   3.893   2.574   3.766
    1C        C  121   3.832   2.543   3.890
    1C        C  122   4.023   2.640   4.009
    1C        C  123   3.899   2.571   4.011
    1C        C  124   4.083   2.679   4.131
    1C        C  125   4.024   2.637   4.252
    1C        C  126   4.188   2.770   4.376
    1C        C  127   4.087   2.672   4.374
    1C        C  128   4.237   2.823   4.497
    1C        C  129   4.195   2.766   4.619
    1C        C  130   4.325   2.933   4.737
    1C        C  131   4.244   2.816   4.741
    1C        C  132   4.348   3.006   4.855
    1C        C  133   4.289   2.959   4.973
    1C        C  134   3.172   2.473   2.076
    1C        C  135   3.039   2.517   2.077
    1C        C  136   3.258   2.477   2.187
    1C        C  137   3.192   2.513   2.306
    1C        C  138   3.403   2.481   2.426
    1C        C  139   3.264   2.501   2.427
    1C        C  140   3.479   2.487   2.545
    1C        C  141   3.410   2.497   2.667
    1C        C  142   3.621   2.492   2.790
    1C        C  143   3.479   2.493   2.790
    1C        C  144   3.694   2.499   2.910
    1C        C  145   3.624   2.493   3.033
    1C        C  146   3.830   2.534   3.155
    1C        C  147   3.693   2.499   3.156
    1C        C  148   3.897   2.563   3.276
    1C        C  149   3.829   2.544   3.398
    1C        C  150   4.021   2.632   3.522
    1C        C  151   3.896   2.567   3.520
    1C        C  152   4.080   2.675   3.643
    1C        C  153   4.018   2.640   3.765
    1C        C  154   4.193   2.764   3.886
    1C        C  155   4.079   2.680   3.886
    1C        C  156   4.245   2.813   4.008
    1C        C  157   4.191   2.770   4.131
    1C        C  158   4.327   2.930   4.251
    1C        C  159   4.240   2.819   4.254
    1C        C  160   4.365   2.991   4.372
    1C        C  161   4.324   2.934   4.495
    1C        C  162   4.436   3.116   4.616
    1C        C  163   4.367   2.993   4.616
    1C        C  164   4.474   3.179   4.737
    1C        C  165   4.434   3.118   4.858
    1C        C  166   4.506   3.323   4.968
    1C        C  167   4.476   3.187   4.973
    1C        C  168   3.476   2.437   2.074
    1C        C  169   3.398   2.456   2.188
    1C        C  170   3.618   2.463   2.307
    1C        C  171   3.475   2.461   2.306
    1C        C  172   3.693   2.480   2.425
    1C        C  173   3.621   2.484   2.546
    1C        C  174   3.828   2.533   2.666
    1C        C  175   3.692   2.495   2.668
    1C        C  176   3.897   2.557   2.787
    1C        C  177   3.831   2.531   2.910
    1C        C  178   4.022   2.622   3.032
    1C        C  179   3.895   2.559   3.033
    1C        C  180   4.082   2.663   3.153
    1C        C  181   4.023   2.627   3.276
    1C        C  182   4.193   2.754   3.397
    1C        C  183   4.082   2.667   3.399
    1C        C  184   4.243   2.807   3.518
    1C        C  185   4.193   2.759   3.641
    1C        C  186   4.336   2.917   3.763
    1C        C  187   4.249   2.806   3.763
    1C        C  188   4.377   2.978   3.883
    1C        C  189   4.337   2.921   4.006
    1C        C  190   4.442   3.105   4.127
    1C        C  191   4.375   2.981   4.128
    1C        C  192   4.471   3.174   4.247
    1C        C  193   4.440   3.111   4.369
    1C        C  194   4.496   3.314   4.490
    1C        C  195   4.465   3.177   4.492
    1C        C  196   4.517   3.387   4.609
    1C        C  197   4.513   3.315   4.731
    1C        C  198   4.558   3.533   4.846
    1C        C  199   4.532   3.392   4.849
    1C        C  200   4.582   3.616   4.960
    1C        C  201   3.612   2.405   2.078
    1C        C  202   3.823   2.514   2.185
    1C        C  203   3.691   2.457   2.185
    1C        C  204   3.898   2.541   2.302
    1C        C  205   3.829   2.517   2.424
    1C        C  206   4.021   2.616   2.543
    1C        C  207   3.897   2.548   2.544
    1C        C  208   4.081   2.657   2.664
    1C        C  209   4.023   2.621   2.788
    1C        C  210   4.194   2.746   2.908
    1C        C  211   4.084   2.657   2.910
    1C        C  212   4.248   2.793   3.030
    1C        C  213   4.194   2.750   3.153
    1C        C  214   4.331   2.913   3.271
    1C        C  215   4.244   2.801   3.274
    1C        C  216   4.370   2.972   3.392
    1C        C  217   4.331   2.917   3.517
    1C        C  218   4.429   3.104   3.637
    1C        C  219   4.370   2.975   3.639
    1C        C  220   4.460   3.170   3.758
    1C        C  221   4.440   3.104   3.882
    1C        C  222   4.506   3.305   4.003
    1C        C  223   4.473   3.168   4.004
    1C        C  224   4.516   3.379   4.123
    1C        C  225   4.505   3.311   4.246
    1C        C  226   4.521   3.524   4.365
    1C        C  227   4.511   3.383   4.368
    1C        C  228   4.525   3.599   4.485
    1C        C  229   4.530   3.528   4.607
    1C        C  230   4.502   3.741   4.726
    1C        C  231   4.541   3.604   4.725
    1C        C  232   4.492   3.816   4.846
    1C        C  233   4.545   3.751   4.958
    1C        C  234   4.013   2.610   2.063
    1C        C  235   3.887   2.552   2.066
    1C        C  236   4.088   2.642   2.177
    1C        C  237   4.026   2.603   2.298
    1C        C  238   4.199   2.726   2.423
    1C        C  239   4.085   2.641   2.420
    1C        C  240   4.254   2.780   2.541
    1C        C  241   4.195   2.740   2.663
    1C        C  242   4.339   2.897   2.782
    1C        C  243   4.248   2.790   2.785
    1C        C  244   4.374   2.959   2.904
    1C        C  245   4.336   2.904   3.028
    1C        C  246   4.441   3.092   3.147
    1C        C  247   4.375   2.967   3.148
    1C        C  248   4.466   3.160   3.269
    1C        C  249   4.432   3.100   3.392
    1C        C  250   4.496   3.303   3.512
    1C        C  251   4.457   3.167   3.513
    1C        C  252   4.506   3.371   3.635
    1C        C  253   4.503   3.304   3.760
    1C        C  254   4.530   3.516   3.876
    1C        C  255   4.519   3.375   3.881
    1C        C  256   4.524   3.589   3.997
    1C        C  257   4.520   3.520   4.120
    1C        C  258   4.493   3.731   4.239
    1C        C  259   4.518   3.592   4.241
    1C        C  260   4.478   3.804   4.359
    1C        C  261   4.496   3.737   4.482
    1C        C  262   4.428   3.938   4.602
    1C        C  263   4.477   3.806   4.603
    1C        C  264   4.398   4.006   4.723
    1C        C  265   4.430   3.943   4.845
    1C        C  266   4.314   4.124   4.958
    1C        C  267   4.393   4.010   4.962
    1C        C  268   4.263   2.772   2.064
    1C        C  269   4.197   2.731   2.181
    1C        C  270   4.341   2.889   2.299
    1C        C  271   4.248   2.781   2.302
    1C        C  272   4.379   2.953   2.419
    1C        C  273   4.340   2.892   2.540
    1C        C  274   4.445   3.081   2.660
    1C        C  275   4.380   2.956   2.660
    1C        C  276   4.473   3.149   2.781
    1C        C  277   4.440   3.084   2.902
    1C        C  278   4.507   3.289   3.021
    1C        C  279   4.467   3.153   3.022
    1C        C  280   4.520   3.360   3.142
    1C        C  281   4.505   3.295   3.267
    1C        C  282   4.521   3.509   3.387
    1C        C  283   4.514   3.368   3.388
    1C        C  284   4.516   3.579   3.509
    1C        C  285   4.515   3.512   3.633
    1C        C  286   4.493   3.724   3.751
    1C        C  287   4.518   3.585   3.754
    1C        C  288   4.483   3.796   3.872
    1C        C  289   4.498   3.728   3.995
    1C        C  290   4.425   3.930   4.115
    1C        C  291   4.475   3.798   4.115
    1C        C  292   4.396   3.997   4.236
    1C        C  293   4.427   3.936   4.360
    1C        C  294   4.322   4.123   4.476
    1C        C  295   4.390   4.000   4.481
    1C        C  296   4.277   4.180   4.597
    1C        C  297   4.320   4.125   4.721
    1C        C  298   4.200   4.310   4.840
    1C        C  299   4.279   4.191   4.840
    1C        C  300   4.164   4.397   4.948
    1C        C  301   4.354   2.878   2.062
    1C        C  302   4.473   3.063   2.175
    1C        C  303   4.392   2.945   2.179
    1C        C  304   4.480   3.139   2.295
    1C        C  305   4.447   3.078   2.418
    1C        C  306   4.507   3.284   2.536
    1C        C  307   4.475   3.146   2.538
    1C        C  308   4.519   3.355   2.657
    1C        C  309   4.507   3.286   2.780
    1C        C  310   4.524   3.501   2.897
    1C        C  311   4.519   3.360   2.900
    1C        C  312   4.520   3.572   3.019
    1C        C  313   4.520   3.502   3.141
    1C        C  314   4.487   3.714   3.261
    1C        C  315   4.514   3.575   3.262
    1C        C  316   4.474   3.785   3.382
    1C        C  317   4.495   3.719   3.505
    1C        C  318   4.420   3.919   3.625
    1C        C  319   4.469   3.786   3.627
    1C        C  320   4.389   3.983   3.747
    1C        C  321   4.422   3.924   3.871
    1C        C  322   4.320   4.111   3.990
    1C        C  323   4.396   3.992   3.992
    1C        C  324   4.278   4.170   4.111
    1C        C  325   4.323   4.117   4.234
    1C        C  326   4.185   4.285   4.353
    1C        C  327   4.280   4.180   4.353
    1C        C  328   4.132   4.334   4.474
    1C        C  329   4.184   4.286   4.596
    1C        C  330   4.022   4.427   4.713
    1C        C  331   4.137   4.343   4.716
    1C        C  332   3.966   4.486   4.828
    1C        C  333   4.048   4.476   4.941
    1C        C  334   4.556   3.265   2.064
    1C        C  335   4.538   3.126   2.064
    1C        C  336   4.533   3.348   2.175
    1C        C  337   4.513   3.277   2.295
    1C        C  338   4.520   3.494   2.407
    1C        C  339   4.524   3.353   2.414
    1C        C  340   4.516   3.566   2.529
    1C        C  341   4.520   3.497   2.652
    1C        C  342   4.489   3.707   2.769
    1C        C  343   4.516   3.568   2.773
    1C        C  344   4.477   3.778   2.890
    1C        C  345   4.496   3.712   3.014
    1C        C  346   4.420   3.910   3.137
    1C        C  347   4.470   3.778   3.136
    1C        C  348   4.390   3.977   3.258
    1C        C  349   4.429   3.919   3.380
    1C        C  350   4.319   4.101   3.500
    1C        C  351   4.397   3.983   3.502
    1C        C  352   4.275   4.160   3.621
    1C        C  353   4.314   4.103   3.744
    1C        C  354   4.173   4.260   3.865
    1C        C  355   4.270   4.158   3.866
    1C        C  356   4.120   4.311   3.986
    1C        C  357   4.173   4.265   4.108
    1C        C  358   4.009   4.399   4.227
    1C        C  359   4.127   4.321   4.230
    1C        C  360   3.951   4.441   4.349
    1C        C  361   4.015   4.415   4.472
    1C        C  362   3.824   4.508   4.591
    1C        C  363   3.956   4.458   4.592
    1C        C  364   3.760   4.544   4.712
    1C        C  365   3.837   4.543   4.831
    1C        C  366   3.622   4.591   4.945
    1C        C  367   3.760   4.572   4.945
    1C        C  368   4.510   3.561   2.049
    1C        C  369   4.524   3.488   2.168
    1C        C  370   4.498   3.706   2.282
    1C        C  371   4.515   3.566   2.286
    1C        C  372   4.482   3.777   2.403
    1C        C  373   4.499   3.706   2.524
    1C        C  374   4.421   3.905   2.646
    1C        C  375   4.473   3.774   2.646
    1C        C  376   4.393   3.969   2.769
    1C        C  377   4.425   3.909   2.892
    1C        C  378   4.314   4.091   3.012
    1C        C  379   4.391   3.973   3.014
    1C        C  380   4.271   4.151   3.132
    1C        C  381   4.312   4.095   3.255
    1C        C  382   4.177   4.258   3.376
    1C        C  383   4.273   4.154   3.377
    1C        C  384   4.123   4.307   3.497
    1C        C  385   4.173   4.258   3.620
    1C        C  386   4.002   4.384   3.741
    1C        C  387   4.117   4.302   3.742
    1C        C  388   3.940   4.424   3.861
    1C        C  389   4.001   4.388   3.983
    1C        C  390   3.813   4.481   4.107
    1C        C  391   3.945   4.430   4.106
    1C        C  392   3.747   4.507   4.229
    1C        C  393   3.820   4.494   4.350
    1C        C  394   3.614   4.551   4.474
    1C        C  395   3.753   4.524   4.470
    1C        C  396   3.541   4.563   4.595
    1C        C  397   3.620   4.563   4.712
    1C        C  398   3.404   4.553   4.836
    1C        C  399   3.544   4.571   4.830
    1C        C  400   3.335   4.517   4.953
    1C        C  401   4.507   3.700   2.047
    1C        C  402   4.447   3.914   2.159
    1C        C  403   4.485   3.778   2.161
    1C        C  404   4.407   3.974   2.280
    1C        C  405   4.430   3.908   2.403
    1C        C  406   4.322   4.093   2.524
    1C        C  407   4.397   3.973   2.524
    1C        C  408   4.277   4.147   2.647
    1C        C  409   4.316   4.088   2.769
    1C        C  410   4.171   4.247   2.887
    1C        C  411   4.266   4.143   2.889
    1C        C  412   4.119   4.295   3.010
    1C        C  413   4.173   4.252   3.133
    1C        C  414   4.002   4.378   3.251
    1C        C  415   4.121   4.302   3.255
    1C        C  416   3.942   4.411   3.375
    1C        C  417   4.001   4.378   3.499
    1C        C  418   3.807   4.469   3.618
    1C        C  419   3.938   4.417   3.619
    1C        C  420   3.741   4.498   3.739
    1C        C  421   3.809   4.477   3.861
    1C        C  422   3.608   4.537   3.983
    1C        C  423   3.746   4.504   3.985
    1C        C  424   3.540   4.546   4.106
    1C        C  425   3.611   4.544   4.228
    1C        C  426   3.402   4.551   4.351
    1C        C  427   3.543   4.553   4.352
    1C        C  428   3.330   4.548   4.473
    1C        C  429   3.400   4.555   4.595
    1C        C  430   3.190   4.515   4.718
    1C        C  431   3.330   4.542   4.717
    1C        C  432   3.119   4.499   4.840
    1C        C  433   3.197   4.498   4.956
    1C        C  434   4.381   4.124   2.051
    1C        C  435   4.443   3.999   2.047
    1C        C  436   4.303   4.166   2.163
    1C        C  437   4.335   4.096   2.283
    1C        C  438   4.178   4.246   2.400
    1C        C  439   4.282   4.151   2.402
    1C        C  440   4.124   4.294   2.521
    1C        C  441   4.181   4.250   2.643
    1C        C  442   4.004   4.373   2.762
    1C        C  443   4.123   4.295   2.763
    1C        C  444   3.942   4.406   2.885
    1C        C  445   4.001   4.373   3.009
    1C        C  446   3.806   4.460   3.129
    1C        C  447   3.938   4.411   3.129
    1C        C  448   3.743   4.488   3.252
    1C        C  449   3.813   4.469   3.374
    1C        C  450   3.607   4.532   3.494
    1C        C  451   3.743   4.495   3.494
    1C        C  452   3.535   4.543   3.615
    1C        C  453   3.605   4.537   3.738
    1C        C  454   3.396   4.544   3.861
    1C        C  455   3.537   4.549   3.861
    1C        C  456   3.329   4.532   3.985
    1C        C  457   3.399   4.540   4.108
    1C        C  458   3.190   4.514   4.234
    1C        C  459   3.330   4.537   4.231
    1C        C  460   3.122   4.496   4.356
    1C        C  461   3.191   4.519   4.476
    1C        C  462   2.990   4.442   4.600
    1C        C  463   3.120   4.497   4.597
    1C        C  464   2.928   4.405   4.721
    1C        C  465   2.986   4.446   4.844
    1C        C  466   2.796   4.337   4.957
    1C        C  467   2.904   4.426   4.959
    1C        C  468   4.120   4.285   2.041
    1C        C  469   4.186   4.249   2.159
    1C        C  470   3.999   4.363   2.276
    1C        C  471   4.123   4.293   2.279
    1C        C  472   3.941   4.404   2.398
    1C        C  473   4.007   4.373   2.519
    1C        C  474   3.814   4.465   2.641
    1C        C  475   3.942   4.407   2.640
    1C        C  476   3.747   4.489   2.763
    1C        C  477   3.815   4.468   2.885
    1C        C  478   3.605   4.521   3.007
    1C        C  479   3.742   4.487   3.005
    1C        C  480   3.534   4.530   3.129
    1C        C  481   3.606   4.523   3.251
    1C        C  482   3.394   4.534   3.373
    1C        C  483   3.535   4.533   3.372
    1C        C  484   3.323   4.530   3.495
    1C        C  485   3.394   4.540   3.617
    1C        C  486   3.187   4.504   3.742
    1C        C  487   3.324   4.540   3.740
    1C        C  488   3.127   4.475   3.867
    1C        C  489   3.192   4.498   3.990
    1C        C  490   3.000   4.416   4.115
    1C        C  491   3.124   4.485   4.113
    1C        C  492   2.941   4.381   4.238
    1C        C  493   2.995   4.434   4.358
    1C        C  494   2.827   4.303   4.481
    1C        C  495   2.931   4.398   4.479
    1C        C  496   2.774   4.254   4.602
    1C        C  497   2.817   4.316   4.721
    1C        C  498   2.669   4.161   4.844
    1C        C  499   2.751   4.276   4.839
    1C        C  500   2.604   4.111   4.957
    1C        C  501   4.005   4.362   2.038
    1C        C  502   3.811   4.462   2.157
    1C        C  503   3.938   4.402   2.155
    1C        C  504   3.743   4.488   2.278
    1C        C  505   3.812   4.462   2.398
    1C        C  506   3.605   4.506   2.519
    1C        C  507   3.745   4.485   2.519
    1C        C  508   3.536   4.513   2.642
    1C        C  509   3.608   4.515   2.763
    1C        C  510   3.395   4.522   2.885
    1C        C  511   3.536   4.527   2.884
    1C        C  512   3.321   4.521   3.006
    1C        C  513   3.393   4.530   3.127
    1C        C  514   3.187   4.492   3.255
    1C        C  515   3.324   4.527   3.250
    1C        C  516   3.120   4.468   3.376
    1C        C  517   3.185   4.501   3.497
    1C        C  518   2.996   4.411   3.623
    1C        C  519   3.121   4.478   3.621
    1C        C  520   2.938   4.374   3.746
    1C        C  521   2.999   4.413   3.867
    1C        C  522   2.840   4.280   3.995
    1C        C  523   2.945   4.375   3.992
    1C        C  524   2.788   4.234   4.118
    1C        C  525   2.834   4.289   4.240
    1C        C  526   2.690   4.134   4.362
    1C        C  527   2.778   4.245   4.361
    1C        C  528   2.648   4.080   4.485
    1C        C  529   2.683   4.146   4.605
    1C        C  530   2.583   3.958   4.731
    1C        C  531   2.638   4.090   4.726
    1C        C  532   2.539   3.899   4.852
    1C        C  533   2.530   3.991   4.961
    1C        C  534   3.613   4.548   2.035
    1C        C  535   3.748   4.510   2.041
    1C        C  536   3.535   4.530   2.154
    1C        C  537   3.603   4.516   2.278
    1C        C  538   3.390   4.514   2.401
    1C        C  539   3.531   4.520   2.399
    1C        C  540   3.320   4.510   2.523
    1C        C  541   3.395   4.518   2.642
    1C        C  542   3.185   4.483   2.765
    1C        C  543   3.323   4.514   2.764
    1C        C  544   3.119   4.461   2.887
    1C        C  545   3.184   4.488   3.010
    1C        C  546   2.992   4.405   3.133
    1C        C  547   3.119   4.468   3.133
    1C        C  548   2.935   4.367   3.257
    1C        C  549   2.994   4.405   3.380
    1C        C  550   2.828   4.275   3.503
    1C        C  551   2.936   4.367   3.503
    1C        C  552   2.780   4.228   3.626
    1C        C  553   2.833   4.280   3.747
    1C        C  554   2.704   4.119   3.873
    1C        C  555   2.789   4.231   3.872
    1C        C  556   2.663   4.062   3.996
    1C        C  557   2.701   4.123   4.118
    1C        C  558   2.597   3.941   4.244
    1C        C  559   2.659   4.068   4.241
    1C        C  560   2.577   3.879   4.369
    1C        C  561   2.596   3.949   4.491
    1C        C  562   2.530   3.747   4.612
    1C        C  563   2.565   3.884   4.612
    1C        C  564   2.516   3.681   4.736
    1C        C  565   2.521   3.757   4.856
    1C        C  566   2.529   3.548   4.975
    1C        C  567   2.517   3.687   4.977
    1C        C  568   3.324   4.476   2.043
    1C        C  569   3.395   4.510   2.159
    1C        C  570   3.181   4.470   2.280
    1C        C  571   3.318   4.508   2.279
    1C        C  572   3.115   4.450   2.403
    1C        C  573   3.181   4.481   2.524
    1C        C  574   2.989   4.396   2.647
    1C        C  575   3.111   4.466   2.645
    1C        C  576   2.930   4.357   2.770
    1C        C  577   2.993   4.397   2.889
    1C        C  578   2.822   4.276   3.013
    1C        C  579   2.930   4.366   3.012
    1C        C  580   2.777   4.221   3.135
    1C        C  581   2.830   4.272   3.256
    1C        C  582   2.696   4.112   3.382
    1C        C  583   2.779   4.226   3.379
    1C        C  584   2.660   4.053   3.505
    1C        C  585   2.697   4.113   3.628
    1C        C  586   2.593   3.934   3.754
    1C        C  587   2.659   4.059   3.753
    1C        C  588   2.570   3.870   3.878
    1C        C  589   2.602   3.935   3.999
    1C        C  590   2.538   3.736   4.127
    1C        C  591   2.581   3.871   4.123
    1C        C  592   2.521   3.671   4.251
    1C        C  593   2.538   3.743   4.371
    1C        C  594   2.507   3.532   4.496
    1C        C  595   2.517   3.673   4.492
    1C        C  596   2.512   3.464   4.620
    1C        C  597   2.508   3.539   4.740
    1C        C  598   2.534   3.326   4.861
    1C        C  599   2.520   3.467   4.861
    1C        C  600   2.532   3.250   4.979
    1C        C  601   3.190   4.444   2.043
    1C        C  602   2.977   4.393   2.157
    1C        C  603   3.113   4.440   2.160
    1C        C  604   2.923   4.355   2.282
    1C        C  605   2.987   4.391   2.403
    1C        C  606   2.815   4.271   2.529
    1C        C  607   2.926   4.359   2.526
    1C        C  608   2.766   4.219   2.651
    1C        C  609   2.817   4.271   2.772
    1C        C  610   2.682   4.109   2.894
    1C        C  611   2.769   4.221   2.894
    1C        C  612   2.653   4.048   3.018
    1C        C  613   2.689   4.110   3.140
    1C        C  614   2.583   3.928   3.263
    1C        C  615   2.651   4.052   3.262
    1C        C  616   2.563   3.863   3.387
    1C        C  617   2.596   3.927   3.508
    1C        C  618   2.529   3.730   3.636
    1C        C  619   2.570   3.865   3.633
    1C        C  620   2.520   3.663   3.760
    1C        C  621   2.529   3.735   3.881
    1C        C  622   2.509   3.526   4.009
    1C        C  623   2.519   3.667   4.005
    1C        C  624   2.514   3.455   4.131
    1C        C  625   2.507   3.530   4.251
    1C        C  626   2.537   3.323   4.379
    1C        C  627   2.507   3.461   4.374
    1C        C  628   2.551   3.255   4.502
    1C        C  629   2.527   3.324   4.622
    1C        C  630   2.589   3.117   4.742
    1C        C  631   2.541   3.251   4.742
    1C        C  632   2.610   3.050   4.865
    1C        C  633   2.557   3.112   4.982
    1C        C  634   2.778   4.302   2.053
    1C        C  635   2.890   4.386   2.044
    1C        C  636   2.745   4.230   2.168
    1C        C  637   2.809   4.270   2.288
    1C        C  638   2.672   4.108   2.409
    1C        C  639   2.760   4.219   2.410
    1C        C  640   2.637   4.048   2.532
    1C        C  641   2.675   4.111   2.652
    1C        C  642   2.584   3.919   2.777
    1C        C  643   2.643   4.048   2.773
    1C        C  644   2.562   3.853   2.900
    1C        C  645   2.593   3.920   3.020
    1C        C  646   2.530   3.720   3.146
    1C        C  647   2.560   3.858   3.143
    1C        C  648   2.512   3.654   3.270
    1C        C  649   2.528   3.726   3.391
    1C        C  650   2.505   3.519   3.517
    1C        C  651   2.515   3.660   3.515
    1C        C  652   2.509   3.451   3.641
    1C        C  653   2.511   3.522   3.763
    1C        C  654   2.530   3.315   3.890
    1C        C  655   2.508   3.454   3.888
    1C        C  656   2.549   3.245   4.012
    1C        C  657   2.538   3.316   4.133
    1C        C  658   2.602   3.118   4.258
    1C        C  659   2.556   3.252   4.258
    1C        C  660   2.633   3.056   4.381
    1C        C  661   2.599   3.122   4.501
    1C        C  662   2.704   2.936   4.624
    1C        C  663   2.623   3.051   4.621
    1C        C  664   2.751   2.880   4.746
    1C        C  665   2.699   2.937   4.865
    1C        C  666   2.738   2.867   4.980
    1C        C  667   2.677   4.021   2.053
    1C        C  668   2.680   4.104   2.166
    1C        C  669   2.594   3.909   2.291
    1C        C  670   2.644   4.042   2.287
    1C        C  671   2.564   3.844   2.413
    1C        C  672   2.587   3.915   2.532
    1C        C  673   2.513   3.718   2.659
    1C        C  674   2.557   3.853   2.655
    1C        C  675   2.502   3.646   2.780
    1C        C  676   2.523   3.717   2.901
    1C        C  677   2.504   3.508   3.029
    1C        C  678   2.516   3.649   3.024
    1C        C  679   2.506   3.439   3.152
    1C        C  680   2.503   3.513   3.272
    1C        C  681   2.532   3.306   3.397
    1C        C  682   2.507   3.445   3.396
    1C        C  683   2.548   3.242   3.522
    1C        C  684   2.533   3.312   3.644
    1C        C  685   2.604   3.116   3.768
    1C        C  686   2.551   3.247   3.768
    1C        C  687   2.635   3.054   3.891
    1C        C  688   2.599   3.113   4.014
    1C        C  689   2.710   2.934   4.136
    1C        C  690   2.631   3.051   4.137
    1C        C  691   2.756   2.884   4.260
    1C        C  692   2.711   2.938   4.383
    1C        C  693   2.755   2.881   4.504
    1C        C  694   2.629   3.890   2.055
    1C        C  695   2.524   3.704   2.178
    1C        C  696   2.576   3.835   2.173
    1C        C  697   2.508   3.634   2.299
    1C        C  698   2.522   3.709   2.418
    1C        C  699   2.486   3.502   2.541
    1C        C  700   2.496   3.643   2.541
    1C        C  701   2.491   3.433   2.664
    1C        C  702   2.497   3.505   2.786
    1C        C  703   2.518   3.295   2.911
    1C        C  704   2.499   3.435   2.908
    1C        C  705   2.535   3.224   3.032
    1C        C  706   2.528   3.300   3.152
    1C        C  707   2.597   3.103   3.279
    1C        C  708   2.548   3.235   3.276
    1C        C  709   2.630   3.043   3.403
    1C        C  710   2.599   3.111   3.523
    1C        C  711   2.712   2.933   3.646
    1C        C  712   2.631   3.049   3.646
    1C        C  713   2.760   2.883   3.769
    1C        C  714   2.716   2.938   3.892
    1C        C  715   2.758   2.882   4.014
    1C        C  716   2.447   3.502   2.064
    1C        C  717   2.487   3.636   2.060
    1C        C  718   2.463   3.421   2.181
    1C        C  719   2.479   3.495   2.301
    1C        C  720   2.514   3.287   2.426
    1C        C  721   2.486   3.425   2.423
    1C        C  722   2.540   3.223   2.550
    1C        C  723   2.519   3.295   2.669
    1C        C  724   2.585   3.091   2.791
    1C        C  725   2.533   3.223   2.790
    1C        C  726   2.608   3.025   2.914
    1C        C  727   2.576   3.089   3.035
    1C        C  728   2.704   2.920   3.158
    1C        C  729   2.623   3.035   3.157
    1C        C  730   2.753   2.868   3.280
    1C        C  731   2.708   2.926   3.401
    1C        C  732   2.754   2.875   3.524
    1C        C  733   2.491   3.194   2.075
    1C        C  734   2.496   3.281   2.184
    1C        C  735   2.581   3.083   2.305
    1C        C  736   2.527   3.214   2.306
    1C        C  737   2.613   3.021   2.428
    1C        C  738   2.589   3.090   2.548
    1C        C  739   2.695   2.907   2.668
    1C        C  740   2.619   3.026   2.670
    1C        C  741   2.739   2.853   2.791
    1C        C  742   2.696   2.915   2.911
    1C        C  743   2.745   2.865   3.034
    1C        C  744   2.550   3.068   2.070
    1C        C  745   2.686   2.896   2.186
    1C        C  746   2.608   3.014   2.184
    1C        C  747   2.732   2.841   2.307
    1C        C  748   2.687   2.900   2.427
    1C        C  749   2.735   2.844   2.548
    1C        C  750   2.738   2.840   2.068
    1C        C  751   3.652   2.273   2.024
    1C        O  752   3.631   2.160   2.076
    1C        O  753   3.676   2.251   1.887
    1C        C  754   4.627   3.049   1.975
    1C        O  755   4.590   3.027   1.856
    1C        O  756   4.760   3.017   2.008
    1C        C  757   4.447   4.220   1.960
    1C        O  758   4.506   4.323   2.004
    1C        O  759   4.422   4.225   1.822
    1C        C  760   3.589   4.660   1.942
    1C        O  761   3.598   4.782   1.974
    1C        O  762   3.592   4.634   1.805
    1C        C  763   2.876   4.502   1.953
    1C        O  764   2.920   4.486   1.836
    1C        O  765   2.804   4.619   1.982
    1C        C  766   2.352   3.467   1.956
    1C        O  767   2.380   3.485   1.834
    1C        O  768   2.231   3.400   1.974
    1C        C  769   4.693   3.585   5.053
    1C        O  770   4.660   3.584   5.175
    1C        O  771   4.817   3.649   5.037
    1C        C  772   4.228   4.418   5.079
    1C        O  773   4.175   4.371   5.184
    1C        O  774   4.314   4.520   5.120
    1C        C  775   4.141   2.542   5.083
    1C        O  776   4.208   2.439   5.054
    1C        O  777   4.090   2.537   5.213
    1C        C  778   2.884   4.525   5.067
    1C        O  779   2.845   4.642   5.040
    1C        O  780   2.904   4.498   5.203
    1C        C  781   2.472   3.030   5.072
    1C        O  782   2.355   3.009   5.029
    1C        O  783   2.447   3.056   5.206
    1C        C  784   2.410   3.994   5.048
    1C        O  785   2.293   3.993   5.001
    1C        O  786   2.433   3.991   5.186
    1C        C  787   2.949   2.453   1.979
    1C        O  788   2.940   2.481   1.856
    1C        O  789   2.879   2.335   2.002
    1C        C  790   3.183   2.366   5.056
    1C        O  791   3.155   2.254   5.006
    1C        O  792   3.193   2.374   5.196
    1C        H  793   4.333   2.988   5.067
    1C        H  794   4.142   2.832   5.060
    1C        H  795   4.525   3.119   5.040
    1C        H  796   4.527   3.371   5.061
    1C        H  797   4.520   3.800   5.050
    1C        H  798   4.434   3.980   5.056
    1C        H  799   4.250   4.132   5.044
    1C        H  800   4.030   4.545   5.020
    1C        H  801   3.800   4.520   5.029
    1C        H  802   3.584   4.637   5.033
    1C        H  803   3.398   4.477   5.030
    1C        H  804   3.152   4.518   5.052
    1C        H  805   3.915   2.446   5.044
    1C        H  806   3.675   2.439   5.065
    1C        H  807   3.010   2.567   5.069
    1C        H  808   3.442   2.539   5.060
    1C        H  809   2.906   2.779   5.068
    1C        H  810   2.675   2.872   5.066
    1C        H  811   2.472   3.285   5.060
    1C        H  812   2.554   3.502   5.068
    1C        H  813   2.539   3.736   5.069
    1C        H  814   2.588   4.183   5.034
    1C        H  815   2.769   4.293   5.051
    1C        H  816   2.729   2.895   1.977
    1C        H  817   2.854   2.697   1.971
    1C        H  818   3.218   2.477   1.980
    1C        H  819   3.449   2.491   1.986
    1C        H  820   3.820   2.574   1.986
    1C        H  821   4.060   2.615   1.967
    1C        H  822   4.249   2.712   1.976
    1C        H  823   4.401   2.903   1.970
    1C        H  824   4.627   3.303   1.994
    1C        H  825   4.454   3.512   1.971
    1C        H  826   4.570   3.739   1.970
    1C        H  827   3.809   4.552   1.964
    1C        H  828   3.977   4.414   1.949
    1C        H  829   4.132   4.211   1.963
    1C        H  830   4.512   3.978   1.968
    1C        H  831   2.646   3.827   1.970
    1C        H  832   2.756   4.032   1.981
    1C        H  833   2.698   4.314   1.983
    1C        H  834   3.374   4.437   1.957
    1C        H  835   3.150   4.406   1.951
    1C        H  836   2.540   3.011   1.980
    1C        H  837   2.438   3.224   1.986
    1C        H  838   2.494   3.684   1.965
    2V3OU   H29  839   2.810   3.547   2.510
    2V3OU   C27  840   2.788   3.499   2.609
    2V3OU   H27  841   2.728   3.570   2.671
    2V3OU   H28  842   2.743   3.398   2.592
    2V3OU   O11  843   2.912   3.480   2.677
    2V3OU   C15  844   2.928   3.395   2.785
    2V3OU   C13  845   3.054   3.372   2.844
    2V3OU   C14  846   3.078   3.269   2.935
    2V3OU   C16  847   2.976   3.185   2.978
    2V3OU    H6  848   2.990   3.100   3.045
    2V3OU   C12  849   3.213   3.233   2.986
    2V3OU    O2  850   3.236   3.121   3.037
    2V3OU   C10  851   3.328   3.308   2.936
    2V3OU    C8  852   3.460   3.270   2.961
    2V3OU   O10  853   3.491   3.152   3.022
    2V3OU   H26  854   3.405   3.111   3.039
    2V3OU    C6  855   3.567   3.351   2.913
    2V3OU    C5  856   3.537   3.468   2.844
    2V3OU    C4  857   3.703   3.291   2.917
    2V3OU    H4  858   3.724   3.222   3.003
    2V3OU    H5  859   3.711   3.226   2.824
    2V3OU    C2  860   3.814   3.397   2.916
    2V3OU    O6  861   3.800   3.474   3.036
    2V3OU   H21  862   3.763   3.557   3.002
    2V3OU    C3  863   3.781   3.494   2.802
    2V3OU    H2  864   3.864   3.569   2.796
    2V3OU    H3  865   3.779   3.438   2.706
    2V3OU   C25  866   3.950   3.329   2.901
    2V3OU    O7  867   3.997   3.299   2.792
    2V3OU   C26  868   4.030   3.292   3.025
    2V3OU   H22  869   4.065   3.390   3.067
    2V3OU   H23  870   4.116   3.226   2.997
    2V3OU    O8  871   3.956   3.213   3.115
    2V3OU   H24  872   3.922   3.265   3.190
    2V3OU    C1  873   3.648   3.567   2.819
    2V3OU    H1  874   3.630   3.623   2.723
    2V3OU    O3  875   3.657   3.655   2.931
    2V3OU   C19  876   3.612   3.791   2.922
    2V3OU    H9  877   3.515   3.802   2.865
    2V3OU    O4  878   3.709   3.853   2.841
    2V3OU   C20  879   3.846   3.874   2.877
    2V3OU   H10  880   3.891   3.771   2.887
    2V3OU   C24  881   3.608   3.852   3.062
    2V3OU   H16  882   3.555   3.783   3.133
    2V3OU   H17  883   3.557   3.951   3.057
    2V3OU   C23  884   3.750   3.876   3.113
    2V3OU   H15  885   3.794   3.774   3.141
    2V3OU    N1  886   3.742   3.957   3.233
    2V3OU   H19  887   3.811   3.919   3.294
    2V3OU   H20  888   3.651   3.930   3.266
    2V3OU   C21  889   3.852   3.941   3.014
    2V3OU   H11  890   3.954   3.927   3.061
    2V3OU    O5  891   3.830   4.081   3.011
    2V3OU   H18  892   3.780   4.102   3.092
    2V3OU   C22  893   3.912   3.947   2.762
    2V3OU   H12  894   3.863   4.048   2.751
    2V3OU   H13  895   3.898   3.893   2.665
    2V3OU   H14  896   4.021   3.957   2.787
    2V3OU   C11  897   3.161   3.471   2.822
    2V3OU    O1  898   3.138   3.590   2.791
    2V3OU    C9  899   3.296   3.423   2.859
    2V3OU    C7  900   3.401   3.503   2.817
    2V3OU    O9  901   3.385   3.619   2.743
    2V3OU   H25  902   3.288   3.629   2.740
    2V3OU   C17  903   2.827   3.309   2.832
    2V3OU    H7  904   2.729   3.345   2.802
    2V3OU   C18  905   2.849   3.210   2.927
    2V3OU    H8  906   2.778   3.165   2.999
    3SOL     OW  907   2.234   5.425   6.864
    3SOL    HW1  908   2.258   5.522   6.858
    3SOL    HW2  909   2.213   5.391   6.772
    4SOL     OW  910   6.692   0.647   1.935
    4SOL    HW1  911   6.691   0.633   2.034
    4SOL    HW2  912   6.652   0.567   1.890
    5SOL     OW  913   4.317   1.899   2.364
    5SOL    HW1  914   4.286   1.813   2.324
    5SOL    HW2  915   4.330   1.967   2.291
    6SOL     OW  916   4.206   0.780   1.539
    6SOL    HW1  917   4.110   0.798   1.517
    6SOL    HW2  918   4.237   0.846   1.608
    7SOL     OW  919   0.595   3.974   3.361
    7SOL    HW1  920   0.520   4.029   3.323
    7SOL    HW2  921   0.574   3.950   3.456
    8SOL     OW  922   3.037   0.916   5.824
    8SOL    HW1  923   3.121   0.879   5.865
    8SOL    HW2  924   3.047   0.918   5.725
    9SOL     OW  925   4.566   0.928   5.649
    9SOL    HW1  926   4.482   0.873   5.642
    9SOL    HW2  927   4.542   1.025   5.647
   10SOL     OW  928   1.798   4.920   5.231
   10SOL    HW1  929   1.850   4.896   5.313
   10SOL    HW2  930   1.810   4.847   5.163
   11SOL     OW  931   2.822   0.793   5.445
   11SOL    HW1  932   2.842   0.696   5.436
   11SOL    HW2  933   2.907   0.843   5.462
   12SOL     OW  934   3.048   5.739   3.671
   12SOL    HW1  935   3.032   5.698   3.761
   12SOL    HW2  936   3.143   5.767   3.664
   13SOL     OW  937   3.942   6.389   4.147
   13SOL    HW1  938   3.872   6.450   4.109
   13SOL    HW2  939   4.002   6.358   4.073
   14SOL     OW  940   3.835   5.004   6.264
   14SOL    HW1  941   3.840   5.095   6.222
   14SOL    HW2  942   3.903   4.998   6.338
   15SOL     OW  943   1.011   6.785   1.525
   15SOL    HW1  944   1.008   6.820   1.431
   15SOL    HW2  945   0.951   6.705   1.532
   16SOL     OW  946   5.710   2.543   6.171
   16SOL    HW1  947   5.629   2.602   6.170
   16SOL    HW2  948   5.746   2.536   6.079
   17SOL     OW  949   5.714   6.430   6.293
   17SOL    HW1  950   5.745   6.513   6.246
   17SOL    HW2  951   5.619   6.412   6.270
   18SOL     OW  952   3.449   1.326   5.694
   18SOL    HW1  953   3.496   1.265   5.758
   18SOL    HW2  954   3.487   1.315   5.603
   19SOL     OW  955   0.224   1.079   2.659
   19SOL    HW1  956   0.275   1.040   2.582
   19SOL    HW2  957   0.276   1.154   2.699
   20SOL     OW  958   4.699   1.846   4.302
   20SOL    HW1  959   4.665   1.788   4.376
   20SOL    HW2  960   4.701   1.793   4.217
   21SOL     OW  961   3.142   0.535   1.977
   21SOL    HW1  962   3.124   0.617   1.921
   21SOL    HW2  963   3.235   0.540   2.013
   22SOL     OW  964   1.070   6.430   6.840
   22SOL    HW1  965   0.973   6.439   6.861
   22SOL    HW2  966   1.081   6.388   6.750
   23SOL     OW  967   5.942   5.323   2.343
   23SOL    HW1  968   5.848   5.343   2.315
   23SOL    HW2  969   5.992   5.285   2.265
   24SOL     OW  970   3.766   0.347   3.144
   24SOL    HW1  971   3.801   0.336   3.051
   24SOL    HW2  972   3.693   0.415   3.144
   25SOL     OW  973   3.761   0.538   4.290
   25SOL    HW1  974   3.858   0.562   4.278
   25SOL    HW2  975   3.708   0.621   4.304
   26SOL     OW  976   0.014   0.966   0.424
   26SOL    HW1  977   0.065   0.994   0.343
   26SOL    HW2  978   0.010   1.042   0.489
   27SOL     OW  979   1.812   1.173   2.401
   27SOL    HW1  980   1.862   1.256   2.425
   27SOL    HW2  981   1.871   1.094   2.413
   28SOL     OW  982   2.551   1.129   5.570
   28SOL    HW1  983   2.479   1.177   5.520
   28SOL    HW2  984   2.555   1.163   5.664
   29SOL     OW  985   6.328   1.596   1.983
   29SOL    HW1  986   6.256   1.534   1.954
   29SOL    HW2  987   6.374   1.558   2.064
   30SOL     OW  988   3.820   0.917   3.490
   30SOL    HW1  989   3.774   0.897   3.576
   30SOL    HW2  990   3.758   0.965   3.429
   31SOL     OW  991   0.348   2.434   6.366
   31SOL    HW1  992   0.270   2.380   6.397
   31SOL    HW2  993   0.410   2.450   6.443
   32SOL     OW  994   0.155   1.729   3.052
   32SOL    HW1  995   0.162   1.700   2.956
   32SOL    HW2  996   0.246   1.738   3.091
   33SOL     OW  997   0.876   4.392   5.428
   33SOL    HW1  998   0.808   4.426   5.493
   33SOL    HW2  999   0.834   4.324   5.369
   34SOL     OW 1000   2.569   6.679   4.969
   34SOL    HW1 1001   2.564   6.769   4.927
   34SOL    HW2 1002   2.650   6.674   5.028
   35SOL     OW 1003   4.786   3.003   6.203
   35SOL    HW1 1004   4.766   3.085   6.149
   35SOL    HW2 1005   4.726   2.929   6.175
   36SOL     OW 1006   4.959   1.293   4.767
   36SOL    HW1 1007   4.962   1.342   4.855
   36SOL    HW2 1008   4.870   1.307   4.725
   37SOL     OW 1009   1.295   1.994   5.833
   37SOL    HW1 1010   1.370   2.022   5.892
   37SOL    HW2 1011   1.207   2.020   5.874
   38SOL     OW 1012   0.999   5.323   2.772
   38SOL    HW1 1013   1.051   5.249   2.729
   38SOL    HW2 1014   0.945   5.370   2.702
   39SOL     OW 1015   6.560   4.558   6.312
   39SOL    HW1 1016   6.518   4.558   6.402
   39SOL    HW2 1017   6.517   4.629   6.255
   40SOL     OW 1018   4.677   1.722   0.611
   40SOL    HW1 1019   4.596   1.781   0.617
   40SOL    HW2 1020   4.754   1.767   0.657
   41SOL     OW 1021   6.819   4.740   3.598
   41SOL    HW1 1022   6.881   4.819   3.606
   41SOL    HW2 1023   6.844   4.671   3.666
   42SOL     OW 1024   3.178   5.035   4.166
   42SOL    HW1 1025   3.140   5.049   4.258
   42SOL    HW2 1026   3.108   4.994   4.107
   43SOL     OW 1027   5.053   7.012   5.675
   43SOL    HW1 1028   5.015   7.001   5.767
   43SOL    HW2 1029   5.038   0.085   5.644
   44SOL     OW 1030   4.962   2.229   5.735
   44SOL    HW1 1031   5.020   2.311   5.734
   44SOL    HW2 1032   4.942   2.201   5.641
   45SOL     OW 1033   4.991   5.654   1.412
   45SOL    HW1 1034   4.934   5.675   1.491
   45SOL    HW2 1035   5.055   5.729   1.396
   46SOL     OW 1036   1.017   2.829   3.266
   46SOL    HW1 1037   1.040   2.906   3.325
   46SOL    HW2 1038   0.918   2.826   3.252
   47SOL     OW 1039   4.476   4.264   0.945
   47SOL    HW1 1040   4.486   4.231   0.851
   47SOL    HW2 1041   4.433   4.354   0.944
   48SOL     OW 1042   6.369   2.675   6.169
   48SOL    HW1 1043   6.399   2.744   6.235
   48SOL    HW2 1044   6.279   2.640   6.195
   49SOL     OW 1045   5.896   3.755   1.935
   49SOL    HW1 1046   5.911   3.830   1.999
   49SOL    HW2 1047   5.981   3.704   1.923
   50SOL     OW 1048   5.731   1.245   4.744
   50SOL    HW1 1049   5.729   1.340   4.776
   50SOL    HW2 1050   5.761   1.242   4.649
   51SOL     OW 1051   2.397   6.483   3.133
   51SOL    HW1 1052   2.464   6.500   3.060
   51SOL    HW2 1053   2.387   6.384   3.146
   52SOL     OW 1054   6.010   3.337   2.540
   52SOL    HW1 1055   6.051   3.324   2.450
   52SOL    HW2 1056   5.932   3.275   2.551
   53SOL     OW 1057   4.437   0.164   3.821
   53SOL    HW1 1058   4.365   0.102   3.853
   53SOL    HW2 1059   4.526   0.128   3.847
   54SOL     OW 1060   4.733   5.388   0.856
   54SOL    HW1 1061   4.694   5.400   0.765
   54SOL    HW2 1062   4.685   5.448   0.921
   55SOL     OW 1063   1.877   3.047   5.944
   55SOL    HW1 1064   1.810   2.974   5.931
   55SOL    HW2 1065   1.938   3.024   6.020
   56SOL     OW 1066   0.453   0.769   1.223
   56SOL    HW1 1067   0.476   0.672   1.222
   56SOL    HW2 1068   0.359   0.781   1.190
   57SOL     OW 1069   4.369   1.077   1.314
   57SOL    HW1 1070   4.357   1.163   1.264
   57SOL    HW2 1071   4.369   1.000   1.249
   58SOL     OW 1072   1.034   0.027   5.172
   58SOL    HW1 1073   0.980   6.983   5.226
   58SOL    HW2 1074   1.076   7.000   5.095
   59SOL     OW 1075   0.504   2.695   6.017
   59SOL    HW1 1076   0.469   2.787   6.002
   59SOL    HW2 1077   0.602   2.693   5.999
   60SOL     OW 1078   5.336   2.688   4.257
   60SOL    HW1 1079   5.366   2.774   4.216
   60SOL    HW2 1080   5.275   2.707   4.334
   61SOL     OW 1081   6.353   2.068   3.984
   61SOL    HW1 1082   6.282   2.112   3.929
   61SOL    HW2 1083   6.403   2.136   4.037
   62SOL     OW 1084   1.378   0.864   1.849
   62SOL    HW1 1085   1.311   0.790   1.859
   62SOL    HW2 1086   1.418   0.884   1.939
   63SOL     OW 1087   5.244   1.156   3.912
   63SOL    HW1 1088   5.277   1.196   3.998
   63SOL    HW2 1089   5.154   1.194   3.891
   64SOL     OW 1090   0.458   2.946   6.296
   64SOL    HW1 1091   0.435   2.915   6.204
   64SOL    HW2 1092   0.409   3.030   6.317
   65SOL     OW 1093   0.915   4.362   6.540
   65SOL    HW1 1094   0.876   4.273   6.564
   65SOL    HW2 1095   0.908   4.376   6.441
   66SOL     OW 1096   4.016   0.944   4.705
   66SOL    HW1 1097   4.109   0.971   4.681
   66SOL    HW2 1098   3.951   0.999   4.653
   67SOL     OW 1099   6.904   2.883   5.986
   67SOL    HW1 1100   6.924   2.785   5.998
   67SOL    HW2 1101   6.940   2.913   5.898
   68SOL     OW 1102   6.651   1.453   6.939
   68SOL    HW1 1103   6.631   1.370   6.887
   68SOL    HW2 1104   6.742   1.487   6.914
   69SOL     OW 1105   0.831   3.277   6.366
   69SOL    HW1 1106   0.745   3.326   6.381
   69SOL    HW2 1107   0.811   3.186   6.330
   70SOL     OW 1108   5.481   4.662   4.858
   70SOL    HW1 1109   5.514   4.626   4.770
   70SOL    HW2 1110   5.469   4.587   4.922
   71SOL     OW 1111   4.257   1.920   3.050
   71SOL    HW1 1112   4.288   1.969   3.132
   71SOL    HW2 1113   4.173   1.870   3.071
   72SOL     OW 1114   1.818   1.184   3.655
   72SOL    HW1 1115   1.815   1.157   3.752
   72SOL    HW2 1116   1.906   1.157   3.616
   73SOL     OW 1117   3.922   0.565   1.026
   73SOL    HW1 1118   4.010   0.560   1.074
   73SOL    HW2 1119   3.865   0.634   1.070
   74SOL     OW 1120   3.735   0.769   0.088
   74SOL    HW1 1121   3.749   0.838   0.017
   74SOL    HW2 1122   3.818   0.760   0.142
   75SOL     OW 1123   4.722   0.831   1.100
   75SOL    HW1 1124   4.689   0.883   1.179
   75SOL    HW2 1125   4.660   0.754   1.083
   76SOL     OW 1126   2.809   3.086   1.129
   76SOL    HW1 1127   2.770   3.057   1.216
   76SOL    HW2 1128   2.736   3.090   1.060
   77SOL     OW 1129   0.919   0.471   3.897
   77SOL    HW1 1130   1.014   0.455   3.924
   77SOL    HW2 1131   0.891   0.400   3.832
   78SOL     OW 1132   5.539   1.643   0.421
   78SOL    HW1 1133   5.440   1.635   0.423
   78SOL    HW2 1134   5.579   1.552   0.412
   79SOL     OW 1135   3.073   6.086   1.403
   79SOL    HW1 1136   3.160   6.103   1.357
   79SOL    HW2 1137   3.036   5.998   1.372
   80SOL     OW 1138   4.169   1.069   3.687
   80SOL    HW1 1139   4.235   1.007   3.645
   80SOL    HW2 1140   4.217   1.136   3.743
   81SOL     OW 1141   2.458   0.088   2.259
   81SOL    HW1 1142   2.390   0.048   2.197
   81SOL    HW2 1143   2.429   0.180   2.285
   82SOL     OW 1144   5.922   4.987   0.284
   82SOL    HW1 1145   5.885   5.041   0.208
   82SOL    HW2 1146   5.907   4.890   0.266
   83SOL     OW 1147   6.827   0.321   0.235
   83SOL    HW1 1148   6.877   0.278   0.160
   83SOL    HW2 1149   6.848   0.419   0.237
   84SOL     OW 1150   5.819   3.133   2.584
   84SOL    HW1 1151   5.724   3.163   2.578
   84SOL    HW2 1152   5.830   3.047   2.532
   85SOL     OW 1153   1.710   1.276   3.999
   85SOL    HW1 1154   1.749   1.278   4.091
   85SOL    HW2 1155   1.614   1.249   4.004
   86SOL     OW 1156   0.698   1.602   6.422
   86SOL    HW1 1157   0.637   1.630   6.497
   86SOL    HW2 1158   0.718   1.681   6.364
   87SOL     OW 1159   5.005   4.540   0.990
   87SOL    HW1 1160   4.965   4.463   0.940
   87SOL    HW2 1161   5.104   4.540   0.978
   88SOL     OW 1162   3.039   2.033   6.386
   88SOL    HW1 1163   3.079   2.013   6.296
   88SOL    HW2 1164   3.063   2.126   6.412
   89SOL     OW 1165   2.312   2.362   6.772
   89SOL    HW1 1166   2.345   2.338   6.681
   89SOL    HW2 1167   2.289   2.278   6.822
   90SOL     OW 1168   4.255   5.506   1.804
   90SOL    HW1 1169   4.176   5.461   1.845
   90SOL    HW2 1170   4.230   5.597   1.772
   91SOL     OW 1171   6.138   3.777   6.255
   91SOL    HW1 1172   6.188   3.692   6.235
   91SOL    HW2 1173   6.192   3.833   6.318
   92SOL     OW 1174   4.678   4.613   1.100
   92SOL    HW1 1175   4.691   4.681   1.172
   92SOL    HW2 1176   4.755   4.549   1.099
   93SOL     OW 1177   3.449   3.504   0.711
   93SOL    HW1 1178   3.522   3.526   0.775
   93SOL    HW2 1179   3.433   3.405   0.710
   94SOL     OW 1180   2.955   5.492   6.238
   94SOL    HW1 1181   3.030   5.442   6.195
   94SOL    HW2 1182   2.878   5.498   6.173
   95SOL     OW 1183   1.531   0.353   3.012
   95SOL    HW1 1184   1.495   0.445   3.029
   95SOL    HW2 1185   1.466   0.301   2.958
   96SOL     OW 1186   4.124   0.026   5.391
   96SOL    HW1 1187   4.031   7.013   5.408
   96SOL    HW2 1188   4.189   6.996   5.448
   97SOL     OW 1189   2.108   3.003   5.588
   97SOL    HW1 1190   2.127   2.995   5.686
   97SOL    HW2 1191   2.176   3.065   5.547
   98SOL     OW 1192   1.210   2.793   0.833
   98SOL    HW1 1193   1.135   2.779   0.770
   98SOL    HW2 1194   1.248   2.885   0.819
   99SOL     OW 1195   4.314   2.710   1.492
   99SOL    HW1 1196   4.316   2.799   1.448
   99SOL    HW2 1197   4.298   2.639   1.423
  100SOL     OW 1198   0.918   6.761   3.724
  100SOL    HW1 1199   1.012   6.727   3.722
  100SOL    HW2 1200   0.859   6.700   3.672
  101SOL     OW 1201   1.744   4.325   2.177
  101SOL    HW1 1202   1.699   4.315   2.265
  101SOL    HW2 1203   1.836   4.284   2.182
  102SOL     OW 1204   2.703   5.429   1.678
  102SOL    HW1 1205   2.699   5.358   1.607
  102SOL    HW2 1206   2.696   5.386   1.768
  103SOL     OW 1207   2.501   1.462   2.134
  103SOL    HW1 1208   2.507   1.558   2.107
  103SOL    HW2 1209   2.564   1.408   2.077
  104SOL     OW 1210   1.149   5.587   2.740
  104SOL    HW1 1211   1.063   5.554   2.701
  104SOL    HW2 1212   1.141   5.684   2.763
  105SOL     OW 1213   6.113   1.083   6.481
  105SOL    HW1 1214   6.040   1.046   6.423
  105SOL    HW2 1215   6.179   1.132   6.424
  106SOL     OW 1216   3.545   6.087   4.094
  106SOL    HW1 1217   3.470   6.117   4.034
  106SOL    HW2 1218   3.629   6.081   4.042
  107SOL     OW 1219   1.090   1.258   6.927
  107SOL    HW1 1220   1.015   1.324   6.931
  107SOL    HW2 1221   1.103   1.217   7.017
  108SOL     OW 1222   3.813   6.957   5.999
  108SOL    HW1 1223   3.751   0.008   6.031
  108SOL    HW2 1224   3.764   6.871   5.991
  109SOL     OW 1225   2.037   1.105   2.718
  109SOL    HW1 1226   2.076   1.187   2.759
  109SOL    HW2 1227   2.076   1.091   2.627
  110SOL     OW 1228   3.157   5.506   4.149
  110SOL    HW1 1229   3.227   5.445   4.186
  110SOL    HW2 1230   3.067   5.479   4.184
  111SOL     OW 1231   2.135   1.214   4.010
  111SOL    HW1 1232   2.152   1.150   4.085
  111SOL    HW2 1233   2.128   1.307   4.048
  112SOL     OW 1234   3.086   5.687   6.921
  112SOL    HW1 1235   3.070   5.659   7.016
  112SOL    HW2 1236   3.076   5.786   6.914
  113SOL     OW 1237   1.248   5.941   2.369
  113SOL    HW1 1238   1.274   5.975   2.459
  113SOL    HW2 1239   1.158   5.978   2.345
  114SOL     OW 1240   0.788   6.558   1.484
  114SOL    HW1 1241   0.704   6.567   1.537
  114SOL    HW2 1242   0.794   6.466   1.446
  115SOL     OW 1243   4.685   1.444   2.916
  115SOL    HW1 1244   4.738   1.433   3.000
  115SOL    HW2 1245   4.703   1.367   2.856
  116SOL     OW 1246   6.658   6.113   0.952
  116SOL    HW1 1247   6.605   6.183   1.000
  116SOL    HW2 1248   6.595   6.043   0.916
  117SOL     OW 1249   0.845   1.578   1.237
  117SOL    HW1 1250   0.817   1.673   1.251
  117SOL    HW2 1251   0.783   1.518   1.288
  118SOL     OW 1252   1.756   0.857   2.230
  118SOL    HW1 1253   1.712   0.782   2.180
  118SOL    HW2 1254   1.783   0.826   2.321
  119SOL     OW 1255   0.303   0.515   6.886
  119SOL    HW1 1256   0.388   0.463   6.887
  119SOL    HW2 1257   0.319   0.606   6.849
  120SOL     OW 1258   5.205   1.872   5.937
  120SOL    HW1 1259   5.176   1.777   5.946
  120SOL    HW2 1260   5.128   1.927   5.907
  121SOL     OW 1261   2.094   3.097   0.207
  121SOL    HW1 1262   2.121   3.147   0.289
  121SOL    HW2 1263   2.176   3.064   0.160
  122SOL     OW 1264   1.431   3.684   0.180
  122SOL    HW1 1265   1.341   3.690   0.223
  122SOL    HW2 1266   1.502   3.704   0.248
  123SOL     OW 1267   0.905   1.619   3.083
  123SOL    HW1 1268   0.994   1.600   3.041
  123SOL    HW2 1269   0.918   1.646   3.178
  124SOL     OW 1270   3.781   2.520   0.715
  124SOL    HW1 1271   3.706   2.485   0.659
  124SOL    HW2 1272   3.750   2.530   0.809
  125SOL     OW 1273   4.248   2.209   0.506
  125SOL    HW1 1274   4.248   2.286   0.442
  125SOL    HW2 1275   4.175   2.221   0.572
  126SOL     OW 1276   3.536   3.861   1.555
  126SOL    HW1 1277   3.621   3.910   1.577
  126SOL    HW2 1278   3.471   3.925   1.515
  127SOL     OW 1279   0.987   5.230   6.415
  127SOL    HW1 1280   0.983   5.162   6.342
  127SOL    HW2 1281   0.894   5.258   6.439
  128SOL     OW 1282   4.661   3.151   1.183
  128SOL    HW1 1283   4.637   3.235   1.133
  128SOL    HW2 1284   4.606   3.145   1.266
  129SOL     OW 1285   3.335   3.825   6.662
  129SOL    HW1 1286   3.325   3.862   6.754
  129SOL    HW2 1287   3.340   3.725   6.667
  130SOL     OW 1288   1.431   1.341   4.106
  130SOL    HW1 1289   1.358   1.319   4.040
  130SOL    HW2 1290   1.401   1.416   4.165
  131SOL     OW 1291   4.659   0.628   3.186
  131SOL    HW1 1292   4.667   0.534   3.152
  131SOL    HW2 1293   4.562   0.649   3.201
  132SOL     OW 1294   3.034   2.685   1.743
  132SOL    HW1 1295   3.020   2.761   1.807
  132SOL    HW2 1296   3.029   2.598   1.792
  133SOL     OW 1297   5.501   0.806   4.533
  133SOL    HW1 1298   5.515   0.810   4.632
  133SOL    HW2 1299   5.463   0.893   4.502
  134SOL     OW 1300   6.996   1.021   2.586
  134SOL    HW1 1301   0.068   1.055   2.604
  134SOL    HW2 1302   6.998   0.960   2.507
  135SOL     OW 1303   5.210   3.837   3.812
  135SOL    HW1 1304   5.117   3.804   3.801
  135SOL    HW2 1305   5.273   3.771   3.771
  136SOL     OW 1306   1.687   5.221   5.459
  136SOL    HW1 1307   1.681   5.244   5.556
  136SOL    HW2 1308   1.681   5.305   5.405
  137SOL     OW 1309   4.742   1.930   3.019
  137SOL    HW1 1310   4.699   1.992   2.953
  137SOL    HW2 1311   4.672   1.879   3.068
  138SOL     OW 1312   1.393   3.507   2.860
  138SOL    HW1 1313   1.358   3.479   2.770
  138SOL    HW2 1314   1.358   3.445   2.930
  139SOL     OW 1315   1.725   6.740   5.468
  139SOL    HW1 1316   1.738   6.666   5.402
  139SOL    HW2 1317   1.670   6.708   5.545
  140SOL     OW 1318   1.746   0.108   4.007
  140SOL    HW1 1319   1.813   0.169   4.049
  140SOL    HW2 1320   1.720   0.144   3.917
  141SOL     OW 1321   0.413   2.675   4.843
  141SOL    HW1 1322   0.325   2.674   4.890
  141SOL    HW2 1323   0.438   2.582   4.816
  142SOL     OW 1324   1.921   4.058   2.229
  142SOL    HW1 1325   1.852   4.037   2.160
  142SOL    HW2 1326   1.981   3.979   2.241
  143SOL     OW 1327   5.639   4.747   0.469
  143SOL    HW1 1328   5.707   4.770   0.399
  143SOL    HW2 1329   5.686   4.716   0.552
  144SOL     OW 1330   1.639   4.734   5.903
  144SOL    HW1 1331   1.656   4.779   5.816
  144SOL    HW2 1332   1.621   4.637   5.888
  145SOL     OW 1333   1.735   4.458   1.713
  145SOL    HW1 1334   1.696   4.550   1.714
  145SOL    HW2 1335   1.705   4.408   1.794
  146SOL     OW 1336   5.250   0.053   6.139
  146SOL    HW1 1337   5.261   0.027   6.235
  146SOL    HW2 1338   5.318   0.006   6.084
  147SOL     OW 1339   5.415   2.380   6.223
  147SOL    HW1 1340   5.514   2.371   6.229
  147SOL    HW2 1341   5.389   2.474   6.245
  148SOL     OW 1342   6.827   4.946   0.752
  148SOL    HW1 1343   6.922   4.931   0.724
  148SOL    HW2 1344   6.778   4.994   0.680
  149SOL     OW 1345   3.717   2.083   4.593
  149SOL    HW1 1346   3.654   2.064   4.518
  149SOL    HW2 1347   3.801   2.124   4.558
  150SOL     OW 1348   5.584   6.491   6.820
  150SOL    HW1 1349   5.666   6.509   6.876
  150SOL    HW2 1350   5.612   6.459   6.730
  151SOL     OW 1351   3.194   0.870   1.293
  151SOL    HW1 1352   3.146   0.874   1.206
  151SOL    HW2 1353   3.213   0.774   1.316
  152SOL     OW 1354   7.020   1.044   0.945
  152SOL    HW1 1355   0.090   1.084   0.957
  152SOL    HW2 1356   6.977   1.031   1.035
  153SOL     OW 1357   2.705   0.127   3.733
  153SOL    HW1 1358   2.690   0.064   3.657
  153SOL    HW2 1359   2.799   0.162   3.728
  154SOL     OW 1360   1.065   3.311   0.876
  154SOL    HW1 1361   1.144   3.371   0.888
  154SOL    HW2 1362   1.012   3.343   0.797
  155SOL     OW 1363   0.958   1.330   4.929
  155SOL    HW1 1364   0.905   1.393   4.871
  155SOL    HW2 1365   0.921   1.238   4.920
  156SOL     OW 1366   6.989   0.498   0.603
  156SOL    HW1 1367   0.001   0.423   0.545
  156SOL    HW2 1368   6.899   0.529   0.572
  157SOL     OW 1369   5.977   3.702   0.919
  157SOL    HW1 1370   5.930   3.744   0.842
  157SOL    HW2 1371   5.944   3.741   1.004
  158SOL     OW 1372   0.945   3.100   1.852
  158SOL    HW1 1373   1.000   3.148   1.921
  158SOL    HW2 1374   0.885   3.035   1.897
  159SOL     OW 1375   4.728   5.401   1.907
  159SOL    HW1 1376   4.643   5.453   1.914
  159SOL    HW2 1377   4.773   5.422   1.820
  160SOL     OW 1378   5.792   6.467   0.687
  160SOL    HW1 1379   5.735   6.393   0.651
  160SOL    HW2 1380   5.734   6.541   0.721
  161SOL     OW 1381   1.340   6.655   3.576
  161SOL    HW1 1382   1.379   6.747   3.574
  161SOL    HW2 1383   1.323   6.624   3.482
  162SOL     OW 1384   3.612   6.186   0.183
  162SOL    HW1 1385   3.582   6.133   0.262
  162SOL    HW2 1386   3.627   6.124   0.105
  163SOL     OW 1387   6.589   5.984   2.570
  163SOL    HW1 1388   6.659   6.040   2.615
  163SOL    HW2 1389   6.501   5.996   2.617
  164SOL     OW 1390   0.746   4.188   3.292
  164SOL    HW1 1391   0.705   4.101   3.322
  164SOL    HW2 1392   0.845   4.176   3.282
  165SOL     OW 1393   4.511   4.111   0.715
  165SOL    HW1 1394   4.430   4.131   0.659
  165SOL    HW2 1395   4.583   4.072   0.656
  166SOL     OW 1396   0.944   2.874   2.099
  166SOL    HW1 1397   0.956   2.937   2.176
  166SOL    HW2 1398   1.005   2.901   2.025
  167SOL     OW 1399   5.506   2.492   0.127
  167SOL    HW1 1400   5.452   2.467   0.207
  167SOL    HW2 1401   5.603   2.478   0.147
  168SOL     OW 1402   3.684   2.234   0.411
  168SOL    HW1 1403   3.615   2.193   0.351
  168SOL    HW2 1404   3.657   2.222   0.507
  169SOL     OW 1405   6.369   2.093   1.460
  169SOL    HW1 1406   6.328   2.073   1.371
  169SOL    HW2 1407   6.469   2.094   1.451
  170SOL     OW 1408   6.799   6.772   2.292
  170SOL    HW1 1409   6.883   6.825   2.280
  170SOL    HW2 1410   6.768   6.779   2.387
  171SOL     OW 1411   2.838   4.256   0.004
  171SOL    HW1 1412   2.789   4.239   6.939
  171SOL    HW2 1413   2.915   4.317   7.006
  172SOL     OW 1414   6.062   1.455   2.974
  172SOL    HW1 1415   6.095   1.471   3.067
  172SOL    HW2 1416   6.006   1.372   2.972
  173SOL     OW 1417   6.120   1.312   3.454
  173SOL    HW1 1418   6.165   1.222   3.458
  173SOL    HW2 1419   6.027   1.301   3.418
  174SOL     OW 1420   4.223   5.578   3.974
  174SOL    HW1 1421   4.217   5.590   3.875
  174SOL    HW2 1422   4.132   5.581   4.015
  175SOL     OW 1423   3.219   0.099   1.760
  175SOL    HW1 1424   3.170   0.035   1.700
  175SOL    HW2 1425   3.153   0.146   1.818
  176SOL     OW 1426   6.878   4.596   1.905
  176SOL    HW1 1427   6.955   4.602   1.969
  176SOL    HW2 1428   6.858   4.687   1.868
  177SOL     OW 1429   5.358   3.675   4.284
  177SOL    HW1 1430   5.282   3.675   4.220
  177SOL    HW2 1431   5.328   3.638   4.372
  178SOL     OW 1432   2.952   4.090   5.679
  178SOL    HW1 1433   2.884   4.115   5.610
  178SOL    HW2 1434   2.908   4.085   5.768
  179SOL     OW 1435   4.103   1.403   5.712
  179SOL    HW1 1436   4.062   1.323   5.755
  179SOL    HW2 1437   4.039   1.441   5.646
  180SOL     OW 1438   1.766   6.833   1.049
  180SOL    HW1 1439   1.804   6.763   0.988
  180SOL    HW2 1440   1.839   6.871   1.105
  181SOL     OW 1441   3.480   3.475   6.184
  181SOL    HW1 1442   3.561   3.444   6.233
  181SOL    HW2 1443   3.421   3.526   6.246
  182SOL     OW 1444   4.023   2.067   6.078
  182SOL    HW1 1445   4.004   2.097   5.985
  182SOL    HW2 1446   4.103   2.115   6.113
  183SOL     OW 1447   3.151   1.818   3.710
  183SOL    HW1 1448   3.208   1.888   3.668
  183SOL    HW2 1449   3.133   1.842   3.805
  184SOL     OW 1450   0.725   6.192   3.839
  184SOL    HW1 1451   0.633   6.206   3.878
  184SOL    HW2 1452   0.735   6.246   3.756
  185SOL     OW 1453   1.417   1.142   4.707
  185SOL    HW1 1454   1.424   1.241   4.697
  185SOL    HW2 1455   1.458   1.097   4.628
  186SOL     OW 1456   6.236   1.538   4.157
  186SOL    HW1 1457   6.309   1.505   4.217
  186SOL    HW2 1458   6.267   1.534   4.062
  187SOL     OW 1459   4.889   6.354   2.794
  187SOL    HW1 1460   4.966   6.292   2.804
  187SOL    HW2 1461   4.810   6.303   2.759
  188SOL     OW 1462   1.392   3.168   3.211
  188SOL    HW1 1463   1.343   3.228   3.147
  188SOL    HW2 1464   1.333   3.090   3.234
  189SOL     OW 1465   1.997   5.763   0.244
  189SOL    HW1 1466   2.020   5.721   0.156
  189SOL    HW2 1467   1.958   5.693   0.305
  190SOL     OW 1468   6.229   3.951   5.634
  190SOL    HW1 1469   6.225   4.046   5.604
  190SOL    HW2 1470   6.140   3.907   5.621
  191SOL     OW 1471   6.007   0.376   7.006
  191SOL    HW1 1472   6.103   0.372   6.979
  191SOL    HW2 1473   6.000   0.395   0.083
  192SOL     OW 1474   0.708   5.419   1.847
  192SOL    HW1 1475   0.747   5.430   1.939
  192SOL    HW2 1476   0.610   5.399   1.855
  193SOL     OW 1477   4.559   3.756   5.323
  193SOL    HW1 1478   4.498   3.710   5.387
  193SOL    HW2 1479   4.591   3.691   5.253
  194SOL     OW 1480   4.407   6.740   3.338
  194SOL    HW1 1481   4.309   6.724   3.322
  194SOL    HW2 1482   4.453   6.653   3.354
  195SOL     OW 1483   1.437   0.595   4.251
  195SOL    HW1 1484   1.422   0.508   4.300
  195SOL    HW2 1485   1.487   0.658   4.311
  196SOL     OW 1486   2.600   0.112   0.099
  196SOL    HW1 1487   2.577   0.179   0.170
  196SOL    HW2 1488   2.529   0.042   0.095
  197SOL     OW 1489   2.541   0.283   1.365
  197SOL    HW1 1490   2.557   0.229   1.282
  197SOL    HW2 1491   2.449   0.264   1.399
  198SOL     OW 1492   5.019   6.994   1.895
  198SOL    HW1 1493   5.053   6.949   1.813
  198SOL    HW2 1494   5.065   0.062   1.906
  199SOL     OW 1495   6.138   1.548   3.608
  199SOL    HW1 1496   6.068   1.619   3.596
  199SOL    HW2 1497   6.117   1.470   3.549
  200SOL     OW 1498   1.174   4.255   1.918
  200SOL    HW1 1499   1.176   4.296   2.009
  200SOL    HW2 1500   1.243   4.183   1.912
  201SOL     OW 1501   6.380   0.257   6.070
  201SOL    HW1 1502   6.306   0.189   6.074
  201SOL    HW2 1503   6.350   0.335   6.015
  202SOL     OW 1504   5.282   0.582   5.689
  202SOL    HW1 1505   5.190   0.620   5.693
  202SOL    HW2 1506   5.348   0.653   5.714
  203SOL     OW 1507   4.380   2.414   4.144
  203SOL    HW1 1508   4.474   2.399   4.177
  203SOL    HW2 1509   4.332   2.474   4.208
  204SOL     OW 1510   6.962   0.691   6.032
  204SOL    HW1 1511   6.994   0.714   5.940
  204SOL    HW2 1512   6.865   0.716   6.041
  205SOL     OW 1513   0.622   0.784   3.359
  205SOL    HW1 1514   0.607   0.827   3.448
  205SOL    HW2 1515   0.609   0.851   3.286
  206SOL     OW 1516   0.487   5.331   2.007
  206SOL    HW1 1517   0.438   5.327   2.094
  206SOL    HW2 1518   0.449   5.262   1.945
  207SOL     OW 1519   4.892   0.772   4.073
  207SOL    HW1 1520   4.797   0.804   4.072
  207SOL    HW2 1521   4.953   0.851   4.066
  208SOL     OW 1522   5.433   3.262   5.354
  208SOL    HW1 1523   5.524   3.228   5.374
  208SOL    HW2 1524   5.407   3.330   5.422
  209SOL     OW 1525   0.710   4.982   4.604
  209SOL    HW1 1526   0.665   4.892   4.613
  209SOL    HW2 1527   0.737   5.014   4.695
  210SOL     OW 1528   4.307   2.378   1.092
  210SOL    HW1 1529   4.269   2.397   1.002
  210SOL    HW2 1530   4.404   2.355   1.083
  211SOL     OW 1531   2.253   6.074   3.574
  211SOL    HW1 1532   2.265   6.161   3.621
  211SOL    HW2 1533   2.179   6.022   3.617
  212SOL     OW 1534   1.993   4.450   1.413
  212SOL    HW1 1535   1.922   4.391   1.450
  212SOL    HW2 1536   1.956   4.507   1.340
  213SOL     OW 1537   3.275   0.825   5.930
  213SOL    HW1 1538   3.297   0.747   5.871
  213SOL    HW2 1539   3.262   0.793   6.024
  214SOL     OW 1540   4.519   5.536   1.830
  214SOL    HW1 1541   4.517   5.632   1.860
  214SOL    HW2 1542   4.425   5.504   1.815
  215SOL     OW 1543   2.085   3.759   0.891
  215SOL    HW1 1544   2.177   3.726   0.909
  215SOL    HW2 1545   2.081   3.797   0.798
  216SOL     OW 1546   2.062   5.872   4.446
  216SOL    HW1 1547   2.142   5.923   4.478
  216SOL    HW2 1548   2.081   5.774   4.450
  217SOL     OW 1549   2.102   2.767   3.629
  217SOL    HW1 1550   2.141   2.838   3.572
  217SOL    HW2 1551   2.112   2.678   3.583
  218SOL     OW 1552   1.121   2.621   4.682
  218SOL    HW1 1553   1.028   2.657   4.683
  218SOL    HW2 1554   1.173   2.658   4.759
  219SOL     OW 1555   4.162   6.388   6.428
  219SOL    HW1 1556   4.079   6.432   6.463
  219SOL    HW2 1557   4.234   6.394   6.497
  220SOL     OW 1558   3.546   6.575   0.636
  220SOL    HW1 1559   3.584   6.655   0.589
  220SOL    HW2 1560   3.446   6.581   0.636
  221SOL     OW 1561   6.487   3.486   2.658
  221SOL    HW1 1562   6.531   3.400   2.684
  221SOL    HW2 1563   6.540   3.530   2.586
  222SOL     OW 1564   2.881   4.810   5.779
  222SOL    HW1 1565   2.847   4.867   5.854
  222SOL    HW2 1566   2.855   4.851   5.691
  223SOL     OW 1567   5.738   3.517   0.894
  223SOL    HW1 1568   5.690   3.430   0.905
  223SOL    HW2 1569   5.832   3.508   0.928
  224SOL     OW 1570   2.383   2.083   4.130
  224SOL    HW1 1571   2.368   2.164   4.074
  224SOL    HW2 1572   2.353   2.002   4.080
  225SOL     OW 1573   5.636   2.240   6.113
  225SOL    HW1 1574   5.544   2.225   6.149
  225SOL    HW2 1575   5.630   2.297   6.030
  226SOL     OW 1576   1.755   0.412   6.304
  226SOL    HW1 1577   1.682   0.360   6.349
  226SOL    HW2 1578   1.812   0.456   6.373
  227SOL     OW 1579   1.898   3.513   2.937
  227SOL    HW1 1580   1.985   3.554   2.911
  227SOL    HW2 1581   1.837   3.584   2.973
  228SOL     OW 1582   3.460   6.317   3.525
  228SOL    HW1 1583   3.544   6.308   3.471
  228SOL    HW2 1584   3.483   6.334   3.620
  229SOL     OW 1585   4.663   6.070   6.585
  229SOL    HW1 1586   4.625   5.989   6.541
  229SOL    HW2 1587   4.718   6.042   6.664
  230SOL     OW 1588   3.053   4.797   2.771
  230SOL    HW1 1589   2.988   4.802   2.846
  230SOL    HW2 1590   3.010   4.754   2.692
  231SOL     OW 1591   6.334   1.915   6.240
  231SOL    HW1 1592   6.290   1.885   6.324
  231SOL    HW2 1593   6.413   1.856   6.221
  232SOL     OW 1594   1.410   4.110   5.980
  232SOL    HW1 1595   1.373   4.144   5.893
  232SOL    HW2 1596   1.503   4.143   5.992
  233SOL     OW 1597   2.076   2.317   4.125
  233SOL    HW1 1598   2.060   2.415   4.120
  233SOL    HW2 1599   2.140   2.289   4.054
  234SOL     OW 1600   4.364   6.358   5.190
  234SOL    HW1 1601   4.408   6.376   5.278
  234SOL    HW2 1602   4.271   6.324   5.205
  235SOL     OW 1603   3.595   2.918   1.836
  235SOL    HW1 1604   3.617   3.007   1.876
  235SOL    HW2 1605   3.675   2.884   1.787
  236SOL     OW 1606   5.495   3.044   6.776
  236SOL    HW1 1607   5.567   3.007   6.717
  236SOL    HW2 1608   5.525   3.132   6.813
  237SOL     OW 1609   6.295   5.458   2.053
  237SOL    HW1 1610   6.371   5.490   1.997
  237SOL    HW2 1611   6.223   5.420   1.995
  238SOL     OW 1612   5.805   2.110   0.299
  238SOL    HW1 1613   5.894   2.069   0.318
  238SOL    HW2 1614   5.734   2.058   0.347
  239SOL     OW 1615   0.257   5.503   6.084
  239SOL    HW1 1616   0.206   5.421   6.110
  239SOL    HW2 1617   0.193   5.575   6.056
  240SOL     OW 1618   0.679   2.396   5.083
  240SOL    HW1 1619   0.666   2.374   4.986
  240SOL    HW2 1620   0.616   2.469   5.109
  241SOL     OW 1621   1.850   6.975   4.992
  241SOL    HW1 1622   1.820   6.886   5.024
  241SOL    HW2 1623   1.863   6.972   4.893
  242SOL     OW 1624   2.740   3.301   5.818
  242SOL    HW1 1625   2.797   3.383   5.818
  242SOL    HW2 1626   2.665   3.313   5.882
  243SOL     OW 1627   5.196   0.790   5.901
  243SOL    HW1 1628   5.206   0.776   6.000
  243SOL    HW2 1629   5.286   0.789   5.858
  244SOL     OW 1630   5.264   2.632   4.832
  244SOL    HW1 1631   5.242   2.539   4.804
  244SOL    HW2 1632   5.336   2.631   4.901
  245SOL     OW 1633   6.887   3.320   5.494
  245SOL    HW1 1634   6.789   3.334   5.504
  245SOL    HW2 1635   6.921   3.371   5.414
  246SOL     OW 1636   5.061   2.944   3.338
  246SOL    HW1 1637   5.033   2.955   3.433
  246SOL    HW2 1638   5.154   2.908   3.334
  247SOL     OW 1639   2.959   0.788   1.807
  247SOL    HW1 1640   2.940   0.863   1.744
  247SOL    HW2 1641   2.938   0.817   1.901
  248SOL     OW 1642   3.814   2.051   3.304
  248SOL    HW1 1643   3.830   1.955   3.325
  248SOL    HW2 1644   3.761   2.058   3.220
  249SOL     OW 1645   4.717   0.273   6.035
  249SOL    HW1 1646   4.763   0.262   5.947
  249SOL    HW2 1647   4.624   0.235   6.029
  250SOL     OW 1648   5.686   2.575   1.249
  250SOL    HW1 1649   5.757   2.641   1.273
  250SOL    HW2 1650   5.717   2.482   1.271
  251SOL     OW 1651   4.659   4.228   5.881
  251SOL    HW1 1652   4.599   4.189   5.811
  251SOL    HW2 1653   4.667   4.327   5.866
  252SOL     OW 1654   6.192   0.272   6.378
  252SOL    HW1 1655   6.228   0.365   6.368
  252SOL    HW2 1656   6.092   0.276   6.379
  253SOL     OW 1657   1.885   4.503   6.834
  253SOL    HW1 1658   1.960   4.566   6.815
  253SOL    HW2 1659   1.912   4.410   6.810
  254SOL     OW 1660   5.616   3.249   2.938
  254SOL    HW1 1661   5.693   3.313   2.934
  254SOL    HW2 1662   5.650   3.155   2.924
  255SOL     OW 1663   1.884   3.165   4.145
  255SOL    HW1 1664   1.838   3.210   4.222
  255SOL    HW2 1665   1.843   3.074   4.132
  256SOL     OW 1666   6.126   4.658   6.745
  256SOL    HW1 1667   6.181   4.668   6.662
  256SOL    HW2 1668   6.153   4.575   6.794
  257SOL     OW 1669   4.616   0.017   4.234
  257SOL    HW1 1670   4.545   6.969   4.249
  257SOL    HW2 1671   4.573   0.107   4.226
  258SOL     OW 1672   0.178   4.788   4.872
  258SOL    HW1 1673   0.207   4.760   4.964
  258SOL    HW2 1674   0.089   4.833   4.878
  259SOL     OW 1675   1.462   2.090   2.319
  259SOL    HW1 1676   1.400   2.131   2.252
  259SOL    HW2 1677   1.543   2.148   2.330
  260SOL     OW 1678   4.181   0.833   0.751
  260SOL    HW1 1679   4.227   0.745   0.762
  260SOL    HW2 1680   4.133   0.857   0.836
  261SOL     OW 1681   6.960   3.721   0.873
  261SOL    HW1 1682   6.895   3.780   0.826
  261SOL    HW2 1683   0.032   3.744   0.845
  262SOL     OW 1684   0.449   4.005   0.860
  262SOL    HW1 1685   0.396   3.928   0.895
  262SOL    HW2 1686   0.387   4.074   0.823
  263SOL     OW 1687   0.728   1.340   3.855
  263SOL    HW1 1688   0.643   1.356   3.804
  263SOL    HW2 1689   0.712   1.267   3.922
  264SOL     OW 1690   4.988   3.351   6.042
  264SOL    HW1 1691   5.031   3.291   5.974
  264SOL    HW2 1692   4.990   3.308   6.131
  265SOL     OW 1693   4.886   4.873   3.200
  265SOL    HW1 1694   4.793   4.909   3.203
  265SOL    HW2 1695   4.904   4.836   3.109
  266SOL     OW 1696   3.922   3.710   5.628
  266SOL    HW1 1697   3.844   3.667   5.581
  266SOL    HW2 1698   3.996   3.644   5.636
  267SOL     OW 1699   6.146   2.295   5.848
  267SOL    HW1 1700   6.112   2.206   5.819
  267SOL    HW2 1701   6.246   2.295   5.848
  268SOL     OW 1702   4.359   0.117   4.900
  268SOL    HW1 1703   4.331   0.069   4.982
  268SOL    HW2 1704   4.452   0.151   4.911
  269SOL     OW 1705   1.660   3.564   1.127
  269SOL    HW1 1706   1.706   3.525   1.047
  269SOL    HW2 1707   1.564   3.534   1.128
  270SOL     OW 1708   6.675   0.280   1.055
  270SOL    HW1 1709   6.587   0.323   1.073
  270SOL    HW2 1710   6.749   0.345   1.075
  271SOL     OW 1711   3.153   1.521   0.670
  271SOL    HW1 1712   3.118   1.607   0.707
  271SOL    HW2 1713   3.099   1.495   0.590
  272SOL     OW 1714   3.411   5.375   4.240
  272SOL    HW1 1715   3.482   5.428   4.194
  272SOL    HW2 1716   3.425   5.379   4.339
  273SOL     OW 1717   2.341   4.875   5.081
  273SOL    HW1 1718   2.423   4.877   5.139
  273SOL    HW2 1719   2.342   4.791   5.026
  274SOL     OW 1720   4.706   2.791   4.019
  274SOL    HW1 1721   4.665   2.739   4.094
  274SOL    HW2 1722   4.760   2.729   3.961
  275SOL     OW 1723   6.097   5.553   5.764
  275SOL    HW1 1724   6.195   5.560   5.746
  275SOL    HW2 1725   6.046   5.577   5.682
  276SOL     OW 1726   0.407   5.250   3.243
  276SOL    HW1 1727   0.421   5.318   3.171
  276SOL    HW2 1728   0.434   5.159   3.210
  277SOL     OW 1729   2.353   3.080   0.882
  277SOL    HW1 1730   2.345   3.069   0.783
  277SOL    HW2 1731   2.286   3.147   0.914
  278SOL     OW 1732   0.324   5.436   1.743
  278SOL    HW1 1733   0.340   5.524   1.789
  278SOL    HW2 1734   0.348   5.445   1.647
  279SOL     OW 1735   0.324   3.225   4.255
  279SOL    HW1 1736   0.419   3.256   4.256
  279SOL    HW2 1737   0.268   3.286   4.199
  280SOL     OW 1738   1.858   6.741   2.868
  280SOL    HW1 1739   1.808   6.656   2.886
  280SOL    HW2 1740   1.950   6.734   2.906
  281SOL     OW 1741   3.597   4.873   2.229
  281SOL    HW1 1742   3.515   4.867   2.285
  281SOL    HW2 1743   3.580   4.833   2.139
  282SOL     OW 1744   4.130   2.149   5.554
  282SOL    HW1 1745   4.089   2.109   5.472
  282SOL    HW2 1746   4.119   2.249   5.551
  283SOL     OW 1747   6.722   1.473   6.263
  283SOL    HW1 1748   6.721   1.490   6.362
  283SOL    HW2 1749   6.732   1.375   6.246
  284SOL     OW 1750   0.472   4.308   4.966
  284SOL    HW1 1751   0.458   4.251   4.885
  284SOL    HW2 1752   0.396   4.296   5.029
  285SOL     OW 1753   5.177   5.281   6.315
  285SOL    HW1 1754   5.259   5.303   6.261
  285SOL    HW2 1755   5.203   5.222   6.391
  286SOL     OW 1756   3.181   4.752   5.641
  286SOL    HW1 1757   3.172   4.670   5.585
  286SOL    HW2 1758   3.180   4.833   5.581
  287SOL     OW 1759   0.419   4.770   6.752
  287SOL    HW1 1760   0.500   4.734   6.797
  287SOL    HW2 1761   0.411   4.729   6.661
  288SOL     OW 1762   4.259   2.408   0.277
  288SOL    HW1 1763   4.222   2.462   0.353
  288SOL    HW2 1764   4.231   2.448   0.190
  289SOL     OW 1765   0.252   5.227   5.457
  289SOL    HW1 1766   0.235   5.185   5.547
  289SOL    HW2 1767   0.254   5.326   5.466
  290SOL     OW 1768   4.600   1.496   3.734
  290SOL    HW1 1769   4.567   1.402   3.722
  290SOL    HW2 1770   4.560   1.535   3.817
  291SOL     OW 1771   2.871   1.236   5.202
  291SOL    HW1 1772   2.826   1.263   5.287
  291SOL    HW2 1773   2.959   1.283   5.194
  292SOL     OW 1774   3.294   1.679   2.773
  292SOL    HW1 1775   3.318   1.702   2.867
  292SOL    HW2 1776   3.237   1.751   2.734
  293SOL     OW 1777   4.881   5.212   2.053
  293SOL    HW1 1778   4.827   5.277   2.001
  293SOL    HW2 1779   4.974   5.247   2.064
  294SOL     OW 1780   6.909   5.703   6.215
  294SOL    HW1 1781   6.815   5.719   6.186
  294SOL    HW2 1782   6.915   5.706   6.315
  295SOL     OW 1783   3.328   1.209   5.177
  295SOL    HW1 1784   3.402   1.261   5.133
  295SOL    HW2 1785   3.240   1.250   5.152
  296SOL     OW 1786   5.886   1.605   2.181
  296SOL    HW1 1787   5.901   1.525   2.239
  296SOL    HW2 1788   5.908   1.688   2.231
  297SOL     OW 1789   2.691   4.778   2.687
  297SOL    HW1 1790   2.757   4.759   2.615
  297SOL    HW2 1791   2.734   4.768   2.776
  298SOL     OW 1792   3.376   6.297   0.699
  298SOL    HW1 1793   3.467   6.294   0.657
  298SOL    HW2 1794   3.341   6.390   0.698
  299SOL     OW 1795   4.337   2.930   6.956
  299SOL    HW1 1796   4.365   3.005   6.897
  299SOL    HW2 1797   4.238   2.919   6.952
  300SOL     OW 1798   4.983   0.823   1.432
  300SOL    HW1 1799   4.993   0.725   1.447
  300SOL    HW2 1800   4.885   0.846   1.430
  301SOL     OW 1801   5.715   2.921   0.913
  301SOL    HW1 1802   5.774   3.002   0.911
  301SOL    HW2 1803   5.750   2.856   0.981
  302SOL     OW 1804   0.185   0.890   3.805
  302SOL    HW1 1805   0.259   0.944   3.845
  302SOL    HW2 1806   0.222   0.806   3.764
  303SOL     OW 1807   6.840   6.614   2.060
  303SOL    HW1 1808   6.832   6.679   2.136
  303SOL    HW2 1809   6.903   6.540   2.085
  304SOL     OW 1810   1.997   6.724   5.660
  304SOL    HW1 1811   1.972   6.819   5.644
  304SOL    HW2 1812   2.067   6.696   5.594
  305SOL     OW 1813   1.433   2.768   0.546
  305SOL    HW1 1814   1.522   2.811   0.532
  305SOL    HW2 1815   1.416   2.758   0.644
  306SOL     OW 1816   1.634   0.752   3.624
  306SOL    HW1 1817   1.719   0.702   3.638
  306SOL    HW2 1818   1.653   0.840   3.580
  307SOL     OW 1819   5.163   5.433   0.299
  307SOL    HW1 1820   5.200   5.360   0.356
  307SOL    HW2 1821   5.109   5.496   0.355
  308SOL     OW 1822   5.345   3.296   4.440
  308SOL    HW1 1823   5.346   3.368   4.510
  308SOL    HW2 1824   5.289   3.325   4.363
  309SOL     OW 1825   2.149   5.667   0.045
  309SOL    HW1 1826   2.225   5.684   0.108
  309SOL    HW2 1827   2.185   5.655   6.973
  310SOL     OW 1828   5.294   6.606   5.624
  310SOL    HW1 1829   5.282   6.704   5.643
  310SOL    HW2 1830   5.245   6.552   5.693
  311SOL     OW 1831   4.122   5.099   2.470
  311SOL    HW1 1832   4.063   5.021   2.448
  311SOL    HW2 1833   4.196   5.105   2.403
  312SOL     OW 1834   4.054   0.980   4.359
  312SOL    HW1 1835   4.025   0.996   4.265
  312SOL    HW2 1836   4.002   0.904   4.398
  313SOL     OW 1837   2.953   3.774   2.327
  313SOL    HW1 1838   2.999   3.719   2.397
  313SOL    HW2 1839   2.862   3.800   2.361
  314SOL     OW 1840   2.580   4.715   6.452
  314SOL    HW1 1841   2.666   4.745   6.494
  314SOL    HW2 1842   2.503   4.756   6.502
  315SOL     OW 1843   1.143   2.989   3.914
  315SOL    HW1 1844   1.081   2.912   3.899
  315SOL    HW2 1845   1.237   2.955   3.922
  316SOL     OW 1846   2.839   1.223   4.474
  316SOL    HW1 1847   2.783   1.262   4.401
  316SOL    HW2 1848   2.926   1.192   4.436
  317SOL     OW 1849   6.978   1.329   0.972
  317SOL    HW1 1850   0.028   1.391   1.008
  317SOL    HW2 1851   0.000   1.246   0.938
  318SOL     OW 1852   0.655   5.605   6.617
  318SOL    HW1 1853   0.560   5.573   6.623
  318SOL    HW2 1854   0.685   5.598   6.522
  319SOL     OW 1855   6.213   1.417   3.179
  319SOL    HW1 1856   6.202   1.398   3.276
  319SOL    HW2 1857   6.291   1.478   3.165
  320SOL     OW 1858   6.616   2.313   1.150
  320SOL    HW1 1859   6.537   2.319   1.212
  320SOL    HW2 1860   6.608   2.230   1.095
  321SOL     OW 1861   3.709   1.385   0.287
  321SOL    HW1 1862   3.716   1.485   0.287
  321SOL    HW2 1863   3.624   1.358   0.332
  322SOL     OW 1864   3.281   2.965   3.823
  322SOL    HW1 1865   3.240   3.038   3.878
  322SOL    HW2 1866   3.240   2.966   3.732
  323SOL     OW 1867   1.350   3.183   6.485
  323SOL    HW1 1868   1.326   3.133   6.401
  323SOL    HW2 1869   1.276   3.174   6.551
  324SOL     OW 1870   2.739   0.800   4.422
  324SOL    HW1 1871   2.721   0.885   4.372
  324SOL    HW2 1872   2.652   0.758   4.448
  325SOL     OW 1873   0.225   2.731   1.710
  325SOL    HW1 1874   0.266   2.711   1.621
  325SOL    HW2 1875   0.149   2.667   1.727
  326SOL     OW 1876   1.199   5.088   6.516
  326SOL    HW1 1877   1.126   5.132   6.464
  326SOL    HW2 1878   1.287   5.131   6.492
  327SOL     OW 1879   1.376   4.454   3.175
  327SOL    HW1 1880   1.315   4.512   3.121
  327SOL    HW2 1881   1.362   4.358   3.148
  328SOL     OW 1882   1.355   5.498   1.351
  328SOL    HW1 1883   1.388   5.582   1.394
  328SOL    HW2 1884   1.311   5.440   1.419
  329SOL     OW 1885   3.875   3.015   4.255
  329SOL    HW1 1886   3.917   3.081   4.193
  329SOL    HW2 1887   3.859   3.057   4.344
  330SOL     OW 1888   3.652   6.505   1.437
  330SOL    HW1 1889   3.624   6.424   1.490
  330SOL    HW2 1890   3.628   6.588   1.489
  331SOL     OW 1891   3.574   5.685   0.475
  331SOL    HW1 1892   3.490   5.727   0.508
  331SOL    HW2 1893   3.556   5.589   0.452
  332SOL     OW 1894   4.626   2.047   4.949
  332SOL    HW1 1895   4.714   2.054   4.904
  332SOL    HW2 1896   4.553   2.067   4.884
  333SOL     OW 1897   3.453   0.387   6.276
  333SOL    HW1 1898   3.384   0.423   6.338
  333SOL    HW2 1899   3.470   0.290   6.297
  334SOL     OW 1900   3.523   0.760   1.269
  334SOL    HW1 1901   3.490   0.777   1.362
  334SOL    HW2 1902   3.485   0.674   1.235
  335SOL     OW 1903   4.531   0.043   5.457
  335SOL    HW1 1904   4.533   0.019   5.359
  335SOL    HW2 1905   4.618   0.016   5.499
  336SOL     OW 1906   2.071   1.126   3.570
  336SOL    HW1 1907   2.094   1.168   3.658
  336SOL    HW2 1908   2.111   1.035   3.566
  337SOL     OW 1909   0.586   2.917   0.093
  337SOL    HW1 1910   0.620   2.828   0.064
  337SOL    HW2 1911   0.488   2.912   0.112
  338SOL     OW 1912   3.231   2.684   1.561
  338SOL    HW1 1913   3.268   2.592   1.572
  338SOL    HW2 1914   3.165   2.702   1.634
  339SOL     OW 1915   4.001   5.869   4.014
  339SOL    HW1 1916   3.904   5.893   4.012
  339SOL    HW2 1917   4.026   5.840   4.107
  340SOL     OW 1918   4.805   4.284   5.119
  340SOL    HW1 1919   4.817   4.255   5.214
  340SOL    HW2 1920   4.794   4.204   5.061
  341SOL     OW 1921   6.984   0.484   4.608
  341SOL    HW1 1922   6.907   0.468   4.671
  341SOL    HW2 1923   0.013   0.399   4.595
  342SOL     OW 1924   6.092   3.812   6.738
  342SOL    HW1 1925   6.021   3.783   6.802
  342SOL    HW2 1926   6.164   3.742   6.734
  343SOL     OW 1927   1.578   5.744   0.759
  343SOL    HW1 1928   1.582   5.662   0.701
  343SOL    HW2 1929   1.484   5.778   0.761
  344SOL     OW 1930   1.416   3.437   2.159
  344SOL    HW1 1931   1.468   3.473   2.237
  344SOL    HW2 1932   1.475   3.435   2.078
  345SOL     OW 1933   4.036   1.790   3.134
  345SOL    HW1 1934   3.955   1.793   3.192
  345SOL    HW2 1935   4.017   1.736   3.052
  346SOL     OW 1936   2.092   0.679   2.661
  346SOL    HW1 1937   2.125   0.585   2.666
  346SOL    HW2 1938   1.996   0.682   2.687
  347SOL     OW 1939   2.848   5.563   6.562
  347SOL    HW1 1940   2.945   5.560   6.536
  347SOL    HW2 1941   2.822   5.657   6.584
  348SOL     OW 1942   5.417   4.560   2.419
  348SOL    HW1 1943   5.449   4.651   2.392
  348SOL    HW2 1944   5.495   4.504   2.447
  349SOL     OW 1945   6.571   5.292   0.999
  349SOL    HW1 1946   6.641   5.321   0.934
  349SOL    HW2 1947   6.572   5.354   1.078
  350SOL     OW 1948   3.287   3.214   0.457
  350SOL    HW1 1949   3.207   3.274   0.452
  350SOL    HW2 1950   3.300   3.185   0.552
  351SOL     OW 1951   2.324   3.072   1.489
  351SOL    HW1 1952   2.310   3.010   1.566
  351SOL    HW2 1953   2.262   3.150   1.498
  352SOL     OW 1954   2.774   0.618   4.681
  352SOL    HW1 1955   2.698   0.656   4.629
  352SOL    HW2 1956   2.771   0.651   4.776
  353SOL     OW 1957   1.888   0.283   0.683
  353SOL    HW1 1958   1.919   0.211   0.745
  353SOL    HW2 1959   1.968   0.333   0.648
  354SOL     OW 1960   3.861   2.752   0.605
  354SOL    HW1 1961   3.833   2.657   0.595
  354SOL    HW2 1962   3.943   2.769   0.550
  355SOL     OW 1963   0.980   3.520   2.454
  355SOL    HW1 1964   1.053   3.524   2.385
  355SOL    HW2 1965   0.915   3.594   2.438
  356SOL     OW 1966   3.085   0.168   5.949
  356SOL    HW1 1967   3.165   0.144   6.004
  356SOL    HW2 1968   3.096   0.131   5.857
  357SOL     OW 1969   6.756   6.193   6.244
  357SOL    HW1 1970   6.809   6.133   6.304
  357SOL    HW2 1971   6.677   6.144   6.207
  358SOL     OW 1972   4.107   6.927   0.479
  358SOL    HW1 1973   4.046   6.935   0.400
  358SOL    HW2 1974   4.154   7.014   0.495
  359SOL     OW 1975   1.819   2.726   2.065
  359SOL    HW1 1976   1.791   2.675   2.147
  359SOL    HW2 1977   1.912   2.762   2.079
  360SOL     OW 1978   0.716   4.958   6.260
  360SOL    HW1 1979   0.734   4.914   6.348
  360SOL    HW2 1980   0.629   5.008   6.264
  361SOL     OW 1981   5.941   6.204   2.753
  361SOL    HW1 1982   5.986   6.246   2.831
  361SOL    HW2 1983   5.982   6.115   2.734
  362SOL     OW 1984   3.610   3.609   0.897
  362SOL    HW1 1985   3.572   3.694   0.935
  362SOL    HW2 1986   3.642   3.551   0.972
  363SOL     OW 1987   5.294   4.371   3.411
  363SOL    HW1 1988   5.220   4.426   3.448
  363SOL    HW2 1989   5.271   4.340   3.319
  364SOL     OW 1990   6.870   5.148   6.614
  364SOL    HW1 1991   6.955   5.117   6.657
  364SOL    HW2 1992   6.844   5.236   6.652
  365SOL     OW 1993   6.308   6.291   2.255
  365SOL    HW1 1994   6.312   6.337   2.167
  365SOL    HW2 1995   6.287   6.194   2.241
  366SOL     OW 1996   5.958   0.987   6.051
  366SOL    HW1 1997   5.998   0.910   6.002
  366SOL    HW2 1998   5.934   0.958   6.144
  367SOL     OW 1999   5.569   3.303   1.016
  367SOL    HW1 2000   5.554   3.225   0.955
  367SOL    HW2 2001   5.489   3.363   1.014
  368SOL     OW 2002   0.274   3.931   4.914
  368SOL    HW1 2003   0.296   3.948   5.011
  368SOL    HW2 2004   0.320   3.848   4.883
  369SOL     OW 2005   6.509   4.858   2.109
  369SOL    HW1 2006   6.553   4.900   2.030
  369SOL    HW2 2007   6.473   4.768   2.083
  370SOL     OW 2008   2.508   1.270   5.821
  370SOL    HW1 2009   2.486   1.359   5.781
  370SOL    HW2 2010   2.582   1.281   5.888
  371SOL     OW 2011   2.058   3.600   6.048
  371SOL    HW1 2012   2.118   3.554   6.114
  371SOL    HW2 2013   2.109   3.619   5.964
  372SOL     OW 2014   0.856   6.883   5.955
  372SOL    HW1 2015   0.861   6.934   6.041
  372SOL    HW2 2016   0.760   6.875   5.927
  373SOL     OW 2017   6.338   6.502   4.696
  373SOL    HW1 2018   6.261   6.495   4.759
  373SOL    HW2 2019   6.418   6.458   4.736
  374SOL     OW 2020   2.869   1.860   3.989
  374SOL    HW1 2021   2.966   1.840   3.979
  374SOL    HW2 2022   2.852   1.894   4.082
  375SOL     OW 2023   1.160   4.106   4.156
  375SOL    HW1 2024   1.177   4.053   4.072
  375SOL    HW2 2025   1.099   4.182   4.135
  376SOL     OW 2026   2.558   1.543   5.319
  376SOL    HW1 2027   2.634   1.489   5.357
  376SOL    HW2 2028   2.539   1.512   5.226
  377SOL     OW 2029   1.320   1.744   1.404
  377SOL    HW1 2030   1.379   1.757   1.325
  377SOL    HW2 2031   1.226   1.725   1.373
  378SOL     OW 2032   4.209   2.635   6.197
  378SOL    HW1 2033   4.219   2.717   6.254
  378SOL    HW2 2034   4.171   2.562   6.252
  379SOL     OW 2035   6.143   4.216   0.858
  379SOL    HW1 2036   6.228   4.172   0.887
  379SOL    HW2 2037   6.152   4.315   0.868
  380SOL     OW 2038   2.729   1.302   1.211
  380SOL    HW1 2039   2.662   1.229   1.219
  380SOL    HW2 2040   2.706   1.360   1.133
  381SOL     OW 2041   1.594   3.596   2.694
  381SOL    HW1 2042   1.582   3.692   2.669
  381SOL    HW2 2043   1.530   3.572   2.767
  382SOL     OW 2044   5.933   0.178   6.530
  382SOL    HW1 2045   5.941   0.172   6.630
  382SOL    HW2 2046   5.953   0.089   6.489
  383SOL     OW 2047   4.504   3.997   6.019
  383SOL    HW1 2048   4.566   4.067   5.983
  383SOL    HW2 2049   4.412   4.035   6.027
  384SOL     OW 2050   6.924   5.524   4.304
  384SOL    HW1 2051   6.987   5.591   4.265
  384SOL    HW2 2052   6.830   5.552   4.287
  385SOL     OW 2053   4.037   5.648   5.397
  385SOL    HW1 2054   4.026   5.716   5.325
  385SOL    HW2 2055   4.065   5.561   5.357
  386SOL     OW 2056   2.371   6.899   5.524
  386SOL    HW1 2057   2.299   6.950   5.571
  386SOL    HW2 2058   2.340   6.806   5.505
  387SOL     OW 2059   0.944   0.010   3.655
  387SOL    HW1 2060   0.899   0.016   3.566
  387SOL    HW2 2061   0.934   6.938   3.692
  388SOL     OW 2062   1.519   1.736   4.343
  388SOL    HW1 2063   1.487   1.776   4.429
  388SOL    HW2 2064   1.574   1.654   4.363
  389SOL     OW 2065   3.853   4.686   1.188
  389SOL    HW1 2066   3.916   4.628   1.136
  389SOL    HW2 2067   3.872   4.676   1.286
  390SOL     OW 2068   3.365   1.145   7.018
  390SOL    HW1 2069   3.457   1.106   7.019
  390SOL    HW2 2070   3.359   1.215   0.069
  391SOL     OW 2071   2.488   3.852   5.827
  391SOL    HW1 2072   2.493   3.754   5.848
  391SOL    HW2 2073   2.464   3.864   5.731
  392SOL     OW 2074   1.977   4.311   0.569
  392SOL    HW1 2075   1.885   4.323   0.607
  392SOL    HW2 2076   2.014   4.400   0.542
  393SOL     OW 2077   1.362   4.460   6.507
  393SOL    HW1 2078   1.417   4.410   6.440
  393SOL    HW2 2079   1.388   4.430   6.599
  394SOL     OW 2080   6.645   2.569   0.806
  394SOL    HW1 2081   6.652   2.613   0.716
  394SOL    HW2 2082   6.595   2.630   0.869
  395SOL     OW 2083   5.040   4.773   2.960
  395SOL    HW1 2084   5.043   4.872   2.967
  395SOL    HW2 2085   5.119   4.741   2.908
  396SOL     OW 2086   3.013   3.664   1.879
  396SOL    HW1 2087   3.014   3.649   1.780
  396SOL    HW2 2088   2.935   3.616   1.919
  397SOL     OW 2089   5.546   1.763   6.277
  397SOL    HW1 2090   5.631   1.717   6.303
  397SOL    HW2 2091   5.556   1.804   6.187
  398SOL     OW 2092   1.297   6.939   3.605
  398SOL    HW1 2093   1.249   6.913   3.521
  398SOL    HW2 2094   1.262   0.006   3.637
  399SOL     OW 2095   5.337   6.174   3.578
  399SOL    HW1 2096   5.340   6.119   3.662
  399SOL    HW2 2097   5.272   6.249   3.589
  400SOL     OW 2098   6.180   6.875   5.116
  400SOL    HW1 2099   6.187   6.951   5.051
  400SOL    HW2 2100   6.267   6.825   5.118
  401SOL     OW 2101   5.073   6.857   6.746
  401SOL    HW1 2102   4.976   6.873   6.763
  401SOL    HW2 2103   5.111   6.935   6.696
  402SOL     OW 2104   6.649   0.507   3.802
  402SOL    HW1 2105   6.549   0.509   3.806
  402SOL    HW2 2106   6.681   0.419   3.839
  403SOL     OW 2107   3.942   1.234   4.882
  403SOL    HW1 2108   4.039   1.257   4.891
  403SOL    HW2 2109   3.932   1.135   4.881
  404SOL     OW 2110   1.516   4.694   3.776
  404SOL    HW1 2111   1.575   4.628   3.823
  404SOL    HW2 2112   1.421   4.680   3.804
  405SOL     OW 2113   2.249   2.959   2.792
  405SOL    HW1 2114   2.237   3.057   2.809
  405SOL    HW2 2115   2.190   2.932   2.716
  406SOL     OW 2116   0.599   4.330   4.530
  406SOL    HW1 2117   0.511   4.356   4.569
  406SOL    HW2 2118   0.605   4.230   4.523
  407SOL     OW 2119   0.742   1.414   5.174
  407SOL    HW1 2120   0.828   1.364   5.160
  407SOL    HW2 2121   0.700   1.433   5.085
  408SOL     OW 2122   2.797   2.001   2.864
  408SOL    HW1 2123   2.719   2.010   2.802
  408SOL    HW2 2124   2.817   1.904   2.877
  409SOL     OW 2125   6.040   3.943   2.293
  409SOL    HW1 2126   6.087   3.882   2.229
  409SOL    HW2 2127   5.955   3.901   2.323
  410SOL     OW 2128   1.115   1.712   1.015
  410SOL    HW1 2129   1.093   1.728   1.111
  410SOL    HW2 2130   1.095   1.794   0.962
  411SOL     OW 2131   6.907   0.990   1.174
  411SOL    HW1 2132   6.842   1.066   1.172
  411SOL    HW2 2133   6.861   0.907   1.207
  412SOL     OW 2134   3.509   5.796   3.173
  412SOL    HW1 2135   3.425   5.742   3.171
  412SOL    HW2 2136   3.525   5.836   3.082
  413SOL     OW 2137   5.588   4.288   1.945
  413SOL    HW1 2138   5.560   4.209   1.890
  413SOL    HW2 2139   5.683   4.277   1.973
  414SOL     OW 2140   3.890   5.887   3.440
  414SOL    HW1 2141   3.975   5.911   3.393
  414SOL    HW2 2142   3.837   5.824   3.383
  415SOL     OW 2143   0.177   0.031   6.385
  415SOL    HW1 2144   0.168   0.129   6.367
  415SOL    HW2 2145   0.222   7.008   6.307
  416SOL     OW 2146   4.737   6.167   4.960
  416SOL    HW1 2147   4.760   6.208   5.048
  416SOL    HW2 2148   4.647   6.201   4.930
  417SOL     OW 2149   2.338   6.701   5.783
  417SOL    HW1 2150   2.282   6.690   5.701
  417SOL    HW2 2151   2.420   6.752   5.760
  418SOL     OW 2152   3.553   6.332   6.377
  418SOL    HW1 2153   3.490   6.398   6.418
  418SOL    HW2 2154   3.501   6.256   6.338
  419SOL     OW 2155   1.475   6.247   2.629
  419SOL    HW1 2156   1.548   6.211   2.687
  419SOL    HW2 2157   1.483   6.210   2.537
  420SOL     OW 2158   6.158   1.539   0.254
  420SOL    HW1 2159   6.194   1.565   0.344
  420SOL    HW2 2160   6.210   1.586   0.182
  421SOL     OW 2161   6.528   4.204   5.114
  421SOL    HW1 2162   6.432   4.225   5.093
  421SOL    HW2 2163   6.574   4.172   5.031
  422SOL     OW 2164   5.239   3.511   1.505
  422SOL    HW1 2165   5.214   3.479   1.413
  422SOL    HW2 2166   5.324   3.466   1.534
  423SOL     OW 2167   1.100   2.296   6.498
  423SOL    HW1 2168   1.105   2.354   6.579
  423SOL    HW2 2169   1.065   2.350   6.421
  424SOL     OW 2170   2.007   4.819   1.378
  424SOL    HW1 2171   1.921   4.784   1.416
  424SOL    HW2 2172   2.001   4.918   1.369
  425SOL     OW 2173   5.062   1.834   3.586
  425SOL    HW1 2174   4.985   1.892   3.559
  425SOL    HW2 2175   5.028   1.744   3.615
  426SOL     OW 2176   2.800   1.931   4.510
  426SOL    HW1 2177   2.738   1.871   4.559
  426SOL    HW2 2178   2.892   1.924   4.549
  427SOL     OW 2179   6.302   6.682   4.043
  427SOL    HW1 2180   6.307   6.756   4.110
  427SOL    HW2 2181   6.394   6.646   4.026
  428SOL     OW 2182   3.992   0.187   3.268
  428SOL    HW1 2183   3.910   0.229   3.232
  428SOL    HW2 2184   3.973   0.092   3.293
  429SOL     OW 2185   0.626   4.593   2.822
  429SOL    HW1 2186   0.583   4.598   2.732
  429SOL    HW2 2187   0.576   4.651   2.886
  430SOL     OW 2188   1.393   6.057   4.479
  430SOL    HW1 2189   1.406   5.966   4.519
  430SOL    HW2 2190   1.379   6.123   4.552
  431SOL     OW 2191   3.156   0.367   1.514
  431SOL    HW1 2192   3.197   0.280   1.487
  431SOL    HW2 2193   3.072   0.349   1.566
  432SOL     OW 2194   6.860   1.951   1.276
  432SOL    HW1 2195   6.866   2.048   1.301
  432SOL    HW2 2196   6.808   1.942   1.191
  433SOL     OW 2197   2.551   6.824   5.317
  433SOL    HW1 2198   2.503   6.857   5.398
  433SOL    HW2 2199   2.610   6.897   5.280
  434SOL     OW 2200   3.914   5.588   3.206
  434SOL    HW1 2201   3.941   5.655   3.136
  434SOL    HW2 2202   3.831   5.620   3.252
  435SOL     OW 2203   4.263   2.219   6.188
  435SOL    HW1 2204   4.277   2.285   6.262
  435SOL    HW2 2205   4.343   2.219   6.128
  436SOL     OW 2206   2.803   5.082   2.032
  436SOL    HW1 2207   2.761   5.011   1.975
  436SOL    HW2 2208   2.882   5.043   2.080
  437SOL     OW 2209   0.435   1.174   6.077
  437SOL    HW1 2210   0.379   1.254   6.099
  437SOL    HW2 2211   0.527   1.203   6.050
  438SOL     OW 2212   1.765   3.756   4.142
  438SOL    HW1 2213   1.814   3.683   4.094
  438SOL    HW2 2214   1.675   3.769   4.101
  439SOL     OW 2215   5.938   6.305   2.460
  439SOL    HW1 2216   5.860   6.311   2.522
  439SOL    HW2 2217   5.990   6.221   2.479
  440SOL     OW 2218   2.700   2.124   5.874
  440SOL    HW1 2219   2.678   2.215   5.839
  440SOL    HW2 2220   2.742   2.069   5.801
  441SOL     OW 2221   0.345   3.395   3.536
  441SOL    HW1 2222   0.307   3.386   3.444
  441SOL    HW2 2223   0.435   3.352   3.539
  442SOL     OW 2224   4.013   6.009   5.587
  442SOL    HW1 2225   4.060   5.943   5.646
  442SOL    HW2 2226   4.056   6.099   5.596
  443SOL     OW 2227   5.861   4.108   4.869
  443SOL    HW1 2228   5.838   4.063   4.955
  443SOL    HW2 2229   5.783   4.161   4.837
  444SOL     OW 2230   5.100   0.500   6.399
  444SOL    HW1 2231   5.018   0.544   6.363
  444SOL    HW2 2232   5.120   0.418   6.344
  445SOL     OW 2233   1.956   5.649   3.114
  445SOL    HW1 2234   2.023   5.621   3.046
  445SOL    HW2 2235   1.993   5.636   3.206
  446SOL     OW 2236   4.143   5.229   2.726
  446SOL    HW1 2237   4.162   5.194   2.634
  446SOL    HW2 2238   4.103   5.320   2.719
  447SOL     OW 2239   0.042   3.467   5.763
  447SOL    HW1 2240   7.011   3.382   5.772
  447SOL    HW2 2241   0.129   3.458   5.812
  448SOL     OW 2242   2.606   0.396   2.618
  448SOL    HW1 2243   2.529   0.397   2.682
  448SOL    HW2 2244   2.577   0.435   2.531
  449SOL     OW 2245   3.036   1.245   4.268
  449SOL    HW1 2246   3.085   1.330   4.248
  449SOL    HW2 2247   2.940   1.255   4.241
  450SOL     OW 2248   1.627   4.626   3.517
  450SOL    HW1 2249   1.605   4.663   3.607
  450SOL    HW2 2250   1.604   4.694   3.447
  451SOL     OW 2251   1.558   2.071   4.818
  451SOL    HW1 2252   1.629   2.117   4.871
  451SOL    HW2 2253   1.579   2.077   4.721
  452SOL     OW 2254   4.367   6.697   0.907
  452SOL    HW1 2255   4.365   6.782   0.855
  452SOL    HW2 2256   4.352   6.620   0.846
  453SOL     OW 2257   3.378   0.569   6.833
  453SOL    HW1 2258   3.316   0.528   6.766
  453SOL    HW2 2259   3.471   0.569   6.796
  454SOL     OW 2260   0.050   3.659   6.249
  454SOL    HW1 2261   6.993   3.690   6.195
  454SOL    HW2 2262   0.099   3.738   6.285
  455SOL     OW 2263   4.996   2.993   4.876
  455SOL    HW1 2264   4.934   2.916   4.892
  455SOL    HW2 2265   5.075   2.961   4.824
  456SOL     OW 2266   1.142   0.170   4.317
  456SOL    HW1 2267   1.155   0.099   4.386
  456SOL    HW2 2268   1.065   0.228   4.342
  457SOL     OW 2269   1.935   4.191   4.535
  457SOL    HW1 2270   1.843   4.177   4.498
  457SOL    HW2 2271   1.996   4.221   4.461
  458SOL     OW 2272   2.557   6.252   2.870
  458SOL    HW1 2273   2.566   6.271   2.968
  458SOL    HW2 2274   2.613   6.172   2.846
  459SOL     OW 2275   1.950   6.675   6.016
  459SOL    HW1 2276   1.963   6.761   5.965
  459SOL    HW2 2277   2.009   6.604   5.978
  460SOL     OW 2278   1.634   6.977   4.484
  460SOL    HW1 2279   1.670   6.894   4.440
  460SOL    HW2 2280   1.672   0.037   4.439
  461SOL     OW 2281   6.780   5.151   5.784
  461SOL    HW1 2282   6.684   5.168   5.761
  461SOL    HW2 2283   6.788   5.134   5.882
  462SOL     OW 2284   4.151   3.294   6.192
  462SOL    HW1 2285   4.053   3.279   6.202
  462SOL    HW2 2286   4.192   3.317   6.280
  463SOL     OW 2287   6.648   0.248   4.252
  463SOL    HW1 2288   6.693   0.161   4.271
  463SOL    HW2 2289   6.716   0.317   4.229
  464SOL     OW 2290   2.963   0.628   5.896
  464SOL    HW1 2291   2.950   0.722   5.864
  464SOL    HW2 2292   2.987   0.628   5.993
  465SOL     OW 2293   0.079   2.286   0.227
  465SOL    HW1 2294   0.113   2.259   0.137
  465SOL    HW2 2295   7.000   2.287   0.226
  466SOL     OW 2296   2.596   6.566   3.956
  466SOL    HW1 2297   2.506   6.535   3.990
  466SOL    HW2 2298   2.634   6.495   3.896
  467SOL     OW 2299   1.457   1.341   2.383
  467SOL    HW1 2300   1.431   1.405   2.455
  467SOL    HW2 2301   1.506   1.263   2.423
  468SOL     OW 2302   3.162   5.529   5.232
  468SOL    HW1 2303   3.254   5.568   5.233
  468SOL    HW2 2304   3.161   5.447   5.175
  469SOL     OW 2305   2.973   3.632   6.151
  469SOL    HW1 2306   3.040   3.600   6.084
  469SOL    HW2 2307   2.894   3.672   6.103
  470SOL     OW 2308   4.083   6.103   1.185
  470SOL    HW1 2309   4.111   6.082   1.091
  470SOL    HW2 2310   4.085   6.202   1.199
  471SOL     OW 2311   2.386   2.732   3.366
  471SOL    HW1 2312   2.447   2.778   3.429
  471SOL    HW2 2313   2.437   2.666   3.311
  472SOL     OW 2314   5.397   4.554   6.705
  472SOL    HW1 2315   5.486   4.523   6.736
  472SOL    HW2 2316   5.366   4.497   6.629
  473SOL     OW 2317   1.493   1.853   2.447
  473SOL    HW1 2318   1.484   1.928   2.382
  473SOL    HW2 2319   1.404   1.832   2.486
  474SOL     OW 2320   5.442   5.727   4.761
  474SOL    HW1 2321   5.413   5.782   4.838
  474SOL    HW2 2322   5.506   5.656   4.792
  475SOL     OW 2323   6.170   2.758   0.489
  475SOL    HW1 2324   6.229   2.688   0.528
  475SOL    HW2 2325   6.103   2.715   0.429
  476SOL     OW 2326   0.038   4.067   2.031
  476SOL    HW1 2327   0.118   4.126   2.022
  476SOL    HW2 2328   6.975   4.122   2.022
  477SOL     OW 2329   2.796   5.803   3.242
  477SOL    HW1 2330   2.806   5.892   3.287
  477SOL    HW2 2331   2.795   5.731   3.311
  478SOL     OW 2332   4.230   5.848   2.860
  478SOL    HW1 2333   4.183   5.810   2.780
  478SOL    HW2 2334   4.325   5.870   2.837
  479SOL     OW 2335   4.070   3.347   4.958
  479SOL    HW1 2336   4.101   3.282   5.028
  479SOL    HW2 2337   4.086   3.308   4.867
  480SOL     OW 2338   2.662   0.311   0.800
  480SOL    HW1 2339   2.571   0.342   0.773
  480SOL    HW2 2340   2.731   0.372   0.761
  481SOL     OW 2341   0.951   6.764   1.977
  481SOL    HW1 2342   0.930   6.836   1.910
  481SOL    HW2 2343   0.972   6.679   1.929
  482SOL     OW 2344   4.642   5.001   2.188
  482SOL    HW1 2345   4.552   5.017   2.229
  482SOL    HW2 2346   4.642   4.913   2.140
  483SOL     OW 2347   6.689   2.179   2.765
  483SOL    HW1 2348   6.643   2.177   2.853
  483SOL    HW2 2349   6.622   2.169   2.691
  484SOL     OW 2350   1.524   3.937   4.514
  484SOL    HW1 2351   1.611   3.938   4.466
  484SOL    HW2 2352   1.474   4.021   4.494
  485SOL     OW 2353   4.834   4.695   2.431
  485SOL    HW1 2354   4.837   4.794   2.442
  485SOL    HW2 2355   4.916   4.654   2.471
  486SOL     OW 2356   6.158   1.853   0.617
  486SOL    HW1 2357   6.220   1.786   0.576
  486SOL    HW2 2358   6.211   1.923   0.665
  487SOL     OW 2359   0.555   0.482   3.391
  487SOL    HW1 2360   0.562   0.582   3.389
  487SOL    HW2 2361   0.552   0.451   3.485
  488SOL     OW 2362   0.505   0.134   2.313
  488SOL    HW1 2363   0.436   0.152   2.243
  488SOL    HW2 2364   0.478   0.178   2.398
  489SOL     OW 2365   5.201   6.194   5.789
  489SOL    HW1 2366   5.291   6.203   5.745
  489SOL    HW2 2367   5.162   6.285   5.802
  490SOL     OW 2368   2.012   5.980   3.727
  490SOL    HW1 2369   1.933   5.933   3.764
  490SOL    HW2 2370   2.066   6.020   3.801
  491SOL     OW 2371   1.551   3.240   1.331
  491SOL    HW1 2372   1.510   3.196   1.411
  491SOL    HW2 2373   1.500   3.323   1.309
  492SOL     OW 2374   1.603   1.122   5.758
  492SOL    HW1 2375   1.696   1.094   5.783
  492SOL    HW2 2376   1.537   1.065   5.807
  493SOL     OW 2377   3.152   6.791   5.761
  493SOL    HW1 2378   3.110   6.759   5.676
  493SOL    HW2 2379   3.166   6.890   5.756
  494SOL     OW 2380   1.033   6.812   6.558
  494SOL    HW1 2381   0.994   6.904   6.556
  494SOL    HW2 2382   1.126   6.814   6.521
  495SOL     OW 2383   4.025   5.777   3.639
  495SOL    HW1 2384   4.068   5.836   3.709
  495SOL    HW2 2385   3.969   5.833   3.578
  496SOL     OW 2386   5.746   2.988   1.815
  496SOL    HW1 2387   5.654   3.023   1.831
  496SOL    HW2 2388   5.751   2.947   1.723
  497SOL     OW 2389   3.183   1.396   4.874
  497SOL    HW1 2390   3.167   1.326   4.805
  497SOL    HW2 2391   3.111   1.466   4.868
  498SOL     OW 2392   0.748   4.918   2.496
  498SOL    HW1 2393   0.786   4.868   2.574
  498SOL    HW2 2394   0.714   5.007   2.526
  499SOL     OW 2395   1.808   5.386   4.717
  499SOL    HW1 2396   1.804   5.480   4.751
  499SOL    HW2 2397   1.745   5.377   4.640
  500SOL     OW 2398   6.164   2.554   6.948
  500SOL    HW1 2399   6.200   2.563   0.020
  500SOL    HW2 2400   6.238   2.564   6.882
  501SOL     OW 2401   3.907   6.621   0.565
  501SOL    HW1 2402   3.908   6.707   0.513
  501SOL    HW2 2403   3.921   6.641   0.662
  502SOL     OW 2404   0.882   4.344   6.269
  502SOL    HW1 2405   0.809   4.280   6.293
  502SOL    HW2 2406   0.843   4.432   6.245
  503SOL     OW 2407   1.165   4.605   6.346
  503SOL    HW1 2408   1.225   4.558   6.410
  503SOL    HW2 2409   1.104   4.539   6.303
  504SOL     OW 2410   1.185   5.597   2.329
  504SOL    HW1 2411   1.237   5.541   2.394
  504SOL    HW2 2412   1.108   5.639   2.376
  505SOL     OW 2413   3.981   6.122   5.001
  505SOL    HW1 2414   3.977   6.209   4.952
  505SOL    HW2 2415   3.906   6.063   4.970
  506SOL     OW 2416   3.482   5.714   2.384
  506SOL    HW1 2417   3.395   5.724   2.434
  506SOL    HW2 2418   3.542   5.653   2.435
  507SOL     OW 2419   3.021   6.381   3.001
  507SOL    HW1 2420   2.992   6.383   3.097
  507SOL    HW2 2421   3.066   6.293   2.982
  508SOL     OW 2422   0.049   3.358   2.349
  508SOL    HW1 2423   0.027   3.293   2.276
  508SOL    HW2 2424   0.057   3.309   2.436
  509SOL     OW 2425   3.359   1.735   0.956
  509SOL    HW1 2426   3.263   1.745   0.982
  509SOL    HW2 2427   3.382   1.638   0.950
  510SOL     OW 2428   6.353   4.169   6.319
  510SOL    HW1 2429   6.414   4.187   6.397
  510SOL    HW2 2430   6.404   4.179   6.234
  511SOL     OW 2431   0.558   2.746   6.516
  511SOL    HW1 2432   0.548   2.841   6.544
  511SOL    HW2 2433   0.617   2.698   6.581
  512SOL     OW 2434   6.630   2.546   6.642
  512SOL    HW1 2435   6.665   2.629   6.598
  512SOL    HW2 2436   6.704   2.480   6.650
  513SOL     OW 2437   5.393   6.666   3.467
  513SOL    HW1 2438   5.474   6.697   3.417
  513SOL    HW2 2439   5.320   6.644   3.402
  514SOL     OW 2440   6.487   0.711   4.758
  514SOL    HW1 2441   6.530   0.688   4.671
  514SOL    HW2 2442   6.510   0.805   4.783
  515SOL     OW 2443   1.341   1.162   0.393
  515SOL    HW1 2444   1.299   1.210   0.471
  515SOL    HW2 2445   1.422   1.212   0.363
  516SOL     OW 2446   2.695   4.865   1.928
  516SOL    HW1 2447   2.726   4.770   1.927
  516SOL    HW2 2448   2.608   4.872   1.879
  517SOL     OW 2449   3.232   4.799   1.887
  517SOL    HW1 2450   3.312   4.745   1.914
  517SOL    HW2 2451   3.188   4.756   1.808
  518SOL     OW 2452   2.167   2.506   3.553
  518SOL    HW1 2453   2.150   2.426   3.495
  518SOL    HW2 2454   2.259   2.500   3.592
  519SOL     OW 2455   0.497   6.784   3.237
  519SOL    HW1 2456   0.560   6.786   3.314
  519SOL    HW2 2457   0.536   6.731   3.162
  520SOL     OW 2458   6.296   3.615   6.763
  520SOL    HW1 2459   6.320   3.608   6.666
  520SOL    HW2 2460   6.339   3.541   6.814
  521SOL     OW 2461   6.428   6.147   5.371
  521SOL    HW1 2462   6.422   6.151   5.271
  521SOL    HW2 2463   6.514   6.188   5.401
  522SOL     OW 2464   3.950   3.591   3.399
  522SOL    HW1 2465   3.957   3.545   3.487
  522SOL    HW2 2466   3.995   3.680   3.404
  523SOL     OW 2467   0.045   5.978   1.123
  523SOL    HW1 2468   0.100   5.899   1.095
  523SOL    HW2 2469   0.035   5.977   1.223
  524SOL     OW 2470   1.319   2.548   2.790
  524SOL    HW1 2471   1.298   2.563   2.886
  524SOL    HW2 2472   1.316   2.635   2.741
  525SOL     OW 2473   1.801   4.200   5.699
  525SOL    HW1 2474   1.871   4.238   5.760
  525SOL    HW2 2475   1.844   4.155   5.622
  526SOL     OW 2476   3.492   6.913   3.932
  526SOL    HW1 2477   3.478   6.983   4.002
  526SOL    HW2 2478   3.437   6.934   3.852
  527SOL     OW 2479   6.921   3.103   0.661
  527SOL    HW1 2480   6.869   3.022   0.687
  527SOL    HW2 2481   6.966   3.087   0.573
  528SOL     OW 2482   1.590   2.589   3.485
  528SOL    HW1 2483   1.614   2.666   3.427
  528SOL    HW2 2484   1.674   2.541   3.513
  529SOL     OW 2485   1.995   6.256   5.091
  529SOL    HW1 2486   1.948   6.292   5.171
  529SOL    HW2 2487   2.082   6.216   5.118
  530SOL     OW 2488   3.992   3.864   3.401
  530SOL    HW1 2489   3.971   3.903   3.491
  530SOL    HW2 2490   4.059   3.922   3.354
  531SOL     OW 2491   0.732   1.358   3.100
  531SOL    HW1 2492   0.822   1.389   3.131
  531SOL    HW2 2493   0.739   1.265   3.066
  532SOL     OW 2494   1.255   2.223   0.595
  532SOL    HW1 2495   1.165   2.233   0.637
  532SOL    HW2 2496   1.308   2.306   0.608
  533SOL     OW 2497   4.367   6.981   2.981
  533SOL    HW1 2498   4.269   7.000   2.969
  533SOL    HW2 2499   4.392   6.903   2.923
  534SOL     OW 2500   5.593   5.750   2.435
  534SOL    HW1 2501   5.678   5.703   2.459
  534SOL    HW2 2502   5.614   5.843   2.405
  535SOL     OW 2503   6.333   4.051   3.521
  535SOL    HW1 2504   6.374   4.113   3.454
  535SOL    HW2 2505   6.396   4.040   3.598
  536SOL     OW 2506   6.265   4.606   2.604
  536SOL    HW1 2507   6.244   4.552   2.685
  536SOL    HW2 2508   6.284   4.700   2.630
  537SOL     OW 2509   3.011   6.979   4.640
  537SOL    HW1 2510   3.080   6.919   4.600
  537SOL    HW2 2511   2.963   6.931   4.714
  538SOL     OW 2512   0.750   4.654   4.149
  538SOL    HW1 2513   0.847   4.655   4.125
  538SOL    HW2 2514   0.736   4.708   4.232
  539SOL     OW 2515   1.988   4.466   1.770
  539SOL    HW1 2516   1.900   4.458   1.724
  539SOL    HW2 2517   2.014   4.562   1.775
  540SOL     OW 2518   1.683   1.534   2.941
  540SOL    HW1 2519   1.603   1.479   2.916
  540SOL    HW2 2520   1.764   1.496   2.897
  541SOL     OW 2521   5.684   5.345   4.519
  541SOL    HW1 2522   5.615   5.315   4.585
  541SOL    HW2 2523   5.755   5.396   4.566
  542SOL     OW 2524   4.795   6.567   6.787
  542SOL    HW1 2525   4.725   6.501   6.814
  542SOL    HW2 2526   4.758   6.629   6.718
  543SOL     OW 2527   6.473   3.749   4.446
  543SOL    HW1 2528   6.453   3.760   4.543
  543SOL    HW2 2529   6.523   3.663   4.431
  544SOL     OW 2530   1.173   4.804   6.849
  544SOL    HW1 2531   1.096   4.833   6.906
  544SOL    HW2 2532   1.140   4.782   6.758
  545SOL     OW 2533   3.412   0.989   1.106
  545SOL    HW1 2534   3.491   1.013   1.163
  545SOL    HW2 2535   3.382   0.897   1.128
  546SOL     OW 2536   1.598   3.656   0.831
  546SOL    HW1 2537   1.671   3.589   0.829
  546SOL    HW2 2538   1.515   3.615   0.868
  547SOL     OW 2539   3.740   1.829   6.786
  547SOL    HW1 2540   3.676   1.767   6.831
  547SOL    HW2 2541   3.827   1.828   6.836
  548SOL     OW 2542   3.412   3.107   1.640
  548SOL    HW1 2543   3.462   3.023   1.663
  548SOL    HW2 2544   3.382   3.152   1.723
  549SOL     OW 2545   5.180   2.358   1.825
  549SOL    HW1 2546   5.206   2.271   1.782
  549SOL    HW2 2547   5.230   2.433   1.781
  550SOL     OW 2548   1.411   5.362   3.844
  550SOL    HW1 2549   1.468   5.429   3.795
  550SOL    HW2 2550   1.329   5.408   3.879
  551SOL     OW 2551   0.691   0.341   1.682
  551SOL    HW1 2552   0.675   0.321   1.585
  551SOL    HW2 2553   0.785   0.319   1.705
  552SOL     OW 2554   5.862   4.707   6.716
  552SOL    HW1 2555   5.958   4.704   6.744
  552SOL    HW2 2556   5.849   4.780   6.649
  553SOL     OW 2557   2.397   6.778   4.205
  553SOL    HW1 2558   2.390   6.854   4.140
  553SOL    HW2 2559   2.337   6.704   4.175
  554SOL     OW 2560   5.726   6.831   6.751
  554SOL    HW1 2561   5.800   6.808   6.688
  554SOL    HW2 2562   5.763   6.886   6.826
  555SOL     OW 2563   3.425   5.126   4.728
  555SOL    HW1 2564   3.402   5.146   4.633
  555SOL    HW2 2565   3.524   5.118   4.738
  556SOL     OW 2566   4.969   1.564   3.672
  556SOL    HW1 2567   4.976   1.479   3.619
  556SOL    HW2 2568   5.030   1.558   3.752
  557SOL     OW 2569   6.695   5.431   0.523
  557SOL    HW1 2570   6.778   5.430   0.467
  557SOL    HW2 2571   6.624   5.486   0.477
  558SOL     OW 2572   3.010   3.251   3.366
  558SOL    HW1 2573   2.969   3.342   3.376
  558SOL    HW2 2574   3.110   3.261   3.359
  559SOL     OW 2575   0.236   5.652   6.326
  559SOL    HW1 2576   0.243   5.590   6.248
  559SOL    HW2 2577   0.240   5.747   6.293
  560SOL     OW 2578   6.119   3.829   3.687
  560SOL    HW1 2579   6.091   3.905   3.628
  560SOL    HW2 2580   6.179   3.863   3.759
  561SOL     OW 2581   0.144   2.391   1.058
  561SOL    HW1 2582   0.081   2.316   1.074
  561SOL    HW2 2583   0.214   2.362   0.993
  562SOL     OW 2584   4.622   0.163   6.445
  562SOL    HW1 2585   4.546   0.201   6.393
  562SOL    HW2 2586   4.696   0.230   6.450
  563SOL     OW 2587   2.680   0.493   3.835
  563SOL    HW1 2588   2.759   0.446   3.797
  563SOL    HW2 2589   2.598   0.466   3.786
  564SOL     OW 2590   1.126   2.749   0.012
  564SOL    HW1 2591   1.080   2.838   0.007
  564SOL    HW2 2592   1.217   2.757   6.990
  565SOL     OW 2593   3.764   3.737   4.460
  565SOL    HW1 2594   3.702   3.753   4.383
  565SOL    HW2 2595   3.716   3.755   4.546
  566SOL     OW 2596   0.568   4.673   3.947
  566SOL    HW1 2597   0.627   4.700   4.023
  566SOL    HW2 2598   0.540   4.578   3.959
  567SOL     OW 2599   2.787   2.663   1.595
  567SOL    HW1 2600   2.871   2.685   1.646
  567SOL    HW2 2601   2.735   2.593   1.645
  568SOL     OW 2602   4.787   0.177   0.020
  568SOL    HW1 2603   4.875   0.130   0.015
  568SOL    HW2 2604   4.774   0.232   6.959
  569SOL     OW 2605   1.606   2.571   0.107
  569SOL    HW1 2606   1.512   2.567   0.140
  569SOL    HW2 2607   1.670   2.557   0.182
  570SOL     OW 2608   3.965   6.512   6.561
  570SOL    HW1 2609   3.930   6.467   6.643
  570SOL    HW2 2610   3.889   6.548   6.507
  571SOL     OW 2611   3.334   5.332   2.525
  571SOL    HW1 2612   3.317   5.360   2.620
  571SOL    HW2 2613   3.252   5.348   2.471
  572SOL     OW 2614   2.610   4.733   5.589
  572SOL    HW1 2615   2.596   4.831   5.571
  572SOL    HW2 2616   2.563   4.708   5.674
  573SOL     OW 2617   5.188   1.602   6.004
  573SOL    HW1 2618   5.145   1.513   5.989
  573SOL    HW2 2619   5.286   1.595   5.986
  574SOL     OW 2620   3.855   1.452   4.692
  574SOL    HW1 2621   3.756   1.445   4.702
  574SOL    HW2 2622   3.899   1.379   4.745
  575SOL     OW 2623   5.376   4.059   1.352
  575SOL    HW1 2624   5.411   4.152   1.351
  575SOL    HW2 2625   5.359   4.031   1.447
  576SOL     OW 2626   1.466   2.283   2.976
  576SOL    HW1 2627   1.468   2.248   2.883
  576SOL    HW2 2628   1.374   2.313   2.999
  577SOL     OW 2629   1.463   1.314   2.935
  577SOL    HW1 2630   1.506   1.294   3.024
  577SOL    HW2 2631   1.364   1.321   2.948
  578SOL     OW 2632   6.766   5.298   4.491
  578SOL    HW1 2633   6.686   5.239   4.479
  578SOL    HW2 2634   6.801   5.324   4.401
  579SOL     OW 2635   1.751   3.385   3.921
  579SOL    HW1 2636   1.774   3.291   3.896
  579SOL    HW2 2637   1.832   3.430   3.958
  580SOL     OW 2638   4.680   5.436   5.407
  580SOL    HW1 2639   4.581   5.430   5.392
  580SOL    HW2 2640   4.708   5.532   5.410
  581SOL     OW 2641   1.817   2.882   1.664
  581SOL    HW1 2642   1.768   2.885   1.577
  581SOL    HW2 2643   1.788   2.958   1.721
  582SOL     OW 2644   4.776   6.061   2.448
  582SOL    HW1 2645   4.827   6.142   2.420
  582SOL    HW2 2646   4.752   6.007   2.367
  583SOL     OW 2647   2.777   6.622   5.465
  583SOL    HW1 2648   2.703   6.618   5.398
  583SOL    HW2 2649   2.811   6.530   5.483
  584SOL     OW 2650   2.662   5.270   6.675
  584SOL    HW1 2651   2.666   5.354   6.729
  584SOL    HW2 2652   2.715   5.281   6.591
  585SOL     OW 2653   4.769   1.895   6.735
  585SOL    HW1 2654   4.788   1.837   6.655
  585SOL    HW2 2655   4.705   1.847   6.796
  586SOL     OW 2656   3.689   0.447   6.446
  586SOL    HW1 2657   3.754   0.523   6.447
  586SOL    HW2 2658   3.624   0.460   6.371
  587SOL     OW 2659   4.409   2.037   3.995
  587SOL    HW1 2660   4.333   2.101   3.985
  587SOL    HW2 2661   4.390   1.973   4.069
  588SOL     OW 2662   2.568   4.913   1.223
  588SOL    HW1 2663   2.600   4.819   1.219
  588SOL    HW2 2664   2.495   4.921   1.291
  589SOL     OW 2665   3.414   4.613   1.579
  589SOL    HW1 2666   3.328   4.649   1.617
  589SOL    HW2 2667   3.484   4.613   1.650
  590SOL     OW 2668   5.363   2.559   2.195
  590SOL    HW1 2669   5.286   2.620   2.213
  590SOL    HW2 2670   5.435   2.611   2.148
  591SOL     OW 2671   3.330   5.798   3.598
  591SOL    HW1 2672   3.417   5.749   3.586
  591SOL    HW2 2673   3.322   5.870   3.529
  592SOL     OW 2674   3.698   1.493   0.896
  592SOL    HW1 2675   3.602   1.489   0.921
  592SOL    HW2 2676   3.708   1.524   0.802
  593SOL     OW 2677   3.933   2.135   4.413
  593SOL    HW1 2678   4.028   2.162   4.396
  593SOL    HW2 2679   3.931   2.043   4.452
  594SOL     OW 2680   6.438   1.075   0.139
  594SOL    HW1 2681   6.458   1.110   0.048
  594SOL    HW2 2682   6.478   1.135   0.208
  595SOL     OW 2683   5.601   0.802   3.696
  595SOL    HW1 2684   5.539   0.881   3.690
  595SOL    HW2 2685   5.596   0.763   3.788
  596SOL     OW 2686   1.048   5.501   3.760
  596SOL    HW1 2687   0.954   5.523   3.788
  596SOL    HW2 2688   1.047   5.468   3.665
  597SOL     OW 2689   2.319   0.074   0.326
  597SOL    HW1 2690   2.332   0.026   0.413
  597SOL    HW2 2691   2.384   0.038   0.258
  598SOL     OW 2692   4.072   3.693   5.371
  598SOL    HW1 2693   4.030   3.610   5.333
  598SOL    HW2 2694   4.028   3.715   5.458
  599SOL     OW 2695   2.674   6.386   1.780
  599SOL    HW1 2696   2.650   6.410   1.874
  599SOL    HW2 2697   2.617   6.310   1.749
  600SOL     OW 2698   6.517   1.489   0.152
  600SOL    HW1 2699   6.444   1.557   0.157
  600SOL    HW2 2700   6.551   1.483   0.058
  601SOL     OW 2701   1.346   0.405   4.914
  601SOL    HW1 2702   1.331   0.342   4.991
  601SOL    HW2 2703   1.298   0.491   4.932
  602SOL     OW 2704   1.020   1.625   6.243
  602SOL    HW1 2705   0.932   1.582   6.264
  602SOL    HW2 2706   1.014   1.672   6.155
  603SOL     OW 2707   2.775   2.384   5.152
  603SOL    HW1 2708   2.851   2.323   5.131
  603SOL    HW2 2709   2.732   2.415   5.067
  604SOL     OW 2710   1.094   2.237   1.889
  604SOL    HW1 2711   1.142   2.309   1.939
  604SOL    HW2 2712   0.999   2.233   1.919
  605SOL     OW 2713   6.724   5.796   0.404
  605SOL    HW1 2714   6.635   5.759   0.431
  605SOL    HW2 2715   6.746   5.767   0.311
  606SOL     OW 2716   4.985   6.319   6.725
  606SOL    HW1 2717   5.030   6.327   6.636
  606SOL    HW2 2718   4.913   6.388   6.732
  607SOL     OW 2719   6.088   5.469   5.350
  607SOL    HW1 2720   6.085   5.372   5.375
  607SOL    HW2 2721   6.160   5.484   5.282
  608SOL     OW 2722   4.056   6.468   6.935
  608SOL    HW1 2723   3.990   6.440   6.866
  608SOL    HW2 2724   4.146   6.430   6.912
  609SOL     OW 2725   3.679   2.897   2.258
  609SOL    HW1 2726   3.763   2.917   2.307
  609SOL    HW2 2727   3.600   2.928   2.311
  610SOL     OW 2728   5.709   4.570   2.146
  610SOL    HW1 2729   5.722   4.599   2.241
  610SOL    HW2 2730   5.779   4.502   2.123
  611SOL     OW 2731   4.225   6.658   1.809
  611SOL    HW1 2732   4.200   6.646   1.905
  611SOL    HW2 2733   4.235   6.755   1.789
  612SOL     OW 2734   3.889   6.201   4.614
  612SOL    HW1 2735   3.975   6.188   4.661
  612SOL    HW2 2736   3.826   6.127   4.637
  613SOL     OW 2737   4.379   6.495   5.425
  613SOL    HW1 2738   4.398   6.466   5.519
  613SOL    HW2 2739   4.287   6.535   5.421
  614SOL     OW 2740   5.378   5.707   0.164
  614SOL    HW1 2741   5.342   5.634   0.107
  614SOL    HW2 2742   5.304   5.744   0.221
  615SOL     OW 2743   6.342   2.188   2.169
  615SOL    HW1 2744   6.354   2.126   2.091
  615SOL    HW2 2745   6.432   2.213   2.205
  616SOL     OW 2746   0.748   2.742   3.246
  616SOL    HW1 2747   0.683   2.693   3.189
  616SOL    HW2 2748   0.700   2.788   3.321
  617SOL     OW 2749   0.343   4.503   6.207
  617SOL    HW1 2750   0.354   4.583   6.148
  617SOL    HW2 2751   0.420   4.499   6.271
  618SOL     OW 2752   6.726   2.619   0.526
  618SOL    HW1 2753   6.775   2.643   0.442
  618SOL    HW2 2754   6.675   2.535   0.513
  619SOL     OW 2755   4.073   1.217   0.139
  619SOL    HW1 2756   4.172   1.213   0.144
  619SOL    HW2 2757   4.034   1.201   0.230
  620SOL     OW 2758   4.313   2.892   1.249
  620SOL    HW1 2759   4.234   2.953   1.259
  620SOL    HW2 2760   4.343   2.892   1.154
  621SOL     OW 2761   2.362   6.494   0.022
  621SOL    HW1 2762   2.322   6.403   0.037
  621SOL    HW2 2763   2.438   6.507   0.086
  622SOL     OW 2764   1.052   0.117   6.213
  622SOL    HW1 2765   1.036   0.206   6.255
  622SOL    HW2 2766   0.970   0.060   6.222
  623SOL     OW 2767   0.771   5.775   5.128
  623SOL    HW1 2768   0.854   5.749   5.079
  623SOL    HW2 2769   0.790   5.780   5.226
  624SOL     OW 2770   6.694   2.706   1.062
  624SOL    HW1 2771   6.744   2.642   1.003
  624SOL    HW2 2772   6.655   2.656   1.139
  625SOL     OW 2773   2.020   1.822   1.745
  625SOL    HW1 2774   2.061   1.810   1.835
  625SOL    HW2 2775   1.952   1.750   1.729
  626SOL     OW 2776   2.206   5.676   3.617
  626SOL    HW1 2777   2.213   5.765   3.572
  626SOL    HW2 2778   2.251   5.680   3.706
  627SOL     OW 2779   5.639   6.139   0.105
  627SOL    HW1 2780   5.695   6.222   0.110
  627SOL    HW2 2781   5.552   6.159   0.060
  628SOL     OW 2782   5.835   5.595   6.251
  628SOL    HW1 2783   5.864   5.558   6.163
  628SOL    HW2 2784   5.884   5.550   6.325
  629SOL     OW 2785   6.844   6.509   6.952
  629SOL    HW1 2786   6.874   6.554   6.868
  629SOL    HW2 2787   6.865   6.567   0.010
  630SOL     OW 2788   6.642   1.831   2.069
  630SOL    HW1 2789   6.643   1.754   2.006
  630SOL    HW2 2790   6.718   1.893   2.048
  631SOL     OW 2791   3.440   6.806   5.399
  631SOL    HW1 2792   3.370   6.784   5.331
  631SOL    HW2 2793   3.445   6.731   5.466
  632SOL     OW 2794   2.501   1.063   0.869
  632SOL    HW1 2795   2.585   1.109   0.839
  632SOL    HW2 2796   2.521   1.001   0.944
  633SOL     OW 2797   4.319   4.118   0.527
  633SOL    HW1 2798   4.363   4.040   0.483
  633SOL    HW2 2799   4.221   4.099   0.539
  634SOL     OW 2800   4.229   4.438   0.997
  634SOL    HW1 2801   4.204   4.419   0.903
  634SOL    HW2 2802   4.211   4.357   1.054
  635SOL     OW 2803   4.622   5.045   0.784
  635SOL    HW1 2804   4.591   5.115   0.720
  635SOL    HW2 2805   4.545   5.015   0.841
  636SOL     OW 2806   4.161   5.394   6.778
  636SOL    HW1 2807   4.192   5.304   6.809
  636SOL    HW2 2808   4.195   5.465   6.841
  637SOL     OW 2809   6.571   3.802   3.136
  637SOL    HW1 2810   6.532   3.744   3.064
  637SOL    HW2 2811   6.536   3.895   3.125
  638SOL     OW 2812   5.112   2.386   3.466
  638SOL    HW1 2813   5.200   2.337   3.472
  638SOL    HW2 2814   5.062   2.354   3.386
  639SOL     OW 2815   4.901   3.738   2.426
  639SOL    HW1 2816   4.949   3.670   2.371
  639SOL    HW2 2817   4.873   3.697   2.513
  640SOL     OW 2818   0.154   5.074   4.281
  640SOL    HW1 2819   0.139   5.146   4.349
  640SOL    HW2 2820   0.120   4.987   4.317
  641SOL     OW 2821   6.477   5.845   4.512
  641SOL    HW1 2822   6.516   5.769   4.563
  641SOL    HW2 2823   6.405   5.889   4.567
  642SOL     OW 2824   6.996   2.862   4.834
  642SOL    HW1 2825   0.033   2.846   4.753
  642SOL    HW2 2826   7.018   2.952   4.872
  643SOL     OW 2827   5.419   5.900   4.983
  643SOL    HW1 2828   5.340   5.961   4.992
  643SOL    HW2 2829   5.401   5.815   5.031
  644SOL     OW 2830   1.448   5.501   4.561
  644SOL    HW1 2831   1.481   5.446   4.483
  644SOL    HW2 2832   1.476   5.596   4.548
  645SOL     OW 2833   4.173   1.405   3.861
  645SOL    HW1 2834   4.182   1.500   3.892
  645SOL    HW2 2835   4.244   1.385   3.794
  646SOL     OW 2836   2.721   1.411   4.658
  646SOL    HW1 2837   2.763   1.488   4.609
  646SOL    HW2 2838   2.733   1.327   4.605
  647SOL     OW 2839   5.259   2.038   4.679
  647SOL    HW1 2840   5.347   2.053   4.634
  647SOL    HW2 2841   5.261   2.081   4.770
  648SOL     OW 2842   7.019   3.706   4.050
  648SOL    HW1 2843   6.951   3.640   4.082
  648SOL    HW2 2844   7.011   3.718   3.951
  649SOL     OW 2845   3.105   3.428   0.960
  649SOL    HW1 2846   3.013   3.426   1.000
  649SOL    HW2 2847   3.100   3.399   0.864
  650SOL     OW 2848   6.062   4.758   0.827
  650SOL    HW1 2849   5.974   4.795   0.798
  650SOL    HW2 2850   6.136   4.820   0.800
  651SOL     OW 2851   6.298   6.368   5.928
  651SOL    HW1 2852   6.272   6.283   5.974
  651SOL    HW2 2853   6.237   6.383   5.850
  652SOL     OW 2854   4.873   6.341   3.488
  652SOL    HW1 2855   4.805   6.361   3.559
  652SOL    HW2 2856   4.958   6.390   3.508
  653SOL     OW 2857   2.328   5.702   5.135
  653SOL    HW1 2858   2.383   5.783   5.116
  653SOL    HW2 2859   2.302   5.658   5.049
  654SOL     OW 2860   6.992   4.315   6.157
  654SOL    HW1 2861   6.892   4.318   6.164
  654SOL    HW2 2862   0.002   4.220   6.163
  655SOL     OW 2863   0.699   6.048   2.268
  655SOL    HW1 2864   0.615   6.099   2.246
  655SOL    HW2 2865   0.732   6.076   2.358
  656SOL     OW 2866   2.060   5.326   1.673
  656SOL    HW1 2867   2.040   5.365   1.583
  656SOL    HW2 2868   2.157   5.337   1.693
  657SOL     OW 2869   1.545   2.367   1.559
  657SOL    HW1 2870   1.493   2.286   1.532
  657SOL    HW2 2871   1.619   2.340   1.620
  658SOL     OW 2872   2.914   4.080   6.468
  658SOL    HW1 2873   2.868   4.168   6.452
  658SOL    HW2 2874   2.969   4.056   6.388
  659SOL     OW 2875   2.187   6.054   6.252
  659SOL    HW1 2876   2.199   6.019   6.159
  659SOL    HW2 2877   2.173   6.153   6.249
  660SOL     OW 2878   5.462   4.827   2.360
  660SOL    HW1 2879   5.379   4.820   2.303
  660SOL    HW2 2880   5.537   4.863   2.305
  661SOL     OW 2881   4.273   5.236   3.060
  661SOL    HW1 2882   4.234   5.156   3.105
  661SOL    HW2 2883   4.313   5.209   2.972
  662SOL     OW 2884   4.200   0.170   5.626
  662SOL    HW1 2885   4.205   0.155   5.527
  662SOL    HW2 2886   4.166   0.087   5.670
  663SOL     OW 2887   2.363   3.673   6.167
  663SOL    HW1 2888   2.421   3.641   6.092
  663SOL    HW2 2889   2.300   3.601   6.194
  664SOL     OW 2890   0.356   5.312   6.581
  664SOL    HW1 2891   0.398   5.250   6.515
  664SOL    HW2 2892   0.381   5.407   6.558
  665SOL     OW 2893   5.152   4.699   1.351
  665SOL    HW1 2894   5.152   4.709   1.251
  665SOL    HW2 2895   5.193   4.611   1.376
  666SOL     OW 2896   4.930   2.192   2.459
  666SOL    HW1 2897   4.843   2.148   2.435
  666SOL    HW2 2898   4.960   2.250   2.384
  667SOL     OW 2899   1.088   4.790   3.442
  667SOL    HW1 2900   0.994   4.754   3.443
  667SOL    HW2 2901   1.153   4.715   3.435
  668SOL     OW 2902   5.198   6.743   6.234
  668SOL    HW1 2903   5.161   6.799   6.307
  668SOL    HW2 2904   5.296   6.729   6.248
  669SOL     OW 2905   4.401   0.438   2.776
  669SOL    HW1 2906   4.432   0.364   2.837
  669SOL    HW2 2907   4.401   0.405   2.681
  670SOL     OW 2908   3.076   2.325   0.900
  670SOL    HW1 2909   2.976   2.323   0.905
  670SOL    HW2 2910   3.104   2.386   0.825
  671SOL     OW 2911   1.667   6.488   0.226
  671SOL    HW1 2912   1.730   6.563   0.208
  671SOL    HW2 2913   1.577   6.524   0.250
  672SOL     OW 2914   1.008   5.285   2.327
  672SOL    HW1 2915   0.960   5.369   2.351
  672SOL    HW2 2916   0.976   5.253   2.237
  673SOL     OW 2917   0.072   6.812   1.350
  673SOL    HW1 2918   0.066   6.865   1.265
  673SOL    HW2 2919   7.002   6.777   1.374
  674SOL     OW 2920   1.042   1.492   5.249
  674SOL    HW1 2921   0.945   1.513   5.257
  674SOL    HW2 2922   1.087   1.561   5.192
  675SOL     OW 2923   0.931   0.988   3.301
  675SOL    HW1 2924   0.989   0.987   3.383
  675SOL    HW2 2925   0.925   0.895   3.263
  676SOL     OW 2926   3.262   6.034   2.680
  676SOL    HW1 2927   3.214   5.965   2.625
  676SOL    HW2 2928   3.219   6.123   2.664
  677SOL     OW 2929   5.672   2.301   0.604
  677SOL    HW1 2930   5.591   2.283   0.660
  677SOL    HW2 2931   5.711   2.214   0.573
  678SOL     OW 2932   1.885   0.690   5.431
  678SOL    HW1 2933   1.912   0.754   5.503
  678SOL    HW2 2934   1.965   0.640   5.399
  679SOL     OW 2935   4.272   1.752   3.603
  679SOL    HW1 2936   4.360   1.708   3.582
  679SOL    HW2 2937   4.248   1.815   3.529
  680SOL     OW 2938   5.921   6.049   5.552
  680SOL    HW1 2939   6.012   6.090   5.548
  680SOL    HW2 2940   5.885   6.038   5.460
  681SOL     OW 2941   5.425   4.918   1.717
  681SOL    HW1 2942   5.435   4.821   1.740
  681SOL    HW2 2943   5.508   4.950   1.671
  682SOL     OW 2944   0.274   1.086   0.939
  682SOL    HW1 2945   0.358   1.061   0.987
  682SOL    HW2 2946   0.262   1.026   0.860
  683SOL     OW 2947   4.400   3.216   0.283
  683SOL    HW1 2948   4.489   3.248   0.317
  683SOL    HW2 2949   4.392   3.238   0.186
  684SOL     OW 2950   0.155   1.104   0.215
  684SOL    HW1 2951   0.241   1.054   0.228
  684SOL    HW2 2952   0.175   1.194   0.176
  685SOL     OW 2953   3.975   1.243   3.207
  685SOL    HW1 2954   4.071   1.218   3.194
  685SOL    HW2 2955   3.967   1.300   3.289
  686SOL     OW 2956   4.856   3.190   3.598
  686SOL    HW1 2957   4.810   3.184   3.509
  686SOL    HW2 2958   4.814   3.126   3.662
  687SOL     OW 2959   0.607   2.236   4.838
  687SOL    HW1 2960   0.514   2.227   4.872
  687SOL    HW2 2961   0.639   2.148   4.803
  688SOL     OW 2962   0.770   1.617   0.252
  688SOL    HW1 2963   0.805   1.710   0.240
  688SOL    HW2 2964   0.844   1.557   0.283
  689SOL     OW 2965   6.835   4.673   6.350
  689SOL    HW1 2966   6.750   4.628   6.320
  689SOL    HW2 2967   6.881   4.713   6.271
  690SOL     OW 2968   0.317   3.960   2.849
  690SOL    HW1 2969   0.300   3.901   2.929
  690SOL    HW2 2970   0.415   3.959   2.828
  691SOL     OW 2971   2.595   6.817   0.498
  691SOL    HW1 2972   2.644   6.890   0.546
  691SOL    HW2 2973   2.652   6.782   0.423
  692SOL     OW 2974   3.489   0.225   4.057
  692SOL    HW1 2975   3.562   0.198   3.993
  692SOL    HW2 2976   3.414   0.160   4.051
  693SOL     OW 2977   5.798   0.895   3.526
  693SOL    HW1 2978   5.756   0.871   3.439
  693SOL    HW2 2979   5.740   0.864   3.601
  694SOL     OW 2980   4.395   6.170   3.584
  694SOL    HW1 2981   4.432   6.257   3.617
  694SOL    HW2 2982   4.450   6.137   3.508
  695SOL     OW 2983   4.256   0.037   3.998
  695SOL    HW1 2984   4.186   0.074   3.937
  695SOL    HW2 2985   4.226   6.970   4.035
  696SOL     OW 2986   4.109   4.728   2.522
  696SOL    HW1 2987   4.050   4.771   2.454
  696SOL    HW2 2988   4.205   4.738   2.495
  697SOL     OW 2989   2.104   3.549   3.484
  697SOL    HW1 2990   2.115   3.647   3.494
  697SOL    HW2 2991   2.032   3.517   3.546
  698SOL     OW 2992   5.145   6.806   0.687
  698SOL    HW1 2993   5.217   6.809   0.618
  698SOL    HW2 2994   5.090   6.724   0.676
  699SOL     OW 2995   1.962   3.141   6.219
  699SOL    HW1 2996   1.897   3.065   6.223
  699SOL    HW2 2997   1.998   3.159   6.310
  700SOL     OW 2998   2.738   0.105   2.266
  700SOL    HW1 2999   2.642   0.076   2.266
  700SOL    HW2 3000   2.791   0.041   2.323
  701SOL     OW 3001   6.560   3.942   5.905
  701SOL    HW1 3002   6.659   3.931   5.908
  701SOL    HW2 3003   6.530   3.952   5.810
  702SOL     OW 3004   1.605   6.329   4.767
  702SOL    HW1 3005   1.666   6.408   4.757
  702SOL    HW2 3006   1.639   6.269   4.840
  703SOL     OW 3007   3.893   3.891   6.495
  703SOL    HW1 3008   3.936   3.837   6.422
  703SOL    HW2 3009   3.877   3.984   6.462
  704SOL     OW 3010   1.710   2.506   0.376
  704SOL    HW1 3011   1.689   2.416   0.339
  704SOL    HW2 3012   1.711   2.501   0.476
  705SOL     OW 3013   5.775   5.251   2.843
  705SOL    HW1 3014   5.865   5.215   2.819
  705SOL    HW2 3015   5.744   5.313   2.772
  706SOL     OW 3016   4.353   2.095   4.770
  706SOL    HW1 3017   4.266   2.111   4.817
  706SOL    HW2 3018   4.377   2.176   4.716
  707SOL     OW 3019   4.577   5.797   2.400
  707SOL    HW1 3020   4.662   5.824   2.356
  707SOL    HW2 3021   4.534   5.724   2.347
  708SOL     OW 3022   4.072   6.986   1.982
  708SOL    HW1 3023   4.144   6.976   2.050
  708SOL    HW2 3024   4.035   0.058   1.985
  709SOL     OW 3025   0.413   6.136   1.136
  709SOL    HW1 3026   0.414   6.224   1.183
  709SOL    HW2 3027   0.474   6.072   1.184
  710SOL     OW 3028   3.866   2.840   1.315
  710SOL    HW1 3029   3.799   2.914   1.307
  710SOL    HW2 3030   3.818   2.753   1.322
  711SOL     OW 3031   0.189   3.420   5.526
  711SOL    HW1 3032   0.099   3.427   5.570
  711SOL    HW2 3033   0.260   3.439   5.593
  712SOL     OW 3034   4.717   2.798   1.033
  712SOL    HW1 3035   4.705   2.817   1.130
  712SOL    HW2 3036   4.731   2.700   1.019
  713SOL     OW 3037   4.275   2.587   5.703
  713SOL    HW1 3038   4.254   2.569   5.799
  713SOL    HW2 3039   4.358   2.538   5.677
  714SOL     OW 3040   0.237   4.578   3.455
  714SOL    HW1 3041   0.249   4.568   3.554
  714SOL    HW2 3042   0.158   4.636   3.436
  715SOL     OW 3043   4.931   6.059   6.760
  715SOL    HW1 3044   4.921   6.050   6.859
  715SOL    HW2 3045   4.950   6.155   6.738
  716SOL     OW 3046   0.899   0.587   1.964
  716SOL    HW1 3047   0.987   0.633   1.955
  716SOL    HW2 3048   0.887   0.553   2.057
  717SOL     OW 3049   6.629   4.127   4.871
  717SOL    HW1 3050   6.540   4.110   4.828
  717SOL    HW2 3051   6.679   4.041   4.880
  718SOL     OW 3052   4.587   2.833   6.152
  718SOL    HW1 3053   4.495   2.862   6.126
  718SOL    HW2 3054   4.605   2.742   6.115
  719SOL     OW 3055   6.546   1.073   2.660
  719SOL    HW1 3056   6.499   0.988   2.637
  719SOL    HW2 3057   6.507   1.111   2.743
  720SOL     OW 3058   2.504   0.498   6.417
  720SOL    HW1 3059   2.552   0.576   6.378
  720SOL    HW2 3060   2.413   0.527   6.448
  721SOL     OW 3061   2.546   1.800   3.270
  721SOL    HW1 3062   2.562   1.758   3.181
  721SOL    HW2 3063   2.464   1.760   3.312
  722SOL     OW 3064   3.215   0.179   5.489
  722SOL    HW1 3065   3.189   0.089   5.455
  722SOL    HW2 3066   3.199   0.247   5.417
  723SOL     OW 3067   1.336   4.425   3.636
  723SOL    HW1 3068   1.244   4.417   3.598
  723SOL    HW2 3069   1.376   4.512   3.608
  724SOL     OW 3070   1.113   2.666   4.261
  724SOL    HW1 3071   1.174   2.622   4.326
  724SOL    HW2 3072   1.037   2.604   4.240
  725SOL     OW 3073   2.088   5.625   1.256
  725SOL    HW1 3074   2.166   5.683   1.281
  725SOL    HW2 3075   2.101   5.592   1.162
  726SOL     OW 3076   3.466   5.083   1.366
  726SOL    HW1 3077   3.468   5.183   1.368
  726SOL    HW2 3078   3.416   5.050   1.447
  727SOL     OW 3079   5.894   4.875   5.733
  727SOL    HW1 3080   5.951   4.918   5.663
  727SOL    HW2 3081   5.953   4.830   5.800
  728SOL     OW 3082   6.448   3.209   4.496
  728SOL    HW1 3083   6.480   3.162   4.578
  728SOL    HW2 3084   6.374   3.155   4.454
  729SOL     OW 3085   0.428   2.027   1.639
  729SOL    HW1 3086   0.466   1.935   1.649
  729SOL    HW2 3087   0.502   2.092   1.622
  730SOL     OW 3088   5.837   0.304   4.682
  730SOL    HW1 3089   5.897   0.238   4.637
  730SOL    HW2 3090   5.752   0.313   4.629
  731SOL     OW 3091   4.789   4.669   6.465
  731SOL    HW1 3092   4.744   4.657   6.554
  731SOL    HW2 3093   4.810   4.765   6.450
  732SOL     OW 3094   6.105   3.439   1.528
  732SOL    HW1 3095   6.092   3.401   1.620
  732SOL    HW2 3096   6.202   3.462   1.516
  733SOL     OW 3097   5.477   6.813   4.913
  733SOL    HW1 3098   5.513   6.891   4.966
  733SOL    HW2 3099   5.511   6.728   4.953
  734SOL     OW 3100   6.482   4.779   2.780
  734SOL    HW1 3101   6.523   4.727   2.855
  734SOL    HW2 3102   6.548   4.786   2.705
  735SOL     OW 3103   4.849   1.529   0.028
  735SOL    HW1 3104   4.760   1.573   0.013
  735SOL    HW2 3105   4.842   1.467   0.107
  736SOL     OW 3106   6.671   1.697   3.811
  736SOL    HW1 3107   6.641   1.786   3.845
  736SOL    HW2 3108   6.762   1.706   3.770
  737SOL     OW 3109   5.314   1.787   4.803
  737SOL    HW1 3110   5.245   1.794   4.875
  737SOL    HW2 3111   5.307   1.866   4.742
  738SOL     OW 3112   2.206   3.954   1.045
  738SOL    HW1 3113   2.158   3.905   0.971
  738SOL    HW2 3114   2.219   3.892   1.122
  739SOL     OW 3115   4.936   1.017   3.526
  739SOL    HW1 3116   4.988   0.983   3.447
  739SOL    HW2 3117   4.863   0.952   3.547
  740SOL     OW 3118   6.353   1.160   1.340
  740SOL    HW1 3119   6.351   1.205   1.251
  740SOL    HW2 3120   6.411   1.078   1.335
  741SOL     OW 3121   1.573   0.418   3.408
  741SOL    HW1 3122   1.529   0.341   3.361
  741SOL    HW2 3123   1.650   0.451   3.353
  742SOL     OW 3124   3.036   6.677   1.728
  742SOL    HW1 3125   3.133   6.700   1.723
  742SOL    HW2 3126   2.993   6.728   1.803
  743SOL     OW 3127   0.653   4.781   3.482
  743SOL    HW1 3128   0.564   4.826   3.477
  743SOL    HW2 3129   0.697   4.802   3.569
  744SOL     OW 3130   5.468   0.315   0.748
  744SOL    HW1 3131   5.391   0.376   0.770
  744SOL    HW2 3132   5.551   0.369   0.735
  745SOL     OW 3133   1.648   5.299   4.491
  745SOL    HW1 3134   1.585   5.263   4.560
  745SOL    HW2 3135   1.614   5.277   4.400
  746SOL     OW 3136   6.694   3.928   6.924
  746SOL    HW1 3137   6.636   3.898   7.001
  746SOL    HW2 3138   6.706   4.027   6.928
  747SOL     OW 3139   3.462   6.896   4.318
  747SOL    HW1 3140   3.418   6.986   4.320
  747SOL    HW2 3141   3.456   6.855   4.409
  748SOL     OW 3142   4.028   4.817   1.907
  748SOL    HW1 3143   4.076   4.830   1.994
  748SOL    HW2 3144   4.057   4.886   1.841
  749SOL     OW 3145   6.068   3.710   4.757
  749SOL    HW1 3146   6.051   3.774   4.682
  749SOL    HW2 3147   6.104   3.760   4.836
  750SOL     OW 3148   2.913   1.836   1.635
  750SOL    HW1 3149   2.891   1.928   1.603
  750SOL    HW2 3150   2.871   1.820   1.724
  751SOL     OW 3151   4.046   2.026   0.138
  751SOL    HW1 3152   4.005   2.084   0.068
  751SOL    HW2 3153   4.145   2.040   0.139
  752SOL     OW 3154   3.671   1.247   1.945
  752SOL    HW1 3155   3.681   1.155   1.982
  752SOL    HW2 3156   3.754   1.273   1.896
  753SOL     OW 3157   1.483   3.438   5.642
  753SOL    HW1 3158   1.429   3.507   5.594
  753SOL    HW2 3159   1.494   3.465   5.738
  754SOL     OW 3160   4.661   2.275   5.146
  754SOL    HW1 3161   4.580   2.330   5.125
  754SOL    HW2 3162   4.683   2.218   5.067
  755SOL     OW 3163   1.265   4.375   5.161
  755SOL    HW1 3164   1.172   4.406   5.142
  755SOL    HW2 3165   1.307   4.342   5.077
  756SOL     OW 3166   3.130   6.703   6.533
  756SOL    HW1 3167   3.035   6.702   6.564
  756SOL    HW2 3168   3.155   6.795   6.503
  757SOL     OW 3169   0.465   0.330   4.108
  757SOL    HW1 3170   0.366   0.325   4.122
  757SOL    HW2 3171   0.500   0.414   4.149
  758SOL     OW 3172   3.060   0.178   2.862
  758SOL    HW1 3173   3.047   0.231   2.777
  758SOL    HW2 3174   2.972   0.171   2.910
  759SOL     OW 3175   0.482   2.042   2.257
  759SOL    HW1 3176   0.554   2.093   2.304
  759SOL    HW2 3177   0.489   2.058   2.159
  760SOL     OW 3178   6.113   0.049   4.246
  760SOL    HW1 3179   6.199   0.002   4.265
  760SOL    HW2 3180   6.112   0.137   4.293
  761SOL     OW 3181   5.453   4.204   6.309
  761SOL    HW1 3182   5.522   4.146   6.264
  761SOL    HW2 3183   5.378   4.146   6.340
  762SOL     OW 3184   2.046   6.613   4.964
  762SOL    HW1 3185   2.066   6.522   4.928
  762SOL    HW2 3186   2.121   6.675   4.941
  763SOL     OW 3187   4.343   5.245   6.052
  763SOL    HW1 3188   4.303   5.336   6.047
  763SOL    HW2 3189   4.288   5.187   6.112
  764SOL     OW 3190   5.456   0.786   5.033
  764SOL    HW1 3191   5.356   0.792   5.032
  764SOL    HW2 3192   5.486   0.734   5.113
  765SOL     OW 3193   1.752   5.126   1.532
  765SOL    HW1 3194   1.829   5.075   1.571
  765SOL    HW2 3195   1.746   5.216   1.576
  766SOL     OW 3196   2.286   2.494   6.321
  766SOL    HW1 3197   2.245   2.403   6.324
  766SOL    HW2 3198   2.374   2.489   6.274
  767SOL     OW 3199   6.394   6.006   2.746
  767SOL    HW1 3200   6.361   6.064   2.671
  767SOL    HW2 3201   6.401   6.061   2.829
  768SOL     OW 3202   2.478   5.973   2.493
  768SOL    HW1 3203   2.523   6.009   2.575
  768SOL    HW2 3204   2.481   5.873   2.494
  769SOL     OW 3205   2.220   0.717   5.706
  769SOL    HW1 3206   2.199   0.786   5.637
  769SOL    HW2 3207   2.299   0.664   5.677
  770SOL     OW 3208   1.574   4.419   3.353
  770SOL    HW1 3209   1.531   4.456   3.271
  770SOL    HW2 3210   1.602   4.494   3.413
  771SOL     OW 3211   1.102   4.780   2.518
  771SOL    HW1 3212   1.093   4.831   2.433
  771SOL    HW2 3213   1.166   4.826   2.579
  772SOL     OW 3214   5.455   4.842   6.801
  772SOL    HW1 3215   5.442   4.747   6.774
  772SOL    HW2 3216   5.464   4.899   6.719
  773SOL     OW 3217   0.456   4.426   3.917
  773SOL    HW1 3218   0.514   4.351   3.884
  773SOL    HW2 3219   0.373   4.389   3.957
  774SOL     OW 3220   2.000   1.431   1.561
  774SOL    HW1 3221   2.045   1.519   1.559
  774SOL    HW2 3222   1.931   1.430   1.634
  775SOL     OW 3223   1.708   2.598   3.819
  775SOL    HW1 3224   1.740   2.654   3.896
  775SOL    HW2 3225   1.695   2.656   3.739
  776SOL     OW 3226   1.301   0.306   5.569
  776SOL    HW1 3227   1.268   0.258   5.650
  776SOL    HW2 3228   1.396   0.279   5.550
  777SOL     OW 3229   2.085   4.481   2.052
  777SOL    HW1 3230   2.182   4.462   2.064
  777SOL    HW2 3231   2.059   4.462   1.957
  778SOL     OW 3232   2.544   1.145   2.183
  778SOL    HW1 3233   2.470   1.187   2.236
  778SOL    HW2 3234   2.616   1.212   2.167
  779SOL     OW 3235   6.385   2.213   2.559
  779SOL    HW1 3236   6.407   2.270   2.639
  779SOL    HW2 3237   6.287   2.191   2.561
  780SOL     OW 3238   0.503   3.426   3.967
  780SOL    HW1 3239   0.541   3.425   4.059
  780SOL    HW2 3240   0.416   3.475   3.967
  781SOL     OW 3241   6.279   6.856   0.052
  781SOL    HW1 3242   6.264   6.913   0.133
  781SOL    HW2 3243   6.257   6.761   0.074
  782SOL     OW 3244   1.692   3.824   6.512
  782SOL    HW1 3245   1.759   3.835   6.438
  782SOL    HW2 3246   1.659   3.914   6.540
  783SOL     OW 3247   4.966   4.925   2.106
  783SOL    HW1 3248   4.931   4.878   2.025
  783SOL    HW2 3249   5.029   4.864   2.155
  784SOL     OW 3250   4.564   4.962   0.315
  784SOL    HW1 3251   4.640   5.027   0.318
  784SOL    HW2 3252   4.583   4.885   0.376
  785SOL     OW 3253   0.345   2.006   3.578
  785SOL    HW1 3254   0.337   2.059   3.494
  785SOL    HW2 3255   0.442   1.997   3.602
  786SOL     OW 3256   0.802   0.419   3.251
  786SOL    HW1 3257   0.709   0.438   3.283
  786SOL    HW2 3258   0.862   0.493   3.279
  787SOL     OW 3259   1.737   0.270   6.768
  787SOL    HW1 3260   1.799   0.195   6.791
  787SOL    HW2 3261   1.785   0.357   6.777
  788SOL     OW 3262   4.092   1.502   0.328
  788SOL    HW1 3263   4.038   1.521   0.246
  788SOL    HW2 3264   4.093   1.403   0.346
  789SOL     OW 3265   4.442   4.183   1.213
  789SOL    HW1 3266   4.504   4.111   1.243
  789SOL    HW2 3267   4.461   4.205   1.117
  790SOL     OW 3268   2.130   1.318   2.850
  790SOL    HW1 3269   2.130   1.410   2.890
  790SOL    HW2 3270   2.147   1.250   2.922
  791SOL     OW 3271   1.563   5.746   4.564
  791SOL    HW1 3272   1.631   5.781   4.499
  791SOL    HW2 3273   1.589   5.775   4.656
  792SOL     OW 3274   0.743   1.114   1.094
  792SOL    HW1 3275   0.786   1.059   1.023
  792SOL    HW2 3276   0.704   1.054   1.163
  793SOL     OW 3277   4.989   4.931   3.789
  793SOL    HW1 3278   4.899   4.934   3.747
  793SOL    HW2 3279   5.012   5.021   3.826
  794SOL     OW 3280   3.156   3.837   6.039
  794SOL    HW1 3281   3.247   3.843   5.998
  794SOL    HW2 3282   3.143   3.745   6.077
  795SOL     OW 3283   3.473   6.764   4.563
  795SOL    HW1 3284   3.503   6.672   4.537
  795SOL    HW2 3285   3.551   6.816   4.597
  796SOL     OW 3286   6.934   2.546   5.931
  796SOL    HW1 3287   6.845   2.501   5.919
  796SOL    HW2 3288   6.992   2.525   5.852
  797SOL     OW 3289   5.782   2.310   1.296
  797SOL    HW1 3290   5.845   2.308   1.374
  797SOL    HW2 3291   5.752   2.217   1.275
  798SOL     OW 3292   3.065   6.338   2.178
  798SOL    HW1 3293   3.099   6.336   2.084
  798SOL    HW2 3294   2.981   6.392   2.183
  799SOL     OW 3295   7.000   0.235   6.120
  799SOL    HW1 3296   0.049   0.249   6.050
  799SOL    HW2 3297   0.009   0.279   6.205
  800SOL     OW 3298   5.256   1.463   2.851
  800SOL    HW1 3299   5.172   1.493   2.806
  800SOL    HW2 3300   5.325   1.442   2.781
  801SOL     OW 3301   2.042   4.448   4.617
  801SOL    HW1 3302   2.072   4.506   4.542
  801SOL    HW2 3303   1.985   4.374   4.582
  802SOL     OW 3304   3.044   1.729   1.013
  802SOL    HW1 3305   3.024   1.655   1.077
  802SOL    HW2 3306   3.030   1.817   1.058
  803SOL     OW 3307   1.143   0.108   5.913
  803SOL    HW1 3308   1.099   0.067   5.993
  803SOL    HW2 3309   1.106   0.199   5.898
  804SOL     OW 3310   5.804   6.379   0.041
  804SOL    HW1 3311   5.878   6.438   0.073
  804SOL    HW2 3312   5.842   6.303   7.010
  805SOL     OW 3313   3.179   0.742   3.720
  805SOL    HW1 3314   3.082   0.722   3.706
  805SOL    HW2 3315   3.212   0.801   3.646
  806SOL     OW 3316   5.430   1.274   4.300
  806SOL    HW1 3317   5.403   1.189   4.344
  806SOL    HW2 3318   5.433   1.348   4.367
  807SOL     OW 3319   1.578   0.932   5.234
  807SOL    HW1 3320   1.606   0.953   5.141
  807SOL    HW2 3321   1.491   0.977   5.254
  808SOL     OW 3322   4.109   3.953   6.097
  808SOL    HW1 3323   4.166   4.024   6.057
  808SOL    HW2 3324   4.156   3.911   6.175
  809SOL     OW 3325   0.878   4.634   1.585
  809SOL    HW1 3326   0.811   4.632   1.510
  809SOL    HW2 3327   0.836   4.676   1.666
  810SOL     OW 3328   3.436   4.144   1.224
  810SOL    HW1 3329   3.408   4.054   1.258
  810SOL    HW2 3330   3.414   4.151   1.127
  811SOL     OW 3331   5.147   5.744   5.310
  811SOL    HW1 3332   5.184   5.736   5.403
  811SOL    HW2 3333   5.053   5.778   5.314
  812SOL     OW 3334   0.199   0.788   2.719
  812SOL    HW1 3335   0.165   0.765   2.627
  812SOL    HW2 3336   0.210   0.888   2.726
  813SOL     OW 3337   4.248   0.277   4.170
  813SOL    HW1 3338   4.184   0.239   4.237
  813SOL    HW2 3339   4.264   0.210   4.098
  814SOL     OW 3340   5.863   6.440   2.677
  814SOL    HW1 3341   5.892   6.345   2.689
  814SOL    HW2 3342   5.839   6.479   2.766
  815SOL     OW 3343   0.012   3.667   3.764
  815SOL    HW1 3344   6.939   3.634   3.766
  815SOL    HW2 3345   0.074   3.589   3.749
  816SOL     OW 3346   6.133   5.846   0.450
  816SOL    HW1 3347   6.216   5.872   0.400
  816SOL    HW2 3348   6.065   5.813   0.385
  817SOL     OW 3349   2.023   5.411   1.403
  817SOL    HW1 3350   1.928   5.417   1.372
  817SOL    HW2 3351   2.079   5.478   1.353
  818SOL     OW 3352   5.819   2.501   3.166
  818SOL    HW1 3353   5.783   2.507   3.073
  818SOL    HW2 3354   5.805   2.408   3.201
  819SOL     OW 3355   5.854   2.887   2.460
  819SOL    HW1 3356   5.910   2.809   2.488
  819SOL    HW2 3357   5.869   2.905   2.363
  820SOL     OW 3358   3.903   2.062   4.980
  820SOL    HW1 3359   3.864   2.132   5.040
  820SOL    HW2 3360   3.835   2.034   4.913
  821SOL     OW 3361   0.259   3.751   0.792
  821SOL    HW1 3362   0.334   3.706   0.744
  821SOL    HW2 3363   0.188   3.778   0.727
  822SOL     OW 3364   0.736   3.565   3.562
  822SOL    HW1 3365   0.697   3.475   3.543
  822SOL    HW2 3366   0.710   3.594   3.654
  823SOL     OW 3367   5.462   3.934   6.427
  823SOL    HW1 3368   5.411   3.878   6.363
  823SOL    HW2 3369   5.559   3.909   6.424
  824SOL     OW 3370   4.680   1.371   6.124
  824SOL    HW1 3371   4.628   1.358   6.209
  824SOL    HW2 3372   4.751   1.439   6.138
  825SOL     OW 3373   6.852   5.063   1.467
  825SOL    HW1 3374   6.835   5.153   1.506
  825SOL    HW2 3375   6.949   5.039   1.481
  826SOL     OW 3376   3.811   2.640   5.960
  826SOL    HW1 3377   3.867   2.559   5.974
  826SOL    HW2 3378   3.714   2.617   5.972
  827SOL     OW 3379   2.789   4.342   5.408
  827SOL    HW1 3380   2.830   4.384   5.327
  827SOL    HW2 3381   2.850   4.356   5.487
  828SOL     OW 3382   5.155   6.299   6.950
  828SOL    HW1 3383   5.093   6.296   0.007
  828SOL    HW2 3384   5.101   6.311   6.866
  829SOL     OW 3385   4.107   3.647   2.281
  829SOL    HW1 3386   4.192   3.683   2.321
  829SOL    HW2 3387   4.034   3.653   2.349
  830SOL     OW 3388   5.825   4.934   6.583
  830SOL    HW1 3389   5.864   4.986   6.507
  830SOL    HW2 3390   5.737   4.895   6.556
  831SOL     OW 3391   6.265   0.385   6.916
  831SOL    HW1 3392   6.271   0.459   6.849
  831SOL    HW2 3393   6.309   0.303   6.879
  832SOL     OW 3394   4.539   1.086   2.778
  832SOL    HW1 3395   4.501   1.110   2.688
  832SOL    HW2 3396   4.492   1.139   2.849
  833SOL     OW 3397   1.028   3.458   6.646
  833SOL    HW1 3398   0.986   3.520   6.579
  833SOL    HW2 3399   1.112   3.500   6.681
  834SOL     OW 3400   3.966   4.185   0.952
  834SOL    HW1 3401   4.013   4.236   0.880
  834SOL    HW2 3402   3.872   4.166   0.924
  835SOL     OW 3403   3.537   0.076   5.664
  835SOL    HW1 3404   3.559   7.000   5.647
  835SOL    HW2 3405   3.537   0.093   5.763
  836SOL     OW 3406   4.025   6.541   5.511
  836SOL    HW1 3407   3.962   6.610   5.545
  836SOL    HW2 3408   3.994   6.450   5.540
  837SOL     OW 3409   5.569   0.089   1.036
  837SOL    HW1 3410   5.601   0.076   1.130
  837SOL    HW2 3411   5.494   0.024   1.017
  838SOL     OW 3412   2.010   0.886   4.425
  838SOL    HW1 3413   2.070   0.825   4.373
  838SOL    HW2 3414   1.977   0.958   4.364
  839SOL     OW 3415   1.469   1.564   2.184
  839SOL    HW1 3416   1.390   1.615   2.217
  839SOL    HW2 3417   1.469   1.472   2.222
  840SOL     OW 3418   6.772   5.683   0.161
  840SOL    HW1 3419   6.697   5.627   0.124
  840SOL    HW2 3420   6.857   5.630   0.158
  841SOL     OW 3421   3.187   5.311   6.297
  841SOL    HW1 3422   3.283   5.283   6.296
  841SOL    HW2 3423   3.136   5.248   6.356
  842SOL     OW 3424   3.799   0.228   4.703
  842SOL    HW1 3425   3.748   0.277   4.633
  842SOL    HW2 3426   3.740   0.161   4.748
  843SOL     OW 3427   1.242   1.286   1.055
  843SOL    HW1 3428   1.153   1.257   1.090
  843SOL    HW2 3429   1.312   1.271   1.125
  844SOL     OW 3430   5.888   0.222   0.678
  844SOL    HW1 3431   5.815   0.286   0.699
  844SOL    HW2 3432   5.875   0.138   0.731
  845SOL     OW 3433   4.731   4.057   4.258
  845SOL    HW1 3434   4.791   4.122   4.306
  845SOL    HW2 3435   4.647   4.104   4.230
  846SOL     OW 3436   1.977   1.478   6.065
  846SOL    HW1 3437   2.054   1.460   6.004
  846SOL    HW2 3438   1.993   1.564   6.113
  847SOL     OW 3439   1.351   3.486   1.232
  847SOL    HW1 3440   1.345   3.479   1.132
  847SOL    HW2 3441   1.272   3.536   1.266
  848SOL     OW 3442   6.542   0.127   5.771
  848SOL    HW1 3443   6.581   0.135   5.863
  848SOL    HW2 3444   6.615   0.102   5.707
  849SOL     OW 3445   6.578   4.024   5.625
  849SOL    HW1 3446   6.659   4.078   5.645
  849SOL    HW2 3447   6.594   3.966   5.545
  850SOL     OW 3448   5.001   1.302   3.912
  850SOL    HW1 3449   4.973   1.273   4.003
  850SOL    HW2 3450   4.927   1.283   3.847
  851SOL     OW 3451   6.527   2.674   2.101
  851SOL    HW1 3452   6.466   2.739   2.146
  851SOL    HW2 3453   6.574   2.720   2.026
  852SOL     OW 3454   1.211   3.660   0.353
  852SOL    HW1 3455   1.281   3.682   0.420
  852SOL    HW2 3456   1.210   3.562   0.336
  853SOL     OW 3457   0.965   4.608   0.765
  853SOL    HW1 3458   0.929   4.617   0.858
  853SOL    HW2 3459   1.064   4.624   0.767
  854SOL     OW 3460   5.845   4.946   0.725
  854SOL    HW1 3461   5.789   4.963   0.644
  854SOL    HW2 3462   5.790   4.897   0.793
  855SOL     OW 3463   0.007   7.003   1.533
  855SOL    HW1 3464   0.028   6.935   1.463
  855SOL    HW2 3465   0.091   0.025   1.566
  856SOL     OW 3466   1.495   2.354   5.773
  856SOL    HW1 3467   1.409   2.307   5.753
  856SOL    HW2 3468   1.476   2.438   5.824
  857SOL     OW 3469   6.363   4.649   2.023
  857SOL    HW1 3470   6.264   4.667   2.030
  857SOL    HW2 3471   6.380   4.551   2.031
  858SOL     OW 3472   3.060   3.520   1.303
  858SOL    HW1 3473   3.051   3.607   1.254
  858SOL    HW2 3474   2.983   3.510   1.366
  859SOL     OW 3475   5.593   6.639   4.519
  859SOL    HW1 3476   5.600   6.733   4.551
  859SOL    HW2 3477   5.634   6.577   4.587
  860SOL     OW 3478   6.046   2.738   0.835
  860SOL    HW1 3479   6.016   2.822   0.789
  860SOL    HW2 3480   6.021   2.743   0.932
  861SOL     OW 3481   2.778   5.495   3.822
  861SOL    HW1 3482   2.850   5.562   3.842
  861SOL    HW2 3483   2.712   5.534   3.759
  862SOL     OW 3484   1.392   3.688   4.487
  862SOL    HW1 3485   1.447   3.771   4.480
  862SOL    HW2 3486   1.319   3.691   4.419
  863SOL     OW 3487   5.942   1.699   0.675
  863SOL    HW1 3488   6.025   1.754   0.663
  863SOL    HW2 3489   5.912   1.665   0.587
  864SOL     OW 3490   4.540   5.915   4.137
  864SOL    HW1 3491   4.454   5.865   4.150
  864SOL    HW2 3492   4.615   5.851   4.125
  865SOL     OW 3493   1.973   6.290   5.608
  865SOL    HW1 3494   1.966   6.197   5.643
  865SOL    HW2 3495   1.896   6.344   5.643
  866SOL     OW 3496   2.151   1.653   1.523
  866SOL    HW1 3497   2.161   1.669   1.425
  866SOL    HW2 3498   2.187   1.732   1.573
  867SOL     OW 3499   4.805   3.669   0.393
  867SOL    HW1 3500   4.872   3.734   0.429
  867SOL    HW2 3501   4.827   3.577   0.426
  868SOL     OW 3502   5.975   1.316   0.565
  868SOL    HW1 3503   5.878   1.336   0.572
  868SOL    HW2 3504   6.026   1.374   0.629
  869SOL     OW 3505   0.601   4.246   2.632
  869SOL    HW1 3506   0.631   4.272   2.724
  869SOL    HW2 3507   0.502   4.257   2.626
  870SOL     OW 3508   3.739   3.417   0.133
  870SOL    HW1 3509   3.751   3.500   0.078
  870SOL    HW2 3510   3.651   3.374   0.111
  871SOL     OW 3511   4.830   2.255   2.731
  871SOL    HW1 3512   4.865   2.219   2.645
  871SOL    HW2 3513   4.876   2.342   2.752
  872SOL     OW 3514   5.305   3.451   3.878
  872SOL    HW1 3515   5.343   3.537   3.845
  872SOL    HW2 3516   5.364   3.375   3.850
  873SOL     OW 3517   5.914   6.634   4.494
  873SOL    HW1 3518   5.860   6.678   4.422
  873SOL    HW2 3519   5.933   6.700   4.566
  874SOL     OW 3520   0.899   3.895   5.781
  874SOL    HW1 3521   0.885   3.877   5.684
  874SOL    HW2 3522   0.811   3.910   5.826
  875SOL     OW 3523   4.844   3.619   0.850
  875SOL    HW1 3524   4.809   3.705   0.813
  875SOL    HW2 3525   4.853   3.553   0.776
  876SOL     OW 3526   0.944   4.147   2.057
  876SOL    HW1 3527   1.004   4.206   2.003
  876SOL    HW2 3528   0.973   4.149   2.152
  877SOL     OW 3529   3.717   4.363   5.698
  877SOL    HW1 3530   3.639   4.321   5.743
  877SOL    HW2 3531   3.699   4.461   5.683
  878SOL     OW 3532   3.531   5.769   5.140
  878SOL    HW1 3533   3.602   5.699   5.145
  878SOL    HW2 3534   3.474   5.754   5.060
  879SOL     OW 3535   3.813   1.796   0.602
  879SOL    HW1 3536   3.866   1.712   0.609
  879SOL    HW2 3537   3.865   1.864   0.551
  880SOL     OW 3538   2.941   3.500   3.979
  880SOL    HW1 3539   2.935   3.465   4.072
  880SOL    HW2 3540   3.032   3.538   3.963
  881SOL     OW 3541   5.593   3.711   5.508
  881SOL    HW1 3542   5.637   3.800   5.494
  881SOL    HW2 3543   5.602   3.656   5.425
  882SOL     OW 3544   0.726   2.546   4.566
  882SOL    HW1 3545   0.746   2.472   4.502
  882SOL    HW2 3546   0.644   2.595   4.535
  883SOL     OW 3547   3.531   0.270   0.573
  883SOL    HW1 3548   3.484   0.259   0.660
  883SOL    HW2 3549   3.533   0.183   0.524
  884SOL     OW 3550   0.142   4.281   6.998
  884SOL    HW1 3551   0.067   4.347   7.006
  884SOL    HW2 3552   0.229   4.330   7.002
  885SOL     OW 3553   4.874   6.756   5.873
  885SOL    HW1 3554   4.844   6.851   5.859
  885SOL    HW2 3555   4.814   6.711   5.938
  886SOL     OW 3556   4.294   1.232   1.052
  886SOL    HW1 3557   4.313   1.141   1.013
  886SOL    HW2 3558   4.211   1.269   1.011
  887SOL     OW 3559   3.899   5.564   3.785
  887SOL    HW1 3560   3.970   5.494   3.774
  887SOL    HW2 3561   3.935   5.652   3.752
  888SOL     OW 3562   6.932   6.446   2.727
  888SOL    HW1 3563   6.996   6.512   2.767
  888SOL    HW2 3564   6.839   6.481   2.733
  889SOL     OW 3565   0.251   1.043   6.234
  889SOL    HW1 3566   0.309   1.107   6.183
  889SOL    HW2 3567   0.279   0.949   6.215
  890SOL     OW 3568   2.154   4.816   2.266
  890SOL    HW1 3569   2.059   4.798   2.241
  890SOL    HW2 3570   2.215   4.783   2.194
  891SOL     OW 3571   6.662   3.857   0.652
  891SOL    HW1 3572   6.713   3.890   0.732
  891SOL    HW2 3573   6.613   3.773   0.676
  892SOL     OW 3574   3.637   3.582   5.084
  892SOL    HW1 3575   3.642   3.626   4.995
  892SOL    HW2 3576   3.683   3.639   5.152
  893SOL     OW 3577   1.378   0.265   3.255
  893SOL    HW1 3578   1.407   0.301   3.166
  893SOL    HW2 3579   1.280   0.276   3.265
  894SOL     OW 3580   1.054   2.953   3.017
  894SOL    HW1 3581   1.014   2.897   3.089
  894SOL    HW2 3582   1.147   2.921   2.998
  895SOL     OW 3583   1.286   5.201   3.611
  895SOL    HW1 3584   1.328   5.222   3.699
  895SOL    HW2 3585   1.299   5.277   3.548
  896SOL     OW 3586   6.446   5.764   1.727
  896SOL    HW1 3587   6.536   5.803   1.707
  896SOL    HW2 3588   6.419   5.787   1.820
  897SOL     OW 3589   4.536   0.268   6.722
  897SOL    HW1 3590   4.443   0.306   6.714
  897SOL    HW2 3591   4.564   0.231   6.633
  898SOL     OW 3592   3.639   5.775   1.917
  898SOL    HW1 3593   3.653   5.700   1.853
  898SOL    HW2 3594   3.592   5.741   1.999
  899SOL     OW 3595   0.522   5.830   0.445
  899SOL    HW1 3596   0.617   5.839   0.415
  899SOL    HW2 3597   0.469   5.786   0.372
  900SOL     OW 3598   4.563   6.299   6.686
  900SOL    HW1 3599   4.540   6.360   6.610
  900SOL    HW2 3600   4.585   6.208   6.650
  901SOL     OW 3601   0.952   0.911   4.452
  901SOL    HW1 3602   0.990   0.963   4.528
  901SOL    HW2 3603   1.006   0.828   4.438
  902SOL     OW 3604   1.104   2.489   1.189
  902SOL    HW1 3605   1.124   2.548   1.267
  902SOL    HW2 3606   1.126   2.538   1.104
  903SOL     OW 3607   0.012   3.088   6.808
  903SOL    HW1 3608   7.000   3.058   6.898
  903SOL    HW2 3609   0.103   3.128   6.818
  904SOL     OW 3610   2.134   2.900   2.553
  904SOL    HW1 3611   2.182   2.881   2.467
  904SOL    HW2 3612   2.110   2.813   2.597
  905SOL     OW 3613   5.122   4.855   6.061
  905SOL    HW1 3614   5.184   4.933   6.056
  905SOL    HW2 3615   5.080   4.840   5.971
  906SOL     OW 3616   0.901   2.605   6.208
  906SOL    HW1 3617   0.977   2.595   6.144
  906SOL    HW2 3618   0.909   2.538   6.281
  907SOL     OW 3619   4.980   2.508   1.946
  907SOL    HW1 3620   5.037   2.432   1.915
  907SOL    HW2 3621   5.020   2.594   1.915
  908SOL     OW 3622   2.475   4.844   2.912
  908SOL    HW1 3623   2.564   4.825   2.870
  908SOL    HW2 3624   2.428   4.915   2.860
  909SOL     OW 3625   3.453   5.620   2.139
  909SOL    HW1 3626   3.530   5.557   2.132
  909SOL    HW2 3627   3.460   5.670   2.225
  910SOL     OW 3628   2.996   0.986   0.758
  910SOL    HW1 3629   2.997   0.897   0.712
  910SOL    HW2 3630   3.055   0.983   0.839
  911SOL     OW 3631   0.505   5.928   6.911
  911SOL    HW1 3632   0.585   5.916   6.970
  911SOL    HW2 3633   0.532   5.915   6.816
  912SOL     OW 3634   4.964   0.567   3.628
  912SOL    HW1 3635   4.947   0.529   3.719
  912SOL    HW2 3636   4.986   0.494   3.564
  913SOL     OW 3637   2.222   0.992   4.176
  913SOL    HW1 3638   2.269   0.906   4.158
  913SOL    HW2 3639   2.288   1.060   4.207
  914SOL     OW 3640   2.967   5.886   5.199
  914SOL    HW1 3641   3.041   5.915   5.138
  914SOL    HW2 3642   2.929   5.966   5.246
  915SOL     OW 3643   0.510   3.116   0.860
  915SOL    HW1 3644   0.510   3.099   0.959
  915SOL    HW2 3645   0.482   3.032   0.812
  916SOL     OW 3646   2.092   3.173   2.497
  916SOL    HW1 3647   2.076   3.177   2.399
  916SOL    HW2 3648   2.095   3.077   2.527
  917SOL     OW 3649   6.243   1.116   2.503
  917SOL    HW1 3650   6.277   1.183   2.436
  917SOL    HW2 3651   6.297   1.032   2.495
  918SOL     OW 3652   3.266   0.237   1.148
  918SOL    HW1 3653   3.253   0.305   1.220
  918SOL    HW2 3654   3.344   0.178   1.171
  919SOL     OW 3655   6.718   6.412   3.590
  919SOL    HW1 3656   6.666   6.357   3.525
  919SOL    HW2 3657   6.655   6.468   3.644
  920SOL     OW 3658   2.241   4.643   2.541
  920SOL    HW1 3659   2.176   4.582   2.496
  920SOL    HW2 3660   2.334   4.610   2.526
  921SOL     OW 3661   4.350   4.961   2.918
  921SOL    HW1 3662   4.408   5.038   2.891
  921SOL    HW2 3663   4.263   4.967   2.869
  922SOL     OW 3664   2.851   3.540   5.174
  922SOL    HW1 3665   2.842   3.543   5.074
  922SOL    HW2 3666   2.945   3.562   5.200
  923SOL     OW 3667   2.864   4.083   5.959
  923SOL    HW1 3668   2.784   4.117   5.911
  923SOL    HW2 3669   2.867   3.984   5.956
  924SOL     OW 3670   5.632   2.702   3.264
  924SOL    HW1 3671   5.545   2.690   3.217
  924SOL    HW2 3672   5.699   2.636   3.228
  925SOL     OW 3673   0.085   2.027   6.873
  925SOL    HW1 3674   0.082   2.011   6.774
  925SOL    HW2 3675   0.041   1.951   6.921
  926SOL     OW 3676   5.820   1.542   1.271
  926SOL    HW1 3677   5.913   1.506   1.263
  926SOL    HW2 3678   5.792   1.585   1.185
  927SOL     OW 3679   5.974   3.989   3.228
  927SOL    HW1 3680   5.988   3.891   3.214
  927SOL    HW2 3681   5.876   4.008   3.233
  928SOL     OW 3682   1.029   6.387   0.685
  928SOL    HW1 3683   1.071   6.464   0.635
  928SOL    HW2 3684   0.999   6.418   0.775
  929SOL     OW 3685   0.324   0.381   0.864
  929SOL    HW1 3686   0.253   0.441   0.829
  929SOL    HW2 3687   0.302   0.353   0.957
  930SOL     OW 3688   5.529   5.765   3.962
  930SOL    HW1 3689   5.436   5.732   3.981
  930SOL    HW2 3690   5.595   5.707   4.008
  931SOL     OW 3691   5.811   1.910   3.804
  931SOL    HW1 3692   5.763   1.931   3.890
  931SOL    HW2 3693   5.777   1.825   3.766
  932SOL     OW 3694   2.825   6.775   3.880
  932SOL    HW1 3695   2.833   6.743   3.785
  932SOL    HW2 3696   2.736   6.817   3.893
  933SOL     OW 3697   2.114   5.423   3.594
  933SOL    HW1 3698   2.034   5.411   3.652
  933SOL    HW2 3699   2.147   5.517   3.602
  934SOL     OW 3700   1.340   0.168   6.216
  934SOL    HW1 3701   1.245   0.178   6.186
  934SOL    HW2 3702   1.390   0.114   6.149
  935SOL     OW 3703   4.716   4.353   4.061
  935SOL    HW1 3704   4.734   4.277   3.998
  935SOL    HW2 3705   4.622   4.385   4.048
  936SOL     OW 3706   1.039   0.368   6.292
  936SOL    HW1 3707   1.083   0.378   6.382
  936SOL    HW2 3708   0.959   0.427   6.287
  937SOL     OW 3709   5.381   1.558   5.188
  937SOL    HW1 3710   5.382   1.555   5.288
  937SOL    HW2 3711   5.418   1.645   5.157
  938SOL     OW 3712   6.646   5.271   6.464
  938SOL    HW1 3713   6.553   5.307   6.463
  938SOL    HW2 3714   6.709   5.343   6.492
  939SOL     OW 3715   6.829   6.407   5.419
  939SOL    HW1 3716   6.796   6.376   5.330
  939SOL    HW2 3717   6.751   6.431   5.477
  940SOL     OW 3718   0.892   3.074   1.581
  940SOL    HW1 3719   0.892   3.089   1.680
  940SOL    HW2 3720   0.935   2.986   1.561
  941SOL     OW 3721   5.120   1.109   6.154
  941SOL    HW1 3722   5.188   1.037   6.137
  941SOL    HW2 3723   5.138   1.151   6.243
  942SOL     OW 3724   4.806   6.909   2.666
  942SOL    HW1 3725   4.779   6.870   2.753
  942SOL    HW2 3726   4.896   6.875   2.640
  943SOL     OW 3727   2.080   3.686   3.770
  943SOL    HW1 3728   2.115   3.741   3.694
  943SOL    HW2 3729   1.990   3.650   3.747
  944SOL     OW 3730   0.698   4.829   6.486
  944SOL    HW1 3731   0.621   4.768   6.469
  944SOL    HW2 3732   0.739   4.808   6.575
  945SOL     OW 3733   6.561   4.493   5.488
  945SOL    HW1 3734   6.646   4.444   5.504
  945SOL    HW2 3735   6.566   4.540   5.400
  946SOL     OW 3736   4.888   2.938   5.793
  946SOL    HW1 3737   4.789   2.948   5.806
  946SOL    HW2 3738   4.915   2.845   5.817
  947SOL     OW 3739   3.654   2.982   3.286
  947SOL    HW1 3740   3.663   2.958   3.383
  947SOL    HW2 3741   3.741   2.966   3.239
  948SOL     OW 3742   3.719   0.316   2.663
  948SOL    HW1 3743   3.639   0.369   2.634
  948SOL    HW2 3744   3.699   0.219   2.657
  949SOL     OW 3745   1.101   6.007   6.180
  949SOL    HW1 3746   1.189   6.042   6.147
  949SOL    HW2 3747   1.116   5.946   6.257
  950SOL     OW 3748   5.092   5.414   1.983
  950SOL    HW1 3749   5.049   5.401   1.893
  950SOL    HW2 3750   5.192   5.410   1.972
  951SOL     OW 3751   2.223   0.573   3.925
  951SOL    HW1 3752   2.174   0.604   4.007
  951SOL    HW2 3753   2.250   0.478   3.935
  952SOL     OW 3754   4.452   1.740   3.006
  952SOL    HW1 3755   4.453   1.709   2.911
  952SOL    HW2 3756   4.371   1.797   3.022
  953SOL     OW 3757   5.452   4.615   3.844
  953SOL    HW1 3758   5.504   4.573   3.769
  953SOL    HW2 3759   5.453   4.554   3.923
  954SOL     OW 3760   3.861   5.320   1.427
  954SOL    HW1 3761   3.861   5.410   1.470
  954SOL    HW2 3762   3.823   5.252   1.490
  955SOL     OW 3763   0.203   3.505   2.678
  955SOL    HW1 3764   0.142   3.459   2.613
  955SOL    HW2 3765   0.198   3.604   2.663
  956SOL     OW 3766   6.794   1.198   2.651
  956SOL    HW1 3767   6.712   1.141   2.661
  956SOL    HW2 3768   6.875   1.139   2.648
  957SOL     OW 3769   5.931   3.878   5.248
  957SOL    HW1 3770   5.941   3.793   5.196
  957SOL    HW2 3771   6.021   3.915   5.269
  958SOL     OW 3772   4.300   1.972   1.623
  958SOL    HW1 3773   4.231   1.960   1.553
  958SOL    HW2 3774   4.256   1.986   1.712
  959SOL     OW 3775   4.653   5.974   2.785
  959SOL    HW1 3776   4.666   5.932   2.875
  959SOL    HW2 3777   4.583   5.924   2.734
  960SOL     OW 3778   1.079   6.423   1.815
  960SOL    HW1 3779   1.070   6.376   1.727
  960SOL    HW2 3780   0.994   6.471   1.836
  961SOL     OW 3781   4.833   6.716   3.751
  961SOL    HW1 3782   4.802   6.737   3.844
  961SOL    HW2 3783   4.754   6.709   3.690
  962SOL     OW 3784   0.056   1.303   5.311
  962SOL    HW1 3785   0.091   1.323   5.403
  962SOL    HW2 3786   0.132   1.273   5.253
  963SOL     OW 3787   6.182   1.817   6.451
  963SOL    HW1 3788   6.096   1.851   6.488
  963SOL    HW2 3789   6.168   1.727   6.409
  964SOL     OW 3790   5.182   4.504   0.461
  964SOL    HW1 3791   5.209   4.411   0.433
  964SOL    HW2 3792   5.112   4.538   0.399
  965SOL     OW 3793   5.218   2.117   1.681
  965SOL    HW1 3794   5.124   2.143   1.704
  965SOL    HW2 3795   5.227   2.111   1.582
  966SOL     OW 3796   5.696   2.557   2.420
  966SOL    HW1 3797   5.685   2.574   2.517
  966SOL    HW2 3798   5.793   2.550   2.398
  967SOL     OW 3799   2.537   4.410   0.476
  967SOL    HW1 3800   2.605   4.456   0.420
  967SOL    HW2 3801   2.580   4.337   0.529
  968SOL     OW 3802   3.478   0.767   1.820
  968SOL    HW1 3803   3.451   0.773   1.724
  968SOL    HW2 3804   3.399   0.785   1.878
  969SOL     OW 3805   2.694   6.145   6.203
  969SOL    HW1 3806   2.713   6.053   6.170
  969SOL    HW2 3807   2.667   6.141   6.300
  970SOL     OW 3808   5.368   0.960   6.451
  970SOL    HW1 3809   5.377   1.004   6.362
  970SOL    HW2 3810   5.289   0.998   6.499
  971SOL     OW 3811   6.879   2.486   2.998
  971SOL    HW1 3812   6.962   2.525   2.958
  971SOL    HW2 3813   6.901   2.445   3.086
  972SOL     OW 3814   5.578   3.364   2.331
  972SOL    HW1 3815   5.498   3.389   2.277
  972SOL    HW2 3816   5.567   3.271   2.367
  973SOL     OW 3817   0.249   5.121   6.742
  973SOL    HW1 3818   0.239   5.189   6.670
  973SOL    HW2 3819   0.335   5.135   6.790
  974SOL     OW 3820   5.323   6.101   1.948
  974SOL    HW1 3821   5.243   6.086   2.005
  974SOL    HW2 3822   5.404   6.063   1.993
  975SOL     OW 3823   1.531   0.312   6.392
  975SOL    HW1 3824   1.513   0.293   6.488
  975SOL    HW2 3825   1.449   0.291   6.338
  976SOL     OW 3826   6.614   3.267   2.784
  976SOL    HW1 3827   6.548   3.244   2.855
  976SOL    HW2 3828   6.603   3.203   2.707
  977SOL     OW 3829   0.599   6.900   2.378
  977SOL    HW1 3830   0.595   6.996   2.351
  977SOL    HW2 3831   0.677   6.856   2.333
  978SOL     OW 3832   5.155   3.234   5.856
  978SOL    HW1 3833   5.148   3.247   5.757
  978SOL    HW2 3834   5.189   3.141   5.874
  979SOL     OW 3835   0.182   2.201   0.686
  979SOL    HW1 3836   0.103   2.251   0.650
  979SOL    HW2 3837   0.151   2.124   0.740
  980SOL     OW 3838   4.456   2.506   3.759
  980SOL    HW1 3839   4.475   2.516   3.661
  980SOL    HW2 3840   4.369   2.551   3.780
  981SOL     OW 3841   0.102   1.330   4.627
  981SOL    HW1 3842   0.115   1.285   4.538
  981SOL    HW2 3843   0.181   1.310   4.686
  982SOL     OW 3844   2.116   1.826   4.854
  982SOL    HW1 3845   2.153   1.784   4.772
  982SOL    HW2 3846   2.036   1.882   4.829
  983SOL     OW 3847   6.519   3.097   4.059
  983SOL    HW1 3848   6.432   3.142   4.079
  983SOL    HW2 3849   6.524   3.012   4.111
  984SOL     OW 3850   3.113   1.825   4.951
  984SOL    HW1 3851   3.166   1.895   4.999
  984SOL    HW2 3852   3.027   1.864   4.919
  985SOL     OW 3853   5.656   3.725   5.149
  985SOL    HW1 3854   5.584   3.660   5.172
  985SOL    HW2 3855   5.740   3.676   5.126
  986SOL     OW 3856   5.881   5.149   0.957
  986SOL    HW1 3857   5.937   5.095   0.894
  986SOL    HW2 3858   5.820   5.088   1.008
  987SOL     OW 3859   4.747   6.626   2.346
  987SOL    HW1 3860   4.662   6.665   2.381
  987SOL    HW2 3861   4.825   6.663   2.397
  988SOL     OW 3862   3.735   3.342   1.750
  988SOL    HW1 3863   3.816   3.371   1.700
  988SOL    HW2 3864   3.753   3.256   1.797
  989SOL     OW 3865   6.097   1.281   6.232
  989SOL    HW1 3866   6.015   1.276   6.288
  989SOL    HW2 3867   6.140   1.370   6.244
  990SOL     OW 3868   4.606   1.142   2.035
  990SOL    HW1 3869   4.671   1.161   1.961
  990SOL    HW2 3870   4.625   1.204   2.112
  991SOL     OW 3871   0.590   3.688   4.942
  991SOL    HW1 3872   0.619   3.782   4.957
  991SOL    HW2 3873   0.513   3.686   4.879
  992SOL     OW 3874   6.970   2.915   1.507
  992SOL    HW1 3875   6.947   2.818   1.507
  992SOL    HW2 3876   0.032   2.930   1.453
  993SOL     OW 3877   0.355   4.939   0.995
  993SOL    HW1 3878   0.268   4.953   1.043
  993SOL    HW2 3879   0.396   4.852   1.024
  994SOL     OW 3880   4.245   5.182   0.924
  994SOL    HW1 3881   4.156   5.158   0.963
  994SOL    HW2 3882   4.294   5.243   0.986
  995SOL     OW 3883   3.646   2.849   5.086
  995SOL    HW1 3884   3.713   2.776   5.097
  995SOL    HW2 3885   3.620   2.857   4.990
  996SOL     OW 3886   3.667   5.057   4.784
  996SOL    HW1 3887   3.701   5.003   4.861
  996SOL    HW2 3888   3.731   5.047   4.707
  997SOL     OW 3889   1.117   0.221   3.773
  997SOL    HW1 3890   1.066   0.143   3.736
  997SOL    HW2 3891   1.131   0.289   3.701
  998SOL     OW 3892   5.186   0.700   5.082
  998SOL    HW1 3893   5.088   0.710   5.069
  998SOL    HW2 3894   5.224   0.639   5.012
  999SOL     OW 3895   5.105   4.387   2.873
  999SOL    HW1 3896   5.022   4.423   2.915
  999SOL    HW2 3897   5.183   4.443   2.900
 1000SOL     OW 3898   2.566   1.094   1.264
 1000SOL    HW1 3899   2.581   1.100   1.363
 1000SOL    HW2 3900   2.467   1.095   1.245
 1001SOL     OW 3901   5.020   5.585   0.726
 1001SOL    HW1 3902   5.090   5.529   0.682
 1001SOL    HW2 3903   4.965   5.527   0.787
 1002SOL     OW 3904   6.015   1.628   1.552
 1002SOL    HW1 3905   6.102   1.658   1.513
 1002SOL    HW2 3906   5.984   1.545   1.506
 1003SOL     OW 3907   1.807   6.448   2.299
 1003SOL    HW1 3908   1.709   6.465   2.310
 1003SOL    HW2 3909   1.826   6.416   2.207
 1004SOL     OW 3910   6.972   0.522   1.984
 1004SOL    HW1 3911   6.887   0.568   1.958
 1004SOL    HW2 3912   6.960   0.423   1.977
 1005SOL     OW 3913   2.339   2.828   4.097
 1005SOL    HW1 3914   2.333   2.928   4.100
 1005SOL    HW2 3915   2.307   2.795   4.008
 1006SOL     OW 3916   0.883   4.448   1.167
 1006SOL    HW1 3917   0.788   4.479   1.157
 1006SOL    HW2 3918   0.895   4.404   1.255
 1007SOL     OW 3919   4.951   0.470   5.227
 1007SOL    HW1 3920   4.954   0.421   5.139
 1007SOL    HW2 3921   4.874   0.534   5.226
 1008SOL     OW 3922   0.933   3.093   5.653
 1008SOL    HW1 3923   0.971   3.167   5.709
 1008SOL    HW2 3924   0.920   3.125   5.559
 1009SOL     OW 3925   0.514   5.250   4.749
 1009SOL    HW1 3926   0.490   5.180   4.816
 1009SOL    HW2 3927   0.510   5.340   4.792
 1010SOL     OW 3928   3.500   1.902   6.684
 1010SOL    HW1 3929   3.588   1.892   6.731
 1010SOL    HW2 3930   3.513   1.956   6.601
 1011SOL     OW 3931   1.794   4.748   2.579
 1011SOL    HW1 3932   1.852   4.830   2.580
 1011SOL    HW2 3933   1.701   4.773   2.607
 1012SOL     OW 3934   6.602   6.942   2.108
 1012SOL    HW1 3935   6.654   6.897   2.181
 1012SOL    HW2 3936   6.612   6.890   2.023
 1013SOL     OW 3937   1.271   1.286   5.987
 1013SOL    HW1 3938   1.239   1.319   5.899
 1013SOL    HW2 3939   1.231   1.341   6.060
 1014SOL     OW 3940   6.292   5.259   5.842
 1014SOL    HW1 3941   6.315   5.202   5.920
 1014SOL    HW2 3942   6.349   5.233   5.764
 1015SOL     OW 3943   2.600   6.961   6.132
 1015SOL    HW1 3944   2.622   0.005   6.206
 1015SOL    HW2 3945   2.565   6.876   6.172
 1016SOL     OW 3946   4.173   3.560   6.819
 1016SOL    HW1 3947   4.257   3.551   6.873
 1016SOL    HW2 3948   4.167   3.652   6.781
 1017SOL     OW 3949   4.026   3.085   1.232
 1017SOL    HW1 3950   3.977   3.146   1.294
 1017SOL    HW2 3951   3.968   3.007   1.209
 1018SOL     OW 3952   0.668   4.373   4.239
 1018SOL    HW1 3953   0.605   4.344   4.312
 1018SOL    HW2 3954   0.676   4.472   4.241
 1019SOL     OW 3955   6.736   6.809   0.889
 1019SOL    HW1 3956   6.752   6.907   0.904
 1019SOL    HW2 3957   6.723   6.764   0.977
 1020SOL     OW 3958   6.405   0.993   0.924
 1020SOL    HW1 3959   6.372   0.943   0.844
 1020SOL    HW2 3960   6.335   0.995   0.994
 1021SOL     OW 3961   5.832   6.858   1.481
 1021SOL    HW1 3962   5.763   6.892   1.544
 1021SOL    HW2 3963   5.818   6.760   1.466
 1022SOL     OW 3964   3.347   4.358   5.278
 1022SOL    HW1 3965   3.248   4.342   5.273
 1022SOL    HW2 3966   3.395   4.270   5.285
 1023SOL     OW 3967   0.529   0.059   3.376
 1023SOL    HW1 3968   0.445   0.069   3.430
 1023SOL    HW2 3969   0.514   0.094   3.284
 1024SOL     OW 3970   0.630   2.774   4.040
 1024SOL    HW1 3971   0.586   2.706   4.099
 1024SOL    HW2 3972   0.681   2.728   3.968
 1025SOL     OW 3973   3.603   3.642   1.412
 1025SOL    HW1 3974   3.595   3.720   1.474
 1025SOL    HW2 3975   3.587   3.557   1.463
 1026SOL     OW 3976   2.364   2.328   1.428
 1026SOL    HW1 3977   2.285   2.381   1.459
 1026SOL    HW2 3978   2.406   2.372   1.349
 1027SOL     OW 3979   3.341   6.170   1.877
 1027SOL    HW1 3980   3.344   6.254   1.931
 1027SOL    HW2 3981   3.295   6.188   1.790
 1028SOL     OW 3982   2.477   6.293   1.326
 1028SOL    HW1 3983   2.422   6.362   1.278
 1028SOL    HW2 3984   2.418   6.241   1.388
 1029SOL     OW 3985   1.618   0.060   6.281
 1029SOL    HW1 3986   1.565   0.005   6.346
 1029SOL    HW2 3987   1.627   0.153   6.317
 1030SOL     OW 3988   3.058   2.926   1.865
 1030SOL    HW1 3989   3.153   2.920   1.832
 1030SOL    HW2 3990   3.055   2.983   1.947
 1031SOL     OW 3991   4.602   4.027   1.392
 1031SOL    HW1 3992   4.592   4.035   1.492
 1031SOL    HW2 3993   4.696   4.046   1.366
 1032SOL     OW 3994   2.510   2.088   5.552
 1032SOL    HW1 3995   2.472   2.036   5.475
 1032SOL    HW2 3996   2.607   2.064   5.564
 1033SOL     OW 3997   1.355   6.592   2.152
 1033SOL    HW1 3998   1.386   6.686   2.149
 1033SOL    HW2 3999   1.344   6.558   2.058
 1034SOL     OW 4000   0.232   4.988   4.611
 1034SOL    HW1 4001   0.319   5.010   4.569
 1034SOL    HW2 4002   0.217   5.047   4.691
 1035SOL     OW 4003   0.250   1.293   5.063
 1035SOL    HW1 4004   0.301   1.316   5.146
 1035SOL    HW2 4005   0.256   1.194   5.047
 1036SOL     OW 4006   3.753   0.490   1.290
 1036SOL    HW1 4007   3.801   0.479   1.377
 1036SOL    HW2 4008   3.659   0.457   1.299
 1037SOL     OW 4009   1.785   1.339   2.166
 1037SOL    HW1 4010   1.707   1.340   2.103
 1037SOL    HW2 4011   1.760   1.287   2.248
 1038SOL     OW 4012   1.856   0.942   5.307
 1038SOL    HW1 4013   1.758   0.965   5.302
 1038SOL    HW2 4014   1.866   0.846   5.331
 1039SOL     OW 4015   3.563   3.810   4.238
 1039SOL    HW1 4016   3.615   3.892   4.263
 1039SOL    HW2 4017   3.514   3.827   4.153
 1040SOL     OW 4018   4.764   0.932   2.739
 1040SOL    HW1 4019   4.754   0.859   2.672
 1040SOL    HW2 4020   4.674   0.971   2.760
 1041SOL     OW 4021   0.088   6.441   3.816
 1041SOL    HW1 4022   0.052   6.349   3.804
 1041SOL    HW2 4023   0.181   6.437   3.853
 1042SOL     OW 4024   4.167   5.345   2.182
 1042SOL    HW1 4025   4.101   5.419   2.165
 1042SOL    HW2 4026   4.170   5.284   2.102
 1043SOL     OW 4027   3.050   1.867   4.599
 1043SOL    HW1 4028   3.063   1.769   4.608
 1043SOL    HW2 4029   3.100   1.914   4.673
 1044SOL     OW 4030   5.709   5.435   2.650
 1044SOL    HW1 4031   5.792   5.443   2.594
 1044SOL    HW2 4032   5.639   5.497   2.616
 1045SOL     OW 4033   4.013   6.955   2.435
 1045SOL    HW1 4034   3.993   6.945   2.533
 1045SOL    HW2 4035   4.027   0.031   2.414
 1046SOL     OW 4036   1.650   0.721   0.403
 1046SOL    HW1 4037   1.729   0.667   0.374
 1046SOL    HW2 4038   1.608   0.765   0.323
 1047SOL     OW 4039   1.868   0.623   3.702
 1047SOL    HW1 4040   1.952   0.631   3.755
 1047SOL    HW2 4041   1.879   0.550   3.634
 1048SOL     OW 4042   4.117   6.160   3.617
 1048SOL    HW1 4043   4.211   6.187   3.597
 1048SOL    HW2 4044   4.117   6.096   3.694
 1049SOL     OW 4045   6.456   6.278   3.957
 1049SOL    HW1 4046   6.403   6.340   4.015
 1049SOL    HW2 4047   6.403   6.195   3.939
 1050SOL     OW 4048   4.204   4.800   1.337
 1050SOL    HW1 4049   4.170   4.706   1.342
 1050SOL    HW2 4050   4.135   4.862   1.375
 1051SOL     OW 4051   1.294   5.801   0.726
 1051SOL    HW1 4052   1.300   5.840   0.635
 1051SOL    HW2 4053   1.262   5.706   0.720
 1052SOL     OW 4054   4.131   0.822   4.921
 1052SOL    HW1 4055   4.105   0.730   4.890
 1052SOL    HW2 4056   4.100   0.889   4.854
 1053SOL     OW 4057   6.358   5.202   2.665
 1053SOL    HW1 4058   6.382   5.139   2.738
 1053SOL    HW2 4059   6.435   5.263   2.646
 1054SOL     OW 4060   3.286   3.462   6.975
 1054SOL    HW1 4061   3.209   3.473   6.913
 1054SOL    HW2 4062   3.296   3.544   0.011
 1055SOL     OW 4063   3.442   5.873   4.446
 1055SOL    HW1 4064   3.369   5.840   4.386
 1055SOL    HW2 4065   3.527   5.882   4.395
 1056SOL     OW 4066   2.430   4.484   6.599
 1056SOL    HW1 4067   2.436   4.389   6.570
 1056SOL    HW2 4068   2.476   4.542   6.532
 1057SOL     OW 4069   2.833   3.428   1.886
 1057SOL    HW1 4070   2.876   3.422   1.977
 1057SOL    HW2 4071   2.830   3.337   1.845
 1058SOL     OW 4072   4.845   1.943   3.484
 1058SOL    HW1 4073   4.749   1.926   3.503
 1058SOL    HW2 4074   4.869   1.902   3.396
 1059SOL     OW 4075   2.846   0.489   2.056
 1059SOL    HW1 4076   2.941   0.518   2.069
 1059SOL    HW2 4077   2.820   0.426   2.129
 1060SOL     OW 4078   0.126   4.755   4.161
 1060SOL    HW1 4079   0.123   4.789   4.255
 1060SOL    HW2 4080   0.042   4.782   4.113
 1061SOL     OW 4081   6.594   2.861   0.470
 1061SOL    HW1 4082   6.635   2.770   0.462
 1061SOL    HW2 4083   6.605   2.895   0.563
 1062SOL     OW 4084   5.000   4.855   5.798
 1062SOL    HW1 4085   4.911   4.829   5.760
 1062SOL    HW2 4086   5.068   4.859   5.725
 1063SOL     OW 4087   1.359   4.764   1.186
 1063SOL    HW1 4088   1.389   4.859   1.179
 1063SOL    HW2 4089   1.434   4.707   1.219
 1064SOL     OW 4090   1.239   3.888   2.690
 1064SOL    HW1 4091   1.209   3.815   2.751
 1064SOL    HW2 4092   1.329   3.867   2.653
 1065SOL     OW 4093   3.936   0.268   3.639
 1065SOL    HW1 4094   3.854   0.281   3.583
 1065SOL    HW2 4095   4.014   0.313   3.595
 1066SOL     OW 4096   4.807   6.396   3.113
 1066SOL    HW1 4097   4.824   6.412   3.016
 1066SOL    HW2 4098   4.734   6.330   3.124
 1067SOL     OW 4099   0.972   3.102   1.015
 1067SOL    HW1 4100   0.911   3.045   0.959
 1067SOL    HW2 4101   1.019   3.168   0.956
 1068SOL     OW 4102   6.378   5.018   2.862
 1068SOL    HW1 4103   6.421   4.940   2.816
 1068SOL    HW2 4104   6.305   4.986   2.922
 1069SOL     OW 4105   4.166   5.224   0.642
 1069SOL    HW1 4106   4.165   5.214   0.742
 1069SOL    HW2 4107   4.256   5.199   0.606
 1070SOL     OW 4108   0.182   0.766   2.447
 1070SOL    HW1 4109   0.261   0.828   2.456
 1070SOL    HW2 4110   0.145   0.774   2.355
 1071SOL     OW 4111   1.150   0.641   4.181
 1071SOL    HW1 4112   1.166   0.692   4.096
 1071SOL    HW2 4113   1.235   0.598   4.211
 1072SOL     OW 4114   1.863   1.144   0.998
 1072SOL    HW1 4115   1.905   1.232   1.020
 1072SOL    HW2 4116   1.929   1.087   0.949
 1073SOL     OW 4117   4.864   0.092   2.487
 1073SOL    HW1 4118   4.847   0.029   2.563
 1073SOL    HW2 4119   4.931   0.161   2.515
 1074SOL     OW 4120   2.374   5.045   1.066
 1074SOL    HW1 4121   2.393   5.138   1.096
 1074SOL    HW2 4122   2.417   4.980   1.128
 1075SOL     OW 4123   4.986   0.300   4.081
 1075SOL    HW1 4124   5.022   0.217   4.038
 1075SOL    HW2 4125   5.002   0.379   4.021
 1076SOL     OW 4126   0.080   1.808   5.714
 1076SOL    HW1 4127   0.049   1.829   5.621
 1076SOL    HW2 4128   0.028   1.862   5.780
 1077SOL     OW 4129   5.690   0.354   1.217
 1077SOL    HW1 4130   5.702   0.369   1.119
 1077SOL    HW2 4131   5.610   0.297   1.233
 1078SOL     OW 4132   1.095   0.671   2.729
 1078SOL    HW1 4133   1.119   0.628   2.642
 1078SOL    HW2 4134   1.111   0.606   2.804
 1079SOL     OW 4135   1.500   6.459   2.345
 1079SOL    HW1 4136   1.493   6.360   2.355
 1079SOL    HW2 4137   1.453   6.488   2.262
 1080SOL     OW 4138   2.122   4.834   3.518
 1080SOL    HW1 4139   2.215   4.798   3.521
 1080SOL    HW2 4140   2.099   4.857   3.423
 1081SOL     OW 4141   0.484   5.566   5.538
 1081SOL    HW1 4142   0.491   5.619   5.622
 1081SOL    HW2 4143   0.572   5.568   5.490
 1082SOL     OW 4144   4.898   1.873   4.672
 1082SOL    HW1 4145   4.986   1.830   4.651
 1082SOL    HW2 4146   4.877   1.942   4.603
 1083SOL     OW 4147   4.111   4.310   0.774
 1083SOL    HW1 4148   4.187   4.275   0.719
 1083SOL    HW2 4149   4.064   4.382   0.723
 1084SOL     OW 4150   5.954   6.226   6.897
 1084SOL    HW1 4151   6.027   6.225   6.965
 1084SOL    HW2 4152   5.938   6.133   6.863
 1085SOL     OW 4153   1.840   3.359   4.365
 1085SOL    HW1 4154   1.751   3.404   4.364
 1085SOL    HW2 4155   1.909   3.419   4.324
 1086SOL     OW 4156   0.645   5.454   0.484
 1086SOL    HW1 4157   0.699   5.371   0.501
 1086SOL    HW2 4158   0.679   5.498   0.400
 1087SOL     OW 4159   5.757   2.033   5.012
 1087SOL    HW1 4160   5.725   1.965   5.078
 1087SOL    HW2 4161   5.813   2.101   5.060
 1088SOL     OW 4162   0.576   3.955   2.904
 1088SOL    HW1 4163   0.662   3.975   2.857
 1088SOL    HW2 4164   0.566   4.016   2.983
 1089SOL     OW 4165   1.113   6.383   4.372
 1089SOL    HW1 4166   1.193   6.440   4.394
 1089SOL    HW2 4167   1.039   6.405   4.436
 1090SOL     OW 4168   2.820   2.284   3.465
 1090SOL    HW1 4169   2.756   2.217   3.502
 1090SOL    HW2 4170   2.850   2.346   3.537
 1091SOL     OW 4171   3.259   2.112   4.788
 1091SOL    HW1 4172   3.210   2.181   4.842
 1091SOL    HW2 4173   3.277   2.147   4.697
 1092SOL     OW 4174   1.392   4.077   0.930
 1092SOL    HW1 4175   1.359   4.087   0.836
 1092SOL    HW2 4176   1.433   3.986   0.941
 1093SOL     OW 4177   2.028   1.486   2.197
 1093SOL    HW1 4178   1.946   1.432   2.175
 1093SOL    HW2 4179   2.103   1.424   2.222
 1094SOL     OW 4180   0.066   6.607   2.893
 1094SOL    HW1 4181   0.006   6.634   2.968
 1094SOL    HW2 4182   0.133   6.679   2.876
 1095SOL     OW 4183   1.020   2.898   6.107
 1095SOL    HW1 4184   0.926   2.931   6.095
 1095SOL    HW2 4185   1.051   2.921   6.200
 1096SOL     OW 4186   3.676   4.426   1.680
 1096SOL    HW1 4187   3.657   4.515   1.723
 1096SOL    HW2 4188   3.599   4.365   1.696
 1097SOL     OW 4189   2.168   4.676   4.422
 1097SOL    HW1 4190   2.087   4.697   4.476
 1097SOL    HW2 4191   2.166   4.728   4.337
 1098SOL     OW 4192   4.317   3.697   6.516
 1098SOL    HW1 4193   4.358   3.725   6.603
 1098SOL    HW2 4194   4.374   3.626   6.474
 1099SOL     OW 4195   3.823   1.058   5.783
 1099SOL    HW1 4196   3.847   1.150   5.752
 1099SOL    HW2 4197   3.846   0.991   5.712
 1100SOL     OW 4198   3.535   1.756   4.597
 1100SOL    HW1 4199   3.509   1.761   4.694
 1100SOL    HW2 4200   3.538   1.848   4.559
 1101SOL     OW 4201   6.144   2.832   6.339
 1101SOL    HW1 4202   6.176   2.878   6.256
 1101SOL    HW2 4203   6.100   2.745   6.314
 1102SOL     OW 4204   0.728   6.955   4.335
 1102SOL    HW1 4205   0.764   6.983   4.246
 1102SOL    HW2 4206   0.799   6.965   4.404
 1103SOL     OW 4207   4.319   1.760   0.156
 1103SOL    HW1 4208   4.344   1.686   0.092
 1103SOL    HW2 4209   4.358   1.740   0.246
 1104SOL     OW 4210   2.138   3.243   5.993
 1104SOL    HW1 4211   2.095   3.306   5.928
 1104SOL    HW2 4212   2.076   3.223   6.068
 1105SOL     OW 4213   6.320   3.435   4.998
 1105SOL    HW1 4214   6.344   3.338   4.997
 1105SOL    HW2 4215   6.249   3.452   4.930
 1106SOL     OW 4216   0.029   2.539   1.745
 1106SOL    HW1 4217   6.972   2.516   1.804
 1106SOL    HW2 4218   7.020   2.539   1.650
 1107SOL     OW 4219   0.635   0.639   6.827
 1107SOL    HW1 4220   0.677   0.728   6.809
 1107SOL    HW2 4221   0.619   0.628   6.925
 1108SOL     OW 4222   3.617   0.181   5.137
 1108SOL    HW1 4223   3.605   0.099   5.082
 1108SOL    HW2 4224   3.645   0.257   5.078
 1109SOL     OW 4225   4.633   1.245   4.143
 1109SOL    HW1 4226   4.689   1.322   4.173
 1109SOL    HW2 4227   4.567   1.223   4.214
 1110SOL     OW 4228   3.285   2.074   3.495
 1110SOL    HW1 4229   3.251   2.072   3.400
 1110SOL    HW2 4230   3.383   2.094   3.495
 1111SOL     OW 4231   4.868   5.539   6.277
 1111SOL    HW1 4232   4.777   5.531   6.318
 1111SOL    HW2 4233   4.861   5.520   6.179
 1112SOL     OW 4234   5.092   1.153   2.163
 1112SOL    HW1 4235   5.048   1.200   2.240
 1112SOL    HW2 4236   5.172   1.205   2.133
 1113SOL     OW 4237   6.302   4.847   1.581
 1113SOL    HW1 4238   6.301   4.936   1.536
 1113SOL    HW2 4239   6.309   4.775   1.513
 1114SOL     OW 4240   3.772   1.645   6.151
 1114SOL    HW1 4241   3.829   1.605   6.222
 1114SOL    HW2 4242   3.675   1.633   6.174
 1115SOL     OW 4243   4.382   3.245   6.012
 1115SOL    HW1 4244   4.287   3.259   6.039
 1115SOL    HW2 4245   4.403   3.302   5.933
 1116SOL     OW 4246   5.046   0.027   5.956
 1116SOL    HW1 4247   4.974   0.003   6.021
 1116SOL    HW2 4248   5.120   0.073   6.005
 1117SOL     OW 4249   2.707   1.976   2.458
 1117SOL    HW1 4250   2.796   1.946   2.492
 1117SOL    HW2 4251   2.704   2.076   2.459
 1118SOL     OW 4252   2.835   4.062   0.426
 1118SOL    HW1 4253   2.822   3.965   0.406
 1118SOL    HW2 4254   2.796   4.116   0.351
 1119SOL     OW 4255   4.197   4.996   1.743
 1119SOL    HW1 4256   4.233   5.061   1.676
 1119SOL    HW2 4257   4.235   4.906   1.727
 1120SOL     OW 4258   6.147   6.256   0.105
 1120SOL    HW1 4259   6.246   6.271   0.108
 1120SOL    HW2 4260   6.101   6.330   0.155
 1121SOL     OW 4261   6.092   4.405   4.718
 1121SOL    HW1 4262   6.170   4.416   4.656
 1121SOL    HW2 4263   6.056   4.312   4.711
 1122SOL     OW 4264   5.617   2.812   0.636
 1122SOL    HW1 4265   5.652   2.719   0.644
 1122SOL    HW2 4266   5.610   2.853   0.727
 1123SOL     OW 4267   5.165   1.687   3.318
 1123SOL    HW1 4268   5.175   1.697   3.417
 1123SOL    HW2 4269   5.075   1.721   3.290
 1124SOL     OW 4270   0.178   3.226   5.215
 1124SOL    HW1 4271   0.116   3.176   5.275
 1124SOL    HW2 4272   0.148   3.322   5.208
 1125SOL     OW 4273   2.274   2.256   3.944
 1125SOL    HW1 4274   2.200   2.246   3.878
 1125SOL    HW2 4275   2.360   2.269   3.895
 1126SOL     OW 4276   5.405   4.870   0.498
 1126SOL    HW1 4277   5.502   4.848   0.510
 1126SOL    HW2 4278   5.378   4.847   0.405
 1127SOL     OW 4279   5.245   5.318   4.867
 1127SOL    HW1 4280   5.305   5.268   4.805
 1127SOL    HW2 4281   5.152   5.285   4.858
 1128SOL     OW 4282   5.837   1.860   5.450
 1128SOL    HW1 4283   5.802   1.815   5.368
 1128SOL    HW2 4284   5.802   1.814   5.531
 1129SOL     OW 4285   1.474   0.543   0.542
 1129SOL    HW1 4286   1.542   0.598   0.493
 1129SOL    HW2 4287   1.520   0.480   0.604
 1130SOL     OW 4288   2.893   5.041   0.665
 1130SOL    HW1 4289   2.834   4.962   0.683
 1130SOL    HW2 4290   2.966   5.044   0.734
 1131SOL     OW 4291   0.803   5.732   5.621
 1131SOL    HW1 4292   0.884   5.683   5.587
 1131SOL    HW2 4293   0.831   5.817   5.665
 1132SOL     OW 4294   5.346   6.736   2.407
 1132SOL    HW1 4295   5.370   6.717   2.502
 1132SOL    HW2 4296   5.275   6.673   2.377
 1133SOL     OW 4297   1.150   0.946   0.966
 1133SOL    HW1 4298   1.165   1.020   1.032
 1133SOL    HW2 4299   1.235   0.927   0.917
 1134SOL     OW 4300   5.313   0.474   2.235
 1134SOL    HW1 4301   5.359   0.560   2.258
 1134SOL    HW2 4302   5.233   0.493   2.179
 1135SOL     OW 4303   2.541   0.212   2.932
 1135SOL    HW1 4304   2.474   0.160   2.984
 1135SOL    HW2 4305   2.495   0.282   2.877
 1136SOL     OW 4306   4.246   4.710   2.772
 1136SOL    HW1 4307   4.177   4.693   2.701
 1136SOL    HW2 4308   4.232   4.802   2.810
 1137SOL     OW 4309   0.820   0.056   6.795
 1137SOL    HW1 4310   0.817   0.149   6.831
 1137SOL    HW2 4311   0.740   0.005   6.826
 1138SOL     OW 4312   6.942   0.772   5.778
 1138SOL    HW1 4313   6.881   0.849   5.798
 1138SOL    HW2 4314   7.008   0.799   5.708
 1139SOL     OW 4315   3.402   4.856   2.405
 1139SOL    HW1 4316   3.364   4.813   2.487
 1139SOL    HW2 4317   3.355   4.943   2.389
 1140SOL     OW 4318   3.236   0.928   1.833
 1140SOL    HW1 4319   3.150   0.891   1.797
 1140SOL    HW2 4320   3.275   0.991   1.766
 1141SOL     OW 4321   0.566   6.454   6.912
 1141SOL    HW1 4322   0.599   6.362   6.935
 1141SOL    HW2 4323   0.529   6.498   6.993
 1142SOL     OW 4324   3.199   6.764   4.571
 1142SOL    HW1 4325   3.174   6.696   4.503
 1142SOL    HW2 4326   3.298   6.781   4.566
 1143SOL     OW 4327   1.769   3.042   3.331
 1143SOL    HW1 4328   1.730   3.006   3.246
 1143SOL    HW2 4329   1.864   3.011   3.339
 1144SOL     OW 4330   6.431   4.634   4.479
 1144SOL    HW1 4331   6.344   4.681   4.489
 1144SOL    HW2 4332   6.451   4.620   4.382
 1145SOL     OW 4333   6.460   3.951   1.773
 1145SOL    HW1 4334   6.543   3.993   1.810
 1145SOL    HW2 4335   6.381   3.978   1.827
 1146SOL     OW 4336   6.801   0.545   2.782
 1146SOL    HW1 4337   6.829   0.570   2.875
 1146SOL    HW2 4338   6.721   0.485   2.786
 1147SOL     OW 4339   2.991   5.566   1.202
 1147SOL    HW1 4340   3.049   5.603   1.274
 1147SOL    HW2 4341   2.954   5.478   1.230
 1148SOL     OW 4342   4.388   5.928   0.578
 1148SOL    HW1 4343   4.431   5.867   0.511
 1148SOL    HW2 4344   4.289   5.930   0.563
 1149SOL     OW 4345   6.467   3.686   2.890
 1149SOL    HW1 4346   6.396   3.744   2.851
 1149SOL    HW2 4347   6.465   3.596   2.847
 1150SOL     OW 4348   1.671   3.460   0.129
 1150SOL    HW1 4349   1.628   3.462   0.219
 1150SOL    HW2 4350   1.619   3.401   0.068
 1151SOL     OW 4351   4.609   4.301   0.281
 1151SOL    HW1 4352   4.606   4.247   0.197
 1151SOL    HW2 4353   4.701   4.299   0.320
 1152SOL     OW 4354   5.428   5.080   6.544
 1152SOL    HW1 4355   5.463   5.017   6.474
 1152SOL    HW2 4356   5.328   5.074   6.547
 1153SOL     OW 4357   1.200   0.407   1.889
 1153SOL    HW1 4358   1.198   0.472   1.814
 1153SOL    HW2 4359   1.257   0.328   1.864
 1154SOL     OW 4360   6.878   4.577   1.240
 1154SOL    HW1 4361   6.791   4.545   1.204
 1154SOL    HW2 4362   6.892   4.673   1.216
 1155SOL     OW 4363   2.465   4.928   6.177
 1155SOL    HW1 4364   2.369   4.919   6.205
 1155SOL    HW2 4365   2.470   4.975   6.089
 1156SOL     OW 4366   4.487   1.446   4.796
 1156SOL    HW1 4367   4.497   1.412   4.890
 1156SOL    HW2 4368   4.413   1.513   4.793
 1157SOL     OW 4369   5.362   2.029   6.080
 1157SOL    HW1 4370   5.307   1.955   6.041
 1157SOL    HW2 4371   5.323   2.117   6.054
 1158SOL     OW 4372   0.227   5.060   5.661
 1158SOL    HW1 4373   0.304   4.997   5.670
 1158SOL    HW2 4374   0.227   5.123   5.738
 1159SOL     OW 4375   6.531   6.634   3.793
 1159SOL    HW1 4376   6.539   6.733   3.807
 1159SOL    HW2 4377   6.571   6.586   3.872
 1160SOL     OW 4378   5.220   4.814   0.921
 1160SOL    HW1 4379   5.254   4.721   0.929
 1160SOL    HW2 4380   5.296   4.878   0.918
 1161SOL     OW 4381   5.983   6.944   5.824
 1161SOL    HW1 4382   5.934   0.005   5.854
 1161SOL    HW2 4383   5.921   6.866   5.821
 1162SOL     OW 4384   3.340   2.385   6.836
 1162SOL    HW1 4385   3.295   2.352   6.753
 1162SOL    HW2 4386   3.298   2.471   6.864
 1163SOL     OW 4387   6.932   4.100   1.642
 1163SOL    HW1 4388   7.013   4.049   1.670
 1163SOL    HW2 4389   6.856   4.037   1.627
 1164SOL     OW 4390   6.234   3.468   4.667
 1164SOL    HW1 4391   6.326   3.485   4.634
 1164SOL    HW2 4392   6.193   3.555   4.698
 1165SOL     OW 4393   3.768   4.914   3.685
 1165SOL    HW1 4394   3.848   4.861   3.713
 1165SOL    HW2 4395   3.707   4.928   3.763
 1166SOL     OW 4396   4.021   0.327   0.045
 1166SOL    HW1 4397   3.950   0.340   6.997
 1166SOL    HW2 4398   4.083   0.254   0.015
 1167SOL     OW 4399   4.642   6.362   6.929
 1167SOL    HW1 4400   4.637   6.342   6.832
 1167SOL    HW2 4401   4.699   6.294   6.974
 1168SOL     OW 4402   4.891   2.532   2.804
 1168SOL    HW1 4403   4.972   2.549   2.860
 1168SOL    HW2 4404   4.865   2.617   2.757
 1169SOL     OW 4405   4.652   2.577   6.073
 1169SOL    HW1 4406   4.611   2.544   6.158
 1169SOL    HW2 4407   4.667   2.499   6.011
 1170SOL     OW 4408   5.139   0.377   3.155
 1170SOL    HW1 4409   5.217   0.332   3.111
 1170SOL    HW2 4410   5.057   0.363   3.101
 1171SOL     OW 4411   2.516   6.144   0.042
 1171SOL    HW1 4412   2.429   6.192   0.036
 1171SOL    HW2 4413   2.502   6.046   0.032
 1172SOL     OW 4414   3.222   4.288   1.557
 1172SOL    HW1 4415   3.125   4.271   1.579
 1172SOL    HW2 4416   3.276   4.278   1.640
 1173SOL     OW 4417   2.776   0.705   0.178
 1173SOL    HW1 4418   2.742   0.774   0.242
 1173SOL    HW2 4419   2.875   0.714   0.169
 1174SOL     OW 4420   2.920   4.848   1.356
 1174SOL    HW1 4421   2.894   4.934   1.311
 1174SOL    HW2 4422   2.912   4.858   1.455
 1175SOL     OW 4423   4.207   4.309   6.709
 1175SOL    HW1 4424   4.271   4.238   6.680
 1175SOL    HW2 4425   4.125   4.305   6.652
 1176SOL     OW 4426   6.007   3.991   6.570
 1176SOL    HW1 4427   6.024   3.909   6.624
 1176SOL    HW2 4428   5.909   4.000   6.552
 1177SOL     OW 4429   0.397   3.430   5.192
 1177SOL    HW1 4430   0.425   3.468   5.280
 1177SOL    HW2 4431   0.336   3.352   5.207
 1178SOL     OW 4432   3.438   4.364   0.782
 1178SOL    HW1 4433   3.531   4.397   0.767
 1178SOL    HW2 4434   3.373   4.423   0.733
 1179SOL     OW 4435   2.314   5.948   0.700
 1179SOL    HW1 4436   2.282   5.875   0.639
 1179SOL    HW2 4437   2.237   5.983   0.753
 1180SOL     OW 4438   2.589   6.198   4.718
 1180SOL    HW1 4439   2.642   6.139   4.657
 1180SOL    HW2 4440   2.495   6.165   4.723
 1181SOL     OW 4441   6.980   4.441   6.399
 1181SOL    HW1 4442   6.942   4.532   6.384
 1181SOL    HW2 4443   0.003   4.408   6.315
 1182SOL     OW 4444   3.561   5.198   2.903
 1182SOL    HW1 4445   3.654   5.166   2.922
 1182SOL    HW2 4446   3.565   5.292   2.869
 1183SOL     OW 4447   3.089   5.063   1.646
 1183SOL    HW1 4448   3.007   5.007   1.632
 1183SOL    HW2 4449   3.169   5.013   1.613
 1184SOL     OW 4450   6.832   1.276   5.205
 1184SOL    HW1 4451   6.923   1.273   5.247
 1184SOL    HW2 4452   6.837   1.240   5.112
 1185SOL     OW 4453   1.272   0.947   0.057
 1185SOL    HW1 4454   1.247   0.980   6.986
 1185SOL    HW2 4455   1.195   0.964   0.120
 1186SOL     OW 4456   5.288   6.104   5.416
 1186SOL    HW1 4457   5.306   6.008   5.440
 1186SOL    HW2 4458   5.190   6.116   5.400
 1187SOL     OW 4459   5.396   6.996   5.301
 1187SOL    HW1 4460   5.450   6.911   5.299
 1187SOL    HW2 4461   5.408   0.020   5.390
 1188SOL     OW 4462   2.778   5.314   6.412
 1188SOL    HW1 4463   2.818   5.289   6.324
 1188SOL    HW2 4464   2.825   5.396   6.448
 1189SOL     OW 4465   6.397   1.374   1.588
 1189SOL    HW1 4466   6.482   1.425   1.577
 1189SOL    HW2 4467   6.395   1.298   1.522
 1190SOL     OW 4468   2.673   5.565   2.700
 1190SOL    HW1 4469   2.652   5.468   2.690
 1190SOL    HW2 4470   2.695   5.583   2.796
 1191SOL     OW 4471   3.603   6.326   4.247
 1191SOL    HW1 4472   3.702   6.323   4.261
 1191SOL    HW2 4473   3.572   6.237   4.213
 1192SOL     OW 4474   5.566   5.664   3.703
 1192SOL    HW1 4475   5.547   5.731   3.775
 1192SOL    HW2 4476   5.510   5.685   3.622
 1193SOL     OW 4477   6.888   1.616   5.596
 1193SOL    HW1 4478   6.947   1.577   5.667
 1193SOL    HW2 4479   6.859   1.708   5.624
 1194SOL     OW 4480   6.692   1.065   1.617
 1194SOL    HW1 4481   6.760   1.127   1.579
 1194SOL    HW2 4482   6.728   1.025   1.702
 1195SOL     OW 4483   0.336   3.387   0.533
 1195SOL    HW1 4484   0.312   3.479   0.565
 1195SOL    HW2 4485   0.293   3.319   0.591
 1196SOL     OW 4486   6.542   4.714   3.563
 1196SOL    HW1 4487   6.540   4.630   3.509
 1196SOL    HW2 4488   6.635   4.751   3.563
 1197SOL     OW 4489   4.620   6.210   3.899
 1197SOL    HW1 4490   4.577   6.300   3.905
 1197SOL    HW2 4491   4.694   6.212   3.833
 1198SOL     OW 4492   1.513   3.645   1.803
 1198SOL    HW1 4493   1.432   3.661   1.859
 1198SOL    HW2 4494   1.490   3.584   1.727
 1199SOL     OW 4495   3.429   4.147   3.080
 1199SOL    HW1 4496   3.486   4.181   3.005
 1199SOL    HW2 4497   3.398   4.054   3.060
 1200SOL     OW 4498   3.273   3.962   4.694
 1200SOL    HW1 4499   3.261   3.959   4.793
 1200SOL    HW2 4500   3.194   3.919   4.650
 1201SOL     OW 4501   6.995   1.409   4.206
 1201SOL    HW1 4502   0.067   1.426   4.237
 1201SOL    HW2 4503   6.996   1.346   4.128
 1202SOL     OW 4504   0.504   6.121   5.536
 1202SOL    HW1 4505   0.522   6.169   5.622
 1202SOL    HW2 4506   0.583   6.129   5.476
 1203SOL     OW 4507   0.858   5.515   0.773
 1203SOL    HW1 4508   0.908   5.457   0.708
 1203SOL    HW2 4509   0.842   5.605   0.731
 1204SOL     OW 4510   4.313   1.457   1.520
 1204SOL    HW1 4511   4.283   1.361   1.514
 1204SOL    HW2 4512   4.262   1.511   1.453
 1205SOL     OW 4513   3.458   3.742   0.495
 1205SOL    HW1 4514   3.464   3.642   0.486
 1205SOL    HW2 4515   3.424   3.782   0.410
 1206SOL     OW 4516   1.777   2.985   5.349
 1206SOL    HW1 4517   1.719   2.905   5.332
 1206SOL    HW2 4518   1.815   3.018   5.263
 1207SOL     OW 4519   0.955   0.304   0.930
 1207SOL    HW1 4520   0.956   0.394   0.885
 1207SOL    HW2 4521   0.860   0.273   0.941
 1208SOL     OW 4522   3.129   3.161   1.576
 1208SOL    HW1 4523   3.176   3.088   1.625
 1208SOL    HW2 4524   3.191   3.239   1.563
 1209SOL     OW 4525   5.325   0.604   4.137
 1209SOL    HW1 4526   5.399   0.662   4.172
 1209SOL    HW2 4527   5.310   0.528   4.199
 1210SOL     OW 4528   3.778   6.578   3.641
 1210SOL    HW1 4529   3.722   6.643   3.693
 1210SOL    HW2 4530   3.810   6.622   3.557
 1211SOL     OW 4531   1.303   2.897   2.925
 1211SOL    HW1 4532   1.308   2.886   2.826
 1211SOL    HW2 4533   1.394   2.889   2.964
 1212SOL     OW 4534   6.346   0.491   5.908
 1212SOL    HW1 4535   6.416   0.548   5.866
 1212SOL    HW2 4536   6.303   0.434   5.838
 1213SOL     OW 4537   5.945   2.535   1.677
 1213SOL    HW1 4538   5.860   2.568   1.636
 1213SOL    HW2 4539   5.960   2.581   1.764
 1214SOL     OW 4540   1.066   2.711   0.295
 1214SOL    HW1 4541   1.071   2.721   0.196
 1214SOL    HW2 4542   1.052   2.615   0.319
 1215SOL     OW 4543   0.978   4.820   2.976
 1215SOL    HW1 4544   0.933   4.909   2.987
 1215SOL    HW2 4545   0.985   4.774   3.064
 1216SOL     OW 4546   5.274   1.558   0.441
 1216SOL    HW1 4547   5.205   1.500   0.397
 1216SOL    HW2 4548   5.230   1.614   0.511
 1217SOL     OW 4549   3.046   4.782   0.805
 1217SOL    HW1 4550   2.955   4.823   0.802
 1217SOL    HW2 4551   3.046   4.705   0.869
 1218SOL     OW 4552   1.499   3.067   4.978
 1218SOL    HW1 4553   1.595   3.054   4.955
 1218SOL    HW2 4554   1.491   3.118   5.064
 1219SOL     OW 4555   6.126   5.705   1.795
 1219SOL    HW1 4556   6.113   5.785   1.853
 1219SOL    HW2 4557   6.217   5.708   1.753
 1220SOL     OW 4558   0.743   4.251   2.327
 1220SOL    HW1 4559   0.678   4.292   2.392
 1220SOL    HW2 4560   0.722   4.282   2.235
 1221SOL     OW 4561   4.289   3.305   6.435
 1221SOL    HW1 4562   4.274   3.258   6.522
 1221SOL    HW2 4563   4.377   3.278   6.397
 1222SOL     OW 4564   6.903   1.284   6.719
 1222SOL    HW1 4565   7.000   1.267   6.731
 1222SOL    HW2 4566   6.855   1.198   6.700
 1223SOL     OW 4567   3.969   1.555   0.551
 1223SOL    HW1 4568   3.980   1.562   0.452
 1223SOL    HW2 4569   4.058   1.542   0.594
 1224SOL     OW 4570   3.087   6.246   6.925
 1224SOL    HW1 4571   3.094   6.319   6.857
 1224SOL    HW2 4572   3.085   6.157   6.879
 1225SOL     OW 4573   3.119   2.654   6.744
 1225SOL    HW1 4574   3.161   2.613   6.663
 1225SOL    HW2 4575   3.042   2.711   6.717
 1226SOL     OW 4576   3.319   6.669   1.417
 1226SOL    HW1 4577   3.370   6.657   1.502
 1226SOL    HW2 4578   3.310   6.580   1.371
 1227SOL     OW 4579   4.950   4.501   5.902
 1227SOL    HW1 4580   5.042   4.472   5.929
 1227SOL    HW2 4581   4.906   4.550   5.977
 1228SOL     OW 4582   2.556   2.468   6.235
 1228SOL    HW1 4583   2.581   2.410   6.313
 1228SOL    HW2 4584   2.613   2.444   6.157
 1229SOL     OW 4585   3.120   5.558   6.494
 1229SOL    HW1 4586   3.124   5.498   6.415
 1229SOL    HW2 4587   3.170   5.643   6.475
 1230SOL     OW 4588   5.060   6.377   2.076
 1230SOL    HW1 4589   5.087   6.473   2.068
 1230SOL    HW2 4590   4.962   6.370   2.092
 1231SOL     OW 4591   1.747   2.076   5.517
 1231SOL    HW1 4592   1.756   2.107   5.612
 1231SOL    HW2 4593   1.720   1.980   5.517
 1232SOL     OW 4594   0.008   1.701   5.379
 1232SOL    HW1 4595   6.966   1.640   5.428
 1232SOL    HW2 4596   0.089   1.649   5.351
 1233SOL     OW 4597   0.844   5.367   5.144
 1233SOL    HW1 4598   0.885   5.306   5.211
 1233SOL    HW2 4599   0.744   5.364   5.152
 1234SOL     OW 4600   6.073   3.076   5.934
 1234SOL    HW1 4601   5.996   3.054   5.874
 1234SOL    HW2 4602   6.139   3.131   5.884
 1235SOL     OW 4603   6.067   6.041   2.476
 1235SOL    HW1 4604   6.059   6.000   2.566
 1235SOL    HW2 4605   6.052   5.972   2.406
 1236SOL     OW 4606   4.667   0.590   0.614
 1236SOL    HW1 4607   4.727   0.577   0.535
 1236SOL    HW2 4608   4.579   0.626   0.582
 1237SOL     OW 4609   1.913   4.643   5.936
 1237SOL    HW1 4610   1.839   4.696   5.896
 1237SOL    HW2 4611   1.924   4.669   6.032
 1238SOL     OW 4612   1.007   0.931   6.596
 1238SOL    HW1 4613   0.947   0.982   6.534
 1238SOL    HW2 4614   1.071   0.877   6.543
 1239SOL     OW 4615   6.307   6.644   6.602
 1239SOL    HW1 4616   6.317   6.709   6.677
 1239SOL    HW2 4617   6.296   6.551   6.639
 1240SOL     OW 4618   5.429   6.231   0.700
 1240SOL    HW1 4619   5.496   6.214   0.773
 1240SOL    HW2 4620   5.365   6.301   0.730
 1241SOL     OW 4621   5.169   4.009   4.330
 1241SOL    HW1 4622   5.104   4.016   4.255
 1241SOL    HW2 4623   5.121   4.016   4.417
 1242SOL     OW 4624   0.899   3.804   1.385
 1242SOL    HW1 4625   0.960   3.881   1.406
 1242SOL    HW2 4626   0.935   3.721   1.429
 1243SOL     OW 4627   0.757   0.514   5.089
 1243SOL    HW1 4628   0.708   0.427   5.085
 1243SOL    HW2 4629   0.854   0.498   5.109
 1244SOL     OW 4630   6.025   6.760   4.248
 1244SOL    HW1 4631   5.961   6.692   4.213
 1244SOL    HW2 4632   6.068   6.807   4.171
 1245SOL     OW 4633   5.974   4.186   0.603
 1245SOL    HW1 4634   6.036   4.195   0.525
 1245SOL    HW2 4635   6.025   4.152   0.682
 1246SOL     OW 4636   2.588   0.237   1.113
 1246SOL    HW1 4637   2.644   0.290   1.050
 1246SOL    HW2 4638   2.558   0.153   1.068
 1247SOL     OW 4639   0.239   6.558   6.648
 1247SOL    HW1 4640   0.207   6.651   6.664
 1247SOL    HW2 4641   0.196   6.520   6.566
 1248SOL     OW 4642   2.235   0.236   4.860
 1248SOL    HW1 4643   2.236   0.139   4.882
 1248SOL    HW2 4644   2.148   0.276   4.887
 1249SOL     OW 4645   6.557   2.315   2.350
 1249SOL    HW1 4646   6.500   2.302   2.431
 1249SOL    HW2 4647   6.609   2.231   2.331
 1250SOL     OW 4648   6.174   5.593   3.684
 1250SOL    HW1 4649   6.218   5.608   3.596
 1250SOL    HW2 4650   6.116   5.671   3.706
 1251SOL     OW 4651   2.564   0.788   3.580
 1251SOL    HW1 4652   2.534   0.693   3.572
 1251SOL    HW2 4653   2.611   0.800   3.667
 1252SOL     OW 4654   4.696   3.392   5.970
 1252SOL    HW1 4655   4.646   3.308   5.989
 1252SOL    HW2 4656   4.789   3.384   6.004
 1253SOL     OW 4657   2.952   5.961   1.880
 1253SOL    HW1 4658   2.934   6.057   1.900
 1253SOL    HW2 4659   2.867   5.908   1.892
 1254SOL     OW 4660   1.010   2.687   2.515
 1254SOL    HW1 4661   0.968   2.720   2.600
 1254SOL    HW2 4662   0.941   2.638   2.461
 1255SOL     OW 4663   5.617   1.373   6.492
 1255SOL    HW1 4664   5.554   1.414   6.427
 1255SOL    HW2 4665   5.588   1.394   6.585
 1256SOL     OW 4666   6.658   6.264   3.359
 1256SOL    HW1 4667   6.588   6.209   3.406
 1256SOL    HW2 4668   6.745   6.216   3.361
 1257SOL     OW 4669   6.646   5.910   4.910
 1257SOL    HW1 4670   6.692   5.908   4.821
 1257SOL    HW2 4671   6.550   5.884   4.898
 1258SOL     OW 4672   1.518   4.787   3.324
 1258SOL    HW1 4673   1.540   4.769   3.228
 1258SOL    HW2 4674   1.513   4.886   3.338
 1259SOL     OW 4675   3.695   0.724   4.039
 1259SOL    HW1 4676   3.649   0.637   4.024
 1259SOL    HW2 4677   3.663   0.765   4.125
 1260SOL     OW 4678   2.109   2.226   0.235
 1260SOL    HW1 4679   2.044   2.160   0.196
 1260SOL    HW2 4680   2.090   2.238   0.332
 1261SOL     OW 4681   0.303   6.064   6.524
 1261SOL    HW1 4682   0.344   6.114   6.449
 1261SOL    HW2 4683   0.350   5.977   6.536
 1262SOL     OW 4684   5.690   4.451   1.338
 1262SOL    HW1 4685   5.626   4.516   1.378
 1262SOL    HW2 4686   5.644   4.398   1.267
 1263SOL     OW 4687   6.824   2.364   1.915
 1263SOL    HW1 4688   6.792   2.392   2.006
 1263SOL    HW2 4689   6.746   2.343   1.857
 1264SOL     OW 4690   0.528   4.226   1.404
 1264SOL    HW1 4691   0.493   4.242   1.496
 1264SOL    HW2 4692   0.591   4.149   1.406
 1265SOL     OW 4693   5.448   5.009   4.361
 1265SOL    HW1 4694   5.359   5.018   4.406
 1265SOL    HW2 4695   5.456   4.918   4.320
 1266SOL     OW 4696   0.302   1.630   4.015
 1266SOL    HW1 4697   0.394   1.628   3.975
 1266SOL    HW2 4698   0.306   1.672   4.106
 1267SOL     OW 4699   4.590   6.902   1.138
 1267SOL    HW1 4700   4.510   6.848   1.166
 1267SOL    HW2 4701   4.639   6.853   1.065
 1268SOL     OW 4702   2.654   2.324   0.308
 1268SOL    HW1 4703   2.707   2.385   0.248
 1268SOL    HW2 4704   2.640   2.236   0.262
 1269SOL     OW 4705   5.693   4.799   5.195
 1269SOL    HW1 4706   5.684   4.899   5.195
 1269SOL    HW2 4707   5.602   4.758   5.200
 1270SOL     OW 4708   1.184   3.078   3.433
 1270SOL    HW1 4709   1.100   3.073   3.487
 1270SOL    HW2 4710   1.222   3.170   3.437
 1271SOL     OW 4711   2.476   2.264   3.752
 1271SOL    HW1 4712   2.575   2.275   3.758
 1271SOL    HW2 4713   2.434   2.351   3.728
 1272SOL     OW 4714   5.781   4.746   7.003
 1272SOL    HW1 4715   5.811   4.721   6.911
 1272SOL    HW2 4716   5.705   4.687   0.010
 1273SOL     OW 4717   0.415   3.202   0.078
 1273SOL    HW1 4718   0.505   3.159   0.086
 1273SOL    HW2 4719   0.384   3.232   0.169
 1274SOL     OW 4720   6.831   4.739   1.533
 1274SOL    HW1 4721   6.874   4.795   1.462
 1274SOL    HW2 4722   6.848   4.779   1.623
 1275SOL     OW 4723   3.794   1.715   4.173
 1275SOL    HW1 4724   3.719   1.774   4.142
 1275SOL    HW2 4725   3.779   1.690   4.269
 1276SOL     OW 4726   6.663   5.987   5.190
 1276SOL    HW1 4727   6.704   5.954   5.105
 1276SOL    HW2 4728   6.573   6.026   5.170
 1277SOL     OW 4729   1.139   5.515   5.775
 1277SOL    HW1 4730   1.098   5.574   5.706
 1277SOL    HW2 4731   1.234   5.543   5.792
 1278SOL     OW 4732   0.873   6.830   4.886
 1278SOL    HW1 4733   0.912   6.747   4.926
 1278SOL    HW2 4734   0.850   6.813   4.790
 1279SOL     OW 4735   1.859   5.201   0.408
 1279SOL    HW1 4736   1.864   5.141   0.328
 1279SOL    HW2 4737   1.950   5.239   0.427
 1280SOL     OW 4738   4.038   6.253   4.355
 1280SOL    HW1 4739   3.992   6.306   4.284
 1280SOL    HW2 4740   3.969   6.215   4.417
 1281SOL     OW 4741   2.136   5.992   3.336
 1281SOL    HW1 4742   2.177   6.036   3.416
 1281SOL    HW2 4743   2.047   5.955   3.360
 1282SOL     OW 4744   6.559   2.617   0.217
 1282SOL    HW1 4745   6.580   2.714   0.232
 1282SOL    HW2 4746   6.581   2.592   0.123
 1283SOL     OW 4747   0.419   3.475   5.670
 1283SOL    HW1 4748   0.485   3.506   5.738
 1283SOL    HW2 4749   0.443   3.514   5.581
 1284SOL     OW 4750   5.030   2.331   1.376
 1284SOL    HW1 4751   5.052   2.425   1.405
 1284SOL    HW2 4752   5.010   2.276   1.456
 1285SOL     OW 4753   4.447   2.224   5.996
 1285SOL    HW1 4754   4.398   2.226   5.908
 1285SOL    HW2 4755   4.546   2.226   5.979
 1286SOL     OW 4756   4.289   3.718   1.691
 1286SOL    HW1 4757   4.227   3.706   1.768
 1286SOL    HW2 4758   4.347   3.637   1.683
 1287SOL     OW 4759   5.937   5.113   5.192
 1287SOL    HW1 4760   5.963   5.139   5.285
 1287SOL    HW2 4761   6.000   5.155   5.126
 1288SOL     OW 4762   3.871   3.280   6.695
 1288SOL    HW1 4763   3.874   3.284   6.795
 1288SOL    HW2 4764   3.795   3.222   6.666
 1289SOL     OW 4765   6.404   6.907   1.222
 1289SOL    HW1 4766   6.308   6.933   1.232
 1289SOL    HW2 4767   6.412   6.808   1.217
 1290SOL     OW 4768   0.913   6.716   0.038
 1290SOL    HW1 4769   0.881   6.670   6.976
 1290SOL    HW2 4770   0.835   6.754   0.088
 1291SOL     OW 4771   0.131   4.057   4.521
 1291SOL    HW1 4772   0.039   4.090   4.497
 1291SOL    HW2 4773   0.199   4.120   4.484
 1292SOL     OW 4774   0.712   5.830   2.549
 1292SOL    HW1 4775   0.799   5.805   2.507
 1292SOL    HW2 4776   0.637   5.788   2.499
 1293SOL     OW 4777   0.867   1.910   6.842
 1293SOL    HW1 4778   0.876   1.981   6.772
 1293SOL    HW2 4779   0.848   1.953   6.930
 1294SOL     OW 4780   0.878   3.857   6.378
 1294SOL    HW1 4781   0.893   3.766   6.341
 1294SOL    HW2 4782   0.939   3.873   6.456
 1295SOL     OW 4783   0.483   3.620   1.757
 1295SOL    HW1 4784   0.576   3.656   1.760
 1295SOL    HW2 4785   0.457   3.589   1.848
 1296SOL     OW 4786   4.175   6.457   5.869
 1296SOL    HW1 4787   4.136   6.544   5.839
 1296SOL    HW2 4788   4.105   6.402   5.913
 1297SOL     OW 4789   0.089   0.527   1.247
 1297SOL    HW1 4790   0.128   0.619   1.243
 1297SOL    HW2 4791   0.030   0.520   1.327
 1298SOL     OW 4792   5.517   5.208   3.319
 1298SOL    HW1 4793   5.616   5.210   3.333
 1298SOL    HW2 4794   5.482   5.117   3.342
 1299SOL     OW 4795   1.900   3.264   3.033
 1299SOL    HW1 4796   1.885   3.363   3.021
 1299SOL    HW2 4797   1.816   3.222   3.066
 1300SOL     OW 4798   2.138   3.182   1.033
 1300SOL    HW1 4799   2.047   3.151   1.005
 1300SOL    HW2 4800   2.128   3.243   1.112
 1301SOL     OW 4801   0.251   0.236   1.133
 1301SOL    HW1 4802   0.257   0.235   1.233
 1301SOL    HW2 4803   0.262   0.142   1.099
 1302SOL     OW 4804   4.151   0.568   5.812
 1302SOL    HW1 4805   4.133   0.564   5.911
 1302SOL    HW2 4806   4.112   0.487   5.768
 1303SOL     OW 4807   3.885   2.291   1.359
 1303SOL    HW1 4808   3.903   2.308   1.456
 1303SOL    HW2 4809   3.795   2.247   1.349
 1304SOL     OW 4810   2.362   0.672   6.852
 1304SOL    HW1 4811   2.299   0.670   6.774
 1304SOL    HW2 4812   2.456   0.685   6.819
 1305SOL     OW 4813   5.618   3.630   1.100
 1305SOL    HW1 4814   5.550   3.694   1.064
 1305SOL    HW2 4815   5.665   3.586   1.024
 1306SOL     OW 4816   1.215   5.526   3.951
 1306SOL    HW1 4817   1.226   5.624   3.964
 1306SOL    HW2 4818   1.143   5.509   3.884
 1307SOL     OW 4819   1.653   4.054   4.048
 1307SOL    HW1 4820   1.726   4.116   4.075
 1307SOL    HW2 4821   1.575   4.064   4.110
 1308SOL     OW 4822   6.508   0.079   5.351
 1308SOL    HW1 4823   6.427   0.061   5.407
 1308SOL    HW2 4824   6.526   0.177   5.348
 1309SOL     OW 4825   5.595   4.560   5.487
 1309SOL    HW1 4826   5.517   4.530   5.432
 1309SOL    HW2 4827   5.576   4.650   5.527
 1310SOL     OW 4828   6.429   4.349   4.111
 1310SOL    HW1 4829   6.450   4.335   4.014
 1310SOL    HW2 4830   6.418   4.447   4.129
 1311SOL     OW 4831   0.258   6.036   5.455
 1311SOL    HW1 4832   0.348   6.066   5.487
 1311SOL    HW2 4833   0.187   6.073   5.515
 1312SOL     OW 4834   0.798   6.587   6.835
 1312SOL    HW1 4835   0.788   6.635   6.748
 1312SOL    HW2 4836   0.715   6.534   6.854
 1313SOL     OW 4837   0.500   4.876   2.803
 1313SOL    HW1 4838   0.524   4.880   2.900
 1313SOL    HW2 4839   0.474   4.967   2.771
 1314SOL     OW 4840   4.469   1.206   5.553
 1314SOL    HW1 4841   4.404   1.264   5.602
 1314SOL    HW2 4842   4.477   1.238   5.458
 1315SOL     OW 4843   0.492   1.632   2.640
 1315SOL    HW1 4844   0.424   1.566   2.672
 1315SOL    HW2 4845   0.494   1.631   2.540
 1316SOL     OW 4846   2.951   6.519   6.141
 1316SOL    HW1 4847   2.980   6.437   6.093
 1316SOL    HW2 4848   2.942   6.595   6.076
 1317SOL     OW 4849   1.939   4.389   5.850
 1317SOL    HW1 4850   1.925   4.483   5.880
 1317SOL    HW2 4851   2.004   4.344   5.912
 1318SOL     OW 4852   0.811   1.987   0.948
 1318SOL    HW1 4853   0.906   2.018   0.941
 1318SOL    HW2 4854   0.779   1.957   0.858
 1319SOL     OW 4855   6.569   6.522   6.958
 1319SOL    HW1 4856   6.664   6.499   6.936
 1319SOL    HW2 4857   6.568   6.583   0.016
 1320SOL     OW 4858   4.070   4.684   6.838
 1320SOL    HW1 4859   4.008   4.649   6.907
 1320SOL    HW2 4860   4.039   4.656   6.747
 1321SOL     OW 4861   5.602   2.071   6.538
 1321SOL    HW1 4862   5.573   1.976   6.531
 1321SOL    HW2 4863   5.684   2.085   6.483
 1322SOL     OW 4864   3.649   1.069   3.353
 1322SOL    HW1 4865   3.670   1.147   3.294
 1322SOL    HW2 4866   3.580   1.095   3.420
 1323SOL     OW 4867   4.420   0.281   6.305
 1323SOL    HW1 4868   4.451   0.257   6.213
 1323SOL    HW2 4869   4.359   0.361   6.301
 1324SOL     OW 4870   0.616   3.748   6.800
 1324SOL    HW1 4871   0.524   3.785   6.785
 1324SOL    HW2 4872   0.650   3.780   6.889
 1325SOL     OW 4873   2.443   0.076   3.565
 1325SOL    HW1 4874   2.412   0.010   3.634
 1325SOL    HW2 4875   2.516   0.034   3.510
 1326SOL     OW 4876   4.802   3.697   5.518
 1326SOL    HW1 4877   4.749   3.722   5.437
 1326SOL    HW2 4878   4.798   3.772   5.585
 1327SOL     OW 4879   0.839   5.993   1.739
 1327SOL    HW1 4880   0.908   6.048   1.786
 1327SOL    HW2 4881   0.851   6.001   1.640
 1328SOL     OW 4882   2.219   3.328   1.530
 1328SOL    HW1 4883   2.184   3.392   1.599
 1328SOL    HW2 4884   2.246   3.380   1.448
 1329SOL     OW 4885   0.901   2.477   1.991
 1329SOL    HW1 4886   0.891   2.378   2.000
 1329SOL    HW2 4887   0.818   2.515   1.950
 1330SOL     OW 4888   0.718   0.846   2.145
 1330SOL    HW1 4889   0.814   0.862   2.120
 1330SOL    HW2 4890   0.659   0.865   2.066
 1331SOL     OW 4891   4.975   3.188   2.835
 1331SOL    HW1 4892   4.902   3.120   2.834
 1331SOL    HW2 4893   5.063   3.142   2.845
 1332SOL     OW 4894   2.781   7.004   6.979
 1332SOL    HW1 4895   2.723   0.019   0.032
 1332SOL    HW2 4896   2.748   0.018   6.892
 1333SOL     OW 4897   3.230   3.104   4.248
 1333SOL    HW1 4898   3.204   3.137   4.157
 1333SOL    HW2 4899   3.268   3.180   4.301
 1334SOL     OW 4900   6.054   1.806   3.953
 1334SOL    HW1 4901   6.064   1.710   3.926
 1334SOL    HW2 4902   6.024   1.860   3.875
 1335SOL     OW 4903   2.223   1.743   2.420
 1335SOL    HW1 4904   2.159   1.730   2.496
 1335SOL    HW2 4905   2.190   1.817   2.361
 1336SOL     OW 4906   2.163   2.514   5.150
 1336SOL    HW1 4907   2.117   2.597   5.181
 1336SOL    HW2 4908   2.177   2.519   5.051
 1337SOL     OW 4909   1.584   2.099   4.558
 1337SOL    HW1 4910   1.524   2.019   4.563
 1337SOL    HW2 4911   1.629   2.100   4.468
 1338SOL     OW 4912   5.562   2.240   4.952
 1338SOL    HW1 4913   5.633   2.192   4.900
 1338SOL    HW2 4914   5.573   2.339   4.939
 1339SOL     OW 4915   6.440   2.284   6.578
 1339SOL    HW1 4916   6.389   2.211   6.532
 1339SOL    HW2 4917   6.433   2.368   6.524
 1340SOL     OW 4918   6.185   1.911   2.747
 1340SOL    HW1 4919   6.092   1.910   2.784
 1340SOL    HW2 4920   6.187   1.969   2.665
 1341SOL     OW 4921   5.099   6.655   6.551
 1341SOL    HW1 4922   5.089   6.718   6.628
 1341SOL    HW2 4923   5.190   6.614   6.553
 1342SOL     OW 4924   3.058   6.014   5.917
 1342SOL    HW1 4925   3.047   5.994   6.014
 1342SOL    HW2 4926   3.140   5.970   5.882
 1343SOL     OW 4927   5.415   5.401   2.330
 1343SOL    HW1 4928   5.351   5.344   2.278
 1343SOL    HW2 4929   5.371   5.487   2.355
 1344SOL     OW 4930   6.856   5.842   4.631
 1344SOL    HW1 4931   6.930   5.904   4.655
 1344SOL    HW2 4932   6.895   5.759   4.590
 1345SOL     OW 4933   1.195   6.868   3.369
 1345SOL    HW1 4934   1.193   6.772   3.342
 1345SOL    HW2 4935   1.266   6.916   3.316
 1346SOL     OW 4936   1.044   5.223   4.771
 1346SOL    HW1 4937   1.011   5.203   4.863
 1346SOL    HW2 4938   0.975   5.195   4.704
 1347SOL     OW 4939   0.013   6.361   5.662
 1347SOL    HW1 4940   6.960   6.334   5.601
 1347SOL    HW2 4941   0.030   6.459   5.652
 1348SOL     OW 4942   5.571   5.933   3.559
 1348SOL    HW1 4943   5.518   6.016   3.575
 1348SOL    HW2 4944   5.515   5.869   3.506
 1349SOL     OW 4945   4.851   2.576   5.485
 1349SOL    HW1 4946   4.927   2.580   5.551
 1349SOL    HW2 4947   4.783   2.510   5.517
 1350SOL     OW 4948   5.522   5.182   5.474
 1350SOL    HW1 4949   5.461   5.110   5.441
 1350SOL    HW2 4950   5.482   5.272   5.453
 1351SOL     OW 4951   5.628   2.127   2.644
 1351SOL    HW1 4952   5.603   2.224   2.642
 1351SOL    HW2 4953   5.602   2.084   2.557
 1352SOL     OW 4954   0.044   6.246   2.496
 1352SOL    HW1 4955   0.010   6.330   2.456
 1352SOL    HW2 4956   0.037   6.251   2.596
 1353SOL     OW 4957   6.902   2.237   0.618
 1353SOL    HW1 4958   6.812   2.244   0.575
 1353SOL    HW2 4959   6.930   2.141   0.620
 1354SOL     OW 4960   0.992   4.421   1.775
 1354SOL    HW1 4961   1.078   4.371   1.786
 1354SOL    HW2 4962   0.993   4.470   1.688
 1355SOL     OW 4963   5.952   2.834   4.062
 1355SOL    HW1 4964   6.030   2.775   4.041
 1355SOL    HW2 4965   5.950   2.853   4.160
 1356SOL     OW 4966   3.459   3.232   2.460
 1356SOL    HW1 4967   3.454   3.313   2.401
 1356SOL    HW2 4968   3.552   3.220   2.493
 1357SOL     OW 4969   0.754   3.580   6.044
 1357SOL    HW1 4970   0.702   3.663   6.067
 1357SOL    HW2 4971   0.833   3.573   6.104
 1358SOL     OW 4972   4.185   6.870   6.323
 1358SOL    HW1 4973   4.117   6.917   6.267
 1358SOL    HW2 4974   4.270   6.923   6.324
 1359SOL     OW 4975   6.150   5.203   2.186
 1359SOL    HW1 4976   6.119   5.205   2.091
 1359SOL    HW2 4977   6.237   5.152   2.191
 1360SOL     OW 4978   2.979   3.036   0.080
 1360SOL    HW1 4979   2.923   3.117   0.063
 1360SOL    HW2 4980   3.067   3.064   0.120
 1361SOL     OW 4981   6.904   5.372   5.576
 1361SOL    HW1 4982   6.853   5.449   5.535
 1361SOL    HW2 4983   6.840   5.300   5.601
 1362SOL     OW 4984   3.192   3.918   3.477
 1362SOL    HW1 4985   3.291   3.919   3.486
 1362SOL    HW2 4986   3.167   3.938   3.382
 1363SOL     OW 4987   0.109   5.337   3.000
 1363SOL    HW1 4988   0.203   5.323   2.971
 1363SOL    HW2 4989   0.055   5.256   2.978
 1364SOL     OW 4990   6.677   3.644   1.262
 1364SOL    HW1 4991   6.659   3.714   1.331
 1364SOL    HW2 4992   6.593   3.627   1.210
 1365SOL     OW 4993   0.380   3.514   6.396
 1365SOL    HW1 4994   0.351   3.490   6.303
 1365SOL    HW2 4995   0.331   3.596   6.426
 1366SOL     OW 4996   0.937   4.966   6.923
 1366SOL    HW1 4997   0.996   5.014   6.859
 1366SOL    HW2 4998   0.886   4.894   6.874
 1367SOL     OW 4999   1.966   0.449   3.505
 1367SOL    HW1 5000   1.963   0.372   3.441
 1367SOL    HW2 5001   2.062   0.469   3.527
 1368SOL     OW 5002   5.613   0.566   3.043
 1368SOL    HW1 5003   5.522   0.608   3.040
 1368SOL    HW2 5004   5.607   0.473   3.007
 1369SOL     OW 5005   2.478   6.678   1.278
 1369SOL    HW1 5006   2.533   6.595   1.268
 1369SOL    HW2 5007   2.530   6.756   1.246
 1370SOL     OW 5008   3.743   1.161   0.916
 1370SOL    HW1 5009   3.806   1.227   0.874
 1370SOL    HW2 5010   3.664   1.147   0.855
 1371SOL     OW 5011   5.895   2.030   4.434
 1371SOL    HW1 5012   5.939   2.027   4.343
 1371SOL    HW2 5013   5.902   1.940   4.477
 1372SOL     OW 5014   1.355   3.027   0.178
 1372SOL    HW1 5015   1.337   3.017   0.080
 1372SOL    HW2 5016   1.285   2.978   0.230
 1373SOL     OW 5017   5.545   3.055   0.529
 1373SOL    HW1 5018   5.577   2.962   0.548
 1373SOL    HW2 5019   5.576   3.083   0.438
 1374SOL     OW 5020   5.245   1.755   6.974
 1374SOL    HW1 5021   5.208   1.713   0.036
 1374SOL    HW2 5022   5.178   1.817   6.935
 1375SOL     OW 5023   0.484   4.105   6.170
 1375SOL    HW1 5024   0.546   4.149   6.105
 1375SOL    HW2 5025   0.502   4.007   6.173
 1376SOL     OW 5026   4.658   4.334   4.603
 1376SOL    HW1 5027   4.644   4.332   4.504
 1376SOL    HW2 5028   4.756   4.340   4.622
 1377SOL     OW 5029   6.483   4.146   6.098
 1377SOL    HW1 5030   6.534   4.076   6.047
 1377SOL    HW2 5031   6.428   4.199   6.034
 1378SOL     OW 5032   6.086   1.151   4.619
 1378SOL    HW1 5033   6.055   1.110   4.706
 1378SOL    HW2 5034   6.054   1.245   4.614
 1379SOL     OW 5035   3.102   6.508   2.480
 1379SOL    HW1 5036   3.039   6.543   2.550
 1379SOL    HW2 5037   3.187   6.561   2.484
 1380SOL     OW 5038   0.139   0.255   2.877
 1380SOL    HW1 5039   0.222   0.297   2.916
 1380SOL    HW2 5040   0.137   0.271   2.778
 1381SOL     OW 5041   6.078   2.152   0.391
 1381SOL    HW1 5042   6.012   2.221   0.364
 1381SOL    HW2 5043   6.156   2.196   0.437
 1382SOL     OW 5044   4.310   4.760   0.617
 1382SOL    HW1 5045   4.276   4.694   0.550
 1382SOL    HW2 5046   4.258   4.751   0.702
 1383SOL     OW 5047   1.295   0.263   1.512
 1383SOL    HW1 5048   1.388   0.263   1.476
 1383SOL    HW2 5049   1.294   0.221   1.603
 1384SOL     OW 5050   3.982   0.449   1.964
 1384SOL    HW1 5051   4.056   0.407   1.911
 1384SOL    HW2 5052   3.927   0.378   2.007
 1385SOL     OW 5053   1.012   3.649   3.636
 1385SOL    HW1 5054   0.987   3.669   3.731
 1385SOL    HW2 5055   0.935   3.603   3.591
 1386SOL     OW 5056   2.580   1.097   4.640
 1386SOL    HW1 5057   2.620   1.067   4.554
 1386SOL    HW2 5058   2.512   1.029   4.671
 1387SOL     OW 5059   4.079   6.475   2.414
 1387SOL    HW1 5060   4.027   6.394   2.386
 1387SOL    HW2 5061   4.177   6.452   2.418
 1388SOL     OW 5062   0.068   6.649   3.378
 1388SOL    HW1 5063   0.018   6.572   3.416
 1388SOL    HW2 5064   0.166   6.633   3.386
 1389SOL     OW 5065   0.460   0.972   3.891
 1389SOL    HW1 5066   0.533   0.962   3.958
 1389SOL    HW2 5067   0.455   1.068   3.862
 1390SOL     OW 5068   5.059   2.522   6.230
 1390SOL    HW1 5069   5.080   2.427   6.205
 1390SOL    HW2 5070   5.060   2.531   6.329
 1391SOL     OW 5071   6.461   0.663   5.067
 1391SOL    HW1 5072   6.455   0.685   4.970
 1391SOL    HW2 5073   6.371   0.632   5.099
 1392SOL     OW 5074   5.238   6.210   6.436
 1392SOL    HW1 5075   5.266   6.126   6.390
 1392SOL    HW2 5076   5.288   6.219   6.522
 1393SOL     OW 5077   6.168   3.481   6.177
 1393SOL    HW1 5078   6.142   3.388   6.200
 1393SOL    HW2 5079   6.196   3.486   6.081
 1394SOL     OW 5080   4.029   6.487   3.711
 1394SOL    HW1 5081   4.011   6.396   3.748
 1394SOL    HW2 5082   3.948   6.519   3.662
 1395SOL     OW 5083   1.331   4.204   3.918
 1395SOL    HW1 5084   1.381   4.231   3.835
 1395SOL    HW2 5085   1.327   4.280   3.982
 1396SOL     OW 5086   1.554   0.366   3.870
 1396SOL    HW1 5087   1.494   0.420   3.811
 1396SOL    HW2 5088   1.504   0.339   3.952
 1397SOL     OW 5089   0.707   6.144   4.520
 1397SOL    HW1 5090   0.747   6.097   4.598
 1397SOL    HW2 5091   0.608   6.129   4.519
 1398SOL     OW 5092   1.122   1.768   6.471
 1398SOL    HW1 5093   1.086   1.706   6.401
 1398SOL    HW2 5094   1.202   1.727   6.515
 1399SOL     OW 5095   4.199   0.523   0.162
 1399SOL    HW1 5096   4.170   0.590   0.230
 1399SOL    HW2 5097   4.154   0.435   0.180
 1400SOL     OW 5098   6.897   2.291   4.442
 1400SOL    HW1 5099   6.910   2.200   4.483
 1400SOL    HW2 5100   6.869   2.356   4.513
 1401SOL     OW 5101   6.166   6.811   4.482
 1401SOL    HW1 5102   6.116   6.797   4.567
 1401SOL    HW2 5103   6.105   6.795   4.404
 1402SOL     OW 5104   5.972   4.313   6.734
 1402SOL    HW1 5105   5.958   4.231   6.678
 1402SOL    HW2 5106   5.885   4.343   6.771
 1403SOL     OW 5107   1.982   2.038   1.330
 1403SOL    HW1 5108   1.896   2.052   1.379
 1403SOL    HW2 5109   2.052   2.099   1.367
 1404SOL     OW 5110   5.879   6.722   0.175
 1404SOL    HW1 5111   5.828   6.696   0.093
 1404SOL    HW2 5112   5.873   6.821   0.188
 1405SOL     OW 5113   2.691   3.092   0.616
 1405SOL    HW1 5114   2.633   3.099   0.535
 1405SOL    HW2 5115   2.698   3.181   0.660
 1406SOL     OW 5116   2.491   4.516   0.765
 1406SOL    HW1 5117   2.476   4.610   0.798
 1406SOL    HW2 5118   2.513   4.519   0.668
 1407SOL     OW 5119   1.886   3.808   3.223
 1407SOL    HW1 5120   1.835   3.821   3.138
 1407SOL    HW2 5121   1.847   3.865   3.295
 1408SOL     OW 5122   5.174   6.755   6.972
 1408SOL    HW1 5123   5.131   6.807   6.899
 1408SOL    HW2 5124   5.255   6.708   6.936
 1409SOL     OW 5125   0.115   0.700   4.850
 1409SOL    HW1 5126   0.175   0.637   4.801
 1409SOL    HW2 5127   0.070   0.760   4.784
 1410SOL     OW 5128   3.332   4.068   0.497
 1410SOL    HW1 5129   3.369   3.979   0.470
 1410SOL    HW2 5130   3.351   4.135   0.425
 1411SOL     OW 5131   3.669   5.847   5.982
 1411SOL    HW1 5132   3.701   5.847   5.888
 1411SOL    HW2 5133   3.747   5.840   6.044
 1412SOL     OW 5134   0.581   4.506   1.782
 1412SOL    HW1 5135   0.637   4.424   1.776
 1412SOL    HW2 5136   0.638   4.587   1.763
 1413SOL     OW 5137   1.331   1.510   4.295
 1413SOL    HW1 5138   1.337   1.596   4.244
 1413SOL    HW2 5139   1.336   1.528   4.393
 1414SOL     OW 5140   1.740   1.977   2.202
 1414SOL    HW1 5141   1.728   2.043   2.276
 1414SOL    HW2 5142   1.814   1.914   2.226
 1415SOL     OW 5143   3.372   1.557   4.523
 1415SOL    HW1 5144   3.388   1.536   4.427
 1415SOL    HW2 5145   3.426   1.637   4.549
 1416SOL     OW 5146   3.602   0.750   4.310
 1416SOL    HW1 5147   3.570   0.720   4.400
 1416SOL    HW2 5148   3.552   0.832   4.282
 1417SOL     OW 5149   3.144   2.950   6.016
 1417SOL    HW1 5150   3.169   2.871   5.960
 1417SOL    HW2 5151   3.063   2.928   6.070
 1418SOL     OW 5152   2.929   3.441   6.891
 1418SOL    HW1 5153   2.931   3.518   6.954
 1418SOL    HW2 5154   2.866   3.461   6.816
 1419SOL     OW 5155   2.308   5.271   4.221
 1419SOL    HW1 5156   2.333   5.368   4.225
 1419SOL    HW2 5157   2.268   5.244   4.308
 1420SOL     OW 5158   3.409   5.610   2.713
 1420SOL    HW1 5159   3.344   5.583   2.785
 1420SOL    HW2 5160   3.427   5.708   2.720
 1421SOL     OW 5161   1.136   4.006   3.879
 1421SOL    HW1 5162   1.172   3.916   3.851
 1421SOL    HW2 5163   1.211   4.072   3.880
 1422SOL     OW 5164   3.443   4.231   5.787
 1422SOL    HW1 5165   3.345   4.222   5.804
 1422SOL    HW2 5166   3.492   4.219   5.873
 1423SOL     OW 5167   3.301   1.121   5.447
 1423SOL    HW1 5168   3.340   1.142   5.357
 1423SOL    HW2 5169   3.368   1.071   5.502
 1424SOL     OW 5170   6.561   3.841   6.693
 1424SOL    HW1 5171   6.469   3.852   6.731
 1424SOL    HW2 5172   6.628   3.872   6.759
 1425SOL     OW 5173   2.222   5.555   5.530
 1425SOL    HW1 5174   2.249   5.526   5.622
 1425SOL    HW2 5175   2.229   5.478   5.467
 1426SOL     OW 5176   1.645   1.731   6.330
 1426SOL    HW1 5177   1.633   1.766   6.423
 1426SOL    HW2 5178   1.669   1.807   6.270
 1427SOL     OW 5179   0.183   0.276   3.854
 1427SOL    HW1 5180   0.137   0.188   3.867
 1427SOL    HW2 5181   0.151   0.318   3.769
 1428SOL     OW 5182   0.195   2.122   2.067
 1428SOL    HW1 5183   0.295   2.122   2.067
 1428SOL    HW2 5184   0.161   2.109   1.974
 1429SOL     OW 5185   6.174   1.436   6.944
 1429SOL    HW1 5186   6.153   1.368   7.015
 1429SOL    HW2 5187   6.252   1.405   6.890
 1430SOL     OW 5188   2.277   4.134   3.687
 1430SOL    HW1 5189   2.254   4.044   3.722
 1430SOL    HW2 5190   2.262   4.137   3.588
 1431SOL     OW 5191   2.259   2.614   6.555
 1431SOL    HW1 5192   2.270   2.564   6.469
 1431SOL    HW2 5193   2.186   2.571   6.609
 1432SOL     OW 5194   2.285   1.021   1.651
 1432SOL    HW1 5195   2.275   1.119   1.631
 1432SOL    HW2 5196   2.222   0.996   1.724
 1433SOL     OW 5197   4.152   6.812   4.557
 1433SOL    HW1 5198   4.146   6.854   4.467
 1433SOL    HW2 5199   4.247   6.812   4.588
 1434SOL     OW 5200   6.867   1.031   6.618
 1434SOL    HW1 5201   6.839   1.018   6.523
 1434SOL    HW2 5202   6.932   0.960   6.643
 1435SOL     OW 5203   6.672   0.848   3.510
 1435SOL    HW1 5204   6.733   0.781   3.466
 1435SOL    HW2 5205   6.663   0.928   3.451
 1436SOL     OW 5206   6.005   3.930   0.068
 1436SOL    HW1 5207   6.088   3.983   0.085
 1436SOL    HW2 5208   5.925   3.988   0.083
 1437SOL     OW 5209   3.307   0.691   5.462
 1437SOL    HW1 5210   3.287   0.754   5.387
 1437SOL    HW2 5211   3.381   0.727   5.518
 1438SOL     OW 5212   2.913   0.323   1.610
 1438SOL    HW1 5213   2.892   0.391   1.681
 1438SOL    HW2 5214   2.922   0.233   1.652
 1439SOL     OW 5215   0.412   5.169   0.840
 1439SOL    HW1 5216   0.350   5.139   0.913
 1439SOL    HW2 5217   0.380   5.256   0.803
 1440SOL     OW 5218   3.567   3.140   4.982
 1440SOL    HW1 5219   3.578   3.205   5.058
 1440SOL    HW2 5220   3.507   3.065   5.011
 1441SOL     OW 5221   6.661   3.532   4.349
 1441SOL    HW1 5222   6.726   3.586   4.295
 1441SOL    HW2 5223   6.634   3.451   4.297
 1442SOL     OW 5224   0.036   4.601   0.259
 1442SOL    HW1 5225   0.008   4.679   0.203
 1442SOL    HW2 5226   0.135   4.592   0.256
 1443SOL     OW 5227   0.891   2.310   4.710
 1443SOL    HW1 5228   0.815   2.373   4.694
 1443SOL    HW2 5229   0.898   2.290   4.808
 1444SOL     OW 5230   4.443   6.262   1.130
 1444SOL    HW1 5231   4.391   6.324   1.189
 1444SOL    HW2 5232   4.427   6.286   1.034
 1445SOL     OW 5233   0.235   2.685   2.516
 1445SOL    HW1 5234   0.308   2.621   2.541
 1445SOL    HW2 5235   0.273   2.777   2.508
 1446SOL     OW 5236   4.876   2.578   6.789
 1446SOL    HW1 5237   4.851   2.488   6.754
 1446SOL    HW2 5238   4.975   2.581   6.807
 1447SOL     OW 5239   6.873   6.825   4.868
 1447SOL    HW1 5240   6.834   6.872   4.947
 1447SOL    HW2 5241   6.956   6.872   4.838
 1448SOL     OW 5242   6.545   2.428   0.437
 1448SOL    HW1 5243   6.596   2.346   0.414
 1448SOL    HW2 5244   6.558   2.497   0.365
 1449SOL     OW 5245   5.932   0.532   6.791
 1449SOL    HW1 5246   5.953   0.481   6.875
 1449SOL    HW2 5247   5.994   0.610   6.784
 1450SOL     OW 5248   0.666   2.346   2.343
 1450SOL    HW1 5249   0.654   2.305   2.433
 1450SOL    HW2 5250   0.756   2.320   2.306
 1451SOL     OW 5251   3.386   0.578   2.100
 1451SOL    HW1 5252   3.360   0.674   2.099
 1451SOL    HW2 5253   3.482   0.568   2.075
 1452SOL     OW 5254   4.447   1.869   4.625
 1452SOL    HW1 5255   4.494   1.814   4.694
 1452SOL    HW2 5256   4.390   1.937   4.670
 1453SOL     OW 5257   6.750   3.397   5.131
 1453SOL    HW1 5258   6.724   3.304   5.107
 1453SOL    HW2 5259   6.848   3.409   5.120
 1454SOL     OW 5260   6.268   2.609   2.582
 1454SOL    HW1 5261   6.285   2.525   2.632
 1454SOL    HW2 5262   6.273   2.592   2.484
 1455SOL     OW 5263   1.954   0.348   2.165
 1455SOL    HW1 5264   2.028   0.307   2.111
 1455SOL    HW2 5265   1.947   0.445   2.143
 1456SOL     OW 5266   6.152   0.242   5.203
 1456SOL    HW1 5267   6.132   0.195   5.288
 1456SOL    HW2 5268   6.149   0.177   5.127
 1457SOL     OW 5269   1.560   7.018   1.712
 1457SOL    HW1 5270   1.569   7.007   1.613
 1457SOL    HW2 5271   1.647   0.028   1.751
 1458SOL     OW 5272   5.204   6.300   3.928
 1458SOL    HW1 5273   5.249   6.368   3.986
 1458SOL    HW2 5274   5.256   6.214   3.932
 1459SOL     OW 5275   3.060   4.459   6.215
 1459SOL    HW1 5276   3.037   4.366   6.187
 1459SOL    HW2 5277   2.987   4.522   6.187
 1460SOL     OW 5278   0.452   5.447   5.914
 1460SOL    HW1 5279   0.477   5.533   5.870
 1460SOL    HW2 5280   0.393   5.466   5.993
 1461SOL     OW 5281   0.415   4.982   3.455
 1461SOL    HW1 5282   0.488   5.039   3.493
 1461SOL    HW2 5283   0.339   5.040   3.425
 1462SOL     OW 5284   6.819   0.955   6.224
 1462SOL    HW1 5285   6.868   0.972   6.138
 1462SOL    HW2 5286   6.752   0.882   6.210
 1463SOL     OW 5287   0.509   5.867   6.270
 1463SOL    HW1 5288   0.604   5.857   6.241
 1463SOL    HW2 5289   0.507   5.890   6.367
 1464SOL     OW 5290   6.397   0.001   0.890
 1464SOL    HW1 5291   6.432   6.977   0.973
 1464SOL    HW2 5292   6.467   7.017   0.818
 1465SOL     OW 5293   1.625   1.798   2.931
 1465SOL    HW1 5294   1.610   1.820   3.027
 1465SOL    HW2 5295   1.660   1.704   2.923
 1466SOL     OW 5296   1.372   0.557   3.079
 1466SOL    HW1 5297   1.393   0.655   3.076
 1466SOL    HW2 5298   1.274   0.543   3.069
 1467SOL     OW 5299   2.714   1.025   1.971
 1467SOL    HW1 5300   2.763   1.078   1.903
 1467SOL    HW2 5301   2.731   1.063   2.062
 1468SOL     OW 5302   5.017   5.738   3.048
 1468SOL    HW1 5303   4.983   5.691   2.966
 1468SOL    HW2 5304   5.117   5.741   3.046
 1469SOL     OW 5305   1.085   0.509   2.481
 1469SOL    HW1 5306   1.146   0.459   2.542
 1469SOL    HW2 5307   0.991   0.478   2.495
 1470SOL     OW 5308   1.760   0.893   2.975
 1470SOL    HW1 5309   1.781   0.980   2.930
 1470SOL    HW2 5310   1.661   0.880   2.977
 1471SOL     OW 5311   0.741   0.626   0.780
 1471SOL    HW1 5312   0.834   0.603   0.750
 1471SOL    HW2 5313   0.688   0.660   0.703
 1472SOL     OW 5314   4.535   5.888   4.805
 1472SOL    HW1 5315   4.462   5.863   4.869
 1472SOL    HW2 5316   4.494   5.922   4.721
 1473SOL     OW 5317   5.849   5.727   3.964
 1473SOL    HW1 5318   5.843   5.649   3.901
 1473SOL    HW2 5319   5.945   5.745   3.985
 1474SOL     OW 5320   6.331   5.902   3.630
 1474SOL    HW1 5321   6.239   5.877   3.661
 1474SOL    HW2 5322   6.345   5.866   3.537
 1475SOL     OW 5323   6.438   0.131   1.423
 1475SOL    HW1 5324   6.469   0.221   1.392
 1475SOL    HW2 5325   6.451   0.064   1.350
 1476SOL     OW 5326   1.804   1.673   1.337
 1476SOL    HW1 5327   1.871   1.729   1.289
 1476SOL    HW2 5328   1.792   1.708   1.430
 1477SOL     OW 5329   2.091   0.147   6.742
 1477SOL    HW1 5330   2.036   0.091   6.679
 1477SOL    HW2 5331   2.144   0.087   6.801
 1478SOL     OW 5332   5.064   4.227   0.588
 1478SOL    HW1 5333   5.159   4.212   0.560
 1478SOL    HW2 5334   5.019   4.286   0.522
 1479SOL     OW 5335   1.632   3.250   6.714
 1479SOL    HW1 5336   1.690   3.332   6.714
 1479SOL    HW2 5337   1.621   3.217   6.807
 1480SOL     OW 5338   2.665   0.085   6.358
 1480SOL    HW1 5339   2.584   0.070   6.414
 1480SOL    HW2 5340   2.695   0.180   6.368
 1481SOL     OW 5341   0.290   2.080   5.452
 1481SOL    HW1 5342   0.307   2.120   5.361
 1481SOL    HW2 5343   0.193   2.055   5.459
 1482SOL     OW 5344   5.321   2.480   1.247
 1482SOL    HW1 5345   5.313   2.515   1.153
 1482SOL    HW2 5346   5.355   2.553   1.306
 1483SOL     OW 5347   6.581   2.418   6.141
 1483SOL    HW1 5348   6.615   2.488   6.204
 1483SOL    HW2 5349   6.643   2.410   6.063
 1484SOL     OW 5350   6.021   4.338   4.213
 1484SOL    HW1 5351   6.073   4.253   4.221
 1484SOL    HW2 5352   6.059   4.394   4.139
 1485SOL     OW 5353   3.865   2.109   2.696
 1485SOL    HW1 5354   3.850   2.059   2.781
 1485SOL    HW2 5355   3.934   2.061   2.641
 1486SOL     OW 5356   4.601   2.514   2.757
 1486SOL    HW1 5357   4.700   2.499   2.762
 1486SOL    HW2 5358   4.573   2.516   2.661
 1487SOL     OW 5359   6.829   3.002   6.985
 1487SOL    HW1 5360   6.797   3.089   6.950
 1487SOL    HW2 5361   6.857   3.012   0.060
 1488SOL     OW 5362   5.841   2.088   2.955
 1488SOL    HW1 5363   5.911   2.126   3.015
 1488SOL    HW2 5364   5.752   2.092   3.001
 1489SOL     OW 5365   4.108   5.301   4.173
 1489SOL    HW1 5366   4.039   5.357   4.127
 1489SOL    HW2 5367   4.198   5.340   4.157
 1490SOL     OW 5368   1.652   2.938   1.418
 1490SOL    HW1 5369   1.568   2.890   1.443
 1490SOL    HW2 5370   1.629   3.024   1.371
 1491SOL     OW 5371   6.274   3.499   4.188
 1491SOL    HW1 5372   6.200   3.463   4.244
 1491SOL    HW2 5373   6.279   3.598   4.200
 1492SOL     OW 5374   5.517   1.979   2.411
 1492SOL    HW1 5375   5.486   1.893   2.369
 1492SOL    HW2 5376   5.521   2.050   2.342
 1493SOL     OW 5377   5.038   0.102   3.917
 1493SOL    HW1 5378   5.128   0.058   3.911
 1493SOL    HW2 5379   4.988   0.086   3.832
 1494SOL     OW 5380   4.887   2.695   6.085
 1494SOL    HW1 5381   4.953   2.643   6.140
 1494SOL    HW2 5382   4.795   2.666   6.109
 1495SOL     OW 5383   0.087   2.736   4.605
 1495SOL    HW1 5384   0.135   2.731   4.518
 1495SOL    HW2 5385   7.009   2.738   4.588
 1496SOL     OW 5386   1.056   1.348   2.822
 1496SOL    HW1 5387   1.085   1.345   2.918
 1496SOL    HW2 5388   1.045   1.443   2.794
 1497SOL     OW 5389   0.453   3.521   2.773
 1497SOL    HW1 5390   0.359   3.508   2.742
 1497SOL    HW2 5391   0.515   3.505   2.696
 1498SOL     OW 5392   1.833   4.222   6.315
 1498SOL    HW1 5393   1.913   4.277   6.337
 1498SOL    HW2 5394   1.762   4.280   6.274
 1499SOL     OW 5395   1.327   3.583   5.467
 1499SOL    HW1 5396   1.379   3.574   5.382
 1499SOL    HW2 5397   1.294   3.677   5.476
 1500SOL     OW 5398   6.241   6.573   0.118
 1500SOL    HW1 5399   6.160   6.536   0.165
 1500SOL    HW2 5400   6.291   6.498   0.075
 1501SOL     OW 5401   4.870   1.260   6.562
 1501SOL    HW1 5402   4.880   1.325   6.486
 1501SOL    HW2 5403   4.876   1.309   6.648
 1502SOL     OW 5404   5.776   6.747   1.058
 1502SOL    HW1 5405   5.853   6.718   1.001
 1502SOL    HW2 5406   5.749   6.840   1.034
 1503SOL     OW 5407   2.706   0.910   2.256
 1503SOL    HW1 5408   2.631   0.932   2.194
 1503SOL    HW2 5409   2.760   0.993   2.274
 1504SOL     OW 5410   1.221   1.582   4.529
 1504SOL    HW1 5411   1.213   1.662   4.588
 1504SOL    HW2 5412   1.131   1.556   4.495
 1505SOL     OW 5413   5.896   0.899   6.325
 1505SOL    HW1 5414   5.814   0.940   6.365
 1505SOL    HW2 5415   5.901   0.803   6.353
 1506SOL     OW 5416   1.858   5.246   1.868
 1506SOL    HW1 5417   1.948   5.215   1.837
 1506SOL    HW2 5418   1.819   5.178   1.930
 1507SOL     OW 5419   0.909   2.432   5.647
 1507SOL    HW1 5420   1.006   2.426   5.669
 1507SOL    HW2 5421   0.878   2.347   5.605
 1508SOL     OW 5422   6.143   0.590   1.577
 1508SOL    HW1 5423   6.219   0.605   1.641
 1508SOL    HW2 5424   6.119   0.493   1.576
 1509SOL     OW 5425   4.437   2.493   6.632
 1509SOL    HW1 5426   4.424   2.566   6.699
 1509SOL    HW2 5427   4.526   2.450   6.647
 1510SOL     OW 5428   5.789   2.371   3.799
 1510SOL    HW1 5429   5.869   2.350   3.855
 1510SOL    HW2 5430   5.804   2.455   3.747
 1511SOL     OW 5431   3.391   2.612   1.082
 1511SOL    HW1 5432   3.344   2.696   1.108
 1511SOL    HW2 5433   3.355   2.536   1.135
 1512SOL     OW 5434   0.233   6.823   2.027
 1512SOL    HW1 5435   0.332   6.830   2.038
 1512SOL    HW2 5436   0.189   6.827   2.117
 1513SOL     OW 5437   4.054   0.408   3.985
 1513SOL    HW1 5438   3.983   0.375   4.046
 1513SOL    HW2 5439   4.100   0.331   3.941
 1514SOL     OW 5440   5.261   2.878   5.644
 1514SOL    HW1 5441   5.312   2.864   5.559
 1514SOL    HW2 5442   5.165   2.896   5.622
 1515SOL     OW 5443   6.507   3.499   5.219
 1515SOL    HW1 5444   6.435   3.466   5.158
 1515SOL    HW2 5445   6.596   3.467   5.187
 1516SOL     OW 5446   0.783   0.382   1.201
 1516SOL    HW1 5447   0.860   0.425   1.249
 1516SOL    HW2 5448   0.734   0.451   1.149
 1517SOL     OW 5449   4.115   5.943   3.247
 1517SOL    HW1 5450   4.172   5.899   3.316
 1517SOL    HW2 5451   4.101   5.881   3.170
 1518SOL     OW 5452   0.714   3.146   0.223
 1518SOL    HW1 5453   0.643   3.186   0.280
 1518SOL    HW2 5454   0.677   3.067   0.174
 1519SOL     OW 5455   0.083   4.505   2.312
 1519SOL    HW1 5456   7.009   4.479   2.330
 1519SOL    HW2 5457   0.136   4.424   2.286
 1520SOL     OW 5458   1.105   2.923   2.401
 1520SOL    HW1 5459   1.076   2.830   2.427
 1520SOL    HW2 5460   1.024   2.980   2.387
 1521SOL     OW 5461   2.914   3.678   0.114
 1521SOL    HW1 5462   2.817   3.653   0.117
 1521SOL    HW2 5463   2.926   3.759   0.058
 1522SOL     OW 5464   6.334   1.342   4.928
 1522SOL    HW1 5465   6.401   1.384   4.989
 1522SOL    HW2 5466   6.381   1.310   4.846
 1523SOL     OW 5467   5.054   3.979   0.708
 1523SOL    HW1 5468   5.135   3.961   0.765
 1523SOL    HW2 5469   5.065   4.067   0.661
 1524SOL     OW 5470   1.075   1.942   2.037
 1524SOL    HW1 5471   1.164   1.939   1.992
 1524SOL    HW2 5472   1.078   2.009   2.111
 1525SOL     OW 5473   6.108   2.006   0.002
 1525SOL    HW1 5474   6.024   1.956   7.001
 1525SOL    HW2 5475   6.167   2.009   6.942
 1526SOL     OW 5476   1.419   0.607   0.004
 1526SOL    HW1 5477   1.355   0.603   0.081
 1526SOL    HW2 5478   1.377   0.658   6.950
 1527SOL     OW 5479   3.577   0.672   5.692
 1527SOL    HW1 5480   3.664   0.676   5.740
 1527SOL    HW2 5481   3.583   0.724   5.607
 1528SOL     OW 5482   5.322   5.658   1.956
 1528SOL    HW1 5483   5.256   5.694   2.022
 1528SOL    HW2 5484   5.288   5.674   1.863
 1529SOL     OW 5485   3.617   1.077   0.004
 1529SOL    HW1 5486   3.664   1.007   6.970
 1529SOL    HW2 5487   3.679   1.154   0.019
 1530SOL     OW 5488   2.567   0.635   1.744
 1530SOL    HW1 5489   2.570   0.688   1.659
 1530SOL    HW2 5490   2.658   0.600   1.765
 1531SOL     OW 5491   5.882   1.790   4.585
 1531SOL    HW1 5492   5.808   1.723   4.585
 1531SOL    HW2 5493   5.967   1.745   4.557
 1532SOL     OW 5494   2.615   3.056   5.980
 1532SOL    HW1 5495   2.529   3.088   6.021
 1532SOL    HW2 5496   2.613   3.074   5.882
 1533SOL     OW 5497   0.060   3.484   6.710
 1533SOL    HW1 5498   0.010   3.411   6.663
 1533SOL    HW2 5499   0.126   3.525   6.648
 1534SOL     OW 5500   1.137   4.822   6.561
 1534SOL    HW1 5501   1.175   4.760   6.493
 1534SOL    HW2 5502   1.145   4.917   6.529
 1535SOL     OW 5503   5.136   5.951   4.234
 1535SOL    HW1 5504   5.138   5.919   4.328
 1535SOL    HW2 5505   5.100   5.879   4.175
 1536SOL     OW 5506   4.051   4.511   5.708
 1536SOL    HW1 5507   3.996   4.573   5.653
 1536SOL    HW2 5508   3.991   4.458   5.768
 1537SOL     OW 5509   3.945   5.748   2.633
 1537SOL    HW1 5510   3.957   5.651   2.653
 1537SOL    HW2 5511   3.849   5.765   2.611
 1538SOL     OW 5512   3.273   5.612   5.980
 1538SOL    HW1 5513   3.358   5.614   6.033
 1538SOL    HW2 5514   3.216   5.536   6.011
 1539SOL     OW 5515   4.334   4.429   1.377
 1539SOL    HW1 5516   4.414   4.488   1.381
 1539SOL    HW2 5517   4.361   4.338   1.344
 1540SOL     OW 5518   0.960   0.232   5.336
 1540SOL    HW1 5519   0.982   0.161   5.269
 1540SOL    HW2 5520   1.044   0.275   5.368
 1541SOL     OW 5521   3.670   3.157   1.960
 1541SOL    HW1 5522   3.576   3.185   1.940
 1541SOL    HW2 5523   3.695   3.186   2.053
 1542SOL     OW 5524   0.271   5.722   1.619
 1542SOL    HW1 5525   0.278   5.795   1.551
 1542SOL    HW2 5526   0.359   5.708   1.662
 1543SOL     OW 5527   3.126   3.165   3.970
 1543SOL    HW1 5528   3.114   3.204   3.878
 1543SOL    HW2 5529   3.050   3.192   4.028
 1544SOL     OW 5530   3.094   3.802   2.082
 1544SOL    HW1 5531   3.046   3.778   2.167
 1544SOL    HW2 5532   3.058   3.746   2.007
 1545SOL     OW 5533   5.589   0.866   4.789
 1545SOL    HW1 5534   5.676   0.908   4.814
 1545SOL    HW2 5535   5.544   0.831   4.872
 1546SOL     OW 5536   5.408   0.725   6.151
 1546SOL    HW1 5537   5.316   0.690   6.170
 1546SOL    HW2 5538   5.476   0.659   6.185
 1547SOL     OW 5539   2.536   4.562   2.545
 1547SOL    HW1 5540   2.551   4.649   2.592
 1547SOL    HW2 5541   2.601   4.494   2.578
 1548SOL     OW 5542   5.016   3.529   5.836
 1548SOL    HW1 5543   4.948   3.572   5.776
 1548SOL    HW2 5544   4.969   3.471   5.902
 1549SOL     OW 5545   5.294   2.081   2.609
 1549SOL    HW1 5546   5.210   2.027   2.618
 1549SOL    HW2 5547   5.367   2.023   2.573
 1550SOL     OW 5548   3.289   5.864   5.875
 1550SOL    HW1 5549   3.338   5.836   5.793
 1550SOL    HW2 5550   3.259   5.783   5.926
 1551SOL     OW 5551   2.156   3.299   0.481
 1551SOL    HW1 5552   2.094   3.302   0.559
 1551SOL    HW2 5553   2.203   3.386   0.471
 1552SOL     OW 5554   0.225   0.097   1.597
 1552SOL    HW1 5555   0.189   0.190   1.605
 1552SOL    HW2 5556   0.291   0.080   1.671
 1553SOL     OW 5557   6.289   1.530   6.278
 1553SOL    HW1 5558   6.266   1.563   6.186
 1553SOL    HW2 5559   6.359   1.459   6.270
 1554SOL     OW 5560   3.409   2.092   2.403
 1554SOL    HW1 5561   3.329   2.126   2.453
 1554SOL    HW2 5562   3.489   2.097   2.462
 1555SOL     OW 5563   5.241   2.249   5.960
 1555SOL    HW1 5564   5.144   2.252   5.985
 1555SOL    HW2 5565   5.289   2.325   6.003
 1556SOL     OW 5566   3.701   0.802   0.409
 1556SOL    HW1 5567   3.648   0.729   0.366
 1556SOL    HW2 5568   3.785   0.818   0.356
 1557SOL     OW 5569   2.742   1.480   0.211
 1557SOL    HW1 5570   2.798   1.409   0.168
 1557SOL    HW2 5571   2.801   1.540   0.264
 1558SOL     OW 5572   5.447   1.720   4.336
 1558SOL    HW1 5573   5.544   1.706   4.316
 1558SOL    HW2 5574   5.429   1.818   4.343
 1559SOL     OW 5575   0.007   2.687   0.768
 1559SOL    HW1 5576   0.037   2.778   0.795
 1559SOL    HW2 5577   0.015   2.676   0.669
 1560SOL     OW 5578   3.068   1.356   6.452
 1560SOL    HW1 5579   3.019   1.303   6.382
 1560SOL    HW2 5580   3.005   1.381   6.525
 1561SOL     OW 5581   5.618   5.872   3.103
 1561SOL    HW1 5582   5.662   5.838   3.020
 1561SOL    HW2 5583   5.629   5.805   3.177
 1562SOL     OW 5584   3.611   6.271   1.259
 1562SOL    HW1 5585   3.667   6.342   1.217
 1562SOL    HW2 5586   3.669   6.192   1.283
 1563SOL     OW 5587   2.258   1.815   5.938
 1563SOL    HW1 5588   2.348   1.836   5.899
 1563SOL    HW2 5589   2.189   1.819   5.866
 1564SOL     OW 5590   1.358   2.326   2.667
 1564SOL    HW1 5591   1.337   2.413   2.713
 1564SOL    HW2 5592   1.318   2.327   2.575
 1565SOL     OW 5593   4.230   5.492   4.408
 1565SOL    HW1 5594   4.299   5.503   4.480
 1565SOL    HW2 5595   4.194   5.399   4.410
 1566SOL     OW 5596   6.589   5.531   5.107
 1566SOL    HW1 5597   6.648   5.604   5.143
 1566SOL    HW2 5598   6.619   5.506   5.015
 1567SOL     OW 5599   6.395   5.937   0.318
 1567SOL    HW1 5600   6.408   5.986   0.404
 1567SOL    HW2 5601   6.456   5.976   0.249
 1568SOL     OW 5602   2.059   6.263   2.509
 1568SOL    HW1 5603   2.129   6.192   2.498
 1568SOL    HW2 5604   2.088   6.347   2.463
 1569SOL     OW 5605   3.660   6.787   3.780
 1569SOL    HW1 5606   3.724   6.844   3.729
 1569SOL    HW2 5607   3.584   6.843   3.812
 1570SOL     OW 5608   1.560   6.678   0.559
 1570SOL    HW1 5609   1.510   6.666   0.645
 1570SOL    HW2 5610   1.516   6.624   0.487
 1571SOL     OW 5611   6.983   1.907   3.428
 1571SOL    HW1 5612   6.906   1.969   3.442
 1571SOL    HW2 5613   6.978   1.867   3.336
 1572SOL     OW 5614   2.080   5.491   1.021
 1572SOL    HW1 5615   1.986   5.476   0.990
 1572SOL    HW2 5616   2.109   5.415   1.080
 1573SOL     OW 5617   6.392   5.223   1.890
 1573SOL    HW1 5618   6.457   5.294   1.916
 1573SOL    HW2 5619   6.316   5.264   1.840
 1574SOL     OW 5620   6.560   2.294   3.280
 1574SOL    HW1 5621   6.578   2.370   3.217
 1574SOL    HW2 5622   6.625   2.298   3.356
 1575SOL     OW 5623   2.515   1.134   1.772
 1575SOL    HW1 5624   2.419   1.109   1.762
 1575SOL    HW2 5625   2.566   1.059   1.813
 1576SOL     OW 5626   0.786   0.234   3.795
 1576SOL    HW1 5627   0.856   0.163   3.782
 1576SOL    HW2 5628   0.705   0.193   3.835
 1577SOL     OW 5629   2.572   0.795   5.836
 1577SOL    HW1 5630   2.580   0.744   5.921
 1577SOL    HW2 5631   2.549   0.732   5.761
 1578SOL     OW 5632   5.271   1.777   5.571
 1578SOL    HW1 5633   5.205   1.714   5.531
 1578SOL    HW2 5634   5.223   1.851   5.619
 1579SOL     OW 5635   0.151   1.738   1.897
 1579SOL    HW1 5636   0.238   1.700   1.931
 1579SOL    HW2 5637   0.162   1.836   1.881
 1580SOL     OW 5638   3.167   3.984   3.990
 1580SOL    HW1 5639   3.089   3.924   4.002
 1580SOL    HW2 5640   3.181   4.002   3.892
 1581SOL     OW 5641   6.707   4.932   5.495
 1581SOL    HW1 5642   6.730   4.876   5.574
 1581SOL    HW2 5643   6.784   4.929   5.430
 1582SOL     OW 5644   2.592   6.476   4.742
 1582SOL    HW1 5645   2.556   6.529   4.818
 1582SOL    HW2 5646   2.593   6.379   4.766
 1583SOL     OW 5647   0.308   5.760   3.430
 1583SOL    HW1 5648   0.280   5.850   3.462
 1583SOL    HW2 5649   0.262   5.739   3.343
 1584SOL     OW 5650   0.605   5.220   5.617
 1584SOL    HW1 5651   0.660   5.303   5.608
 1584SOL    HW2 5652   0.535   5.219   5.545
 1585SOL     OW 5653   4.465   2.288   2.845
 1585SOL    HW1 5654   4.369   2.293   2.873
 1585SOL    HW2 5655   4.498   2.379   2.820
 1586SOL     OW 5656   3.049   4.991   2.541
 1586SOL    HW1 5657   3.063   4.965   2.445
 1586SOL    HW2 5658   3.111   4.937   2.599
 1587SOL     OW 5659   2.550   5.645   5.561
 1587SOL    HW1 5660   2.592   5.566   5.515
 1587SOL    HW2 5661   2.455   5.623   5.584
 1588SOL     OW 5662   4.448   1.113   1.683
 1588SOL    HW1 5663   4.535   1.162   1.677
 1588SOL    HW2 5664   4.461   1.027   1.733
 1589SOL     OW 5665   0.028   3.175   2.572
 1589SOL    HW1 5666   0.091   3.193   2.647
 1589SOL    HW2 5667   0.004   3.078   2.571
 1590SOL     OW 5668   4.956   0.513   3.895
 1590SOL    HW1 5669   5.052   0.538   3.879
 1590SOL    HW2 5670   4.916   0.577   3.961
 1591SOL     OW 5671   0.182   5.674   1.102
 1591SOL    HW1 5672   0.160   5.698   1.007
 1591SOL    HW2 5673   0.280   5.662   1.111
 1592SOL     OW 5674   2.153   3.883   6.436
 1592SOL    HW1 5675   2.101   3.800   6.414
 1592SOL    HW2 5676   2.225   3.861   6.501
 1593SOL     OW 5677   1.197   6.963   4.949
 1593SOL    HW1 5678   1.220   0.000   4.871
 1593SOL    HW2 5679   1.159   6.877   4.917
 1594SOL     OW 5680   0.442   6.155   1.865
 1594SOL    HW1 5681   0.366   6.090   1.863
 1594SOL    HW2 5682   0.406   6.248   1.866
 1595SOL     OW 5683   0.633   4.988   0.637
 1595SOL    HW1 5684   0.696   5.064   0.617
 1595SOL    HW2 5685   0.545   5.026   0.665
 1596SOL     OW 5686   6.776   3.603   3.755
 1596SOL    HW1 5687   6.735   3.535   3.815
 1596SOL    HW2 5688   6.733   3.600   3.665
 1597SOL     OW 5689   1.350   5.949   1.197
 1597SOL    HW1 5690   1.290   5.925   1.120
 1597SOL    HW2 5691   1.438   5.981   1.162
 1598SOL     OW 5692   0.564   4.378   6.592
 1598SOL    HW1 5693   0.545   4.285   6.563
 1598SOL    HW2 5694   0.646   4.380   6.649
 1599SOL     OW 5695   5.361   5.393   5.112
 1599SOL    HW1 5696   5.445   5.339   5.115
 1599SOL    HW2 5697   5.310   5.371   5.029
 1600SOL     OW 5698   2.932   1.741   3.568
 1600SOL    HW1 5699   3.023   1.745   3.609
 1600SOL    HW2 5700   2.864   1.770   3.635
 1601SOL     OW 5701   6.375   6.904   4.204
 1601SOL    HW1 5702   6.453   6.909   4.142
 1601SOL    HW2 5703   6.406   6.875   4.295
 1602SOL     OW 5704   4.481   4.517   3.999
 1602SOL    HW1 5705   4.537   4.575   3.939
 1602SOL    HW2 5706   4.387   4.551   4.000
 1603SOL     OW 5707   2.260   5.887   3.111
 1603SOL    HW1 5708   2.335   5.952   3.125
 1603SOL    HW2 5709   2.207   5.879   3.195
 1604SOL     OW 5710   4.961   4.353   1.720
 1604SOL    HW1 5711   4.924   4.422   1.658
 1604SOL    HW2 5712   4.888   4.321   1.782
 1605SOL     OW 5713   6.383   5.486   2.319
 1605SOL    HW1 5714   6.328   5.451   2.243
 1605SOL    HW2 5715   6.428   5.409   2.364
 1606SOL     OW 5716   4.038   6.092   5.980
 1606SOL    HW1 5717   4.108   6.121   6.045
 1606SOL    HW2 5718   4.057   5.998   5.950
 1607SOL     OW 5719   3.617   6.902   0.575
 1607SOL    HW1 5720   3.694   6.961   0.600
 1607SOL    HW2 5721   3.531   6.952   0.585
 1608SOL     OW 5722   0.202   1.035   3.484
 1608SOL    HW1 5723   0.279   0.999   3.536
 1608SOL    HW2 5724   0.117   1.012   3.529
 1609SOL     OW 5725   3.886   0.142   0.513
 1609SOL    HW1 5726   3.878   0.052   0.471
 1609SOL    HW2 5727   3.876   0.212   0.443
 1610SOL     OW 5728   5.719   5.442   0.376
 1610SOL    HW1 5729   5.693   5.378   0.450
 1610SOL    HW2 5730   5.778   5.513   0.413
 1611SOL     OW 5731   2.665   2.864   0.404
 1611SOL    HW1 5732   2.672   2.826   0.497
 1611SOL    HW2 5733   2.600   2.809   0.351
 1612SOL     OW 5734   3.090   0.325   0.679
 1612SOL    HW1 5735   3.182   0.352   0.650
 1612SOL    HW2 5736   3.095   0.239   0.729
 1613SOL     OW 5737   1.723   5.020   2.041
 1613SOL    HW1 5738   1.771   5.025   2.128
 1613SOL    HW2 5739   1.646   4.956   2.048
 1614SOL     OW 5740   5.469   1.816   6.583
 1614SOL    HW1 5741   5.384   1.833   6.632
 1614SOL    HW2 5742   5.449   1.768   6.497
 1615SOL     OW 5743   6.432   5.841   0.000
 1615SOL    HW1 5744   6.434   5.914   6.953
 1615SOL    HW2 5745   6.339   5.806   0.009
 1616SOL     OW 5746   3.472   0.855   4.736
 1616SOL    HW1 5747   3.568   0.836   4.756
 1616SOL    HW2 5748   3.459   0.954   4.725
 1617SOL     OW 5749   5.488   6.100   3.015
 1617SOL    HW1 5750   5.549   6.166   2.970
 1617SOL    HW2 5751   5.540   6.017   3.037
 1618SOL     OW 5752   1.702   6.439   3.151
 1618SOL    HW1 5753   1.719   6.465   3.056
 1618SOL    HW2 5754   1.702   6.339   3.159
 1619SOL     OW 5755   0.389   4.598   1.492
 1619SOL    HW1 5756   0.384   4.500   1.511
 1619SOL    HW2 5757   0.297   4.631   1.470
 1620SOL     OW 5758   3.132   4.681   1.398
 1620SOL    HW1 5759   3.053   4.735   1.370
 1620SOL    HW2 5760   3.117   4.585   1.376
 1621SOL     OW 5761   6.286   0.913   0.710
 1621SOL    HW1 5762   6.201   0.884   0.753
 1621SOL    HW2 5763   6.270   0.998   0.659
 1622SOL     OW 5764   0.723   3.392   5.578
 1622SOL    HW1 5765   0.819   3.365   5.574
 1622SOL    HW2 5766   0.666   3.319   5.543
 1623SOL     OW 5767   0.721   2.755   5.038
 1623SOL    HW1 5768   0.744   2.716   5.127
 1623SOL    HW2 5769   0.736   2.686   4.967
 1624SOL     OW 5770   3.891   1.119   5.205
 1624SOL    HW1 5771   3.886   1.135   5.107
 1624SOL    HW2 5772   3.911   1.205   5.252
 1625SOL     OW 5773   1.221   4.792   0.300
 1625SOL    HW1 5774   1.285   4.788   0.223
 1625SOL    HW2 5775   1.263   4.841   0.376
 1626SOL     OW 5776   3.415   1.167   0.860
 1626SOL    HW1 5777   3.453   1.140   0.948
 1626SOL    HW2 5778   3.383   1.085   0.811
 1627SOL     OW 5779   5.880   3.362   3.867
 1627SOL    HW1 5780   5.814   3.400   3.803
 1627SOL    HW2 5781   5.891   3.424   3.945
 1628SOL     OW 5782   4.402   5.329   0.089
 1628SOL    HW1 5783   4.364   5.289   0.006
 1628SOL    HW2 5784   4.471   5.267   0.127
 1629SOL     OW 5785   2.605   1.114   3.742
 1629SOL    HW1 5786   2.682   1.177   3.729
 1629SOL    HW2 5787   2.637   1.030   3.786
 1630SOL     OW 5788   0.347   5.019   6.493
 1630SOL    HW1 5789   0.373   4.923   6.490
 1630SOL    HW2 5790   0.315   5.042   6.585
 1631SOL     OW 5791   1.094   2.456   0.456
 1631SOL    HW1 5792   1.105   2.363   0.422
 1631SOL    HW2 5793   1.105   2.458   0.555
 1632SOL     OW 5794   5.653   2.595   1.575
 1632SOL    HW1 5795   5.623   2.528   1.507
 1632SOL    HW2 5796   5.642   2.557   1.667
 1633SOL     OW 5797   4.875   3.818   4.380
 1633SOL    HW1 5798   4.868   3.776   4.290
 1633SOL    HW2 5799   4.816   3.898   4.385
 1634SOL     OW 5800   4.927   5.769   4.658
 1634SOL    HW1 5801   4.884   5.709   4.590
 1634SOL    HW2 5802   4.857   5.828   4.698
 1635SOL     OW 5803   0.817   5.415   0.015
 1635SOL    HW1 5804   0.796   5.486   6.969
 1635SOL    HW2 5805   0.732   5.385   0.060
 1636SOL     OW 5806   3.070   5.024   1.049
 1636SOL    HW1 5807   3.117   4.938   1.069
 1636SOL    HW2 5808   2.976   5.020   1.083
 1637SOL     OW 5809   6.888   0.491   3.667
 1637SOL    HW1 5810   6.931   0.568   3.716
 1637SOL    HW2 5811   6.790   0.490   3.686
 1638SOL     OW 5812   0.204   3.237   2.796
 1638SOL    HW1 5813   0.234   3.176   2.869
 1638SOL    HW2 5814   0.196   3.330   2.831
 1639SOL     OW 5815   5.551   5.218   1.307
 1639SOL    HW1 5816   5.575   5.263   1.393
 1639SOL    HW2 5817   5.471   5.159   1.321
 1640SOL     OW 5818   5.557   6.982   0.060
 1640SOL    HW1 5819   5.640   7.009   0.107
 1640SOL    HW2 5820   5.517   0.041   0.014
 1641SOL     OW 5821   5.307   2.044   2.895
 1641SOL    HW1 5822   5.301   2.021   2.797
 1641SOL    HW2 5823   5.235   1.998   2.945
 1642SOL     OW 5824   7.014   3.664   0.089
 1642SOL    HW1 5825   0.053   3.594   0.051
 1642SOL    HW2 5826   6.963   3.708   0.015
 1643SOL     OW 5827   2.781   4.683   4.231
 1643SOL    HW1 5828   2.841   4.675   4.151
 1643SOL    HW2 5829   2.834   4.666   4.314
 1644SOL     OW 5830   5.756   4.072   0.070
 1644SOL    HW1 5831   5.690   4.001   0.095
 1644SOL    HW2 5832   5.743   4.097   6.995
 1645SOL     OW 5833   2.724   5.555   6.090
 1645SOL    HW1 5834   2.670   5.563   6.006
 1645SOL    HW2 5835   2.747   5.646   6.124
 1646SOL     OW 5836   1.851   6.669   0.839
 1646SOL    HW1 5837   1.829   6.637   0.747
 1646SOL    HW2 5838   1.938   6.630   0.869
 1647SOL     OW 5839   6.041   2.899   4.559
 1647SOL    HW1 5840   6.010   2.858   4.473
 1647SOL    HW2 5841   5.974   2.966   4.591
 1648SOL     OW 5842   5.162   5.813   0.333
 1648SOL    HW1 5843   5.082   5.778   0.382
 1648SOL    HW2 5844   5.137   5.896   0.283
 1649SOL     OW 5845   3.526   1.379   4.613
 1649SOL    HW1 5846   3.464   1.457   4.612
 1649SOL    HW2 5847   3.585   1.382   4.532
 1650SOL     OW 5848   0.677   5.863   4.881
 1650SOL    HW1 5849   0.700   5.795   4.811
 1650SOL    HW2 5850   0.712   5.832   4.970
 1651SOL     OW 5851   0.485   2.116   1.997
 1651SOL    HW1 5852   0.548   2.047   1.960
 1651SOL    HW2 5853   0.444   2.166   1.921
 1652SOL     OW 5854   1.579   2.637   2.461
 1652SOL    HW1 5855   1.509   2.676   2.400
 1652SOL    HW2 5856   1.665   2.687   2.449
 1653SOL     OW 5857   0.668   6.463   0.201
 1653SOL    HW1 5858   0.759   6.468   0.244
 1653SOL    HW2 5859   0.657   6.375   0.155
 1654SOL     OW 5860   0.026   3.511   1.601
 1654SOL    HW1 5861   0.094   3.557   1.658
 1654SOL    HW2 5862   0.050   3.525   1.504
 1655SOL     OW 5863   0.509   2.344   4.557
 1655SOL    HW1 5864   0.450   2.331   4.637
 1655SOL    HW2 5865   0.604   2.349   4.586
 1656SOL     OW 5866   2.263   5.111   3.061
 1656SOL    HW1 5867   2.168   5.128   3.087
 1656SOL    HW2 5868   2.275   5.128   2.964
 1657SOL     OW 5869   5.798   1.396   3.833
 1657SOL    HW1 5870   5.843   1.356   3.914
 1657SOL    HW2 5871   5.726   1.334   3.801
 1658SOL     OW 5872   5.767   1.012   1.290
 1658SOL    HW1 5873   5.668   1.003   1.274
 1658SOL    HW2 5874   5.790   0.971   1.379
 1659SOL     OW 5875   2.962   0.520   6.775
 1659SOL    HW1 5876   2.908   0.452   6.726
 1659SOL    HW2 5877   2.907   0.560   6.849
 1660SOL     OW 5878   1.944   6.023   2.821
 1660SOL    HW1 5879   2.019   5.966   2.856
 1660SOL    HW2 5880   1.922   5.996   2.728
 1661SOL     OW 5881   2.289   6.437   1.147
 1661SOL    HW1 5882   2.312   6.528   1.115
 1661SOL    HW2 5883   2.191   6.431   1.164
 1662SOL     OW 5884   0.272   1.191   4.040
 1662SOL    HW1 5885   0.291   1.101   4.080
 1662SOL    HW2 5886   0.357   1.244   4.037
 1663SOL     OW 5887   4.136   5.519   3.339
 1663SOL    HW1 5888   4.061   5.533   3.274
 1663SOL    HW2 5889   4.156   5.605   3.385
 1664SOL     OW 5890   2.920   6.205   5.177
 1664SOL    HW1 5891   2.843   6.240   5.231
 1664SOL    HW2 5892   3.001   6.198   5.235
 1665SOL     OW 5893   6.343   2.993   2.634
 1665SOL    HW1 5894   6.301   3.075   2.672
 1665SOL    HW2 5895   6.321   2.914   2.691
 1666SOL     OW 5896   5.071   1.607   6.597
 1666SOL    HW1 5897   5.006   1.597   6.673
 1666SOL    HW2 5898   5.163   1.584   6.629
 1667SOL     OW 5899   0.059   6.850   1.041
 1667SOL    HW1 5900   0.037   6.797   0.959
 1667SOL    HW2 5901   6.997   6.865   1.094
 1668SOL     OW 5902   4.857   5.521   3.936
 1668SOL    HW1 5903   4.791   5.553   3.869
 1668SOL    HW2 5904   4.861   5.421   3.935
 1669SOL     OW 5905   6.808   4.771   5.713
 1669SOL    HW1 5906   6.841   4.865   5.709
 1669SOL    HW2 5907   6.864   4.719   5.778
 1670SOL     OW 5908   6.751   4.330   5.469
 1670SOL    HW1 5909   6.780   4.270   5.395
 1670SOL    HW2 5910   6.811   4.316   5.549
 1671SOL     OW 5911   5.322   1.664   3.069
 1671SOL    HW1 5912   5.266   1.636   3.147
 1671SOL    HW2 5913   5.312   1.598   2.995
 1672SOL     OW 5914   1.985   3.716   1.293
 1672SOL    HW1 5915   2.063   3.770   1.324
 1672SOL    HW2 5916   1.906   3.775   1.280
 1673SOL     OW 5917   1.252   1.654   5.110
 1673SOL    HW1 5918   1.341   1.641   5.155
 1673SOL    HW2 5919   1.252   1.742   5.062
 1674SOL     OW 5920   0.725   2.860   2.418
 1674SOL    HW1 5921   0.640   2.845   2.368
 1674SOL    HW2 5922   0.778   2.776   2.420
 1675SOL     OW 5923   4.847   7.007   0.321
 1675SOL    HW1 5924   4.774   7.010   0.390
 1675SOL    HW2 5925   4.829   6.931   0.258
 1676SOL     OW 5926   2.431   2.070   1.539
 1676SOL    HW1 5927   2.473   2.060   1.630
 1676SOL    HW2 5928   2.420   2.167   1.519
 1677SOL     OW 5929   3.339   2.887   4.106
 1677SOL    HW1 5930   3.300   2.875   4.015
 1677SOL    HW2 5931   3.276   2.940   4.162
 1678SOL     OW 5932   6.473   4.409   2.896
 1678SOL    HW1 5933   6.540   4.470   2.853
 1678SOL    HW2 5934   6.519   4.353   2.965
 1679SOL     OW 5935   2.534   1.990   4.350
 1679SOL    HW1 5936   2.494   2.017   4.262
 1679SOL    HW2 5937   2.611   1.928   4.333
 1680SOL     OW 5938   0.504   3.002   5.479
 1680SOL    HW1 5939   0.439   3.076   5.491
 1680SOL    HW2 5940   0.460   2.927   5.430
 1681SOL     OW 5941   0.430   5.011   0.101
 1681SOL    HW1 5942   0.443   5.060   0.015
 1681SOL    HW2 5943   0.498   4.938   0.108
 1682SOL     OW 5944   1.763   0.898   5.839
 1682SOL    HW1 5945   1.845   0.873   5.786
 1682SOL    HW2 5946   1.687   0.839   5.812
 1683SOL     OW 5947   5.990   5.437   2.602
 1683SOL    HW1 5948   6.049   5.378   2.657
 1683SOL    HW2 5949   5.986   5.401   2.509
 1684SOL     OW 5950   0.838   6.379   2.152
 1684SOL    HW1 5951   0.801   6.372   2.245
 1684SOL    HW2 5952   0.802   6.304   2.096
 1685SOL     OW 5953   1.471   1.260   5.560
 1685SOL    HW1 5954   1.514   1.216   5.639
 1685SOL    HW2 5955   1.527   1.337   5.530
 1686SOL     OW 5956   2.339   6.553   4.463
 1686SOL    HW1 5957   2.326   6.529   4.367
 1686SOL    HW2 5958   2.436   6.544   4.487
 1687SOL     OW 5959   1.346   2.942   1.819
 1687SOL    HW1 5960   1.377   3.027   1.862
 1687SOL    HW2 5961   1.424   2.880   1.810
 1688SOL     OW 5962   2.430   2.033   3.597
 1688SOL    HW1 5963   2.443   2.035   3.498
 1688SOL    HW2 5964   2.458   2.120   3.637
 1689SOL     OW 5965   6.331   0.680   3.010
 1689SOL    HW1 5966   6.428   0.691   2.986
 1689SOL    HW2 5967   6.322   0.680   3.110
 1690SOL     OW 5968   1.282   2.547   4.454
 1690SOL    HW1 5969   1.304   2.450   4.460
 1690SOL    HW2 5970   1.219   2.572   4.527
 1691SOL     OW 5971   5.151   3.175   3.556
 1691SOL    HW1 5972   5.178   3.132   3.642
 1691SOL    HW2 5973   5.054   3.200   3.560
 1692SOL     OW 5974   4.959   6.303   1.029
 1692SOL    HW1 5975   4.987   6.207   1.029
 1692SOL    HW2 5976   5.025   6.356   1.081
 1693SOL     OW 5977   6.372   2.064   2.942
 1693SOL    HW1 5978   6.282   2.045   2.904
 1693SOL    HW2 5979   6.394   1.996   3.012
 1694SOL     OW 5980   6.023   1.904   3.045
 1694SOL    HW1 5981   6.059   1.997   3.051
 1694SOL    HW2 5982   5.960   1.898   2.967
 1695SOL     OW 5983   4.128   0.548   6.098
 1695SOL    HW1 5984   4.198   0.523   6.166
 1695SOL    HW2 5985   4.077   0.627   6.131
 1696SOL     OW 5986   4.087   6.376   1.226
 1696SOL    HW1 5987   4.186   6.392   1.221
 1696SOL    HW2 5988   4.053   6.402   1.317
 1697SOL     OW 5989   6.541   1.211   0.835
 1697SOL    HW1 5990   6.634   1.181   0.852
 1697SOL    HW2 5991   6.478   1.136   0.857
 1698SOL     OW 5992   3.314   6.912   0.642
 1698SOL    HW1 5993   3.339   6.944   0.551
 1698SOL    HW2 5994   3.248   6.974   0.683
 1699SOL     OW 5995   2.459   1.253   6.725
 1699SOL    HW1 5996   2.501   1.260   6.634
 1699SOL    HW2 5997   2.475   1.161   6.761
 1700SOL     OW 5998   6.204   4.738   3.920
 1700SOL    HW1 5999   6.255   4.790   3.988
 1700SOL    HW2 6000   6.137   4.798   3.875
 1701SOL     OW 6001   5.384   5.372   6.161
 1701SOL    HW1 6002   5.329   5.430   6.101
 1701SOL    HW2 6003   5.455   5.427   6.205
 1702SOL     OW 6004   6.237   1.297   1.129
 1702SOL    HW1 6005   6.321   1.351   1.124
 1702SOL    HW2 6006   6.232   1.237   1.049
 1703SOL     OW 6007   3.703   1.655   0.339
 1703SOL    HW1 6008   3.788   1.673   0.288
 1703SOL    HW2 6009   3.682   1.734   0.397
 1704SOL     OW 6010   0.582   2.143   0.273
 1704SOL    HW1 6011   0.671   2.176   0.304
 1704SOL    HW2 6012   0.513   2.164   0.343
 1705SOL     OW 6013   3.019   2.110   2.028
 1705SOL    HW1 6014   2.955   2.036   2.049
 1705SOL    HW2 6015   2.967   2.192   2.004
 1706SOL     OW 6016   5.208   1.195   1.578
 1706SOL    HW1 6017   5.168   1.104   1.588
 1706SOL    HW2 6018   5.193   1.229   1.485
 1707SOL     OW 6019   4.613   1.834   2.690
 1707SOL    HW1 6020   4.648   1.903   2.753
 1707SOL    HW2 6021   4.570   1.760   2.741
 1708SOL     OW 6022   4.907   6.019   1.991
 1708SOL    HW1 6023   4.938   6.029   1.897
 1708SOL    HW2 6024   4.813   6.053   2.000
 1709SOL     OW 6025   3.270   6.498   2.906
 1709SOL    HW1 6026   3.174   6.474   2.891
 1709SOL    HW2 6027   3.314   6.427   2.962
 1710SOL     OW 6028   4.645   4.989   3.138
 1710SOL    HW1 6029   4.579   5.014   3.209
 1710SOL    HW2 6030   4.699   5.070   3.113
 1711SOL     OW 6031   1.951   4.767   4.545
 1711SOL    HW1 6032   1.891   4.813   4.479
 1711SOL    HW2 6033   1.976   4.831   4.617
 1712SOL     OW 6034   6.634   2.871   4.156
 1712SOL    HW1 6035   6.696   2.822   4.217
 1712SOL    HW2 6036   6.679   2.887   4.068
 1713SOL     OW 6037   4.727   2.596   1.950
 1713SOL    HW1 6038   4.824   2.573   1.948
 1713SOL    HW2 6039   4.674   2.518   1.982
 1714SOL     OW 6040   3.570   1.363   6.196
 1714SOL    HW1 6041   3.609   1.377   6.105
 1714SOL    HW2 6042   3.540   1.451   6.233
 1715SOL     OW 6043   2.552   5.453   3.403
 1715SOL    HW1 6044   2.517   5.398   3.327
 1715SOL    HW2 6045   2.509   5.544   3.401
 1716SOL     OW 6046   3.648   0.040   3.136
 1716SOL    HW1 6047   3.620   6.992   3.204
 1716SOL    HW2 6048   3.676   0.123   3.183
 1717SOL     OW 6049   3.200   5.732   4.882
 1717SOL    HW1 6050   3.239   5.640   4.881
 1717SOL    HW2 6051   3.127   5.738   4.813
 1718SOL     OW 6052   3.344   0.854   2.088
 1718SOL    HW1 6053   3.297   0.894   2.009
 1718SOL    HW2 6054   3.307   0.894   2.172
 1719SOL     OW 6055   2.079   2.911   0.860
 1719SOL    HW1 6056   2.062   2.818   0.827
 1719SOL    HW2 6057   2.173   2.918   0.893
 1720SOL     OW 6058   0.084   3.426   6.991
 1720SOL    HW1 6059   0.078   3.328   7.007
 1720SOL    HW2 6060   0.112   3.443   6.897
 1721SOL     OW 6061   1.934   6.574   1.417
 1721SOL    HW1 6062   1.891   6.487   1.444
 1721SOL    HW2 6063   1.953   6.572   1.318
 1722SOL     OW 6064   2.944   1.679   4.239
 1722SOL    HW1 6065   2.872   1.701   4.173
 1722SOL    HW2 6066   2.999   1.761   4.256
 1723SOL     OW 6067   6.192   2.284   0.074
 1723SOL    HW1 6068   6.175   2.190   0.104
 1723SOL    HW2 6069   6.111   2.318   0.026
 1724SOL     OW 6070   0.442   3.134   2.374
 1724SOL    HW1 6071   0.450   3.056   2.435
 1724SOL    HW2 6072   0.495   3.118   2.291
 1725SOL     OW 6073   2.030   4.995   6.144
 1725SOL    HW1 6074   1.938   5.029   6.128
 1725SOL    HW2 6075   2.096   5.069   6.130
 1726SOL     OW 6076   5.643   4.481   5.225
 1726SOL    HW1 6077   5.653   4.469   5.324
 1726SOL    HW2 6078   5.729   4.516   5.187
 1727SOL     OW 6079   3.726   2.904   3.567
 1727SOL    HW1 6080   3.639   2.865   3.597
 1727SOL    HW2 6081   3.771   2.950   3.643
 1728SOL     OW 6082   5.880   5.506   5.168
 1728SOL    HW1 6083   5.949   5.504   5.241
 1728SOL    HW2 6084   5.816   5.580   5.186
 1729SOL     OW 6085   2.164   3.944   2.860
 1729SOL    HW1 6086   2.153   4.026   2.916
 1729SOL    HW2 6087   2.174   3.970   2.764
 1730SOL     OW 6088   2.313   0.443   5.487
 1730SOL    HW1 6089   2.360   0.421   5.572
 1730SOL    HW2 6090   2.378   0.481   5.421
 1731SOL     OW 6091   0.761   4.323   3.767
 1731SOL    HW1 6092   0.675   4.292   3.725
 1731SOL    HW2 6093   0.782   4.415   3.734
 1732SOL     OW 6094   2.510   4.725   5.944
 1732SOL    HW1 6095   2.504   4.648   5.880
 1732SOL    HW2 6096   2.532   4.690   6.035
 1733SOL     OW 6097   1.794   3.916   1.302
 1733SOL    HW1 6098   1.739   3.954   1.227
 1733SOL    HW2 6099   1.842   3.990   1.348
 1734SOL     OW 6100   4.573   2.829   1.317
 1734SOL    HW1 6101   4.477   2.809   1.297
 1734SOL    HW2 6102   4.581   2.923   1.351
 1735SOL     OW 6103   4.377   5.436   6.338
 1735SOL    HW1 6104   4.377   5.515   6.400
 1735SOL    HW2 6105   4.329   5.360   6.382
 1736SOL     OW 6106   3.557   3.895   0.986
 1736SOL    HW1 6107   3.621   3.880   1.061
 1736SOL    HW2 6108   3.464   3.899   1.023
 1737SOL     OW 6109   4.517   0.767   4.765
 1737SOL    HW1 6110   4.551   0.700   4.832
 1737SOL    HW2 6111   4.577   0.767   4.685
 1738SOL     OW 6112   2.063   2.495   4.554
 1738SOL    HW1 6113   2.036   2.443   4.473
 1738SOL    HW2 6114   1.984   2.508   4.613
 1739SOL     OW 6115   0.216   1.945   5.111
 1739SOL    HW1 6116   0.280   1.877   5.147
 1739SOL    HW2 6117   0.122   1.913   5.124
 1740SOL     OW 6118   6.995   2.250   5.050
 1740SOL    HW1 6119   0.048   2.218   4.991
 1740SOL    HW2 6120   0.007   2.325   5.107
 1741SOL     OW 6121   2.436   0.465   4.652
 1741SOL    HW1 6122   2.520   0.424   4.687
 1741SOL    HW2 6123   2.379   0.395   4.609
 1742SOL     OW 6124   6.052   0.710   5.412
 1742SOL    HW1 6125   6.047   0.808   5.394
 1742SOL    HW2 6126   6.048   0.660   5.325
 1743SOL     OW 6127   0.822   2.028   2.371
 1743SOL    HW1 6128   0.736   2.037   2.422
 1743SOL    HW2 6129   0.899   2.041   2.433
 1744SOL     OW 6130   6.209   3.649   3.455
 1744SOL    HW1 6131   6.239   3.744   3.457
 1744SOL    HW2 6132   6.110   3.646   3.472
 1745SOL     OW 6133   5.318   5.655   2.390
 1745SOL    HW1 6134   5.254   5.691   2.457
 1745SOL    HW2 6135   5.406   5.702   2.398
 1746SOL     OW 6136   1.454   4.136   4.206
 1746SOL    HW1 6137   1.456   4.217   4.263
 1746SOL    HW2 6138   1.359   4.103   4.199
 1747SOL     OW 6139   4.658   1.523   2.553
 1747SOL    HW1 6140   4.664   1.458   2.629
 1747SOL    HW2 6141   4.657   1.616   2.588
 1748SOL     OW 6142   0.260   1.954   4.720
 1748SOL    HW1 6143   0.246   1.961   4.621
 1748SOL    HW2 6144   0.209   1.875   4.755
 1749SOL     OW 6145   2.597   6.794   5.732
 1749SOL    HW1 6146   2.654   6.775   5.651
 1749SOL    HW2 6147   2.651   6.846   5.798
 1750SOL     OW 6148   4.969   6.169   3.736
 1750SOL    HW1 6149   4.918   6.238   3.685
 1750SOL    HW2 6150   5.051   6.212   3.776
 1751SOL     OW 6151   4.352   1.804   4.156
 1751SOL    HW1 6152   4.258   1.837   4.155
 1751SOL    HW2 6153   4.355   1.710   4.190
 1752SOL     OW 6154   6.158   0.968   2.199
 1752SOL    HW1 6155   6.178   1.065   2.212
 1752SOL    HW2 6156   6.145   0.924   2.287
 1753SOL     OW 6157   6.875   0.621   1.412
 1753SOL    HW1 6158   6.822   0.655   1.334
 1753SOL    HW2 6159   6.815   0.569   1.473
 1754SOL     OW 6160   1.578   4.862   6.835
 1754SOL    HW1 6161   1.677   4.855   6.849
 1754SOL    HW2 6162   1.550   4.802   6.761
 1755SOL     OW 6163   0.244   5.539   0.348
 1755SOL    HW1 6164   0.322   5.590   0.311
 1755SOL    HW2 6165   0.193   5.497   0.273
 1756SOL     OW 6166   4.117   5.363   5.393
 1756SOL    HW1 6167   4.151   5.274   5.363
 1756SOL    HW2 6168   4.032   5.350   5.445
 1757SOL     OW 6169   2.763   5.076   5.094
 1757SOL    HW1 6170   2.822   5.000   5.124
 1757SOL    HW2 6171   2.717   5.051   5.009
 1758SOL     OW 6172   2.005   1.228   4.449
 1758SOL    HW1 6173   2.085   1.287   4.456
 1758SOL    HW2 6174   1.968   1.211   4.540
 1759SOL     OW 6175   2.939   6.139   5.704
 1759SOL    HW1 6176   2.929   6.076   5.627
 1759SOL    HW2 6177   2.954   6.086   5.788
 1760SOL     OW 6178   5.670   0.751   3.329
 1760SOL    HW1 6179   5.647   0.736   3.233
 1760SOL    HW2 6180   5.594   0.721   3.387
 1761SOL     OW 6181   0.611   0.973   1.656
 1761SOL    HW1 6182   0.587   1.043   1.589
 1761SOL    HW2 6183   0.694   0.926   1.627
 1762SOL     OW 6184   0.222   1.188   4.402
 1762SOL    HW1 6185   0.149   1.184   4.334
 1762SOL    HW2 6186   0.242   1.095   4.435
 1763SOL     OW 6187   0.755   4.564   4.525
 1763SOL    HW1 6188   0.712   4.476   4.508
 1763SOL    HW2 6189   0.836   4.552   4.583
 1764SOL     OW 6190   2.118   3.280   2.203
 1764SOL    HW1 6191   2.192   3.240   2.258
 1764SOL    HW2 6192   2.157   3.334   2.129
 1765SOL     OW 6193   3.799   0.891   1.652
 1765SOL    HW1 6194   3.728   0.961   1.655
 1765SOL    HW2 6195   3.868   0.916   1.584
 1766SOL     OW 6196   5.899   5.056   3.711
 1766SOL    HW1 6197   5.972   4.988   3.716
 1766SOL    HW2 6198   5.904   5.116   3.791
 1767SOL     OW 6199   0.877   4.192   3.007
 1767SOL    HW1 6200   0.805   4.251   2.969
 1767SOL    HW2 6201   0.843   4.149   3.091
 1768SOL     OW 6202   3.347   0.733   6.540
 1768SOL    HW1 6203   3.265   0.695   6.497
 1768SOL    HW2 6204   3.415   0.661   6.551
 1769SOL     OW 6205   5.497   1.203   6.800
 1769SOL    HW1 6206   5.570   1.134   6.790
 1769SOL    HW2 6207   5.532   1.292   6.773
 1770SOL     OW 6208   6.732   4.767   5.081
 1770SOL    HW1 6209   6.763   4.716   5.001
 1770SOL    HW2 6210   6.699   4.857   5.052
 1771SOL     OW 6211   1.369   4.837   0.521
 1771SOL    HW1 6212   1.396   4.921   0.568
 1771SOL    HW2 6213   1.441   4.768   0.531
 1772SOL     OW 6214   3.637   5.946   3.549
 1772SOL    HW1 6215   3.720   5.902   3.515
 1772SOL    HW2 6216   3.622   5.921   3.645
 1773SOL     OW 6217   2.693   2.765   5.935
 1773SOL    HW1 6218   2.669   2.735   5.843
 1773SOL    HW2 6219   2.709   2.864   5.935
 1774SOL     OW 6220   5.271   6.332   1.790
 1774SOL    HW1 6221   5.201   6.403   1.796
 1774SOL    HW2 6222   5.261   6.270   1.867
 1775SOL     OW 6223   1.645   5.044   5.933
 1775SOL    HW1 6224   1.561   4.992   5.947
 1775SOL    HW2 6225   1.679   5.029   5.840
 1776SOL     OW 6226   4.912   0.746   6.318
 1776SOL    HW1 6227   4.891   0.770   6.413
 1776SOL    HW2 6228   4.916   0.828   6.262
 1777SOL     OW 6229   3.260   6.964   6.606
 1777SOL    HW1 6230   3.172   7.009   6.622
 1777SOL    HW2 6231   3.331   0.012   6.592
 1778SOL     OW 6232   4.923   1.779   3.952
 1778SOL    HW1 6233   4.997   1.714   3.971
 1778SOL    HW2 6234   4.960   1.872   3.955
 1779SOL     OW 6235   5.206   1.260   5.245
 1779SOL    HW1 6236   5.224   1.208   5.161
 1779SOL    HW2 6237   5.268   1.338   5.250
 1780SOL     OW 6238   2.083   3.948   5.599
 1780SOL    HW1 6239   2.165   3.910   5.556
 1780SOL    HW2 6240   2.102   3.968   5.695
 1781SOL     OW 6241   5.674   6.245   4.628
 1781SOL    HW1 6242   5.669   6.214   4.533
 1781SOL    HW2 6243   5.618   6.186   4.686
 1782SOL     OW 6244   2.759   0.718   2.486
 1782SOL    HW1 6245   2.726   0.767   2.406
 1782SOL    HW2 6246   2.777   0.623   2.463
 1783SOL     OW 6247   3.009   3.141   6.316
 1783SOL    HW1 6248   2.921   3.165   6.356
 1783SOL    HW2 6249   3.019   3.188   6.228
 1784SOL     OW 6250   2.446   1.483   1.140
 1784SOL    HW1 6251   2.523   1.539   1.113
 1784SOL    HW2 6252   2.431   1.412   1.071
 1785SOL     OW 6253   5.825   6.337   3.873
 1785SOL    HW1 6254   5.820   6.412   3.808
 1785SOL    HW2 6255   5.782   6.364   3.959
 1786SOL     OW 6256   1.784   4.419   0.123
 1786SOL    HW1 6257   1.873   4.373   0.123
 1786SOL    HW2 6258   1.742   4.411   0.032
 1787SOL     OW 6259   2.565   2.134   6.099
 1787SOL    HW1 6260   2.611   2.121   6.011
 1787SOL    HW2 6261   2.628   2.177   6.163
 1788SOL     OW 6262   4.574   4.160   0.033
 1788SOL    HW1 6263   4.569   4.188   6.957
 1788SOL    HW2 6264   4.483   4.167   0.074
 1789SOL     OW 6265   5.839   3.344   2.129
 1789SOL    HW1 6266   5.827   3.442   2.113
 1789SOL    HW2 6267   5.788   3.318   2.211
 1790SOL     OW 6268   2.397   0.905   4.714
 1790SOL    HW1 6269   2.302   0.926   4.691
 1790SOL    HW2 6270   2.402   0.870   4.808
 1791SOL     OW 6271   6.372   1.879   3.814
 1791SOL    HW1 6272   6.356   1.959   3.872
 1791SOL    HW2 6273   6.289   1.860   3.761
 1792SOL     OW 6274   6.815   1.297   4.388
 1792SOL    HW1 6275   6.819   1.334   4.481
 1792SOL    HW2 6276   6.879   1.347   4.330
 1793SOL     OW 6277   6.333   1.695   4.414
 1793SOL    HW1 6278   6.361   1.791   4.417
 1793SOL    HW2 6279   6.267   1.682   4.340
 1794SOL     OW 6280   5.306   6.441   5.195
 1794SOL    HW1 6281   5.291   6.518   5.256
 1794SOL    HW2 6282   5.229   6.378   5.200
 1795SOL     OW 6283   6.860   5.459   2.398
 1795SOL    HW1 6284   6.895   5.493   2.311
 1795SOL    HW2 6285   6.812   5.533   2.446
 1796SOL     OW 6286   2.750   1.720   5.481
 1796SOL    HW1 6287   2.660   1.686   5.451
 1796SOL    HW2 6288   2.794   1.769   5.406
 1797SOL     OW 6289   1.181   7.001   5.447
 1797SOL    HW1 6290   1.091   7.012   5.404
 1797SOL    HW2 6291   1.236   6.937   5.393
 1798SOL     OW 6292   3.584   2.891   4.836
 1798SOL    HW1 6293   3.506   2.950   4.817
 1798SOL    HW2 6294   3.654   2.905   4.766
 1799SOL     OW 6295   5.120   2.802   6.572
 1799SOL    HW1 6296   5.067   2.861   6.511
 1799SOL    HW2 6297   5.216   2.830   6.571
 1800SOL     OW 6298   5.004   5.268   3.586
 1800SOL    HW1 6299   5.019   5.366   3.599
 1800SOL    HW2 6300   5.071   5.232   3.521
 1801SOL     OW 6301   1.374   1.480   2.600
 1801SOL    HW1 6302   1.334   1.390   2.617
 1801SOL    HW2 6303   1.397   1.523   2.688
 1802SOL     OW 6304   6.786   5.895   3.557
 1802SOL    HW1 6305   6.793   5.889   3.657
 1802SOL    HW2 6306   6.693   5.875   3.529
 1803SOL     OW 6307   6.914   0.203   1.960
 1803SOL    HW1 6308   6.863   0.193   2.045
 1803SOL    HW2 6309   6.974   0.123   1.947
 1804SOL     OW 6310   4.274   3.755   5.197
 1804SOL    HW1 6311   4.362   3.725   5.235
 1804SOL    HW2 6312   4.203   3.742   5.266
 1805SOL     OW 6313   0.519   5.090   5.861
 1805SOL    HW1 6314   0.433   5.140   5.853
 1805SOL    HW2 6315   0.581   5.118   5.788
 1806SOL     OW 6316   0.672   2.628   1.853
 1806SOL    HW1 6317   0.707   2.685   1.779
 1806SOL    HW2 6318   0.612   2.682   1.912
 1807SOL     OW 6319   6.391   2.513   6.450
 1807SOL    HW1 6320   6.294   2.529   6.470
 1807SOL    HW2 6321   6.411   2.547   6.358
 1808SOL     OW 6322   6.030   4.132   4.660
 1808SOL    HW1 6323   5.979   4.107   4.742
 1808SOL    HW2 6324   6.078   4.052   4.624
 1809SOL     OW 6325   2.616   2.146   5.228
 1809SOL    HW1 6326   2.652   2.198   5.151
 1809SOL    HW2 6327   2.678   2.154   5.306
 1810SOL     OW 6328   0.823   0.711   4.721
 1810SOL    HW1 6329   0.872   0.749   4.800
 1810SOL    HW2 6330   0.883   0.649   4.672
 1811SOL     OW 6331   5.270   4.714   2.766
 1811SOL    HW1 6332   5.331   4.638   2.744
 1811SOL    HW2 6333   5.289   4.790   2.703
 1812SOL     OW 6334   4.517   6.777   6.853
 1812SOL    HW1 6335   4.426   6.759   6.816
 1812SOL    HW2 6336   4.532   6.876   6.858
 1813SOL     OW 6337   5.376   5.408   1.984
 1813SOL    HW1 6338   5.344   5.502   1.983
 1813SOL    HW2 6339   5.440   5.393   1.909
 1814SOL     OW 6340   6.271   0.487   0.519
 1814SOL    HW1 6341   6.315   0.560   0.570
 1814SOL    HW2 6342   6.193   0.452   0.570
 1815SOL     OW 6343   6.159   0.101   3.204
 1815SOL    HW1 6344   6.242   0.153   3.224
 1815SOL    HW2 6345   6.088   0.164   3.173
 1816SOL     OW 6346   3.477   4.852   6.527
 1816SOL    HW1 6347   3.506   4.756   6.535
 1816SOL    HW2 6348   3.527   4.896   6.454
 1817SOL     OW 6349   3.873   0.302   2.880
 1817SOL    HW1 6350   3.960   0.344   2.854
 1817SOL    HW2 6351   3.813   0.298   2.800
 1818SOL     OW 6352   1.540   6.955   0.501
 1818SOL    HW1 6353   1.552   6.856   0.506
 1818SOL    HW2 6354   1.567   6.996   0.589
 1819SOL     OW 6355   1.247   5.801   1.878
 1819SOL    HW1 6356   1.327   5.745   1.903
 1819SOL    HW2 6357   1.198   5.827   1.961
 1820SOL     OW 6358   3.273   0.420   2.300
 1820SOL    HW1 6359   3.321   0.483   2.240
 1820SOL    HW2 6360   3.179   0.451   2.313
 1821SOL     OW 6361   2.820   0.521   1.791
 1821SOL    HW1 6362   2.855   0.607   1.754
 1821SOL    HW2 6363   2.853   0.510   1.885
 1822SOL     OW 6364   1.250   3.179   1.160
 1822SOL    HW1 6365   1.284   3.244   1.092
 1822SOL    HW2 6366   1.171   3.218   1.207
 1823SOL     OW 6367   2.665   6.296   3.116
 1823SOL    HW1 6368   2.667   6.323   3.212
 1823SOL    HW2 6369   2.749   6.247   3.092
 1824SOL     OW 6370   3.981   4.153   0.167
 1824SOL    HW1 6371   4.026   4.183   0.082
 1824SOL    HW2 6372   4.006   4.214   0.242
 1825SOL     OW 6373   0.474   2.769   4.445
 1825SOL    HW1 6374   0.400   2.741   4.384
 1825SOL    HW2 6375   0.533   2.835   4.399
 1826SOL     OW 6376   2.735   0.624   1.303
 1826SOL    HW1 6377   2.667   0.646   1.233
 1826SOL    HW2 6378   2.737   0.525   1.318
 1827SOL     OW 6379   5.956   5.405   0.862
 1827SOL    HW1 6380   5.869   5.405   0.813
 1827SOL    HW2 6381   5.977   5.312   0.892
 1828SOL     OW 6382   1.374   2.602   6.621
 1828SOL    HW1 6383   1.432   2.523   6.643
 1828SOL    HW2 6384   1.359   2.656   6.704
 1829SOL     OW 6385   3.543   6.909   3.340
 1829SOL    HW1 6386   3.547   6.975   3.416
 1829SOL    HW2 6387   3.449   6.878   3.328
 1830SOL     OW 6388   5.693   6.401   4.119
 1830SOL    HW1 6389   5.619   6.350   4.076
 1830SOL    HW2 6390   5.739   6.343   4.186
 1831SOL     OW 6391   5.305   6.274   2.925
 1831SOL    HW1 6392   5.311   6.368   2.960
 1831SOL    HW2 6393   5.368   6.216   2.975
 1832SOL     OW 6394   4.001   1.942   0.449
 1832SOL    HW1 6395   3.951   1.944   0.363
 1832SOL    HW2 6396   4.042   2.032   0.466
 1833SOL     OW 6397   5.613   0.652   1.652
 1833SOL    HW1 6398   5.664   0.571   1.624
 1833SOL    HW2 6399   5.557   0.630   1.732
 1834SOL     OW 6400   2.143   4.157   1.262
 1834SOL    HW1 6401   2.172   4.124   1.172
 1834SOL    HW2 6402   2.200   4.235   1.289
 1835SOL     OW 6403   1.051   4.441   1.481
 1835SOL    HW1 6404   0.985   4.512   1.505
 1835SOL    HW2 6405   1.099   4.466   1.397
 1836SOL     OW 6406   5.599   2.475   1.865
 1836SOL    HW1 6407   5.550   2.395   1.829
 1836SOL    HW2 6408   5.661   2.446   1.937
 1837SOL     OW 6409   1.522   6.870   6.108
 1837SOL    HW1 6410   1.601   6.885   6.048
 1837SOL    HW2 6411   1.550   6.814   6.187
 1838SOL     OW 6412   5.783   1.168   5.916
 1838SOL    HW1 6413   5.829   1.104   5.977
 1838SOL    HW2 6414   5.684   1.161   5.929
 1839SOL     OW 6415   6.878   1.209   5.703
 1839SOL    HW1 6416   6.907   1.118   5.674
 1839SOL    HW2 6417   6.810   1.245   5.639
 1840SOL     OW 6418   4.016   0.204   2.338
 1840SOL    HW1 6419   3.920   0.178   2.332
 1840SOL    HW2 6420   4.037   0.236   2.430
 1841SOL     OW 6421   2.291   7.009   2.861
 1841SOL    HW1 6422   2.364   6.985   2.925
 1841SOL    HW2 6423   2.329   0.035   2.782
 1842SOL     OW 6424   0.864   5.582   1.243
 1842SOL    HW1 6425   0.842   5.499   1.191
 1842SOL    HW2 6426   0.962   5.599   1.239
 1843SOL     OW 6427   5.701   0.234   4.090
 1843SOL    HW1 6428   5.775   0.300   4.077
 1843SOL    HW2 6429   5.694   0.210   4.187
 1844SOL     OW 6430   3.885   0.512   5.167
 1844SOL    HW1 6431   3.902   0.586   5.102
 1844SOL    HW2 6432   3.878   0.425   5.117
 1845SOL     OW 6433   2.757   6.750   4.141
 1845SOL    HW1 6434   2.793   6.744   4.048
 1845SOL    HW2 6435   2.681   6.815   4.144
 1846SOL     OW 6436   4.027   0.773   3.405
 1846SOL    HW1 6437   4.105   0.825   3.373
 1846SOL    HW2 6438   3.957   0.835   3.441
 1847SOL     OW 6439   1.497   0.130   5.509
 1847SOL    HW1 6440   1.471   0.077   5.590
 1847SOL    HW2 6441   1.473   0.079   5.427
 1848SOL     OW 6442   2.089   6.345   3.911
 1848SOL    HW1 6443   2.124   6.253   3.933
 1848SOL    HW2 6444   1.992   6.339   3.888
 1849SOL     OW 6445   4.308   2.549   1.292
 1849SOL    HW1 6446   4.319   2.483   1.217
 1849SOL    HW2 6447   4.211   2.567   1.307
 1850SOL     OW 6448   6.129   2.204   2.336
 1850SOL    HW1 6449   6.218   2.201   2.291
 1850SOL    HW2 6450   6.065   2.144   2.287
 1851SOL     OW 6451   1.244   3.387   0.305
 1851SOL    HW1 6452   1.153   3.346   0.310
 1851SOL    HW2 6453   1.281   3.376   0.213
 1852SOL     OW 6454   0.306   4.761   2.638
 1852SOL    HW1 6455   0.377   4.693   2.619
 1852SOL    HW2 6456   0.346   4.839   2.687
 1853SOL     OW 6457   6.873   2.798   3.005
 1853SOL    HW1 6458   6.794   2.776   2.948
 1853SOL    HW2 6459   6.956   2.762   2.963
 1854SOL     OW 6460   1.608   4.932   2.656
 1854SOL    HW1 6461   1.540   4.950   2.727
 1854SOL    HW2 6462   1.615   5.012   2.595
 1855SOL     OW 6463   5.122   3.298   5.585
 1855SOL    HW1 6464   5.112   3.235   5.508
 1855SOL    HW2 6465   5.045   3.362   5.586
 1856SOL     OW 6466   4.521   3.207   6.310
 1856SOL    HW1 6467   4.607   3.220   6.361
 1856SOL    HW2 6468   4.541   3.164   6.222
 1857SOL     OW 6469   4.422   1.554   7.019
 1857SOL    HW1 6470   4.452   1.479   0.057
 1857SOL    HW2 6471   4.346   1.522   6.962
 1858SOL     OW 6472   5.172   2.592   3.287
 1858SOL    HW1 6473   5.091   2.629   3.332
 1858SOL    HW2 6474   5.203   2.510   3.337
 1859SOL     OW 6475   4.547   1.651   3.489
 1859SOL    HW1 6476   4.591   1.577   3.541
 1859SOL    HW2 6477   4.613   1.724   3.474
 1860SOL     OW 6478   0.125   1.321   5.585
 1860SOL    HW1 6479   0.224   1.328   5.599
 1860SOL    HW2 6480   0.078   1.366   5.662
 1861SOL     OW 6481   4.968   0.775   2.892
 1861SOL    HW1 6482   4.902   0.700   2.886
 1861SOL    HW2 6483   4.934   0.854   2.843
 1862SOL     OW 6484   1.839   6.326   6.803
 1862SOL    HW1 6485   1.811   6.406   6.856
 1862SOL    HW2 6486   1.783   6.248   6.829
 1863SOL     OW 6487   6.713   2.470   2.155
 1863SOL    HW1 6488   6.639   2.419   2.198
 1863SOL    HW2 6489   6.681   2.563   2.135
 1864SOL     OW 6490   3.527   5.646   4.698
 1864SOL    HW1 6491   3.486   5.565   4.741
 1864SOL    HW2 6492   3.461   5.687   4.635
 1865SOL     OW 6493   3.140   1.114   1.024
 1865SOL    HW1 6494   3.235   1.097   1.054
 1865SOL    HW2 6495   3.134   1.204   0.983
 1866SOL     OW 6496   6.569   5.096   3.609
 1866SOL    HW1 6497   6.473   5.081   3.631
 1866SOL    HW2 6498   6.607   5.165   3.670
 1867SOL     OW 6499   2.143   3.505   1.719
 1867SOL    HW1 6500   2.202   3.474   1.793
 1867SOL    HW2 6501   2.052   3.528   1.756
 1868SOL     OW 6502   5.179   3.628   6.488
 1868SOL    HW1 6503   5.174   3.529   6.476
 1868SOL    HW2 6504   5.265   3.651   6.534
 1869SOL     OW 6505   6.489   3.475   4.552
 1869SOL    HW1 6506   6.564   3.497   4.490
 1869SOL    HW2 6507   6.469   3.377   4.547
 1870SOL     OW 6508   1.215   2.949   5.035
 1870SOL    HW1 6509   1.121   2.980   5.047
 1870SOL    HW2 6510   1.267   3.017   4.983
 1871SOL     OW 6511   6.268   6.954   0.327
 1871SOL    HW1 6512   6.337   6.903   0.379
 1871SOL    HW2 6513   6.229   0.006   0.383
 1872SOL     OW 6514   4.559   2.317   0.057
 1872SOL    HW1 6515   4.634   2.366   0.101
 1872SOL    HW2 6516   4.577   2.218   0.061
 1873SOL     OW 6517   6.798   0.372   5.535
 1873SOL    HW1 6518   6.880   0.404   5.487
 1873SOL    HW2 6519   6.778   0.434   5.611
 1874SOL     OW 6520   0.865   0.991   6.370
 1874SOL    HW1 6521   0.770   1.018   6.385
 1874SOL    HW2 6522   0.914   1.064   6.324
 1875SOL     OW 6523   6.460   6.828   0.478
 1875SOL    HW1 6524   6.534   6.859   0.417
 1875SOL    HW2 6525   6.499   6.804   0.567
 1876SOL     OW 6526   4.355   6.143   6.440
 1876SOL    HW1 6527   4.314   6.175   6.525
 1876SOL    HW2 6528   4.301   6.175   6.363
 1877SOL     OW 6529   0.735   1.825   3.333
 1877SOL    HW1 6530   0.829   1.791   3.329
 1877SOL    HW2 6531   0.672   1.750   3.310
 1878SOL     OW 6532   0.193   4.340   4.013
 1878SOL    HW1 6533   0.112   4.281   4.007
 1878SOL    HW2 6534   0.198   4.380   4.104
 1879SOL     OW 6535   2.815   5.817   3.988
 1879SOL    HW1 6536   2.873   5.889   4.027
 1879SOL    HW2 6537   2.756   5.780   4.059
 1880SOL     OW 6538   0.387   2.087   2.834
 1880SOL    HW1 6539   0.342   2.052   2.916
 1880SOL    HW2 6540   0.446   2.016   2.796
 1881SOL     OW 6541   1.236   1.717   3.610
 1881SOL    HW1 6542   1.333   1.692   3.608
 1881SOL    HW2 6543   1.181   1.639   3.581
 1882SOL     OW 6544   0.652   5.292   6.747
 1882SOL    HW1 6545   0.713   5.214   6.732
 1882SOL    HW2 6546   0.706   5.370   6.780
 1883SOL     OW 6547   0.841   3.400   4.035
 1883SOL    HW1 6548   0.755   3.446   4.055
 1883SOL    HW2 6549   0.892   3.453   3.967
 1884SOL     OW 6550   5.945   2.241   1.001
 1884SOL    HW1 6551   5.875   2.180   1.039
 1884SOL    HW2 6552   5.989   2.198   0.922
 1885SOL     OW 6553   0.124   1.998   1.141
 1885SOL    HW1 6554   0.187   2.015   1.217
 1885SOL    HW2 6555   0.060   2.074   1.132
 1886SOL     OW 6556   1.973   1.957   0.401
 1886SOL    HW1 6557   2.060   1.921   0.435
 1886SOL    HW2 6558   1.910   1.882   0.383
 1887SOL     OW 6559   0.387   4.473   5.748
 1887SOL    HW1 6560   0.367   4.420   5.830
 1887SOL    HW2 6561   0.302   4.494   5.700
 1888SOL     OW 6562   1.993   1.946   6.341
 1888SOL    HW1 6563   2.073   1.956   6.283
 1888SOL    HW2 6564   2.013   1.883   6.416
 1889SOL     OW 6565   4.719   3.236   6.490
 1889SOL    HW1 6566   4.683   3.153   6.533
 1889SOL    HW2 6567   4.756   3.296   6.560
 1890SOL     OW 6568   1.453   5.886   5.566
 1890SOL    HW1 6569   1.494   5.971   5.531
 1890SOL    HW2 6570   1.517   5.842   5.630
 1891SOL     OW 6571   5.215   3.401   4.185
 1891SOL    HW1 6572   5.256   3.466   4.121
 1891SOL    HW2 6573   5.131   3.441   4.223
 1892SOL     OW 6574   3.605   6.661   0.920
 1892SOL    HW1 6575   3.608   6.628   0.826
 1892SOL    HW2 6576   3.542   6.605   0.974
 1893SOL     OW 6577   3.554   1.979   5.461
 1893SOL    HW1 6578   3.509   1.928   5.534
 1893SOL    HW2 6579   3.559   1.921   5.379
 1894SOL     OW 6580   4.292   3.705   1.413
 1894SOL    HW1 6581   4.279   3.714   1.512
 1894SOL    HW2 6582   4.292   3.608   1.388
 1895SOL     OW 6583   5.730   0.812   2.801
 1895SOL    HW1 6584   5.644   0.783   2.760
 1895SOL    HW2 6585   5.712   0.854   2.890
 1896SOL     OW 6586   0.144   0.660   3.448
 1896SOL    HW1 6587   0.177   0.686   3.539
 1896SOL    HW2 6588   0.220   0.662   3.383
 1897SOL     OW 6589   6.942   5.097   3.190
 1897SOL    HW1 6590   6.936   5.049   3.278
 1897SOL    HW2 6591   7.021   5.061   3.139
 1898SOL     OW 6592   3.049   5.404   1.890
 1898SOL    HW1 6593   3.093   5.381   1.977
 1898SOL    HW2 6594   2.978   5.473   1.905
 1899SOL     OW 6595   0.892   2.747   2.763
 1899SOL    HW1 6596   0.860   2.659   2.796
 1899SOL    HW2 6597   0.948   2.791   2.833
 1900SOL     OW 6598   0.924   0.214   5.593
 1900SOL    HW1 6599   0.929   0.200   5.494
 1900SOL    HW2 6600   0.831   0.197   5.624
 1901SOL     OW 6601   2.431   1.478   1.408
 1901SOL    HW1 6602   2.360   1.539   1.441
 1901SOL    HW2 6603   2.429   1.474   1.308
 1902SOL     OW 6604   2.720   2.125   4.744
 1902SOL    HW1 6605   2.730   2.158   4.650
 1902SOL    HW2 6606   2.631   2.081   4.754
 1903SOL     OW 6607   7.008   4.564   3.778
 1903SOL    HW1 6608   6.971   4.479   3.741
 1903SOL    HW2 6609   6.978   4.576   3.872
 1904SOL     OW 6610   6.233   0.157   3.710
 1904SOL    HW1 6611   6.214   0.115   3.622
 1904SOL    HW2 6612   6.218   0.090   3.783
 1905SOL     OW 6613   0.879   2.247   4.117
 1905SOL    HW1 6614   0.956   2.269   4.178
 1905SOL    HW2 6615   0.912   2.193   4.040
 1906SOL     OW 6616   2.873   0.182   5.306
 1906SOL    HW1 6617   2.773   0.182   5.310
 1906SOL    HW2 6618   2.902   0.196   5.211
 1907SOL     OW 6619   3.085   6.462   3.477
 1907SOL    HW1 6620   3.039   6.530   3.533
 1907SOL    HW2 6621   3.181   6.489   3.463
 1908SOL     OW 6622   4.907   0.731   5.025
 1908SOL    HW1 6623   4.910   0.800   5.097
 1908SOL    HW2 6624   4.918   0.774   4.936
 1909SOL     OW 6625   1.700   4.289   3.013
 1909SOL    HW1 6626   1.767   4.339   3.069
 1909SOL    HW2 6627   1.611   4.293   3.057
 1910SOL     OW 6628   6.454   2.233   0.082
 1910SOL    HW1 6629   6.467   2.280   7.016
 1910SOL    HW2 6630   6.364   2.256   0.119
 1911SOL     OW 6631   6.178   2.074   5.576
 1911SOL    HW1 6632   6.078   2.071   5.573
 1911SOL    HW2 6633   6.212   1.986   5.610
 1912SOL     OW 6634   3.988   6.724   1.688
 1912SOL    HW1 6635   4.047   6.684   1.759
 1912SOL    HW2 6636   3.895   6.690   1.699
 1913SOL     OW 6637   2.231   6.378   5.543
 1913SOL    HW1 6638   2.269   6.309   5.482
 1913SOL    HW2 6639   2.140   6.350   5.572
 1914SOL     OW 6640   2.890   2.848   6.916
 1914SOL    HW1 6641   2.920   2.886   7.003
 1914SOL    HW2 6642   2.967   2.849   6.851
 1915SOL     OW 6643   4.189   1.271   5.410
 1915SOL    HW1 6644   4.104   1.301   5.368
 1915SOL    HW2 6645   4.266   1.298   5.353
 1916SOL     OW 6646   3.123   5.740   0.762
 1916SOL    HW1 6647   3.094   5.831   0.792
 1916SOL    HW2 6648   3.094   5.672   0.828
 1917SOL     OW 6649   4.151   3.322   4.663
 1917SOL    HW1 6650   4.168   3.420   4.667
 1917SOL    HW2 6651   4.203   3.282   4.587
 1918SOL     OW 6652   6.934   0.008   6.489
 1918SOL    HW1 6653   6.860   0.050   6.437
 1918SOL    HW2 6654   0.001   0.039   6.452
 1919SOL     OW 6655   1.964   6.552   1.749
 1919SOL    HW1 6656   1.891   6.571   1.814
 1919SOL    HW2 6657   1.977   6.632   1.689
 1920SOL     OW 6658   0.620   4.966   3.056
 1920SOL    HW1 6659   0.708   5.013   3.047
 1920SOL    HW2 6660   0.634   4.880   3.105
 1921SOL     OW 6661   1.175   4.231   6.910
 1921SOL    HW1 6662   1.121   4.193   6.835
 1921SOL    HW2 6663   1.188   4.329   6.896
 1922SOL     OW 6664   3.714   4.100   0.880
 1922SOL    HW1 6665   3.649   4.171   0.853
 1922SOL    HW2 6666   3.665   4.013   0.893
 1923SOL     OW 6667   3.653   0.818   6.516
 1923SOL    HW1 6668   3.710   0.770   6.583
 1923SOL    HW2 6669   3.575   0.860   6.562
 1924SOL     OW 6670   5.810   5.520   1.954
 1924SOL    HW1 6671   5.871   5.589   1.991
 1924SOL    HW2 6672   5.814   5.438   2.011
 1925SOL     OW 6673   3.241   4.018   2.120
 1925SOL    HW1 6674   3.179   3.943   2.100
 1925SOL    HW2 6675   3.204   4.073   2.195
 1926SOL     OW 6676   0.783   0.006   4.072
 1926SOL    HW1 6677   0.837   6.953   4.031
 1926SOL    HW2 6678   0.838   0.090   4.075
 1927SOL     OW 6679   3.575   4.952   6.277
 1927SOL    HW1 6680   3.673   4.960   6.297
 1927SOL    HW2 6681   3.562   4.898   6.194
 1928SOL     OW 6682   6.868   3.706   6.087
 1928SOL    HW1 6683   6.788   3.689   6.144
 1928SOL    HW2 6684   6.843   3.768   6.013
 1929SOL     OW 6685   0.806   5.837   1.191
 1929SOL    HW1 6686   0.826   5.746   1.225
 1929SOL    HW2 6687   0.863   5.856   1.110
 1930SOL     OW 6688   4.033   3.504   0.030
 1930SOL    HW1 6689   3.946   3.550   0.050
 1930SOL    HW2 6690   4.062   3.525   6.958
 1931SOL     OW 6691   0.362   2.822   3.244
 1931SOL    HW1 6692   0.350   2.815   3.343
 1931SOL    HW2 6693   0.444   2.876   3.224
 1932SOL     OW 6694   5.127   4.081   2.319
 1932SOL    HW1 6695   5.058   4.121   2.259
 1932SOL    HW2 6696   5.164   4.151   2.379
 1933SOL     OW 6697   3.062   4.210   0.389
 1933SOL    HW1 6698   3.137   4.144   0.391
 1933SOL    HW2 6699   2.979   4.167   0.422
 1934SOL     OW 6700   0.276   0.581   4.659
 1934SOL    HW1 6701   0.255   0.601   4.563
 1934SOL    HW2 6702   0.375   0.576   4.672
 1935SOL     OW 6703   3.306   0.358   4.723
 1935SOL    HW1 6704   3.249   0.403   4.792
 1935SOL    HW2 6705   3.285   0.397   4.633
 1936SOL     OW 6706   6.362   4.234   4.410
 1936SOL    HW1 6707   6.388   4.269   4.321
 1936SOL    HW2 6708   6.405   4.145   4.425
 1937SOL     OW 6709   4.999   6.493   0.830
 1937SOL    HW1 6710   5.002   6.416   0.893
 1937SOL    HW2 6711   4.925   6.555   0.855
 1938SOL     OW 6712   3.817   1.361   2.444
 1938SOL    HW1 6713   3.748   1.318   2.503
 1938SOL    HW2 6714   3.811   1.460   2.453
 1939SOL     OW 6715   0.529   6.839   5.044
 1939SOL    HW1 6716   0.493   6.782   4.970
 1939SOL    HW2 6717   0.608   6.793   5.085
 1940SOL     OW 6718   4.614   4.840   6.788
 1940SOL    HW1 6719   4.532   4.870   6.738
 1940SOL    HW2 6720   4.590   4.818   6.882
 1941SOL     OW 6721   0.216   3.925   3.100
 1941SOL    HW1 6722   0.153   3.847   3.096
 1941SOL    HW2 6723   0.307   3.893   3.127
 1942SOL     OW 6724   5.956   0.650   2.423
 1942SOL    HW1 6725   5.937   0.647   2.521
 1942SOL    HW2 6726   5.889   0.709   2.378
 1943SOL     OW 6727   2.605   6.363   2.078
 1943SOL    HW1 6728   2.634   6.290   2.140
 1943SOL    HW2 6729   2.514   6.395   2.103
 1944SOL     OW 6730   5.703   1.969   0.085
 1944SOL    HW1 6731   5.609   2.003   0.077
 1944SOL    HW2 6732   5.752   2.022   0.155
 1945SOL     OW 6733   3.760   6.026   2.415
 1945SOL    HW1 6734   3.667   6.028   2.379
 1945SOL    HW2 6735   3.809   6.109   2.388
 1946SOL     OW 6736   6.138   0.694   1.071
 1946SOL    HW1 6737   6.160   0.617   1.132
 1946SOL    HW2 6738   6.103   0.659   0.985
 1947SOL     OW 6739   4.892   6.361   4.248
 1947SOL    HW1 6740   4.913   6.349   4.151
 1947SOL    HW2 6741   4.947   6.435   4.285
 1948SOL     OW 6742   5.629   6.004   3.872
 1948SOL    HW1 6743   5.649   5.987   3.776
 1948SOL    HW2 6744   5.572   5.930   3.908
 1949SOL     OW 6745   4.260   4.150   5.992
 1949SOL    HW1 6746   4.309   4.237   5.988
 1949SOL    HW2 6747   4.235   4.121   5.900
 1950SOL     OW 6748   3.724   4.962   1.346
 1950SOL    HW1 6749   3.743   4.936   1.251
 1950SOL    HW2 6750   3.632   5.000   1.353
 1951SOL     OW 6751   6.223   4.056   0.174
 1951SOL    HW1 6752   6.258   3.979   0.228
 1951SOL    HW2 6753   6.299   4.110   0.140
 1952SOL     OW 6754   3.750   2.241   6.715
 1952SOL    HW1 6755   3.781   2.318   6.659
 1952SOL    HW2 6756   3.727   2.164   6.655
 1953SOL     OW 6757   6.042   3.284   6.869
 1953SOL    HW1 6758   6.128   3.266   6.822
 1953SOL    HW2 6759   5.987   3.201   6.871
 1954SOL     OW 6760   5.536   1.288   4.062
 1954SOL    HW1 6761   5.526   1.386   4.043
 1954SOL    HW2 6762   5.514   1.271   4.158
 1955SOL     OW 6763   1.501   0.666   2.393
 1955SOL    HW1 6764   1.438   0.730   2.437
 1955SOL    HW2 6765   1.595   0.698   2.404
 1956SOL     OW 6766   5.165   0.215   2.191
 1956SOL    HW1 6767   5.162   0.301   2.242
 1956SOL    HW2 6768   5.119   0.143   2.243
 1957SOL     OW 6769   6.354   6.129   4.788
 1957SOL    HW1 6770   6.270   6.156   4.835
 1957SOL    HW2 6771   6.374   6.193   4.715
 1958SOL     OW 6772   5.739   2.949   2.156
 1958SOL    HW1 6773   5.649   2.991   2.164
 1958SOL    HW2 6774   5.731   2.850   2.167
 1959SOL     OW 6775   0.802   1.301   5.485
 1959SOL    HW1 6776   0.773   1.318   5.579
 1959SOL    HW2 6777   0.727   1.322   5.422
 1960SOL     OW 6778   0.028   4.317   1.557
 1960SOL    HW1 6779   0.087   4.312   1.477
 1960SOL    HW2 6780   7.018   4.225   1.581
 1961SOL     OW 6781   5.956   4.724   4.419
 1961SOL    HW1 6782   5.909   4.664   4.483
 1961SOL    HW2 6783   6.040   4.758   4.460
 1962SOL     OW 6784   2.241   6.579   3.602
 1962SOL    HW1 6785   2.202   6.661   3.643
 1962SOL    HW2 6786   2.208   6.569   3.508
 1963SOL     OW 6787   1.059   1.131   1.449
 1963SOL    HW1 6788   1.117   1.211   1.435
 1963SOL    HW2 6789   1.086   1.084   1.533
 1964SOL     OW 6790   4.604   3.606   1.354
 1964SOL    HW1 6791   4.560   3.670   1.290
 1964SOL    HW2 6792   4.586   3.635   1.448
 1965SOL     OW 6793   1.198   3.186   4.111
 1965SOL    HW1 6794   1.171   3.107   4.056
 1965SOL    HW2 6795   1.169   3.172   4.206
 1966SOL     OW 6796   0.025   6.137   6.841
 1966SOL    HW1 6797   6.955   6.152   6.881
 1966SOL    HW2 6798   0.085   6.212   6.865
 1967SOL     OW 6799   4.440   2.343   4.701
 1967SOL    HW1 6800   4.529   2.380   4.674
 1967SOL    HW2 6801   4.424   2.362   4.798
 1968SOL     OW 6802   3.290   6.635   0.657
 1968SOL    HW1 6803   3.290   6.733   0.673
 1968SOL    HW2 6804   3.264   6.617   0.562
 1969SOL     OW 6805   1.132   1.689   2.112
 1969SOL    HW1 6806   1.202   1.689   2.039
 1969SOL    HW2 6807   1.075   1.771   2.102
 1970SOL     OW 6808   2.159   0.261   6.088
 1970SOL    HW1 6809   2.099   0.202   6.142
 1970SOL    HW2 6810   2.244   0.277   6.139
 1971SOL     OW 6811   0.120   0.274   5.893
 1971SOL    HW1 6812   0.122   0.309   5.799
 1971SOL    HW2 6813   0.156   0.181   5.895
 1972SOL     OW 6814   5.639   2.936   2.889
 1972SOL    HW1 6815   5.635   2.938   2.790
 1972SOL    HW2 6816   5.549   2.913   2.926
 1973SOL     OW 6817   2.419   2.708   0.561
 1973SOL    HW1 6818   2.365   2.792   0.572
 1973SOL    HW2 6819   2.361   2.629   0.580
 1974SOL     OW 6820   5.871   6.236   4.234
 1974SOL    HW1 6821   5.938   6.311   4.226
 1974SOL    HW2 6822   5.886   6.170   4.161
 1975SOL     OW 6823   2.309   1.710   3.336
 1975SOL    HW1 6824   2.266   1.773   3.401
 1975SOL    HW2 6825   2.279   1.616   3.356
 1976SOL     OW 6826   0.715   6.097   0.628
 1976SOL    HW1 6827   0.627   6.135   0.600
 1976SOL    HW2 6828   0.782   6.110   0.554
 1977SOL     OW 6829   0.930   3.200   3.881
 1977SOL    HW1 6830   1.016   3.150   3.891
 1977SOL    HW2 6831   0.910   3.250   3.965
 1978SOL     OW 6832   0.704   0.855   3.108
 1978SOL    HW1 6833   0.754   0.775   3.078
 1978SOL    HW2 6834   0.609   0.850   3.075
 1979SOL     OW 6835   6.226   4.711   5.587
 1979SOL    HW1 6836   6.162   4.636   5.601
 1979SOL    HW2 6837   6.308   4.695   5.641
 1980SOL     OW 6838   2.765   1.030   5.807
 1980SOL    HW1 6839   2.856   1.002   5.838
 1980SOL    HW2 6840   2.702   0.953   5.817
 1981SOL     OW 6841   6.131   2.175   2.588
 1981SOL    HW1 6842   6.130   2.205   2.493
 1981SOL    HW2 6843   6.041   2.140   2.613
 1982SOL     OW 6844   0.609   3.819   5.358
 1982SOL    HW1 6845   0.647   3.837   5.267
 1982SOL    HW2 6846   0.542   3.889   5.380
 1983SOL     OW 6847   0.820   0.800   2.665
 1983SOL    HW1 6848   0.916   0.783   2.640
 1983SOL    HW2 6849   0.788   0.883   2.619
 1984SOL     OW 6850   6.550   2.247   5.038
 1984SOL    HW1 6851   6.473   2.184   5.046
 1984SOL    HW2 6852   6.614   2.233   5.114
 1985SOL     OW 6853   0.796   6.726   2.896
 1985SOL    HW1 6854   0.892   6.729   2.924
 1985SOL    HW2 6855   0.787   6.672   2.812
 1986SOL     OW 6856   1.230   0.660   0.204
 1986SOL    HW1 6857   1.275   0.749   0.192
 1986SOL    HW2 6858   1.243   0.629   0.298
 1987SOL     OW 6859   1.517   2.732   1.108
 1987SOL    HW1 6860   1.524   2.675   1.190
 1987SOL    HW2 6861   1.428   2.777   1.106
 1988SOL     OW 6862   5.828   4.642   1.161
 1988SOL    HW1 6863   5.785   4.562   1.203
 1988SOL    HW2 6864   5.927   4.639   1.178
 1989SOL     OW 6865   2.609   6.558   4.478
 1989SOL    HW1 6866   2.631   6.538   4.574
 1989SOL    HW2 6867   2.691   6.592   4.431
 1990SOL     OW 6868   3.079   6.342   0.199
 1990SOL    HW1 6869   3.060   6.249   0.231
 1990SOL    HW2 6870   3.075   6.343   0.099
 1991SOL     OW 6871   4.255   4.862   6.321
 1991SOL    HW1 6872   4.228   4.784   6.264
 1991SOL    HW2 6873   4.221   4.848   6.414
 1992SOL     OW 6874   0.577   0.544   6.565
 1992SOL    HW1 6875   0.604   0.583   6.653
 1992SOL    HW2 6876   0.559   0.446   6.576
 1993SOL     OW 6877   3.857   3.185   4.515
 1993SOL    HW1 6878   3.913   3.257   4.556
 1993SOL    HW2 6879   3.768   3.223   4.489
 1994SOL     OW 6880   1.012   1.057   0.177
 1994SOL    HW1 6881   0.953   0.996   0.229
 1994SOL    HW2 6882   1.023   1.143   0.227
 1995SOL     OW 6883   5.514   2.652   2.660
 1995SOL    HW1 6884   5.470   2.597   2.589
 1995SOL    HW2 6885   5.464   2.642   2.746
 1996SOL     OW 6886   2.295   3.598   0.529
 1996SOL    HW1 6887   2.200   3.607   0.559
 1996SOL    HW2 6888   2.314   3.667   0.459
 1997SOL     OW 6889   4.396   0.902   4.988
 1997SOL    HW1 6890   4.442   0.851   4.915
 1997SOL    HW2 6891   4.299   0.881   4.987
 1998SOL     OW 6892   3.304   3.985   6.457
 1998SOL    HW1 6893   3.386   3.978   6.401
 1998SOL    HW2 6894   3.314   3.929   6.539
 1999SOL     OW 6895   3.478   6.535   1.706
 1999SOL    HW1 6896   3.565   6.576   1.732
 1999SOL    HW2 6897   3.403   6.582   1.753
 2000SOL     OW 6898   4.371   2.216   5.154
 2000SOL    HW1 6899   4.375   2.122   5.121
 2000SOL    HW2 6900   4.382   2.279   5.077
 2001SOL     OW 6901   3.187   1.188   1.692
 2001SOL    HW1 6902   3.276   1.169   1.733
 2001SOL    HW2 6903   3.193   1.183   1.593
 2002SOL     OW 6904   1.092   4.453   6.125
 2002SOL    HW1 6905   1.137   4.402   6.051
 2002SOL    HW2 6906   1.027   4.394   6.172
 2003SOL     OW 6907   5.893   6.230   3.225
 2003SOL    HW1 6908   5.899   6.249   3.127
 2003SOL    HW2 6909   5.848   6.142   3.240
 2004SOL     OW 6910   4.783   1.157   5.407
 2004SOL    HW1 6911   4.699   1.120   5.448
 2004SOL    HW2 6912   4.860   1.097   5.429
 2005SOL     OW 6913   0.782   4.725   0.061
 2005SOL    HW1 6914   0.715   4.764   0.125
 2005SOL    HW2 6915   0.737   4.699   6.997
 2006SOL     OW 6916   5.149   5.015   4.275
 2006SOL    HW1 6917   5.213   4.988   4.203
 2006SOL    HW2 6918   5.069   4.955   4.272
 2007SOL     OW 6919   4.408   4.947   0.900
 2007SOL    HW1 6920   4.346   5.026   0.904
 2007SOL    HW2 6921   4.420   4.911   0.992
 2008SOL     OW 6922   1.660   5.106   3.227
 2008SOL    HW1 6923   1.571   5.102   3.273
 2008SOL    HW2 6924   1.733   5.097   3.294
 2009SOL     OW 6925   6.250   0.240   2.133
 2009SOL    HW1 6926   6.159   0.263   2.167
 2009SOL    HW2 6927   6.264   0.141   2.138
 2010SOL     OW 6928   2.059   1.856   0.850
 2010SOL    HW1 6929   2.123   1.780   0.839
 2010SOL    HW2 6930   2.098   1.924   0.912
 2011SOL     OW 6931   6.742   1.672   4.675
 2011SOL    HW1 6932   6.823   1.623   4.706
 2011SOL    HW2 6933   6.683   1.609   4.624
 2012SOL     OW 6934   1.598   2.804   1.858
 2012SOL    HW1 6935   1.605   2.748   1.775
 2012SOL    HW2 6936   1.686   2.804   1.905
 2013SOL     OW 6937   6.363   1.637   3.493
 2013SOL    HW1 6938   6.285   1.601   3.544
 2013SOL    HW2 6939   6.398   1.566   3.432
 2014SOL     OW 6940   1.853   4.971   2.819
 2014SOL    HW1 6941   1.818   5.000   2.908
 2014SOL    HW2 6942   1.776   4.951   2.758
 2015SOL     OW 6943   1.966   1.396   0.453
 2015SOL    HW1 6944   1.911   1.312   0.451
 2015SOL    HW2 6945   1.905   1.475   0.451
 2016SOL     OW 6946   0.629   5.691   4.676
 2016SOL    HW1 6947   0.673   5.770   4.633
 2016SOL    HW2 6948   0.608   5.622   4.606
 2017SOL     OW 6949   2.391   6.967   4.632
 2017SOL    HW1 6950   2.448   6.970   4.714
 2017SOL    HW2 6951   2.446   6.937   4.554
 2018SOL     OW 6952   5.437   0.100   5.534
 2018SOL    HW1 6953   5.532   0.080   5.515
 2018SOL    HW2 6954   5.427   0.198   5.556
 2019SOL     OW 6955   4.907   2.315   2.119
 2019SOL    HW1 6956   4.975   2.325   2.191
 2019SOL    HW2 6957   4.903   2.398   2.064
 2020SOL     OW 6958   0.575   5.935   5.219
 2020SOL    HW1 6959   0.587   6.034   5.226
 2020SOL    HW2 6960   0.646   5.897   5.160
 2021SOL     OW 6961   2.187   5.640   3.299
 2021SOL    HW1 6962   2.182   5.671   3.394
 2021SOL    HW2 6963   2.280   5.648   3.266
 2022SOL     OW 6964   1.778   3.540   3.380
 2022SOL    HW1 6965   1.760   3.554   3.283
 2022SOL    HW2 6966   1.839   3.612   3.413
 2023SOL     OW 6967   6.425   0.884   6.046
 2023SOL    HW1 6968   6.341   0.877   5.992
 2023SOL    HW2 6969   6.500   0.917   5.987
 2024SOL     OW 6970   6.904   6.907   3.019
 2024SOL    HW1 6971   6.851   6.952   3.092
 2024SOL    HW2 6972   6.927   6.814   3.046
 2025SOL     OW 6973   2.923   2.209   2.665
 2025SOL    HW1 6974   2.876   2.128   2.700
 2025SOL    HW2 6975   2.917   2.283   2.732
 2026SOL     OW 6976   0.564   3.136   6.549
 2026SOL    HW1 6977   0.565   3.125   6.450
 2026SOL    HW2 6978   0.596   3.228   6.573
 2027SOL     OW 6979   0.473   0.473   0.205
 2027SOL    HW1 6980   0.479   0.518   0.293
 2027SOL    HW2 6981   0.383   0.489   0.165
 2028SOL     OW 6982   2.878   1.155   5.552
 2028SOL    HW1 6983   2.943   1.081   5.535
 2028SOL    HW2 6984   2.819   1.130   5.629
 2029SOL     OW 6985   6.521   0.406   1.356
 2029SOL    HW1 6986   6.493   0.453   1.272
 2029SOL    HW2 6987   6.586   0.464   1.406
 2030SOL     OW 6988   2.420   0.421   2.809
 2030SOL    HW1 6989   2.424   0.493   2.879
 2030SOL    HW2 6990   2.325   0.396   2.792
 2031SOL     OW 6991   6.631   6.392   2.133
 2031SOL    HW1 6992   6.655   6.299   2.160
 2031SOL    HW2 6993   6.713   6.449   2.133
 2032SOL     OW 6994   5.078   6.551   1.764
 2032SOL    HW1 6995   5.044   6.628   1.819
 2032SOL    HW2 6996   5.009   6.478   1.762
 2033SOL     OW 6997   3.804   4.046   6.986
 2033SOL    HW1 6998   3.804   4.143   6.963
 2033SOL    HW2 6999   3.842   4.033   0.056
 2034SOL     OW 7000   3.149   6.595   4.839
 2034SOL    HW1 7001   3.056   6.558   4.835
 2034SOL    HW2 7002   3.159   6.667   4.770
 2035SOL     OW 7003   6.963   0.783   1.618
 2035SOL    HW1 7004   6.915   0.733   1.546
 2035SOL    HW2 7005   6.900   0.848   1.661
 2036SOL     OW 7006   1.154   5.255   2.992
 2036SOL    HW1 7007   1.120   5.316   2.921
 2036SOL    HW2 7008   1.254   5.254   2.991
 2037SOL     OW 7009   6.944   3.161   5.878
 2037SOL    HW1 7010   6.970   3.177   5.973
 2037SOL    HW2 7011   7.002   3.090   5.839
 2038SOL     OW 7012   1.287   2.122   6.392
 2038SOL    HW1 7013   1.354   2.165   6.331
 2038SOL    HW2 7014   1.228   2.193   6.432
 2039SOL     OW 7015   1.029   5.699   3.233
 2039SOL    HW1 7016   1.021   5.745   3.145
 2039SOL    HW2 7017   0.943   5.706   3.283
 2040SOL     OW 7018   3.831   2.942   4.652
 2040SOL    HW1 7019   3.829   2.868   4.585
 2040SOL    HW2 7020   3.868   3.025   4.609
 2041SOL     OW 7021   0.267   5.805   5.867
 2041SOL    HW1 7022   0.297   5.880   5.926
 2041SOL    HW2 7023   0.192   5.756   5.911
 2042SOL     OW 7024   5.020   4.684   6.843
 2042SOL    HW1 7025   4.953   4.617   6.811
 2042SOL    HW2 7026   5.112   4.654   6.817
 2043SOL     OW 7027   6.066   3.994   3.496
 2043SOL    HW1 7028   6.163   4.020   3.500
 2043SOL    HW2 7029   6.036   3.994   3.400
 2044SOL     OW 7030   5.356   6.534   1.529
 2044SOL    HW1 7031   5.393   6.611   1.581
 2044SOL    HW2 7032   5.357   6.452   1.587
 2045SOL     OW 7033   3.391   5.178   4.053
 2045SOL    HW1 7034   3.316   5.118   4.082
 2045SOL    HW2 7035   3.397   5.256   4.114
 2046SOL     OW 7036   6.638   1.948   3.937
 2046SOL    HW1 7037   6.555   1.972   3.987
 2046SOL    HW2 7038   6.717   1.950   3.999
 2047SOL     OW 7039   5.878   2.453   6.995
 2047SOL    HW1 7040   5.878   2.553   6.990
 2047SOL    HW2 7041   5.834   2.423   0.059
 2048SOL     OW 7042   1.388   6.162   0.362
 2048SOL    HW1 7043   1.413   6.220   0.440
 2048SOL    HW2 7044   1.352   6.219   0.289
 2049SOL     OW 7045   5.034   1.989   6.384
 2049SOL    HW1 7046   4.992   1.983   6.294
 2049SOL    HW2 7047   5.130   1.961   6.377
 2050SOL     OW 7048   0.755   2.973   2.892
 2050SOL    HW1 7049   0.776   3.009   2.801
 2050SOL    HW2 7050   0.747   2.873   2.886
 2051SOL     OW 7051   0.920   5.875   0.944
 2051SOL    HW1 7052   0.871   5.962   0.937
 2051SOL    HW2 7053   0.913   5.826   0.858
 2052SOL     OW 7054   1.174   3.989   1.159
 2052SOL    HW1 7055   1.246   4.010   1.092
 2052SOL    HW2 7056   1.093   4.043   1.138
 2053SOL     OW 7057   5.927   6.652   4.938
 2053SOL    HW1 7058   5.908   6.740   4.981
 2053SOL    HW2 7059   5.887   6.579   4.993
 2054SOL     OW 7060   3.754   3.535   2.241
 2054SOL    HW1 7061   3.745   3.607   2.310
 2054SOL    HW2 7062   3.849   3.529   2.211
 2055SOL     OW 7063   5.954   3.644   3.574
 2055SOL    HW1 7064   6.016   3.704   3.625
 2055SOL    HW2 7065   5.887   3.700   3.524
 2056SOL     OW 7066   2.204   6.783   2.499
 2056SOL    HW1 7067   2.200   6.793   2.598
 2056SOL    HW2 7068   2.187   6.687   2.475
 2057SOL     OW 7069   5.766   3.472   4.425
 2057SOL    HW1 7070   5.751   3.440   4.519
 2057SOL    HW2 7071   5.785   3.570   4.425
 2058SOL     OW 7072   0.434   1.738   3.190
 2058SOL    HW1 7073   0.428   1.696   3.280
 2058SOL    HW2 7074   0.499   1.687   3.134
 2059SOL     OW 7075   2.175   5.906   6.509
 2059SOL    HW1 7076   2.182   5.962   6.592
 2059SOL    HW2 7077   2.163   5.965   6.429
 2060SOL     OW 7078   6.706   4.376   0.505
 2060SOL    HW1 7079   6.689   4.434   0.425
 2060SOL    HW2 7080   6.667   4.420   0.586
 2061SOL     OW 7081   6.916   1.703   3.702
 2061SOL    HW1 7082   6.988   1.658   3.756
 2061SOL    HW2 7083   6.956   1.775   3.647
 2062SOL     OW 7084   6.476   0.298   3.621
 2062SOL    HW1 7085   6.466   0.391   3.656
 2062SOL    HW2 7086   6.389   0.249   3.628
 2063SOL     OW 7087   1.841   6.970   6.192
 2063SOL    HW1 7088   1.749   6.992   6.223
 2063SOL    HW2 7089   1.846   6.974   6.093
 2064SOL     OW 7090   0.828   2.432   5.308
 2064SOL    HW1 7091   0.784   2.392   5.227
 2064SOL    HW2 7092   0.845   2.360   5.375
 2065SOL     OW 7093   0.117   2.636   4.942
 2065SOL    HW1 7094   0.072   2.716   4.902
 2065SOL    HW2 7095   0.117   2.643   5.042
 2066SOL     OW 7096   1.052   5.048   3.612
 2066SOL    HW1 7097   1.121   5.121   3.612
 2066SOL    HW2 7098   1.084   4.972   3.555
 2067SOL     OW 7099   6.502   5.254   0.610
 2067SOL    HW1 7100   6.447   5.321   0.661
 2067SOL    HW2 7101   6.566   5.302   0.550
 2068SOL     OW 7102   1.672   1.106   4.978
 2068SOL    HW1 7103   1.766   1.093   5.009
 2068SOL    HW2 7104   1.666   1.089   4.880
 2069SOL     OW 7105   0.829   3.073   3.145
 2069SOL    HW1 7106   0.920   3.061   3.106
 2069SOL    HW2 7107   0.761   3.032   3.083
 2070SOL     OW 7108   1.258   0.844   2.258
 2070SOL    HW1 7109   1.256   0.745   2.274
 2070SOL    HW2 7110   1.306   0.889   2.333
 2071SOL     OW 7111   6.340   5.850   5.434
 2071SOL    HW1 7112   6.369   5.929   5.380
 2071SOL    HW2 7113   6.382   5.854   5.525
 2072SOL     OW 7114   4.277   6.563   3.584
 2072SOL    HW1 7115   4.362   6.520   3.612
 2072SOL    HW2 7116   4.201   6.522   3.635
 2073SOL     OW 7117   4.157   0.291   4.832
 2073SOL    HW1 7118   4.168   0.327   4.739
 2073SOL    HW2 7119   4.226   0.221   4.849
 2074SOL     OW 7120   1.364   2.543   0.408
 2074SOL    HW1 7121   1.399   2.619   0.461
 2074SOL    HW2 7122   1.274   2.516   0.443
 2075SOL     OW 7123   5.606   3.274   1.898
 2075SOL    HW1 7124   5.699   3.290   1.930
 2075SOL    HW2 7125   5.545   3.343   1.937
 2076SOL     OW 7126   5.935   0.154   6.801
 2076SOL    HW1 7127   5.956   0.229   6.863
 2076SOL    HW2 7128   5.901   0.076   6.853
 2077SOL     OW 7129   5.076   2.918   2.696
 2077SOL    HW1 7130   5.147   2.961   2.752
 2077SOL    HW2 7131   4.987   2.931   2.740
 2078SOL     OW 7132   1.039   5.601   5.539
 2078SOL    HW1 7133   1.077   5.649   5.459
 2078SOL    HW2 7134   1.007   5.511   5.510
 2079SOL     OW 7135   5.125   2.037   3.929
 2079SOL    HW1 7136   5.166   1.963   3.876
 2079SOL    HW2 7137   5.127   2.015   4.026
 2080SOL     OW 7138   1.810   0.539   5.188
 2080SOL    HW1 7139   1.812   0.572   5.283
 2080SOL    HW2 7140   1.900   0.553   5.146
 2081SOL     OW 7141   1.530   5.270   4.216
 2081SOL    HW1 7142   1.446   5.268   4.270
 2081SOL    HW2 7143   1.524   5.201   4.144
 2082SOL     OW 7144   0.556   0.183   3.059
 2082SOL    HW1 7145   0.480   0.247   3.044
 2082SOL    HW2 7146   0.568   0.126   2.977
 2083SOL     OW 7147   6.564   5.110   6.265
 2083SOL    HW1 7148   6.639   5.044   6.263
 2083SOL    HW2 7149   6.578   5.173   6.341
 2084SOL     OW 7150   1.428   3.644   3.350
 2084SOL    HW1 7151   1.375   3.563   3.374
 2084SOL    HW2 7152   1.367   3.724   3.349
 2085SOL     OW 7153   4.314   0.647   6.948
 2085SOL    HW1 7154   4.408   0.666   6.976
 2085SOL    HW2 7155   4.269   0.592   7.018
 2086SOL     OW 7156   4.537   6.811   5.671
 2086SOL    HW1 7157   4.444   6.833   5.640
 2086SOL    HW2 7158   4.586   6.763   5.599
 2087SOL     OW 7159   5.172   0.036   1.109
 2087SOL    HW1 7160   5.148   0.001   1.019
 2087SOL    HW2 7161   5.234   0.114   1.099
 2088SOL     OW 7162   1.774   5.785   0.043
 2088SOL    HW1 7163   1.716   5.719   7.015
 2088SOL    HW2 7164   1.796   5.749   0.134
 2089SOL     OW 7165   5.294   2.195   6.547
 2089SOL    HW1 7166   5.290   2.096   6.553
 2089SOL    HW2 7167   5.371   2.222   6.489
 2090SOL     OW 7168   3.866   2.893   5.816
 2090SOL    HW1 7169   3.940   2.868   5.878
 2090SOL    HW2 7170   3.779   2.859   5.852
 2091SOL     OW 7171   6.899   5.322   0.197
 2091SOL    HW1 7172   6.923   5.291   0.289
 2091SOL    HW2 7173   6.983   5.345   0.147
 2092SOL     OW 7174   5.350   3.823   6.920
 2092SOL    HW1 7175   5.340   3.728   6.890
 2092SOL    HW2 7176   5.294   3.882   6.863
 2093SOL     OW 7177   2.728   2.217   1.408
 2093SOL    HW1 7178   2.753   2.145   1.343
 2093SOL    HW2 7179   2.628   2.227   1.409
 2094SOL     OW 7180   5.937   1.682   1.806
 2094SOL    HW1 7181   5.949   1.671   1.708
 2094SOL    HW2 7182   5.894   1.601   1.845
 2095SOL     OW 7183   5.588   0.341   5.221
 2095SOL    HW1 7184   5.636   0.302   5.299
 2095SOL    HW2 7185   5.547   0.428   5.246
 2096SOL     OW 7186   4.855   3.923   2.808
 2096SOL    HW1 7187   4.915   3.964   2.739
 2096SOL    HW2 7188   4.843   3.826   2.789
 2097SOL     OW 7189   3.042   3.161   6.683
 2097SOL    HW1 7190   3.067   3.089   6.618
 2097SOL    HW2 7191   3.088   3.145   6.770
 2098SOL     OW 7192   3.811   6.015   2.004
 2098SOL    HW1 7193   3.855   5.948   1.945
 2098SOL    HW2 7194   3.717   6.030   1.973
 2099SOL     OW 7195   3.094   2.861   6.358
 2099SOL    HW1 7196   3.067   2.953   6.331
 2099SOL    HW2 7197   3.142   2.817   6.282
 2100SOL     OW 7198   4.834   2.691   6.539
 2100SOL    HW1 7199   4.899   2.650   6.476
 2100SOL    HW2 7200   4.854   2.660   6.632
 2101SOL     OW 7201   1.120   6.250   2.334
 2101SOL    HW1 7202   1.177   6.272   2.255
 2101SOL    HW2 7203   1.164   6.284   2.417
 2102SOL     OW 7204   6.184   4.490   2.838
 2102SOL    HW1 7205   6.258   4.465   2.901
 2102SOL    HW2 7206   6.106   4.429   2.853
 2103SOL     OW 7207   3.994   4.215   5.558
 2103SOL    HW1 7208   3.958   4.301   5.595
 2103SOL    HW2 7209   4.063   4.234   5.489
 2104SOL     OW 7210   2.547   4.649   1.129
 2104SOL    HW1 7211   2.645   4.639   1.142
 2104SOL    HW2 7212   2.510   4.568   1.084
 2105SOL     OW 7213   5.045   6.319   5.190
 2105SOL    HW1 7214   4.945   6.320   5.192
 2105SOL    HW2 7215   5.077   6.340   5.098
 2106SOL     OW 7216   4.912   4.305   1.340
 2106SOL    HW1 7217   4.886   4.263   1.253
 2106SOL    HW2 7218   4.951   4.236   1.400
 2107SOL     OW 7219   5.155   2.627   5.402
 2107SOL    HW1 7220   5.132   2.714   5.446
 2107SOL    HW2 7221   5.133   2.551   5.463
 2108SOL     OW 7222   6.200   5.756   5.035
 2108SOL    HW1 7223   6.243   5.678   5.081
 2108SOL    HW2 7224   6.140   5.804   5.100
 2109SOL     OW 7225   4.127   6.289   2.624
 2109SOL    HW1 7226   4.099   6.381   2.597
 2109SOL    HW2 7227   4.152   6.289   2.721
 2110SOL     OW 7228   2.099   1.658   0.387
 2110SOL    HW1 7229   2.069   1.563   0.393
 2110SOL    HW2 7230   2.089   1.702   0.476
 2111SOL     OW 7231   1.654   2.264   6.477
 2111SOL    HW1 7232   1.615   2.281   6.567
 2111SOL    HW2 7233   1.754   2.268   6.482
 2112SOL     OW 7234   5.617   3.683   0.717
 2112SOL    HW1 7235   5.641   3.614   0.785
 2112SOL    HW2 7236   5.694   3.746   0.706
 2113SOL     OW 7237   2.431   1.984   5.315
 2113SOL    HW1 7238   2.489   2.055   5.275
 2113SOL    HW2 7239   2.369   1.949   5.245
 2114SOL     OW 7240   1.406   1.979   6.814
 2114SOL    HW1 7241   1.311   1.947   6.805
 2114SOL    HW2 7242   1.443   2.001   6.724
 2115SOL     OW 7243   2.063   3.686   2.670
 2115SOL    HW1 7244   2.100   3.699   2.762
 2115SOL    HW2 7245   2.072   3.590   2.643
 2116SOL     OW 7246   0.687   5.385   3.305
 2116SOL    HW1 7247   0.605   5.328   3.300
 2116SOL    HW2 7248   0.766   5.328   3.324
 2117SOL     OW 7249   7.015   5.451   1.739
 2117SOL    HW1 7250   0.085   5.408   1.740
 2117SOL    HW2 7251   6.951   5.396   1.793
 2118SOL     OW 7252   6.218   3.528   2.561
 2118SOL    HW1 7253   6.305   3.497   2.600
 2118SOL    HW2 7254   6.154   3.451   2.559
 2119SOL     OW 7255   1.330   6.972   1.033
 2119SOL    HW1 7256   1.233   6.977   1.010
 2119SOL    HW2 7257   1.343   6.994   1.130
 2120SOL     OW 7258   6.713   5.263   3.794
 2120SOL    HW1 7259   6.745   5.307   3.711
 2120SOL    HW2 7260   6.779   5.195   3.824
 2121SOL     OW 7261   1.653   4.464   5.819
 2121SOL    HW1 7262   1.616   4.434   5.731
 2121SOL    HW2 7263   1.744   4.423   5.832
 2122SOL     OW 7264   5.955   3.847   5.710
 2122SOL    HW1 7265   5.975   3.875   5.803
 2122SOL    HW2 7266   5.937   3.749   5.707
 2123SOL     OW 7267   6.987   5.874   2.642
 2123SOL    HW1 7268   6.970   5.909   2.549
 2123SOL    HW2 7269   0.061   5.845   2.649
 2124SOL     OW 7270   3.368   1.910   1.282
 2124SOL    HW1 7271   3.404   1.928   1.190
 2124SOL    HW2 7272   3.419   1.963   1.349
 2125SOL     OW 7273   2.245   0.743   2.191
 2125SOL    HW1 7274   2.152   0.719   2.162
 2125SOL    HW2 7275   2.290   0.794   2.118
 2126SOL     OW 7276   4.012   1.807   6.057
 2126SOL    HW1 7277   3.925   1.791   6.012
 2126SOL    HW2 7278   4.031   1.905   6.061
 2127SOL     OW 7279   0.637   3.010   5.035
 2127SOL    HW1 7280   0.675   3.039   4.947
 2127SOL    HW2 7281   0.661   2.914   5.051
 2128SOL     OW 7282   6.450   3.536   3.937
 2128SOL    HW1 7283   6.408   3.529   4.028
 2128SOL    HW2 7284   6.397   3.481   3.872
 2129SOL     OW 7285   4.473   3.267   5.396
 2129SOL    HW1 7286   4.508   3.186   5.442
 2129SOL    HW2 7287   4.393   3.242   5.340
 2130SOL     OW 7288   3.415   0.408   2.569
 2130SOL    HW1 7289   3.330   0.434   2.616
 2130SOL    HW2 7290   3.393   0.367   2.481
 2131SOL     OW 7291   5.313   1.246   0.896
 2131SOL    HW1 7292   5.280   1.171   0.838
 2131SOL    HW2 7293   5.243   1.317   0.902
 2132SOL     OW 7294   3.514   0.356   1.349
 2132SOL    HW1 7295   3.481   0.398   1.433
 2132SOL    HW2 7296   3.528   0.258   1.364
 2133SOL     OW 7297   3.273   2.810   0.254
 2133SOL    HW1 7298   3.228   2.726   0.283
 2133SOL    HW2 7299   3.305   2.861   0.334
 2134SOL     OW 7300   0.033   1.153   6.129
 2134SOL    HW1 7301   0.119   1.109   6.152
 2134SOL    HW2 7302   7.013   1.192   6.212
 2135SOL     OW 7303   1.339   3.365   5.054
 2135SOL    HW1 7304   1.371   3.287   5.108
 2135SOL    HW2 7305   1.391   3.369   4.968
 2136SOL     OW 7306   1.382   4.014   3.674
 2136SOL    HW1 7307   1.358   3.924   3.710
 2136SOL    HW2 7308   1.299   4.060   3.642
 2137SOL     OW 7309   2.927   5.249   4.928
 2137SOL    HW1 7310   2.890   5.342   4.929
 2137SOL    HW2 7311   2.861   5.186   4.968
 2138SOL     OW 7312   6.582   0.782   2.942
 2138SOL    HW1 7313   6.600   0.868   2.988
 2138SOL    HW2 7314   6.668   0.737   2.920
 2139SOL     OW 7315   3.708   0.655   3.386
 2139SOL    HW1 7316   3.678   0.636   3.292
 2139SOL    HW2 7317   3.802   0.689   3.385
 2140SOL     OW 7318   4.002   6.625   4.305
 2140SOL    HW1 7319   4.076   6.611   4.370
 2140SOL    HW2 7320   3.977   6.538   4.263
 2141SOL     OW 7321   6.539   3.925   2.469
 2141SOL    HW1 7322   6.548   3.990   2.544
 2141SOL    HW2 7323   6.516   3.973   2.385
 2142SOL     OW 7324   1.901   2.383   3.181
 2142SOL    HW1 7325   1.831   2.324   3.142
 2142SOL    HW2 7326   1.889   2.476   3.146
 2143SOL     OW 7327   2.785   4.638   1.660
 2143SOL    HW1 7328   2.756   4.580   1.585
 2143SOL    HW2 7329   2.831   4.583   1.730
 2144SOL     OW 7330   1.306   5.270   4.359
 2144SOL    HW1 7331   1.275   5.297   4.450
 2144SOL    HW2 7332   1.238   5.300   4.291
 2145SOL     OW 7333   4.671   6.220   4.271
 2145SOL    HW1 7334   4.763   6.259   4.266
 2145SOL    HW2 7335   4.628   6.222   4.181
 2146SOL     OW 7336   2.703   3.618   1.710
 2146SOL    HW1 7337   2.719   3.535   1.764
 2146SOL    HW2 7338   2.607   3.621   1.681
 2147SOL     OW 7339   6.393   1.799   5.934
 2147SOL    HW1 7340   6.319   1.732   5.933
 2147SOL    HW2 7341   6.363   1.881   5.983
 2148SOL     OW 7342   5.960   2.707   5.750
 2148SOL    HW1 7343   5.881   2.702   5.689
 2148SOL    HW2 7344   6.027   2.771   5.713
 2149SOL     OW 7345   3.655   2.149   1.251
 2149SOL    HW1 7346   3.668   2.071   1.189
 2149SOL    HW2 7347   3.606   2.118   1.333
 2150SOL     OW 7348   2.584   1.786   2.308
 2150SOL    HW1 7349   2.570   1.689   2.329
 2150SOL    HW2 7350   2.624   1.832   2.387
 2151SOL     OW 7351   1.378   0.202   5.120
 2151SOL    HW1 7352   1.352   0.107   5.103
 2151SOL    HW2 7353   1.478   0.210   5.123
 2152SOL     OW 7354   3.331   5.947   1.532
 2152SOL    HW1 7355   3.332   6.038   1.491
 2152SOL    HW2 7356   3.245   5.933   1.581
 2153SOL     OW 7357   4.019   1.089   2.875
 2153SOL    HW1 7358   4.010   1.188   2.885
 2153SOL    HW2 7359   3.928   1.047   2.875
 2154SOL     OW 7360   5.234   0.440   5.281
 2154SOL    HW1 7361   5.157   0.485   5.235
 2154SOL    HW2 7362   5.239   0.344   5.251
 2155SOL     OW 7363   2.347   5.393   0.248
 2155SOL    HW1 7364   2.346   5.493   0.254
 2155SOL    HW2 7365   2.417   5.357   0.309
 2156SOL     OW 7366   1.883   1.503   5.057
 2156SOL    HW1 7367   1.862   1.553   4.973
 2156SOL    HW2 7368   1.908   1.568   5.129
 2157SOL     OW 7369   6.066   0.820   3.211
 2157SOL    HW1 7370   6.062   0.910   3.168
 2157SOL    HW2 7371   5.979   0.773   3.197
 2158SOL     OW 7372   3.808   6.064   1.263
 2158SOL    HW1 7373   3.907   6.064   1.249
 2158SOL    HW2 7374   3.764   6.009   1.191
 2159SOL     OW 7375   1.417   6.561   4.837
 2159SOL    HW1 7376   1.463   6.478   4.804
 2159SOL    HW2 7377   1.350   6.590   4.769
 2160SOL     OW 7378   3.754   3.765   0.291
 2160SOL    HW1 7379   3.839   3.756   0.343
 2160SOL    HW2 7380   3.677   3.779   0.354
 2161SOL     OW 7381   5.731   5.041   3.044
 2161SOL    HW1 7382   5.707   5.112   2.977
 2161SOL    HW2 7383   5.761   5.084   3.129
 2162SOL     OW 7384   2.194   1.180   1.918
 2162SOL    HW1 7385   2.241   1.268   1.908
 2162SOL    HW2 7386   2.096   1.193   1.899
 2163SOL     OW 7387   1.305   4.655   6.076
 2163SOL    HW1 7388   1.236   4.599   6.122
 2163SOL    HW2 7389   1.289   4.653   5.977
 2164SOL     OW 7390   1.332   2.553   0.146
 2164SOL    HW1 7391   1.262   2.613   0.107
 2164SOL    HW2 7392   1.333   2.564   0.246
 2165SOL     OW 7393   0.876   1.881   2.653
 2165SOL    HW1 7394   0.840   1.790   2.671
 2165SOL    HW2 7395   0.875   1.935   2.737
 2166SOL     OW 7396   1.748   2.289   5.353
 2166SOL    HW1 7397   1.720   2.360   5.418
 2166SOL    HW2 7398   1.760   2.202   5.401
 2167SOL     OW 7399   1.879   1.794   3.563
 2167SOL    HW1 7400   1.960   1.838   3.602
 2167SOL    HW2 7401   1.906   1.741   3.482
 2168SOL     OW 7402   0.534   2.031   4.059
 2168SOL    HW1 7403   0.593   1.988   3.991
 2168SOL    HW2 7404   0.447   1.982   4.063
 2169SOL     OW 7405   5.406   0.998   6.960
 2169SOL    HW1 7406   5.421   1.079   6.902
 2169SOL    HW2 7407   5.403   1.026   0.035
 2170SOL     OW 7408   6.495   4.940   5.789
 2170SOL    HW1 7409   6.515   5.020   5.731
 2170SOL    HW2 7410   6.521   4.857   5.740
 2171SOL     OW 7411   0.468   4.908   1.669
 2171SOL    HW1 7412   0.414   4.829   1.697
 2171SOL    HW2 7413   0.449   4.929   1.573
 2172SOL     OW 7414   2.123   2.243   0.515
 2172SOL    HW1 7415   2.028   2.213   0.520
 2172SOL    HW2 7416   2.168   2.225   0.602
 2173SOL     OW 7417   3.602   0.784   5.451
 2173SOL    HW1 7418   3.628   0.689   5.433
 2173SOL    HW2 7419   3.616   0.839   5.369
 2174SOL     OW 7420   5.514   6.605   5.096
 2174SOL    HW1 7421   5.421   6.573   5.113
 2174SOL    HW2 7422   5.576   6.527   5.088
 2175SOL     OW 7423   2.383   2.621   4.260
 2175SOL    HW1 7424   2.360   2.689   4.190
 2175SOL    HW2 7425   2.333   2.642   4.344
 2176SOL     OW 7426   6.742   1.917   0.683
 2176SOL    HW1 7427   6.659   1.965   0.655
 2176SOL    HW2 7428   6.723   1.820   0.695
 2177SOL     OW 7429   6.290   2.134   3.275
 2177SOL    HW1 7430   6.302   2.045   3.319
 2177SOL    HW2 7431   6.376   2.186   3.282
 2178SOL     OW 7432   1.866   2.044   0.961
 2178SOL    HW1 7433   1.889   2.137   0.989
 2178SOL    HW2 7434   1.916   1.979   1.018
 2179SOL     OW 7435   2.122   5.065   5.046
 2179SOL    HW1 7436   2.202   5.011   5.074
 2179SOL    HW2 7437   2.069   5.015   4.979
 2180SOL     OW 7438   1.858   2.447   1.825
 2180SOL    HW1 7439   1.957   2.460   1.825
 2180SOL    HW2 7440   1.822   2.465   1.916
 2181SOL     OW 7441   4.482   4.838   4.330
 2181SOL    HW1 7442   4.471   4.871   4.236
 2181SOL    HW2 7443   4.434   4.901   4.392
 2182SOL     OW 7444   1.420   3.547   3.938
 2182SOL    HW1 7445   1.412   3.538   3.838
 2182SOL    HW2 7446   1.493   3.613   3.959
 2183SOL     OW 7447   2.770   3.728   5.989
 2183SOL    HW1 7448   2.812   3.763   5.904
 2183SOL    HW2 7449   2.703   3.658   5.966
 2184SOL     OW 7450   4.380   2.143   6.649
 2184SOL    HW1 7451   4.351   2.078   6.580
 2184SOL    HW2 7452   4.476   2.129   6.671
 2185SOL     OW 7453   0.879   1.512   0.955
 2185SOL    HW1 7454   0.974   1.519   0.925
 2185SOL    HW2 7455   0.867   1.561   1.041
 2186SOL     OW 7456   0.850   5.860   1.985
 2186SOL    HW1 7457   0.841   5.940   1.925
 2186SOL    HW2 7458   0.760   5.825   2.009
 2187SOL     OW 7459   6.441   0.258   2.950
 2187SOL    HW1 7460   6.517   0.266   2.884
 2187SOL    HW2 7461   6.356   0.286   2.905
 2188SOL     OW 7462   6.798   6.522   5.060
 2188SOL    HW1 7463   6.774   6.539   4.964
 2188SOL    HW2 7464   6.895   6.543   5.074
 2189SOL     OW 7465   1.528   6.841   0.904
 2189SOL    HW1 7466   1.450   6.871   0.959
 2189SOL    HW2 7467   1.609   6.835   0.963
 2190SOL     OW 7468   0.134   2.988   1.731
 2190SOL    HW1 7469   0.184   2.902   1.744
 2190SOL    HW2 7470   0.053   2.970   1.675
 2191SOL     OW 7471   3.032   2.055   6.834
 2191SOL    HW1 7472   3.066   1.999   6.759
 2191SOL    HW2 7473   3.108   2.084   6.892
 2192SOL     OW 7474   4.475   1.132   2.523
 2192SOL    HW1 7475   4.433   1.041   2.517
 2192SOL    HW2 7476   4.438   1.190   2.450
 2193SOL     OW 7477   5.860   5.898   6.509
 2193SOL    HW1 7478   5.903   5.987   6.492
 2193SOL    HW2 7479   5.781   5.910   6.569
 2194SOL     OW 7480   2.641   4.106   5.814
 2194SOL    HW1 7481   2.606   4.014   5.793
 2194SOL    HW2 7482   2.685   4.144   5.733
 2195SOL     OW 7483   0.308   0.698   4.406
 2195SOL    HW1 7484   0.319   0.693   4.306
 2195SOL    HW2 7485   0.396   0.722   4.447
 2196SOL     OW 7486   2.998   6.832   5.163
 2196SOL    HW1 7487   3.066   6.897   5.195
 2196SOL    HW2 7488   3.014   6.742   5.205
 2197SOL     OW 7489   3.195   3.751   0.987
 2197SOL    HW1 7490   3.200   3.736   0.888
 2197SOL    HW2 7491   3.108   3.715   1.021
 2198SOL     OW 7492   5.662   1.399   0.208
 2198SOL    HW1 7493   5.704   1.354   0.129
 2198SOL    HW2 7494   5.564   1.411   0.191
 2199SOL     OW 7495   5.039   0.918   3.292
 2199SOL    HW1 7496   4.975   0.841   3.291
 2199SOL    HW2 7497   5.129   0.886   3.321
 2200SOL     OW 7498   2.331   1.266   5.458
 2200SOL    HW1 7499   2.233   1.245   5.464
 2200SOL    HW2 7500   2.369   1.223   5.376
 2201SOL     OW 7501   6.384   2.941   3.443
 2201SOL    HW1 7502   6.388   2.866   3.376
 2201SOL    HW2 7503   6.311   2.924   3.509
 2202SOL     OW 7504   2.531   5.417   2.064
 2202SOL    HW1 7505   2.561   5.430   2.159
 2202SOL    HW2 7506   2.452   5.476   2.046
 2203SOL     OW 7507   1.701   2.005   1.545
 2203SOL    HW1 7508   1.712   1.935   1.616
 2203SOL    HW2 7509   1.649   2.082   1.582
 2204SOL     OW 7510   3.799   1.229   1.237
 2204SOL    HW1 7511   3.749   1.182   1.165
 2204SOL    HW2 7512   3.876   1.280   1.197
 2205SOL     OW 7513   0.809   0.487   6.000
 2205SOL    HW1 7514   0.733   0.426   5.978
 2205SOL    HW2 7515   0.817   0.496   6.099
 2206SOL     OW 7516   3.330   4.442   6.183
 2206SOL    HW1 7517   3.328   4.347   6.215
 2206SOL    HW2 7518   3.242   4.485   6.203
 2207SOL     OW 7519   3.136   4.303   6.670
 2207SOL    HW1 7520   3.107   4.375   6.607
 2207SOL    HW2 7521   3.106   4.326   6.763
 2208SOL     OW 7522   1.738   6.166   3.143
 2208SOL    HW1 7523   1.820   6.143   3.092
 2208SOL    HW2 7524   1.708   6.087   3.196
 2209SOL     OW 7525   1.542   6.124   5.429
 2209SOL    HW1 7526   1.502   6.166   5.348
 2209SOL    HW2 7527   1.631   6.084   5.405
 2210SOL     OW 7528   6.155   4.683   4.196
 2210SOL    HW1 7529   6.113   4.712   4.110
 2210SOL    HW2 7530   6.095   4.708   4.272
 2211SOL     OW 7531   5.728   0.439   0.760
 2211SOL    HW1 7532   5.723   0.500   0.681
 2211SOL    HW2 7533   5.733   0.494   0.844
 2212SOL     OW 7534   1.243   5.818   6.949
 2212SOL    HW1 7535   1.313   5.798   6.881
 2212SOL    HW2 7536   1.219   5.915   6.945
 2213SOL     OW 7537   3.473   2.672   5.305
 2213SOL    HW1 7538   3.549   2.732   5.280
 2213SOL    HW2 7539   3.388   2.706   5.264
 2214SOL     OW 7540   3.221   2.929   4.914
 2214SOL    HW1 7541   3.204   2.845   4.862
 2214SOL    HW2 7542   3.259   2.998   4.853
 2215SOL     OW 7543   6.217   1.181   0.602
 2215SOL    HW1 7544   6.119   1.189   0.588
 2215SOL    HW2 7545   6.265   1.240   0.538
 2216SOL     OW 7546   1.696   0.444   6.035
 2216SOL    HW1 7547   1.699   0.360   5.982
 2216SOL    HW2 7548   1.703   0.423   6.133
 2217SOL     OW 7549   3.991   6.530   1.446
 2217SOL    HW1 7550   3.895   6.519   1.420
 2217SOL    HW2 7551   3.998   6.599   1.518
 2218SOL     OW 7552   0.234   6.201   0.244
 2218SOL    HW1 7553   0.257   6.166   0.153
 2218SOL    HW2 7554   0.135   6.218   0.249
 2219SOL     OW 7555   5.512   1.872   1.560
 2219SOL    HW1 7556   5.603   1.869   1.603
 2219SOL    HW2 7557   5.475   1.779   1.555
 2220SOL     OW 7558   1.369   0.462   4.626
 2220SOL    HW1 7559   1.406   0.424   4.711
 2220SOL    HW2 7560   1.343   0.558   4.641
 2221SOL     OW 7561   5.832   1.159   5.178
 2221SOL    HW1 7562   5.875   1.171   5.089
 2221SOL    HW2 7563   5.741   1.199   5.177
 2222SOL     OW 7564   5.058   0.553   0.622
 2222SOL    HW1 7565   5.127   0.577   0.553
 2222SOL    HW2 7566   5.008   0.635   0.649
 2223SOL     OW 7567   5.979   1.567   4.998
 2223SOL    HW1 7568   6.025   1.522   4.921
 2223SOL    HW2 7569   5.962   1.663   4.975
 2224SOL     OW 7570   1.064   4.032   0.376
 2224SOL    HW1 7571   1.144   4.057   0.432
 2224SOL    HW2 7572   1.082   4.056   0.280
 2225SOL     OW 7573   6.591   6.758   3.101
 2225SOL    HW1 7574   6.643   6.690   3.151
 2225SOL    HW2 7575   6.653   6.827   3.062
 2226SOL     OW 7576   3.768   4.929   1.093
 2226SOL    HW1 7577   3.828   4.971   1.025
 2226SOL    HW2 7578   3.791   4.832   1.102
 2227SOL     OW 7579   5.764   3.414   0.386
 2227SOL    HW1 7580   5.826   3.492   0.387
 2227SOL    HW2 7581   5.670   3.447   0.387
 2228SOL     OW 7582   2.807   4.882   0.958
 2228SOL    HW1 7583   2.718   4.884   0.912
 2228SOL    HW2 7584   2.798   4.839   1.048
 2229SOL     OW 7585   4.069   1.890   4.449
 2229SOL    HW1 7586   4.128   1.966   4.422
 2229SOL    HW2 7587   4.075   1.878   4.549
 2230SOL     OW 7588   6.032   5.764   6.669
 2230SOL    HW1 7589   5.983   5.723   6.746
 2230SOL    HW2 7590   5.967   5.801   6.604
 2231SOL     OW 7591   0.409   0.349   2.063
 2231SOL    HW1 7592   0.501   0.374   2.032
 2231SOL    HW2 7593   0.342   0.413   2.025
 2232SOL     OW 7594   0.068   3.068   4.966
 2232SOL    HW1 7595   0.160   3.062   4.928
 2232SOL    HW2 7596   0.072   3.109   5.057
 2233SOL     OW 7597   2.482   3.369   0.560
 2233SOL    HW1 7598   2.426   3.452   0.554
 2233SOL    HW2 7599   2.521   3.349   0.470
 2234SOL     OW 7600   3.958   2.000   1.615
 2234SOL    HW1 7601   3.955   2.058   1.697
 2234SOL    HW2 7602   4.008   2.047   1.542
 2235SOL     OW 7603   2.663   0.014   1.457
 2235SOL    HW1 7604   2.606   0.093   1.437
 2235SOL    HW2 7605   2.710   0.028   1.544
 2236SOL     OW 7606   1.554   4.659   6.179
 2236SOL    HW1 7607   1.458   4.659   6.150
 2236SOL    HW2 7608   1.612   4.683   6.102
 2237SOL     OW 7609   6.206   4.775   4.510
 2237SOL    HW1 7610   6.200   4.864   4.466
 2237SOL    HW2 7611   6.203   4.787   4.610
 2238SOL     OW 7612   5.271   4.538   0.917
 2238SOL    HW1 7613   5.324   4.459   0.949
 2238SOL    HW2 7614   5.283   4.548   0.818
 2239SOL     OW 7615   4.093   5.005   3.116
 2239SOL    HW1 7616   4.034   4.990   3.196
 2239SOL    HW2 7617   4.060   4.950   3.040
 2240SOL     OW 7618   5.117   5.477   3.809
 2240SOL    HW1 7619   5.186   5.541   3.844
 2240SOL    HW2 7620   5.027   5.506   3.841
 2241SOL     OW 7621   0.311   6.425   3.136
 2241SOL    HW1 7622   0.224   6.400   3.179
 2241SOL    HW2 7623   0.293   6.457   3.043
 2242SOL     OW 7624   4.997   2.224   2.973
 2242SOL    HW1 7625   5.096   2.226   2.965
 2242SOL    HW2 7626   4.958   2.169   2.899
 2243SOL     OW 7627   2.057   6.387   5.897
 2243SOL    HW1 7628   2.129   6.318   5.905
 2243SOL    HW2 7629   2.053   6.421   5.803
 2244SOL     OW 7630   1.957   6.836   1.499
 2244SOL    HW1 7631   1.948   6.749   1.450
 2244SOL    HW2 7632   1.907   6.830   1.586
 2245SOL     OW 7633   0.793   1.876   1.224
 2245SOL    HW1 7634   0.771   1.964   1.266
 2245SOL    HW2 7635   0.818   1.891   1.128
 2246SOL     OW 7636   0.856   2.209   5.487
 2246SOL    HW1 7637   0.910   2.167   5.560
 2246SOL    HW2 7638   0.897   2.187   5.399
 2247SOL     OW 7639   3.279   3.329   4.399
 2247SOL    HW1 7640   3.242   3.394   4.332
 2247SOL    HW2 7641   3.265   3.365   4.491
 2248SOL     OW 7642   4.905   3.995   5.773
 2248SOL    HW1 7643   4.899   3.951   5.862
 2248SOL    HW2 7644   4.987   3.964   5.725
 2249SOL     OW 7645   6.422   6.227   3.203
 2249SOL    HW1 7646   6.520   6.244   3.208
 2249SOL    HW2 7647   6.374   6.293   3.261
 2250SOL     OW 7648   4.128   3.518   6.423
 2250SOL    HW1 7649   4.193   3.582   6.464
 2250SOL    HW2 7650   4.159   3.425   6.437
 2251SOL     OW 7651   5.081   0.779   7.007
 2251SOL    HW1 7652   5.032   0.767   6.921
 2251SOL    HW2 7653   5.154   0.846   6.995
 2252SOL     OW 7654   4.994   3.059   2.456
 2252SOL    HW1 7655   4.904   3.018   2.468
 2252SOL    HW2 7656   5.058   3.020   2.523
 2253SOL     OW 7657   1.072   3.189   6.600
 2253SOL    HW1 7658   1.062   3.279   6.643
 2253SOL    HW2 7659   1.028   3.189   6.511
 2254SOL     OW 7660   3.856   3.026   4.961
 2254SOL    HW1 7661   3.869   3.010   4.863
 2254SOL    HW2 7662   3.765   3.065   4.977
 2255SOL     OW 7663   4.647   2.343   6.745
 2255SOL    HW1 7664   4.589   2.342   6.827
 2255SOL    HW2 7665   4.683   2.251   6.729
 2256SOL     OW 7666   5.735   5.987   1.372
 2256SOL    HW1 7667   5.677   5.908   1.392
 2256SOL    HW2 7668   5.740   6.000   1.273
 2257SOL     OW 7669   0.017   2.519   3.961
 2257SOL    HW1 7670   7.005   2.426   3.979
 2257SOL    HW2 7671   6.998   2.552   3.875
 2258SOL     OW 7672   1.244   5.227   5.626
 2258SOL    HW1 7673   1.331   5.272   5.606
 2258SOL    HW2 7674   1.170   5.295   5.626
 2259SOL     OW 7675   5.514   3.517   0.037
 2259SOL    HW1 7676   5.475   3.453   0.104
 2259SOL    HW2 7677   5.613   3.504   0.033
 2260SOL     OW 7678   6.464   4.591   2.402
 2260SOL    HW1 7679   6.390   4.587   2.470
 2260SOL    HW2 7680   6.478   4.686   2.375
 2261SOL     OW 7681   6.589   6.289   6.779
 2261SOL    HW1 7682   6.660   6.247   6.722
 2261SOL    HW2 7683   6.603   6.388   6.782
 2262SOL     OW 7684   5.436   1.661   2.517
 2262SOL    HW1 7685   5.513   1.706   2.561
 2262SOL    HW2 7686   5.410   1.712   2.435
 2263SOL     OW 7687   3.384   5.925   6.695
 2263SOL    HW1 7688   3.363   6.023   6.700
 2263SOL    HW2 7689   3.369   5.883   6.784
 2264SOL     OW 7690   3.228   3.651   0.728
 2264SOL    HW1 7691   3.173   3.568   0.717
 2264SOL    HW2 7692   3.323   3.625   0.743
 2265SOL     OW 7693   0.692   1.462   4.893
 2265SOL    HW1 7694   0.618   1.397   4.909
 2265SOL    HW2 7695   0.722   1.456   4.798
 2266SOL     OW 7696   5.839   2.031   0.617
 2266SOL    HW1 7697   5.878   2.026   0.525
 2266SOL    HW2 7698   5.796   1.944   0.640
 2267SOL     OW 7699   4.736   2.484   4.816
 2267SOL    HW1 7700   4.700   2.508   4.905
 2267SOL    HW2 7701   4.758   2.567   4.765
 2268SOL     OW 7702   6.715   3.760   6.427
 2268SOL    HW1 7703   6.637   3.775   6.488
 2268SOL    HW2 7704   6.683   3.756   6.332
 2269SOL     OW 7705   5.620   5.548   4.821
 2269SOL    HW1 7706   5.625   5.448   4.824
 2269SOL    HW2 7707   5.705   5.587   4.857
 2270SOL     OW 7708   3.103   2.377   6.163
 2270SOL    HW1 7709   3.045   2.405   6.239
 2270SOL    HW2 7710   3.073   2.423   6.080
 2271SOL     OW 7711   5.831   4.250   0.276
 2271SOL    HW1 7712   5.757   4.315   0.293
 2271SOL    HW2 7713   5.804   4.185   0.205
 2272SOL     OW 7714   6.281   2.102   6.068
 2272SOL    HW1 7715   6.308   2.033   6.135
 2272SOL    HW2 7716   6.311   2.192   6.100
 2273SOL     OW 7717   1.883   0.235   2.395
 2273SOL    HW1 7718   1.895   0.290   2.313
 2273SOL    HW2 7719   1.855   0.143   2.370
 2274SOL     OW 7720   0.137   2.955   6.571
 2274SOL    HW1 7721   0.105   2.980   6.662
 2274SOL    HW2 7722   0.162   3.037   6.520
 2275SOL     OW 7723   5.964   1.041   4.093
 2275SOL    HW1 7724   6.013   0.994   4.166
 2275SOL    HW2 7725   6.029   1.070   4.023
 2276SOL     OW 7726   2.234   4.970   0.839
 2276SOL    HW1 7727   2.205   5.050   0.787
 2276SOL    HW2 7728   2.281   4.999   0.922
 2277SOL     OW 7729   4.132   3.383   5.441
 2277SOL    HW1 7730   4.150   3.306   5.380
 2277SOL    HW2 7731   4.200   3.455   5.425
 2278SOL     OW 7732   6.298   5.154   4.216
 2278SOL    HW1 7733   6.379   5.208   4.235
 2278SOL    HW2 7734   6.218   5.214   4.210
 2279SOL     OW 7735   5.258   6.003   4.704
 2279SOL    HW1 7736   5.180   6.045   4.750
 2279SOL    HW2 7737   5.226   5.935   4.638
 2280SOL     OW 7738   0.409   6.479   4.498
 2280SOL    HW1 7739   0.347   6.542   4.452
 2280SOL    HW2 7740   0.493   6.469   4.445
 2281SOL     OW 7741   3.264   1.263   2.146
 2281SOL    HW1 7742   3.220   1.344   2.186
 2281SOL    HW2 7743   3.195   1.202   2.108
 2282SOL     OW 7744   4.887   6.994   4.947
 2282SOL    HW1 7745   4.973   6.995   4.895
 2282SOL    HW2 7746   4.837   6.910   4.926
 2283SOL     OW 7747   0.378   4.727   2.042
 2283SOL    HW1 7748   0.412   4.647   2.090
 2283SOL    HW2 7749   0.305   4.770   2.096
 2284SOL     OW 7750   2.000   2.267   6.981
 2284SOL    HW1 7751   1.921   2.317   6.945
 2284SOL    HW2 7752   1.969   2.183   0.005
 2285SOL     OW 7753   2.358   2.053   1.240
 2285SOL    HW1 7754   2.340   2.100   1.326
 2285SOL    HW2 7755   2.455   2.063   1.216
 2286SOL     OW 7756   6.760   0.499   4.130
 2286SOL    HW1 7757   6.724   0.445   4.054
 2286SOL    HW2 7758   6.692   0.566   4.158
 2287SOL     OW 7759   1.337   1.327   3.290
 2287SOL    HW1 7760   1.382   1.239   3.302
 2287SOL    HW2 7761   1.269   1.340   3.362
 2288SOL     OW 7762   6.685   5.450   4.855
 2288SOL    HW1 7763   6.764   5.448   4.794
 2288SOL    HW2 7764   6.631   5.367   4.842
 2289SOL     OW 7765   0.460   4.439   2.342
 2289SOL    HW1 7766   0.374   4.396   2.314
 2289SOL    HW2 7767   0.495   4.495   2.267
 2290SOL     OW 7768   1.593   4.408   1.986
 2290SOL    HW1 7769   1.663   4.374   2.049
 2290SOL    HW2 7770   1.556   4.494   2.021
 2291SOL     OW 7771   2.420   2.239   6.545
 2291SOL    HW1 7772   2.512   2.200   6.536
 2291SOL    HW2 7773   2.352   2.170   6.521
 2292SOL     OW 7774   5.675   2.333   4.520
 2292SOL    HW1 7775   5.678   2.238   4.549
 2292SOL    HW2 7776   5.714   2.342   4.428
 2293SOL     OW 7777   5.235   6.748   1.264
 2293SOL    HW1 7778   5.304   6.713   1.327
 2293SOL    HW2 7779   5.151   6.694   1.272
 2294SOL     OW 7780   3.275   1.260   6.617
 2294SOL    HW1 7781   3.268   1.160   6.613
 2294SOL    HW2 7782   3.218   1.300   6.546
 2295SOL     OW 7783   0.512   1.856   2.800
 2295SOL    HW1 7784   0.479   1.776   2.750
 2295SOL    HW2 7785   0.557   1.825   2.885
 2296SOL     OW 7786   3.586   6.044   1.890
 2296SOL    HW1 7787   3.505   6.095   1.863
 2296SOL    HW2 7788   3.578   5.950   1.858
 2297SOL     OW 7789   4.664   4.403   5.505
 2297SOL    HW1 7790   4.702   4.328   5.451
 2297SOL    HW2 7791   4.595   4.451   5.451
 2298SOL     OW 7792   4.232   3.358   1.950
 2298SOL    HW1 7793   4.156   3.311   1.995
 2298SOL    HW2 7794   4.314   3.301   1.957
 2299SOL     OW 7795   4.815   4.950   4.880
 2299SOL    HW1 7796   4.732   5.002   4.900
 2299SOL    HW2 7797   4.818   4.870   4.939
 2300SOL     OW 7798   2.343   5.820   1.748
 2300SOL    HW1 7799   2.274   5.748   1.753
 2300SOL    HW2 7800   2.326   5.889   1.818
 2301SOL     OW 7801   3.459   2.956   2.402
 2301SOL    HW1 7802   3.450   3.053   2.427
 2301SOL    HW2 7803   3.382   2.905   2.441
 2302SOL     OW 7804   3.528   6.916   1.053
 2302SOL    HW1 7805   3.594   6.983   1.019
 2302SOL    HW2 7806   3.568   6.824   1.045
 2303SOL     OW 7807   2.082   3.480   6.443
 2303SOL    HW1 7808   1.991   3.446   6.466
 2303SOL    HW2 7809   2.147   3.404   6.444
 2304SOL     OW 7810   5.023   6.636   4.110
 2304SOL    HW1 7811   5.019   6.735   4.106
 2304SOL    HW2 7812   5.107   6.608   4.157
 2305SOL     OW 7813   2.046   6.972   2.381
 2305SOL    HW1 7814   2.099   6.899   2.424
 2305SOL    HW2 7815   1.952   6.940   2.365
 2306SOL     OW 7816   2.438   4.848   1.803
 2306SOL    HW1 7817   2.454   4.835   1.705
 2306SOL    HW2 7818   2.385   4.932   1.817
 2307SOL     OW 7819   6.516   3.831   3.882
 2307SOL    HW1 7820   6.531   3.744   3.928
 2307SOL    HW2 7821   6.420   3.858   3.892
 2308SOL     OW 7822   1.523   4.758   1.523
 2308SOL    HW1 7823   1.536   4.850   1.561
 2308SOL    HW2 7824   1.431   4.725   1.545
 2309SOL     OW 7825   1.169   0.843   6.385
 2309SOL    HW1 7826   1.201   0.759   6.340
 2309SOL    HW2 7827   1.222   0.921   6.352
 2310SOL     OW 7828   5.702   5.990   0.328
 2310SOL    HW1 7829   5.638   6.017   0.401
 2310SOL    HW2 7830   5.673   6.032   0.242
 2311SOL     OW 7831   1.984   6.914   1.203
 2311SOL    HW1 7832   1.955   6.923   1.298
 2311SOL    HW2 7833   2.081   6.891   1.199
 2312SOL     OW 7834   3.880   6.036   2.693
 2312SOL    HW1 7835   3.900   5.946   2.654
 2312SOL    HW2 7836   3.859   6.101   2.620
 2313SOL     OW 7837   6.154   5.819   1.430
 2313SOL    HW1 7838   6.212   5.737   1.425
 2313SOL    HW2 7839   6.064   5.799   1.391
 2314SOL     OW 7840   5.690   6.665   3.710
 2314SOL    HW1 7841   5.627   6.603   3.664
 2314SOL    HW2 7842   5.756   6.700   3.643
 2315SOL     OW 7843   4.958   3.211   6.307
 2315SOL    HW1 7844   4.903   3.227   6.388
 2315SOL    HW2 7845   4.914   3.142   6.249
 2316SOL     OW 7846   3.608   1.289   4.124
 2316SOL    HW1 7847   3.537   1.317   4.059
 2316SOL    HW2 7848   3.674   1.229   4.079
 2317SOL     OW 7849   0.583   6.616   3.027
 2317SOL    HW1 7850   0.665   6.655   2.986
 2317SOL    HW2 7851   0.565   6.527   2.986
 2318SOL     OW 7852   1.903   2.775   3.947
 2318SOL    HW1 7853   1.935   2.696   4.000
 2318SOL    HW2 7854   1.849   2.836   4.005
 2319SOL     OW 7855   1.909   4.843   3.960
 2319SOL    HW1 7856   1.949   4.846   3.869
 2319SOL    HW2 7857   1.982   4.835   4.028
 2320SOL     OW 7858   1.019   2.130   4.916
 2320SOL    HW1 7859   1.062   2.185   4.988
 2320SOL    HW2 7860   1.090   2.081   4.865
 2321SOL     OW 7861   2.384   0.403   6.941
 2321SOL    HW1 7862   2.420   0.490   6.906
 2321SOL    HW2 7863   2.401   0.331   6.874
 2322SOL     OW 7864   3.414   1.145   4.686
 2322SOL    HW1 7865   3.463   1.231   4.672
 2322SOL    HW2 7866   3.320   1.164   4.715
 2323SOL     OW 7867   2.590   5.069   1.531
 2323SOL    HW1 7868   2.583   4.970   1.550
 2323SOL    HW2 7869   2.498   5.106   1.516
 2324SOL     OW 7870   6.600   6.801   1.481
 2324SOL    HW1 7871   6.637   6.890   1.510
 2324SOL    HW2 7872   6.501   6.808   1.472
 2325SOL     OW 7873   1.517   4.845   2.389
 2325SOL    HW1 7874   1.567   4.873   2.471
 2325SOL    HW2 7875   1.537   4.750   2.368
 2326SOL     OW 7876   3.152   6.321   5.646
 2326SOL    HW1 7877   3.089   6.247   5.670
 2326SOL    HW2 7878   3.235   6.314   5.701
 2327SOL     OW 7879   6.285   2.999   4.437
 2327SOL    HW1 7880   6.210   2.975   4.498
 2327SOL    HW2 7881   6.308   2.921   4.379
 2328SOL     OW 7882   3.267   1.679   2.440
 2328SOL    HW1 7883   3.200   1.753   2.441
 2328SOL    HW2 7884   3.312   1.673   2.529
 2329SOL     OW 7885   1.690   3.833   5.039
 2329SOL    HW1 7886   1.687   3.877   5.128
 2329SOL    HW2 7887   1.768   3.770   5.036
 2330SOL     OW 7888   1.061   3.475   1.843
 2330SOL    HW1 7889   1.050   3.385   1.884
 2330SOL    HW2 7890   1.140   3.475   1.782
 2331SOL     OW 7891   5.682   5.051   1.101
 2331SOL    HW1 7892   5.621   5.129   1.117
 2331SOL    HW2 7893   5.670   4.984   1.174
 2332SOL     OW 7894   4.589   1.507   5.071
 2332SOL    HW1 7895   4.664   1.556   5.115
 2332SOL    HW2 7896   4.523   1.574   5.034
 2333SOL     OW 7897   0.400   5.417   2.978
 2333SOL    HW1 7898   0.430   5.370   2.895
 2333SOL    HW2 7899   0.367   5.509   2.955
 2334SOL     OW 7900   2.387   0.077   6.891
 2334SOL    HW1 7901   2.435   0.129   6.961
 2334SOL    HW2 7902   2.423   7.004   6.888
 2335SOL     OW 7903   6.133   1.464   2.723
 2335SOL    HW1 7904   6.105   1.455   2.819
 2335SOL    HW2 7905   6.226   1.429   2.712
 2336SOL     OW 7906   4.255   1.584   4.802
 2336SOL    HW1 7907   4.214   1.673   4.780
 2336SOL    HW2 7908   4.203   1.542   4.876
 2337SOL     OW 7909   4.249   1.196   3.289
 2337SOL    HW1 7910   4.344   1.214   3.314
 2337SOL    HW2 7911   4.235   1.097   3.280
 2338SOL     OW 7912   1.020   1.770   6.035
 2338SOL    HW1 7913   1.067   1.720   5.961
 2338SOL    HW2 7914   1.018   1.867   6.013
 2339SOL     OW 7915   4.046   3.930   4.724
 2339SOL    HW1 7916   4.052   3.875   4.807
 2339SOL    HW2 7917   4.104   4.011   4.734
 2340SOL     OW 7918   5.080   4.865   7.013
 2340SOL    HW1 7919   5.063   4.798   6.941
 2340SOL    HW2 7920   5.107   4.952   6.973
 2341SOL     OW 7921   5.621   4.246   1.169
 2341SOL    HW1 7922   5.627   4.153   1.203
 2341SOL    HW2 7923   5.669   4.253   1.081
 2342SOL     OW 7924   0.456   6.438   5.064
 2342SOL    HW1 7925   0.371   6.424   5.012
 2342SOL    HW2 7926   0.533   6.400   5.012
 2343SOL     OW 7927   1.530   6.131   2.396
 2343SOL    HW1 7928   1.627   6.118   2.419
 2343SOL    HW2 7929   1.504   6.069   2.322
 2344SOL     OW 7930   1.644   1.066   1.167
 2344SOL    HW1 7931   1.717   1.004   1.195
 2344SOL    HW2 7932   1.683   1.144   1.120
 2345SOL     OW 7933   3.159   5.240   5.722
 2345SOL    HW1 7934   3.133   5.232   5.819
 2345SOL    HW2 7935   3.217   5.320   5.709
 2346SOL     OW 7936   4.719   2.830   4.904
 2346SOL    HW1 7937   4.731   2.915   4.956
 2346SOL    HW2 7938   4.712   2.852   4.806
 2347SOL     OW 7939   2.481   3.292   1.682
 2347SOL    HW1 7940   2.440   3.364   1.738
 2347SOL    HW2 7941   2.411   3.250   1.624
 2348SOL     OW 7942   3.714   6.199   3.451
 2348SOL    HW1 7943   3.715   6.100   3.460
 2348SOL    HW2 7944   3.806   6.232   3.430
 2349SOL     OW 7945   0.357   4.729   6.041
 2349SOL    HW1 7946   0.288   4.764   5.978
 2349SOL    HW2 7947   0.446   4.768   6.018
 2350SOL     OW 7948   5.543   6.829   6.497
 2350SOL    HW1 7949   5.560   6.821   6.595
 2350SOL    HW2 7950   5.592   6.908   6.461
 2351SOL     OW 7951   3.315   5.091   2.346
 2351SOL    HW1 7952   3.230   5.104   2.294
 2351SOL    HW2 7953   3.320   5.158   2.419
 2352SOL     OW 7954   1.059   3.210   2.083
 2352SOL    HW1 7955   1.126   3.163   2.141
 2352SOL    HW2 7956   1.016   3.284   2.134
 2353SOL     OW 7957   3.135   4.592   5.406
 2353SOL    HW1 7958   3.045   4.576   5.365
 2353SOL    HW2 7959   3.192   4.510   5.395
 2354SOL     OW 7960   3.215   1.960   6.186
 2354SOL    HW1 7961   3.264   2.042   6.156
 2354SOL    HW2 7962   3.189   1.906   6.106
 2355SOL     OW 7963   1.550   5.555   6.355
 2355SOL    HW1 7964   1.575   5.604   6.439
 2355SOL    HW2 7965   1.468   5.500   6.372
 2356SOL     OW 7966   2.412   3.989   0.101
 2356SOL    HW1 7967   2.487   4.020   0.159
 2356SOL    HW2 7968   2.448   3.931   0.027
 2357SOL     OW 7969   4.314   5.180   3.804
 2357SOL    HW1 7970   4.347   5.101   3.751
 2357SOL    HW2 7971   4.266   5.147   3.885
 2358SOL     OW 7972   2.699   5.422   5.448
 2358SOL    HW1 7973   2.771   5.446   5.513
 2358SOL    HW2 7974   2.736   5.359   5.379
 2359SOL     OW 7975   0.147   0.761   5.610
 2359SOL    HW1 7976   0.221   0.760   5.543
 2359SOL    HW2 7977   0.185   0.770   5.702
 2360SOL     OW 7978   5.387   6.261   6.081
 2360SOL    HW1 7979   5.344   6.226   5.998
 2360SOL    HW2 7980   5.318   6.274   6.151
 2361SOL     OW 7981   3.002   0.498   5.198
 2361SOL    HW1 7982   3.006   0.561   5.120
 2361SOL    HW2 7983   3.005   0.551   5.283
 2362SOL     OW 7984   2.720   0.493   5.531
 2362SOL    HW1 7985   2.721   0.527   5.625
 2362SOL    HW2 7986   2.795   0.428   5.518
 2363SOL     OW 7987   4.065   2.739   5.619
 2363SOL    HW1 7988   4.138   2.688   5.665
 2363SOL    HW2 7989   3.988   2.750   5.681
 2364SOL     OW 7990   0.514   2.528   3.114
 2364SOL    HW1 7991   0.510   2.435   3.078
 2364SOL    HW2 7992   0.461   2.589   3.056
 2365SOL     OW 7993   6.342   2.348   6.204
 2365SOL    HW1 7994   6.423   2.387   6.159
 2365SOL    HW2 7995   6.372   2.298   6.285
 2366SOL     OW 7996   1.288   4.632   5.766
 2366SOL    HW1 7997   1.348   4.698   5.721
 2366SOL    HW2 7998   1.199   4.674   5.783
 2367SOL     OW 7999   3.795   3.627   6.981
 2367SOL    HW1 8000   3.812   3.642   6.883
 2367SOL    HW2 8001   3.727   3.693   7.013
 2368SOL     OW 8002   4.847   0.152   3.707
 2368SOL    HW1 8003   4.823   0.144   3.610
 2368SOL    HW2 8004   4.841   0.247   3.735
 2369SOL     OW 8005   1.821   2.728   5.066
 2369SOL    HW1 8006   1.893   2.738   5.135
 2369SOL    HW2 8007   1.856   2.756   4.977
 2370SOL     OW 8008   4.974   3.900   6.809
 2370SOL    HW1 8009   5.070   3.917   6.785
 2370SOL    HW2 8010   4.939   3.975   6.864
 2371SOL     OW 8011   1.235   6.024   1.435
 2371SOL    HW1 8012   1.237   5.947   1.498
 2371SOL    HW2 8013   1.258   5.992   1.343
 2372SOL     OW 8014   0.350   2.439   1.583
 2372SOL    HW1 8015   0.426   2.447   1.519
 2372SOL    HW2 8016   0.263   2.452   1.536
 2373SOL     OW 8017   6.679   6.959   0.364
 2373SOL    HW1 8018   6.643   0.016   0.312
 2373SOL    HW2 8019   6.773   6.978   0.392
 2374SOL     OW 8020   6.141   1.174   3.955
 2374SOL    HW1 8021   6.223   1.217   3.994
 2374SOL    HW2 8022   6.130   1.203   3.860
 2375SOL     OW 8023   2.306   6.693   4.723
 2375SOL    HW1 8024   2.307   6.636   4.641
 2375SOL    HW2 8025   2.322   6.788   4.697
 2376SOL     OW 8026   5.818   2.322   4.251
 2376SOL    HW1 8027   5.885   2.355   4.185
 2376SOL    HW2 8028   5.766   2.246   4.212
 2377SOL     OW 8029   3.382   4.127   3.361
 2377SOL    HW1 8030   3.416   4.035   3.381
 2377SOL    HW2 8031   3.376   4.139   3.262
 2378SOL     OW 8032   5.062   2.289   6.719
 2378SOL    HW1 8033   5.089   2.376   6.761
 2378SOL    HW2 8034   5.143   2.245   6.680
 2379SOL     OW 8035   6.416   1.638   6.517
 2379SOL    HW1 8036   6.355   1.570   6.477
 2379SOL    HW2 8037   6.366   1.724   6.529
 2380SOL     OW 8038   6.468   6.516   6.113
 2380SOL    HW1 8039   6.502   6.605   6.082
 2380SOL    HW2 8040   6.422   6.469   6.037
 2381SOL     OW 8041   2.186   4.261   3.940
 2381SOL    HW1 8042   2.110   4.326   3.940
 2381SOL    HW2 8043   2.199   4.224   3.847
 2382SOL     OW 8044   2.466   4.980   3.216
 2382SOL    HW1 8045   2.553   5.012   3.178
 2382SOL    HW2 8046   2.392   5.040   3.185
 2383SOL     OW 8047   5.048   5.979   0.012
 2383SOL    HW1 8048   5.131   6.012   0.058
 2383SOL    HW2 8049   5.071   5.899   6.977
 2384SOL     OW 8050   0.542   6.633   2.151
 2384SOL    HW1 8051   0.505   6.671   2.236
 2384SOL    HW2 8052   0.534   6.701   2.078
 2385SOL     OW 8053   6.341   6.727   1.525
 2385SOL    HW1 8054   6.294   6.639   1.512
 2385SOL    HW2 8055   6.276   6.802   1.512
 2386SOL     OW 8056   5.332   4.534   4.239
 2386SOL    HW1 8057   5.411   4.487   4.199
 2386SOL    HW2 8058   5.257   4.470   4.252
 2387SOL     OW 8059   0.142   1.845   3.635
 2387SOL    HW1 8060   0.215   1.913   3.627
 2387SOL    HW2 8061   0.088   1.845   3.551
 2388SOL     OW 8062   1.465   2.039   3.924
 2388SOL    HW1 8063   1.413   2.120   3.953
 2388SOL    HW2 8064   1.453   1.966   3.990
 2389SOL     OW 8065   5.520   3.264   3.818
 2389SOL    HW1 8066   5.485   3.300   3.732
 2389SOL    HW2 8067   5.608   3.218   3.802
 2390SOL     OW 8068   3.464   3.574   4.312
 2390SOL    HW1 8069   3.467   3.666   4.273
 2390SOL    HW2 8070   3.399   3.573   4.389
 2391SOL     OW 8071   4.667   4.472   5.765
 2391SOL    HW1 8072   4.756   4.507   5.791
 2391SOL    HW2 8073   4.666   4.453   5.667
 2392SOL     OW 8074   3.775   6.352   5.402
 2392SOL    HW1 8075   3.811   6.259   5.403
 2392SOL    HW2 8076   3.804   6.400   5.485
 2393SOL     OW 8077   3.875   5.301   0.819
 2393SOL    HW1 8078   3.810   5.228   0.801
 2393SOL    HW2 8079   3.840   5.387   0.781
 2394SOL     OW 8080   1.715   3.028   4.782
 2394SOL    HW1 8081   1.764   2.957   4.732
 2394SOL    HW2 8082   1.759   3.116   4.765
 2395SOL     OW 8083   6.096   2.726   0.156
 2395SOL    HW1 8084   6.150   2.646   0.181
 2395SOL    HW2 8085   6.131   2.764   0.070
 2396SOL     OW 8086   4.368   5.831   0.007
 2396SOL    HW1 8087   4.419   5.850   6.944
 2396SOL    HW2 8088   4.298   5.901   0.019
 2397SOL     OW 8089   0.021   3.529   0.539
 2397SOL    HW1 8090   6.944   3.537   0.560
 2397SOL    HW2 8091   0.062   3.620   0.535
 2398SOL     OW 8092   3.042   4.201   6.140
 2398SOL    HW1 8093   2.978   4.165   6.072
 2398SOL    HW2 8094   3.096   4.126   6.178
 2399SOL     OW 8095   4.723   1.084   2.398
 2399SOL    HW1 8096   4.725   1.031   2.313
 2399SOL    HW2 8097   4.630   1.114   2.416
 2400SOL     OW 8098   4.025   4.957   0.508
 2400SOL    HW1 8099   4.081   4.897   0.565
 2400SOL    HW2 8100   4.034   5.051   0.540
 2401SOL     OW 8101   4.052   0.781   6.261
 2401SOL    HW1 8102   4.031   0.855   6.197
 2401SOL    HW2 8103   4.135   0.803   6.313
 2402SOL     OW 8104   0.233   1.921   4.125
 2402SOL    HW1 8105   0.179   1.989   4.174
 2402SOL    HW2 8106   0.263   1.850   4.189
 2403SOL     OW 8107   2.916   2.814   0.258
 2403SOL    HW1 8108   2.836   2.833   0.314
 2403SOL    HW2 8109   2.943   2.898   0.209
 2404SOL     OW 8110   5.959   1.096   2.470
 2404SOL    HW1 8111   6.040   1.148   2.497
 2404SOL    HW2 8112   5.948   1.017   2.530
 2405SOL     OW 8113   3.301   3.560   3.757
 2405SOL    HW1 8114   3.240   3.590   3.683
 2405SOL    HW2 8115   3.318   3.462   3.747
 2406SOL     OW 8116   1.787   0.275   3.746
 2406SOL    HW1 8117   1.790   0.303   3.650
 2406SOL    HW2 8118   1.700   0.305   3.786
 2407SOL     OW 8119   4.820   2.968   2.814
 2407SOL    HW1 8120   4.771   2.970   2.901
 2407SOL    HW2 8121   4.786   2.892   2.758
 2408SOL     OW 8122   3.091   4.848   2.290
 2408SOL    HW1 8123   3.181   4.807   2.306
 2408SOL    HW2 8124   3.052   4.813   2.204
 2409SOL     OW 8125   1.740   2.310   2.064
 2409SOL    HW1 8126   1.711   2.327   2.158
 2409SOL    HW2 8127   1.828   2.261   2.065
 2410SOL     OW 8128   5.537   2.794   6.138
 2410SOL    HW1 8129   5.625   2.816   6.181
 2410SOL    HW2 8130   5.469   2.864   6.163
 2411SOL     OW 8131   4.382   5.479   5.403
 2411SOL    HW1 8132   4.296   5.429   5.399
 2411SOL    HW2 8133   4.409   5.507   5.311
 2412SOL     OW 8134   2.831   3.921   7.011
 2412SOL    HW1 8135   2.771   3.993   0.024
 2412SOL    HW2 8136   2.812   3.905   6.914
 2413SOL     OW 8137   6.485   2.823   6.931
 2413SOL    HW1 8138   6.570   2.816   6.879
 2413SOL    HW2 8139   6.506   2.825   0.008
 2414SOL     OW 8140   5.836   4.315   2.148
 2414SOL    HW1 8141   5.806   4.245   2.213
 2414SOL    HW2 8142   5.935   4.325   2.153
 2415SOL     OW 8143   0.544   0.002   1.098
 2415SOL    HW1 8144   0.463   7.001   1.045
 2415SOL    HW2 8145   0.543   6.970   1.183
 2416SOL     OW 8146   3.338   1.999   5.008
 2416SOL    HW1 8147   3.362   2.073   5.070
 2416SOL    HW2 8148   3.295   2.037   4.926
 2417SOL     OW 8149   4.131   2.580   6.719
 2417SOL    HW1 8150   4.200   2.652   6.718
 2417SOL    HW2 8151   4.176   2.490   6.715
 2418SOL     OW 8152   2.886   3.485   3.169
 2418SOL    HW1 8153   2.828   3.426   3.225
 2418SOL    HW2 8154   2.895   3.575   3.213
 2419SOL     OW 8155   0.738   6.337   3.597
 2419SOL    HW1 8156   0.714   6.286   3.514
 2419SOL    HW2 8157   0.720   6.435   3.582
 2420SOL     OW 8158   3.732   0.803   2.529
 2420SOL    HW1 8159   3.748   0.892   2.487
 2420SOL    HW2 8160   3.818   0.768   2.566
 2421SOL     OW 8161   2.687   1.056   5.061
 2421SOL    HW1 8162   2.774   1.103   5.081
 2421SOL    HW2 8163   2.705   0.960   5.040
 2422SOL     OW 8164   5.387   0.074   1.746
 2422SOL    HW1 8165   5.336   0.025   1.675
 2422SOL    HW2 8166   5.356   0.169   1.750
 2423SOL     OW 8167   1.689   5.766   3.565
 2423SOL    HW1 8168   1.699   5.725   3.656
 2423SOL    HW2 8169   1.647   5.701   3.503
 2424SOL     OW 8170   5.553   6.402   5.894
 2424SOL    HW1 8171   5.504   6.348   5.826
 2424SOL    HW2 8172   5.533   6.367   5.986
 2425SOL     OW 8173   6.133   0.281   4.410
 2425SOL    HW1 8174   6.195   0.309   4.483
 2425SOL    HW2 8175   6.046   0.327   4.419
 2426SOL     OW 8176   0.760   4.598   3.728
 2426SOL    HW1 8177   0.846   4.646   3.743
 2426SOL    HW2 8178   0.688   4.642   3.783
 2427SOL     OW 8179   6.391   5.373   6.504
 2427SOL    HW1 8180   6.323   5.445   6.493
 2427SOL    HW2 8181   6.347   5.290   6.536
 2428SOL     OW 8182   0.102   0.014   3.142
 2428SOL    HW1 8183   0.030   7.008   3.078
 2428SOL    HW2 8184   0.191   7.015   3.101
 2429SOL     OW 8185   6.489   6.048   4.332
 2429SOL    HW1 8186   6.438   6.021   4.251
 2429SOL    HW2 8187   6.492   5.972   4.397
 2430SOL     OW 8188   5.754   2.147   1.732
 2430SOL    HW1 8189   5.823   2.189   1.673
 2430SOL    HW2 8190   5.663   2.172   1.701
 2431SOL     OW 8191   3.829   0.213   1.744
 2431SOL    HW1 8192   3.828   0.234   1.842
 2431SOL    HW2 8193   3.740   0.235   1.704
 2432SOL     OW 8194   3.920   6.732   3.164
 2432SOL    HW1 8195   3.958   6.763   3.076
 2432SOL    HW2 8196   3.820   6.740   3.161
 2433SOL     OW 8197   2.889   6.670   1.000
 2433SOL    HW1 8198   2.870   6.617   1.084
 2433SOL    HW2 8199   2.908   6.765   1.025
 2434SOL     OW 8200   4.204   1.433   3.401
 2434SOL    HW1 8201   4.251   1.499   3.343
 2434SOL    HW2 8202   4.205   1.343   3.357
 2435SOL     OW 8203   4.733   5.795   5.850
 2435SOL    HW1 8204   4.804   5.770   5.784
 2435SOL    HW2 8205   4.643   5.771   5.813
 2436SOL     OW 8206   1.642   0.027   0.741
 2436SOL    HW1 8207   1.596   6.971   0.786
 2436SOL    HW2 8208   1.580   0.105   0.738
 2437SOL     OW 8209   3.815   5.550   0.709
 2437SOL    HW1 8210   3.766   5.593   0.634
 2437SOL    HW2 8211   3.912   5.542   0.686
 2438SOL     OW 8212   3.809   1.568   5.449
 2438SOL    HW1 8213   3.738   1.506   5.482
 2438SOL    HW2 8214   3.845   1.621   5.526
 2439SOL     OW 8215   1.498   4.417   0.105
 2439SOL    HW1 8216   1.485   4.380   0.013
 2439SOL    HW2 8217   1.528   4.345   0.167
 2440SOL     OW 8218   3.747   6.563   4.817
 2440SOL    HW1 8219   3.696   6.502   4.757
 2440SOL    HW2 8220   3.816   6.612   4.764
 2441SOL     OW 8221   5.876   0.916   6.973
 2441SOL    HW1 8222   5.895   0.834   0.007
 2441SOL    HW2 8223   5.850   0.888   6.880
 2442SOL     OW 8224   0.248   5.880   3.833
 2442SOL    HW1 8225   0.346   5.865   3.831
 2442SOL    HW2 8226   0.212   5.855   3.923
 2443SOL     OW 8227   3.440   6.832   6.430
 2443SOL    HW1 8228   3.378   6.899   6.469
 2443SOL    HW2 8229   3.485   6.780   6.503
 2444SOL     OW 8230   3.715   4.146   6.219
 2444SOL    HW1 8231   3.800   4.099   6.240
 2444SOL    HW2 8232   3.724   4.243   6.240
 2445SOL     OW 8233   6.916   1.155   2.349
 2445SOL    HW1 8234   6.936   1.116   2.439
 2445SOL    HW2 8235   6.827   1.122   2.318
 2446SOL     OW 8236   0.706   3.216   4.422
 2446SOL    HW1 8237   0.716   3.135   4.365
 2446SOL    HW2 8238   0.637   3.199   4.492
 2447SOL     OW 8239   2.354   1.247   1.022
 2447SOL    HW1 8240   2.355   1.183   1.100
 2447SOL    HW2 8241   2.411   1.210   0.949
 2448SOL     OW 8242   0.925   0.301   4.410
 2448SOL    HW1 8243   0.880   0.274   4.495
 2448SOL    HW2 8244   0.856   0.335   4.345
 2449SOL     OW 8245   0.158   3.892   2.205
 2449SOL    HW1 8246   0.109   3.961   2.152
 2449SOL    HW2 8247   0.209   3.936   2.278
 2450SOL     OW 8248   2.873   4.781   4.591
 2450SOL    HW1 8249   2.963   4.821   4.606
 2450SOL    HW2 8250   2.844   4.730   4.672
 2451SOL     OW 8251   0.142   0.015   4.151
 2451SOL    HW1 8252   0.095   0.075   4.086
 2451SOL    HW2 8253   0.173   0.069   4.229
 2452SOL     OW 8254   2.898   2.191   3.220
 2452SOL    HW1 8255   2.882   2.236   3.308
 2452SOL    HW2 8256   2.842   2.108   3.215
 2453SOL     OW 8257   6.762   3.508   0.621
 2453SOL    HW1 8258   6.696   3.571   0.664
 2453SOL    HW2 8259   6.736   3.414   0.640
 2454SOL     OW 8260   3.246   0.790   6.804
 2454SOL    HW1 8261   3.253   0.784   6.704
 2454SOL    HW2 8262   3.300   0.717   6.845
 2455SOL     OW 8263   5.345   0.266   1.018
 2455SOL    HW1 8264   5.441   0.238   1.015
 2455SOL    HW2 8265   5.331   0.342   0.955
 2456SOL     OW 8266   5.744   1.103   6.740
 2456SOL    HW1 8267   5.811   1.176   6.726
 2456SOL    HW2 8268   5.764   1.027   6.678
 2457SOL     OW 8269   6.292   6.043   6.539
 2457SOL    HW1 8270   6.248   6.001   6.619
 2457SOL    HW2 8271   6.222   6.063   6.470
 2458SOL     OW 8272   2.254   5.581   4.045
 2458SOL    HW1 8273   2.316   5.542   3.977
 2458SOL    HW2 8274   2.297   5.578   4.135
 2459SOL     OW 8275   2.724   6.239   0.189
 2459SOL    HW1 8276   2.644   6.194   0.148
 2459SOL    HW2 8277   2.742   6.325   0.142
 2460SOL     OW 8278   1.817   1.479   1.762
 2460SOL    HW1 8279   1.748   1.453   1.830
 2460SOL    HW2 8280   1.797   1.570   1.727
 2461SOL     OW 8281   4.512   0.213   2.939
 2461SOL    HW1 8282   4.548   0.190   2.848
 2461SOL    HW2 8283   4.463   0.134   2.976
 2462SOL     OW 8284   2.900   5.233   0.066
 2462SOL    HW1 8285   2.818   5.200   0.019
 2462SOL    HW2 8286   2.975   5.241   7.020
 2463SOL     OW 8287   6.219   2.559   4.404
 2463SOL    HW1 8288   6.248   2.481   4.349
 2463SOL    HW2 8289   6.165   2.527   4.481
 2464SOL     OW 8290   1.677   3.856   1.803
 2464SOL    HW1 8291   1.620   3.773   1.801
 2464SOL    HW2 8292   1.688   3.891   1.710
 2465SOL     OW 8293   0.865   7.006   1.836
 2465SOL    HW1 8294   0.904   7.010   1.744
 2465SOL    HW2 8295   0.835   0.076   1.864
 2466SOL     OW 8296   3.078   1.419   1.799
 2466SOL    HW1 8297   3.123   1.360   1.732
 2466SOL    HW2 8298   3.146   1.476   1.844
 2467SOL     OW 8299   5.757   1.501   5.210
 2467SOL    HW1 8300   5.690   1.428   5.205
 2467SOL    HW2 8301   5.831   1.484   5.145
 2468SOL     OW 8302   5.643   6.000   2.351
 2468SOL    HW1 8303   5.670   6.074   2.289
 2468SOL    HW2 8304   5.650   6.032   2.446
 2469SOL     OW 8305   3.925   4.502   5.272
 2469SOL    HW1 8306   3.876   4.425   5.231
 2469SOL    HW2 8307   4.023   4.489   5.257
 2470SOL     OW 8308   3.722   4.658   5.871
 2470SOL    HW1 8309   3.636   4.613   5.897
 2470SOL    HW2 8310   3.730   4.657   5.771
 2471SOL     OW 8311   2.101   6.274   0.531
 2471SOL    HW1 8312   2.062   6.359   0.494
 2471SOL    HW2 8313   2.201   6.280   0.531
 2472SOL     OW 8314   4.249   2.028   3.725
 2472SOL    HW1 8315   4.247   2.126   3.705
 2472SOL    HW2 8316   4.343   1.996   3.717
 2473SOL     OW 8317   1.966   3.982   5.181
 2473SOL    HW1 8318   2.031   4.058   5.185
 2473SOL    HW2 8319   1.987   3.925   5.102
 2474SOL     OW 8320   0.804   5.776   0.704
 2474SOL    HW1 8321   0.850   5.845   0.649
 2474SOL    HW2 8322   0.709   5.803   0.721
 2475SOL     OW 8323   5.231   0.944   1.056
 2475SOL    HW1 8324   5.156   0.962   0.992
 2475SOL    HW2 8325   5.209   0.982   1.145
 2476SOL     OW 8326   0.497   2.565   3.778
 2476SOL    HW1 8327   0.440   2.616   3.842
 2476SOL    HW2 8328   0.580   2.618   3.758
 2477SOL     OW 8329   5.559   1.018   2.457
 2477SOL    HW1 8330   5.536   1.067   2.542
 2477SOL    HW2 8331   5.558   0.919   2.474
 2478SOL     OW 8332   5.683   0.531   2.213
 2478SOL    HW1 8333   5.685   0.629   2.232
 2478SOL    HW2 8334   5.772   0.502   2.177
 2479SOL     OW 8335   1.396   3.872   1.464
 2479SOL    HW1 8336   1.454   3.796   1.433
 2479SOL    HW2 8337   1.307   3.837   1.492
 2480SOL     OW 8338   6.082   4.518   0.947
 2480SOL    HW1 8339   6.092   4.606   0.899
 2480SOL    HW2 8340   5.995   4.516   0.996
 2481SOL     OW 8341   2.585   0.281   0.351
 2481SOL    HW1 8342   2.539   0.269   0.439
 2481SOL    HW2 8343   2.641   0.364   0.355
 2482SOL     OW 8344   5.166   2.962   5.900
 2482SOL    HW1 8345   5.071   2.967   5.870
 2482SOL    HW2 8346   5.221   2.918   5.830
 2483SOL     OW 8347   2.229   1.306   6.923
 2483SOL    HW1 8348   2.270   1.319   7.013
 2483SOL    HW2 8349   2.299   1.278   6.858
 2484SOL     OW 8350   1.994   0.574   0.156
 2484SOL    HW1 8351   1.919   0.544   0.214
 2484SOL    HW2 8352   2.068   0.507   0.159
 2485SOL     OW 8353   4.801   4.583   2.168
 2485SOL    HW1 8354   4.719   4.535   2.197
 2485SOL    HW2 8355   4.839   4.634   2.246
 2486SOL     OW 8356   3.532   5.213   3.387
 2486SOL    HW1 8357   3.565   5.128   3.428
 2486SOL    HW2 8358   3.434   5.224   3.406
 2487SOL     OW 8359   3.922   5.537   6.740
 2487SOL    HW1 8360   3.949   5.624   6.700
 2487SOL    HW2 8361   4.001   5.476   6.746
 2488SOL     OW 8362   2.214   4.318   2.755
 2488SOL    HW1 8363   2.222   4.414   2.726
 2488SOL    HW2 8364   2.141   4.273   2.703
 2489SOL     OW 8365   2.356   5.787   3.823
 2489SOL    HW1 8366   2.376   5.707   3.879
 2489SOL    HW2 8367   2.436   5.847   3.821
 2490SOL     OW 8368   6.549   5.439   1.235
 2490SOL    HW1 8369   6.514   5.533   1.243
 2490SOL    HW2 8370   6.642   5.435   1.273
 2491SOL     OW 8371   2.370   6.136   1.087
 2491SOL    HW1 8372   2.338   6.215   1.138
 2491SOL    HW2 8373   2.463   6.153   1.053
 2492SOL     OW 8374   4.393   3.081   6.739
 2492SOL    HW1 8375   4.418   3.176   6.753
 2492SOL    HW2 8376   4.310   3.076   6.683
 2493SOL     OW 8377   5.795   0.063   2.847
 2493SOL    HW1 8378   5.794   0.018   2.758
 2493SOL    HW2 8379   5.834   0.154   2.838
 2494SOL     OW 8380   5.829   3.561   2.638
 2494SOL    HW1 8381   5.763   3.584   2.566
 2494SOL    HW2 8382   5.890   3.489   2.607
 2495SOL     OW 8383   5.124   0.304   4.784
 2495SOL    HW1 8384   5.134   0.205   4.785
 2495SOL    HW2 8385   5.073   0.334   4.865
 2496SOL     OW 8386   0.561   4.546   6.372
 2496SOL    HW1 8387   0.564   4.480   6.447
 2496SOL    HW2 8388   0.652   4.552   6.329
 2497SOL     OW 8389   0.479   1.248   1.118
 2497SOL    HW1 8390   0.479   1.348   1.114
 2497SOL    HW2 8391   0.572   1.214   1.109
 2498SOL     OW 8392   3.017   2.147   3.667
 2498SOL    HW1 8393   3.091   2.143   3.600
 2498SOL    HW2 8394   2.939   2.095   3.632
 2499SOL     OW 8395   4.718   2.048   4.104
 2499SOL    HW1 8396   4.715   1.986   4.183
 2499SOL    HW2 8397   4.625   2.079   4.083
 2500SOL     OW 8398   4.490   3.266   5.766
 2500SOL    HW1 8399   4.465   3.191   5.705
 2500SOL    HW2 8400   4.460   3.353   5.726
 2501SOL     OW 8401   0.312   6.122   7.014
 2501SOL    HW1 8402   0.308   6.023   0.005
 2501SOL    HW2 8403   0.318   6.144   6.917
 2502SOL     OW 8404   2.502   6.109   3.450
 2502SOL    HW1 8405   2.505   6.050   3.369
 2502SOL    HW2 8406   2.417   6.093   3.501
 2503SOL     OW 8407   3.620   5.423   6.016
 2503SOL    HW1 8408   3.556   5.364   5.968
 2503SOL    HW2 8409   3.576   5.511   6.035
 2504SOL     OW 8410   3.177   5.411   5.474
 2504SOL    HW1 8411   3.173   5.450   5.382
 2504SOL    HW2 8412   3.170   5.485   5.541
 2505SOL     OW 8413   1.634   6.164   4.233
 2505SOL    HW1 8414   1.543   6.126   4.214
 2505SOL    HW2 8415   1.647   6.170   4.332
 2506SOL     OW 8416   5.758   3.331   6.125
 2506SOL    HW1 8417   5.673   3.305   6.170
 2506SOL    HW2 8418   5.835   3.310   6.185
 2507SOL     OW 8419   0.076   3.795   0.587
 2507SOL    HW1 8420   0.159   3.819   0.536
 2507SOL    HW2 8421   7.019   3.847   0.551
 2508SOL     OW 8422   2.807   1.175   2.306
 2508SOL    HW1 8423   2.867   1.247   2.272
 2508SOL    HW2 8424   2.752   1.211   2.382
 2509SOL     OW 8425   5.845   2.969   3.070
 2509SOL    HW1 8426   5.785   2.925   3.004
 2509SOL    HW2 8427   5.802   2.967   3.161
 2510SOL     OW 8428   3.602   4.562   1.132
 2510SOL    HW1 8429   3.626   4.468   1.107
 2510SOL    HW2 8430   3.685   4.617   1.139
 2511SOL     OW 8431   2.264   2.230   4.342
 2511SOL    HW1 8432   2.196   2.284   4.292
 2511SOL    HW2 8433   2.306   2.164   4.280
 2512SOL     OW 8434   5.081   5.501   5.499
 2512SOL    HW1 8435   5.017   5.448   5.556
 2512SOL    HW2 8436   5.127   5.569   5.555
 2513SOL     OW 8437   1.105   2.971   5.375
 2513SOL    HW1 8438   1.090   2.905   5.302
 2513SOL    HW2 8439   1.019   3.019   5.396
 2514SOL     OW 8440   6.583   4.013   4.412
 2514SOL    HW1 8441   6.554   3.925   4.377
 2514SOL    HW2 8442   6.645   3.999   4.490
 2515SOL     OW 8443   1.455   0.211   0.650
 2515SOL    HW1 8444   1.424   0.245   0.738
 2515SOL    HW2 8445   1.388   0.148   0.612
 2516SOL     OW 8446   5.779   6.896   3.040
 2516SOL    HW1 8447   5.835   6.906   3.122
 2516SOL    HW2 8448   5.806   6.966   2.973
 2517SOL     OW 8449   1.696   5.628   5.413
 2517SOL    HW1 8450   1.601   5.658   5.424
 2517SOL    HW2 8451   1.704   5.572   5.331
 2518SOL     OW 8452   2.364   3.030   6.964
 2518SOL    HW1 8453   2.373   3.071   6.873
 2518SOL    HW2 8454   2.324   2.939   6.956
 2519SOL     OW 8455   4.965   5.255   4.502
 2519SOL    HW1 8456   4.939   5.339   4.550
 2519SOL    HW2 8457   4.914   5.178   4.540
 2520SOL     OW 8458   1.266   2.632   1.045
 2520SOL    HW1 8459   1.239   2.701   0.978
 2520SOL    HW2 8460   1.303   2.552   0.998
 2521SOL     OW 8461   0.915   6.266   5.542
 2521SOL    HW1 8462   0.977   6.325   5.593
 2521SOL    HW2 8463   0.921   6.172   5.577
 2522SOL     OW 8464   0.678   3.124   5.991
 2522SOL    HW1 8465   0.730   3.197   5.947
 2522SOL    HW2 8466   0.646   3.059   5.921
 2523SOL     OW 8467   0.508   3.356   1.124
 2523SOL    HW1 8468   0.564   3.409   1.060
 2523SOL    HW2 8469   0.537   3.260   1.122
 2524SOL     OW 8470   0.797   6.012   4.288
 2524SOL    HW1 8471   0.777   6.054   4.200
 2524SOL    HW2 8472   0.781   6.079   4.361
 2525SOL     OW 8473   1.307   2.359   4.802
 2525SOL    HW1 8474   1.366   2.431   4.838
 2525SOL    HW2 8475   1.213   2.374   4.834
 2526SOL     OW 8476   1.250   3.886   6.049
 2526SOL    HW1 8477   1.314   3.951   6.009
 2526SOL    HW2 8478   1.299   3.805   6.079
 2527SOL     OW 8479   4.650   0.181   4.893
 2527SOL    HW1 8480   4.679   0.233   4.813
 2527SOL    HW2 8481   4.731   0.140   4.937
 2528SOL     OW 8482   6.336   4.459   1.030
 2528SOL    HW1 8483   6.254   4.493   0.985
 2528SOL    HW2 8484   6.407   4.529   1.027
 2529SOL     OW 8485   6.069   5.916   5.963
 2529SOL    HW1 8486   6.067   5.860   6.046
 2529SOL    HW2 8487   6.008   5.876   5.895
 2530SOL     OW 8488   0.980   5.767   4.939
 2530SOL    HW1 8489   1.075   5.785   4.965
 2530SOL    HW2 8490   0.979   5.699   4.864
 2531SOL     OW 8491   5.595   5.607   4.329
 2531SOL    HW1 8492   5.538   5.669   4.383
 2531SOL    HW2 8493   5.633   5.536   4.388
 2532SOL     OW 8494   0.754   6.121   0.891
 2532SOL    HW1 8495   0.719   6.094   0.801
 2532SOL    HW2 8496   0.690   6.186   0.933
 2533SOL     OW 8497   4.752   6.421   3.753
 2533SOL    HW1 8498   4.834   6.409   3.810
 2533SOL    HW2 8499   4.683   6.472   3.805
 2534SOL     OW 8500   1.962   6.936   3.352
 2534SOL    HW1 8501   1.970   6.975   3.444
 2534SOL    HW2 8502   1.884   6.874   3.349
 2535SOL     OW 8503   2.431   2.549   6.933
 2535SOL    HW1 8504   2.412   2.483   6.860
 2535SOL    HW2 8505   2.517   2.596   6.914
 2536SOL     OW 8506   0.392   1.722   3.468
 2536SOL    HW1 8507   0.349   1.664   3.537
 2536SOL    HW2 8508   0.408   1.813   3.507
 2537SOL     OW 8509   5.621   5.665   6.908
 2537SOL    HW1 8510   5.546   5.714   6.865
 2537SOL    HW2 8511   5.625   5.688   7.006
 2538SOL     OW 8512   1.516   4.210   4.705
 2538SOL    HW1 8513   1.557   4.261   4.629
 2538SOL    HW2 8514   1.585   4.149   4.745
 2539SOL     OW 8515   4.484   0.162   6.071
 2539SOL    HW1 8516   4.431   0.227   6.016
 2539SOL    HW2 8517   4.471   0.070   6.036
 2540SOL     OW 8518   4.666   1.101   1.216
 2540SOL    HW1 8519   4.683   1.179   1.155
 2540SOL    HW2 8520   4.578   1.112   1.262
 2541SOL     OW 8521   1.450   0.527   5.965
 2541SOL    HW1 8522   1.542   0.498   5.991
 2541SOL    HW2 8523   1.384   0.490   6.031
 2542SOL     OW 8524   4.131   1.532   5.065
 2542SOL    HW1 8525   4.195   1.553   5.138
 2542SOL    HW2 8526   4.067   1.608   5.054
 2543SOL     OW 8527   2.125   0.885   2.865
 2543SOL    HW1 8528   2.148   0.807   2.807
 2543SOL    HW2 8529   2.086   0.958   2.809
 2544SOL     OW 8530   0.436   5.209   2.772
 2544SOL    HW1 8531   0.530   5.205   2.738
 2544SOL    HW2 8532   0.373   5.198   2.695
 2545SOL     OW 8533   1.321   0.757   1.298
 2545SOL    HW1 8534   1.399   0.785   1.242
 2545SOL    HW2 8535   1.246   0.729   1.239
 2546SOL     OW 8536   6.579   3.267   1.524
 2546SOL    HW1 8537   6.600   3.346   1.581
 2546SOL    HW2 8538   6.638   3.190   1.550
 2547SOL     OW 8539   5.225   5.459   6.677
 2547SOL    HW1 8540   5.227   5.548   6.632
 2547SOL    HW2 8541   5.311   5.411   6.658
 2548SOL     OW 8542   2.529   0.552   5.297
 2548SOL    HW1 8543   2.543   0.637   5.247
 2548SOL    HW2 8544   2.616   0.522   5.336
 2549SOL     OW 8545   2.440   1.714   2.064
 2549SOL    HW1 8546   2.481   1.786   2.121
 2549SOL    HW2 8547   2.341   1.726   2.062
 2550SOL     OW 8548   6.492   0.547   6.519
 2550SOL    HW1 8549   6.405   0.560   6.470
 2550SOL    HW2 8550   6.549   0.629   6.508
 2551SOL     OW 8551   3.125   5.170   0.307
 2551SOL    HW1 8552   3.060   5.238   0.340
 2551SOL    HW2 8553   3.168   5.124   0.385
 2552SOL     OW 8554   1.805   5.396   5.770
 2552SOL    HW1 8555   1.820   5.400   5.869
 2552SOL    HW2 8556   1.717   5.352   5.751
 2553SOL     OW 8557   3.215   3.295   6.434
 2553SOL    HW1 8558   3.124   3.268   6.400
 2553SOL    HW2 8559   3.238   3.386   6.400
 2554SOL     OW 8560   1.358   5.882   6.380
 2554SOL    HW1 8561   1.307   5.799   6.401
 2554SOL    HW2 8562   1.453   5.859   6.360
 2555SOL     OW 8563   6.058   6.454   6.540
 2555SOL    HW1 8564   6.077   6.478   6.444
 2555SOL    HW2 8565   6.140   6.416   6.581
 2556SOL     OW 8566   4.069   6.079   0.902
 2556SOL    HW1 8567   4.100   5.985   0.912
 2556SOL    HW2 8568   3.981   6.081   0.854
 2557SOL     OW 8569   2.466   1.770   6.588
 2557SOL    HW1 8570   2.426   1.685   6.554
 2557SOL    HW2 8571   2.397   1.842   6.588
 2558SOL     OW 8572   3.642   3.630   5.858
 2558SOL    HW1 8573   3.717   3.689   5.826
 2558SOL    HW2 8574   3.572   3.624   5.787
 2559SOL     OW 8575   6.598   3.289   4.267
 2559SOL    HW1 8576   6.527   3.260   4.331
 2559SOL    HW2 8577   6.581   3.248   4.177
 2560SOL     OW 8578   4.940   3.381   4.201
 2560SOL    HW1 8579   4.931   3.396   4.103
 2560SOL    HW2 8580   4.927   3.284   4.222
 2561SOL     OW 8581   3.563   0.550   3.165
 2561SOL    HW1 8582   3.486   0.577   3.222
 2561SOL    HW2 8583   3.531   0.526   3.073
 2562SOL     OW 8584   2.241   5.356   2.711
 2562SOL    HW1 8585   2.149   5.318   2.721
 2562SOL    HW2 8586   2.243   5.449   2.747
 2563SOL     OW 8587   4.105   1.636   6.619
 2563SOL    HW1 8588   4.072   1.715   6.568
 2563SOL    HW2 8589   4.030   1.572   6.635
 2564SOL     OW 8590   1.060   6.642   6.226
 2564SOL    HW1 8591   1.098   6.555   6.257
 2564SOL    HW2 8592   1.133   6.701   6.194
 2565SOL     OW 8593   6.936   0.783   0.867
 2565SOL    HW1 8594   6.960   0.876   0.894
 2565SOL    HW2 8595   6.909   0.782   0.771
 2566SOL     OW 8596   1.131   6.610   0.538
 2566SOL    HW1 8597   1.128   6.690   0.478
 2566SOL    HW2 8598   1.150   6.640   0.632
 2567SOL     OW 8599   1.484   0.896   2.111
 2567SOL    HW1 8600   1.413   0.837   2.149
 2567SOL    HW2 8601   1.559   0.903   2.176
 2568SOL     OW 8602   2.766   0.506   0.383
 2568SOL    HW1 8603   2.749   0.571   0.309
 2568SOL    HW2 8604   2.849   0.455   0.364
 2569SOL     OW 8605   2.281   1.244   2.373
 2569SOL    HW1 8606   2.263   1.301   2.453
 2569SOL    HW2 8607   2.345   1.171   2.397
 2570SOL     OW 8608   5.686   0.254   6.448
 2570SOL    HW1 8609   5.782   0.253   6.475
 2570SOL    HW2 8610   5.633   0.311   6.510
 2571SOL     OW 8611   2.958   3.253   4.178
 2571SOL    HW1 8612   2.861   3.276   4.187
 2571SOL    HW2 8613   2.993   3.220   4.266
 2572SOL     OW 8614   1.503   6.759   1.820
 2572SOL    HW1 8615   1.432   6.722   1.760
 2572SOL    HW2 8616   1.522   6.854   1.794
 2573SOL     OW 8617   6.656   1.384   2.106
 2573SOL    HW1 8618   6.661   1.407   2.008
 2573SOL    HW2 8619   6.739   1.416   2.152
 2574SOL     OW 8620   0.087   3.165   0.077
 2574SOL    HW1 8621   0.106   3.068   0.060
 2574SOL    HW2 8622   0.133   3.194   0.161
 2575SOL     OW 8623   4.739   4.082   0.917
 2575SOL    HW1 8624   4.753   4.000   0.862
 2575SOL    HW2 8625   4.642   4.106   0.918
 2576SOL     OW 8626   3.670   0.158   3.885
 2576SOL    HW1 8627   3.638   0.136   3.793
 2576SOL    HW2 8628   3.748   0.099   3.908
 2577SOL     OW 8629   4.334   7.017   2.595
 2577SOL    HW1 8630   4.356   6.942   2.657
 2577SOL    HW2 8631   4.411   0.013   2.534
 2578SOL     OW 8632   4.572   3.048   5.519
 2578SOL    HW1 8633   4.650   3.090   5.565
 2578SOL    HW2 8634   4.604   2.970   5.464
 2579SOL     OW 8635   0.925   1.163   4.245
 2579SOL    HW1 8636   0.990   1.100   4.287
 2579SOL    HW2 8637   0.834   1.120   4.243
 2580SOL     OW 8638   1.743   2.947   6.290
 2580SOL    HW1 8639   1.693   2.975   6.372
 2580SOL    HW2 8640   1.679   2.915   6.220
 2581SOL     OW 8641   6.508   4.758   1.762
 2581SOL    HW1 8642   6.438   4.723   1.824
 2581SOL    HW2 8643   6.467   4.779   1.673
 2582SOL     OW 8644   1.375   4.074   2.849
 2582SOL    HW1 8645   1.363   3.988   2.800
 2582SOL    HW2 8646   1.286   4.110   2.877
 2583SOL     OW 8647   1.099   1.534   1.274
 2583SOL    HW1 8648   1.000   1.546   1.266
 2583SOL    HW2 8649   1.120   1.483   1.357
 2584SOL     OW 8650   3.210   5.537   0.375
 2584SOL    HW1 8651   3.161   5.518   0.460
 2584SOL    HW2 8652   3.296   5.486   0.373
 2585SOL     OW 8653   3.302   0.543   0.263
 2585SOL    HW1 8654   3.346   0.629   0.236
 2585SOL    HW2 8655   3.329   0.471   0.199
 2586SOL     OW 8656   4.729   1.745   3.707
 2586SOL    HW1 8657   4.809   1.766   3.762
 2586SOL    HW2 8658   4.706   1.648   3.717
 2587SOL     OW 8659   6.580   1.030   4.280
 2587SOL    HW1 8660   6.544   0.964   4.214
 2587SOL    HW2 8661   6.581   1.121   4.239
 2588SOL     OW 8662   4.666   6.957   0.527
 2588SOL    HW1 8663   4.578   6.994   0.557
 2588SOL    HW2 8664   4.684   6.871   0.573
 2589SOL     OW 8665   0.243   6.155   5.198
 2589SOL    HW1 8666   0.155   6.203   5.204
 2589SOL    HW2 8667   0.264   6.113   5.287
 2590SOL     OW 8668   3.340   6.430   1.997
 2590SOL    HW1 8669   3.347   6.417   2.096
 2590SOL    HW2 8670   3.318   6.526   1.977
 2591SOL     OW 8671   6.298   6.179   2.533
 2591SOL    HW1 8672   6.314   6.238   2.455
 2591SOL    HW2 8673   6.204   6.142   2.529
 2592SOL     OW 8674   2.245   6.833   1.204
 2592SOL    HW1 8675   2.325   6.783   1.238
 2592SOL    HW2 8676   2.275   6.921   1.166
 2593SOL     OW 8677   3.322   6.319   1.631
 2593SOL    HW1 8678   3.324   6.363   1.541
 2593SOL    HW2 8679   3.395   6.356   1.688
 2594SOL     OW 8680   0.176   6.457   5.936
 2594SOL    HW1 8681   0.209   6.491   5.848
 2594SOL    HW2 8682   0.080   6.484   5.948
 2595SOL     OW 8683   6.367   1.803   5.472
 2595SOL    HW1 8684   6.364   1.705   5.491
 2595SOL    HW2 8685   6.275   1.842   5.482
 2596SOL     OW 8686   3.890   2.117   1.856
 2596SOL    HW1 8687   3.900   2.061   1.939
 2596SOL    HW2 8688   3.810   2.175   1.865
 2597SOL     OW 8689   1.786   3.727   6.908
 2597SOL    HW1 8690   1.789   3.667   6.828
 2597SOL    HW2 8691   1.705   3.705   6.962
 2598SOL     OW 8692   6.464   1.270   4.700
 2598SOL    HW1 8693   6.446   1.188   4.645
 2598SOL    HW2 8694   6.563   1.279   4.713
 2599SOL     OW 8695   2.600   0.803   0.648
 2599SOL    HW1 8696   2.557   0.874   0.704
 2599SOL    HW2 8697   2.666   0.752   0.704
 2600SOL     OW 8698   4.851   3.525   4.592
 2600SOL    HW1 8699   4.827   3.621   4.601
 2600SOL    HW2 8700   4.877   3.488   4.682
 2601SOL     OW 8701   2.891   1.689   6.744
 2601SOL    HW1 8702   2.934   1.743   6.671
 2601SOL    HW2 8703   2.792   1.702   6.741
 2602SOL     OW 8704   6.616   4.936   3.867
 2602SOL    HW1 8705   6.714   4.952   3.872
 2602SOL    HW2 8706   6.585   4.941   3.772
 2603SOL     OW 8707   2.128   2.518   1.804
 2603SOL    HW1 8708   2.151   2.569   1.722
 2603SOL    HW2 8709   2.170   2.428   1.801
 2604SOL     OW 8710   5.142   1.070   2.771
 2604SOL    HW1 8711   5.149   1.152   2.828
 2604SOL    HW2 8712   5.084   1.089   2.691
 2605SOL     OW 8713   3.255   5.027   3.359
 2605SOL    HW1 8714   3.238   5.120   3.325
 2605SOL    HW2 8715   3.336   4.989   3.314
 2606SOL     OW 8716   0.403   4.683   1.114
 2606SOL    HW1 8717   0.361   4.663   1.202
 2606SOL    HW2 8718   0.332   4.684   1.043
 2607SOL     OW 8719   0.561   1.594   5.764
 2607SOL    HW1 8720   0.461   1.601   5.758
 2607SOL    HW2 8721   0.588   1.593   5.861
 2608SOL     OW 8722   4.010   5.405   2.445
 2608SOL    HW1 8723   3.949   5.421   2.522
 2608SOL    HW2 8724   4.012   5.307   2.423
 2609SOL     OW 8725   0.629   2.363   1.804
 2609SOL    HW1 8726   0.657   2.459   1.800
 2609SOL    HW2 8727   0.531   2.358   1.819
 2610SOL     OW 8728   6.819   4.700   4.365
 2610SOL    HW1 8729   6.782   4.608   4.380
 2610SOL    HW2 8730   6.912   4.705   4.400
 2611SOL     OW 8731   5.532   6.719   1.664
 2611SOL    HW1 8732   5.604   6.650   1.659
 2611SOL    HW2 8733   5.551   6.783   1.739
 2612SOL     OW 8734   6.653   6.723   6.029
 2612SOL    HW1 8735   6.742   6.725   6.073
 2612SOL    HW2 8736   6.614   6.816   6.028
 2613SOL     OW 8737   2.647   6.481   1.157
 2613SOL    HW1 8738   2.618   6.393   1.194
 2613SOL    HW2 8739   2.735   6.507   1.197
 2614SOL     OW 8740   6.665   0.095   6.013
 2614SOL    HW1 8741   6.598   0.094   6.087
 2614SOL    HW2 8742   6.746   0.044   6.042
 2615SOL     OW 8743   6.178   3.779   2.868
 2615SOL    HW1 8744   6.114   3.767   2.792
 2615SOL    HW2 8745   6.206   3.874   2.874
 2616SOL     OW 8746   3.638   3.490   3.605
 2616SOL    HW1 8747   3.660   3.516   3.699
 2616SOL    HW2 8748   3.595   3.400   3.604
 2617SOL     OW 8749   3.835   6.414   1.116
 2617SOL    HW1 8750   3.932   6.397   1.133
 2617SOL    HW2 8751   3.809   6.502   1.157
 2618SOL     OW 8752   6.834   6.938   4.178
 2618SOL    HW1 8753   6.897   6.983   4.115
 2618SOL    HW2 8754   6.867   6.951   4.272
 2619SOL     OW 8755   3.368   1.418   3.318
 2619SOL    HW1 8756   3.441   1.386   3.379
 2619SOL    HW2 8757   3.341   1.510   3.343
 2620SOL     OW 8758   0.752   6.291   3.136
 2620SOL    HW1 8759   0.830   6.350   3.112
 2620SOL    HW2 8760   0.747   6.215   3.071
 2621SOL     OW 8761   1.647   5.476   2.393
 2621SOL    HW1 8762   1.670   5.419   2.314
 2621SOL    HW2 8763   1.710   5.456   2.468
 2622SOL     OW 8764   2.711   1.763   6.462
 2622SOL    HW1 8765   2.741   1.831   6.394
 2622SOL    HW2 8766   2.619   1.787   6.494
 2623SOL     OW 8767   3.537   1.820   5.202
 2623SOL    HW1 8768   3.458   1.766   5.174
 2623SOL    HW2 8769   3.536   1.908   5.153
 2624SOL     OW 8770   6.794   2.924   5.354
 2624SOL    HW1 8771   6.712   2.880   5.390
 2624SOL    HW2 8772   6.852   2.856   5.309
 2625SOL     OW 8773   3.071   2.289   5.718
 2625SOL    HW1 8774   3.066   2.222   5.792
 2625SOL    HW2 8775   2.984   2.289   5.668
 2626SOL     OW 8776   0.296   0.631   5.184
 2626SOL    HW1 8777   0.197   0.631   5.196
 2626SOL    HW2 8778   0.326   0.538   5.163
 2627SOL     OW 8779   0.865   0.864   4.987
 2627SOL    HW1 8780   0.793   0.801   5.015
 2627SOL    HW2 8781   0.941   0.858   5.051
 2628SOL     OW 8782   2.056   4.558   6.540
 2628SOL    HW1 8783   2.030   4.655   6.539
 2628SOL    HW2 8784   2.073   4.529   6.634
 2629SOL     OW 8785   3.466   4.239   1.820
 2629SOL    HW1 8786   3.451   4.310   1.889
 2629SOL    HW2 8787   3.400   4.165   1.833
 2630SOL     OW 8788   3.247   1.582   3.763
 2630SOL    HW1 8789   3.205   1.666   3.729
 2630SOL    HW2 8790   3.329   1.606   3.816
 2631SOL     OW 8791   5.064   0.486   4.275
 2631SOL    HW1 8792   4.977   0.522   4.310
 2631SOL    HW2 8793   5.046   0.409   4.214
 2632SOL     OW 8794   2.669   2.103   6.533
 2632SOL    HW1 8795   2.714   2.102   6.622
 2632SOL    HW2 8796   2.726   2.153   6.467
 2633SOL     OW 8797   6.417   1.536   5.527
 2633SOL    HW1 8798   6.507   1.558   5.487
 2633SOL    HW2 8799   6.376   1.459   5.478
 2634SOL     OW 8800   1.334   4.181   3.121
 2634SOL    HW1 8801   1.367   4.102   3.174
 2634SOL    HW2 8802   1.337   4.159   3.024
 2635SOL     OW 8803   6.067   5.886   5.263
 2635SOL    HW1 8804   5.979   5.929   5.284
 2635SOL    HW2 8805   6.119   5.874   5.348
 2636SOL     OW 8806   4.968   0.241   5.396
 2636SOL    HW1 8807   5.033   0.283   5.459
 2636SOL    HW2 8808   4.930   0.311   5.335
 2637SOL     OW 8809   5.802   1.634   3.730
 2637SOL    HW1 8810   5.803   1.547   3.779
 2637SOL    HW2 8811   5.747   1.624   3.647
 2638SOL     OW 8812   6.649   6.891   2.829
 2638SOL    HW1 8813   6.692   6.908   2.740
 2638SOL    HW2 8814   6.691   6.949   2.899
 2639SOL     OW 8815   0.775   0.198   2.036
 2639SOL    HW1 8816   0.869   0.217   2.063
 2639SOL    HW2 8817   0.738   0.275   1.984
 2640SOL     OW 8818   0.179   6.332   4.580
 2640SOL    HW1 8819   0.257   6.383   4.545
 2640SOL    HW2 8820   0.157   6.257   4.517
 2641SOL     OW 8821   4.939   2.978   1.828
 2641SOL    HW1 8822   4.878   2.991   1.906
 2641SOL    HW2 8823   4.884   2.971   1.744
 2642SOL     OW 8824   4.236   6.975   4.313
 2642SOL    HW1 8825   4.176   0.034   4.302
 2642SOL    HW2 8826   4.240   6.924   4.227
 2643SOL     OW 8827   0.830   3.996   2.295
 2643SOL    HW1 8828   0.760   3.939   2.252
 2643SOL    HW2 8829   0.808   4.092   2.282
 2644SOL     OW 8830   6.235   6.122   6.043
 2644SOL    HW1 8831   6.155   6.068   6.019
 2644SOL    HW2 8832   6.318   6.069   6.028
 2645SOL     OW 8833   4.569   5.502   3.996
 2645SOL    HW1 8834   4.579   5.405   4.018
 2645SOL    HW2 8835   4.534   5.512   3.903
 2646SOL     OW 8836   5.921   6.932   6.907
 2646SOL    HW1 8837   5.951   6.953   7.000
 2646SOL    HW2 8838   5.989   6.873   6.862
 2647SOL     OW 8839   6.528   0.823   2.237
 2647SOL    HW1 8840   6.589   0.743   2.244
 2647SOL    HW2 8841   6.467   0.811   2.159
 2648SOL     OW 8842   0.110   0.018   3.426
 2648SOL    HW1 8843   0.117   0.022   3.327
 2648SOL    HW2 8844   0.013   0.010   3.452
 2649SOL     OW 8845   5.745   3.599   6.386
 2649SOL    HW1 8846   5.806   3.598   6.307
 2649SOL    HW2 8847   5.799   3.609   6.470
 2650SOL     OW 8848   0.313   3.842   4.566
 2650SOL    HW1 8849   0.329   3.795   4.479
 2650SOL    HW2 8850   0.239   3.909   4.553
 2651SOL     OW 8851   6.948   2.261   6.909
 2651SOL    HW1 8852   7.013   2.185   6.900
 2651SOL    HW2 8853   6.923   2.272   7.005
 2652SOL     OW 8854   3.387   3.807   4.025
 2652SOL    HW1 8855   3.407   3.735   3.959
 2652SOL    HW2 8856   3.299   3.849   4.002
 2653SOL     OW 8857   5.429   0.339   5.714
 2653SOL    HW1 8858   5.368   0.412   5.743
 2653SOL    HW2 8859   5.491   0.315   5.789
 2654SOL     OW 8860   5.190   5.212   0.876
 2654SOL    HW1 8861   5.095   5.201   0.904
 2654SOL    HW2 8862   5.204   5.171   0.786
 2655SOL     OW 8863   4.957   4.824   4.318
 2655SOL    HW1 8864   4.983   4.754   4.384
 2655SOL    HW2 8865   4.955   4.784   4.226
 2656SOL     OW 8866   3.662   5.015   4.167
 2656SOL    HW1 8867   3.580   5.030   4.223
 2656SOL    HW2 8868   3.732   4.970   4.222
 2657SOL     OW 8869   2.066   4.128   6.554
 2657SOL    HW1 8870   2.094   4.210   6.505
 2657SOL    HW2 8871   2.089   4.047   6.500
 2658SOL     OW 8872   4.919   4.546   0.251
 2658SOL    HW1 8873   4.894   4.636   0.216
 2658SOL    HW2 8874   4.990   4.505   0.193
 2659SOL     OW 8875   6.497   2.727   4.780
 2659SOL    HW1 8876   6.544   2.691   4.699
 2659SOL    HW2 8877   6.471   2.651   4.840
 2660SOL     OW 8878   0.483   1.522   1.099
 2660SOL    HW1 8879   0.414   1.594   1.100
 2660SOL    HW2 8880   0.556   1.546   1.035
 2661SOL     OW 8881   2.087   6.534   0.885
 2661SOL    HW1 8882   2.150   6.608   0.864
 2661SOL    HW2 8883   2.125   6.447   0.853
 2662SOL     OW 8884   4.580   0.271   5.333
 2662SOL    HW1 8885   4.498   0.261   5.277
 2662SOL    HW2 8886   4.585   0.197   5.400
 2663SOL     OW 8887   2.606   4.075   0.814
 2663SOL    HW1 8888   2.525   4.132   0.810
 2663SOL    HW2 8889   2.589   3.989   0.765
 2664SOL     OW 8890   4.078   3.788   4.983
 2664SOL    HW1 8891   4.034   3.699   4.979
 2664SOL    HW2 8892   4.146   3.790   5.056
 2665SOL     OW 8893   2.673   2.387   4.873
 2665SOL    HW1 8894   2.587   2.351   4.909
 2665SOL    HW2 8895   2.717   2.317   4.816
 2666SOL     OW 8896   5.143   3.778   1.539
 2666SOL    HW1 8897   5.218   3.842   1.559
 2666SOL    HW2 8898   5.177   3.684   1.548
 2667SOL     OW 8899   1.831   6.073   4.044
 2667SOL    HW1 8900   1.902   6.034   4.103
 2667SOL    HW2 8901   1.746   6.081   4.096
 2668SOL     OW 8902   6.026   3.392   4.310
 2668SOL    HW1 8903   5.999   3.350   4.223
 2668SOL    HW2 8904   5.956   3.457   4.339
 2669SOL     OW 8905   2.864   4.690   5.385
 2669SOL    HW1 8906   2.797   4.661   5.453
 2669SOL    HW2 8907   2.861   4.627   5.307
 2670SOL     OW 8908   5.459   2.492   6.649
 2670SOL    HW1 8909   5.550   2.450   6.650
 2670SOL    HW2 8910   5.412   2.471   6.735
 2671SOL     OW 8911   3.743   5.194   6.660
 2671SOL    HW1 8912   3.650   5.170   6.687
 2671SOL    HW2 8913   3.744   5.219   6.563
 2672SOL     OW 8914   0.075   4.936   0.610
 2672SOL    HW1 8915   0.164   4.956   0.653
 2672SOL    HW2 8916   0.055   5.005   0.542
 2673SOL     OW 8917   6.032   1.737   4.340
 2673SOL    HW1 8918   5.950   1.685   4.318
 2673SOL    HW2 8919   6.058   1.794   4.263
 2674SOL     OW 8920   1.617   4.084   3.756
 2674SOL    HW1 8921   1.610   4.075   3.855
 2674SOL    HW2 8922   1.528   4.064   3.715
 2675SOL     OW 8923   6.497   5.288   4.742
 2675SOL    HW1 8924   6.494   5.275   4.643
 2675SOL    HW2 8925   6.412   5.254   4.783
 2676SOL     OW 8926   4.468   1.779   1.319
 2676SOL    HW1 8927   4.507   1.788   1.410
 2676SOL    HW2 8928   4.458   1.869   1.277
 2677SOL     OW 8929   3.176   3.984   0.151
 2677SOL    HW1 8930   3.182   3.960   0.054
 2677SOL    HW2 8931   3.079   3.996   0.176
 2678SOL     OW 8932   6.663   3.892   1.396
 2678SOL    HW1 8933   6.630   3.980   1.361
 2678SOL    HW2 8934   6.707   3.906   1.485
 2679SOL     OW 8935   3.298   5.475   1.070
 2679SOL    HW1 8936   3.290   5.545   1.141
 2679SOL    HW2 8937   3.228   5.405   1.083
 2680SOL     OW 8938   0.570   1.491   0.378
 2680SOL    HW1 8939   0.647   1.538   0.334
 2680SOL    HW2 8940   0.484   1.527   0.340
 2681SOL     OW 8941   1.387   2.300   4.539
 2681SOL    HW1 8942   1.452   2.225   4.544
 2681SOL    HW2 8943   1.379   2.342   4.630
 2682SOL     OW 8944   5.628   4.377   2.493
 2682SOL    HW1 8945   5.570   4.309   2.539
 2682SOL    HW2 8946   5.683   4.332   2.423
 2683SOL     OW 8947   2.704   3.365   0.711
 2683SOL    HW1 8948   2.619   3.371   0.659
 2683SOL    HW2 8949   2.775   3.418   0.664
 2684SOL     OW 8950   4.606   6.098   1.286
 2684SOL    HW1 8951   4.537   6.155   1.241
 2684SOL    HW2 8952   4.683   6.084   1.224
 2685SOL     OW 8953   6.199   5.944   6.787
 2685SOL    HW1 8954   6.134   5.872   6.764
 2685SOL    HW2 8955   6.187   5.971   6.883
 2686SOL     OW 8956   1.673   1.799   5.481
 2686SOL    HW1 8957   1.715   1.712   5.456
 2686SOL    HW2 8958   1.634   1.793   5.572
 2687SOL     OW 8959   4.420   4.570   2.369
 2687SOL    HW1 8960   4.334   4.577   2.320
 2687SOL    HW2 8961   4.481   4.506   2.322
 2688SOL     OW 8962   4.739   5.094   0.081
 2688SOL    HW1 8963   4.680   5.013   0.086
 2688SOL    HW2 8964   4.812   5.085   0.149
 2689SOL     OW 8965   1.279   3.586   3.636
 2689SOL    HW1 8966   1.294   3.500   3.588
 2689SOL    HW2 8967   1.192   3.626   3.606
 2690SOL     OW 8968   3.451   3.375   4.095
 2690SOL    HW1 8969   3.471   3.398   4.190
 2690SOL    HW2 8970   3.471   3.279   4.079
 2691SOL     OW 8971   1.308   5.292   2.314
 2691SOL    HW1 8972   1.330   5.370   2.372
 2691SOL    HW2 8973   1.210   5.287   2.300
 2692SOL     OW 8974   3.660   4.920   3.168
 2692SOL    HW1 8975   3.577   4.965   3.135
 2692SOL    HW2 8976   3.723   4.906   3.091
 2693SOL     OW 8977   1.126   4.190   2.846
 2693SOL    HW1 8978   1.045   4.213   2.900
 2693SOL    HW2 8979   1.101   4.119   2.779
 2694SOL     OW 8980   4.683   6.753   2.865
 2694SOL    HW1 8981   4.723   6.736   2.955
 2694SOL    HW2 8982   4.656   6.666   2.824
 2695SOL     OW 8983   4.409   0.685   2.652
 2695SOL    HW1 8984   4.366   0.604   2.692
 2695SOL    HW2 8985   4.416   0.757   2.721
 2696SOL     OW 8986   3.898   3.493   5.271
 2696SOL    HW1 8987   3.826   3.512   5.337
 2696SOL    HW2 8988   3.956   3.419   5.305
 2697SOL     OW 8989   3.437   1.437   2.401
 2697SOL    HW1 8990   3.463   1.367   2.335
 2697SOL    HW2 8991   3.370   1.499   2.359
 2698SOL     OW 8992   1.801   5.952   0.572
 2698SOL    HW1 8993   1.765   5.871   0.525
 2698SOL    HW2 8994   1.769   6.034   0.525
 2699SOL     OW 8995   3.191   6.558   0.377
 2699SOL    HW1 8996   3.105   6.546   0.426
 2699SOL    HW2 8997   3.199   6.489   0.306
 2700SOL     OW 8998   1.973   3.870   0.280
 2700SOL    HW1 8999   1.952   3.954   0.330
 2700SOL    HW2 9000   1.908   3.799   0.306
 2701SOL     OW 9001   4.225   1.017   6.333
 2701SOL    HW1 9002   4.271   0.931   6.354
 2701SOL    HW2 9003   4.292   1.086   6.306
 2702SOL     OW 9004   0.364   2.906   3.643
 2702SOL    HW1 9005   0.414   2.957   3.713
 2702SOL    HW2 9006   0.268   2.936   3.643
 2703SOL     OW 9007   1.908   0.479   2.537
 2703SOL    HW1 9008   1.886   0.469   2.634
 2703SOL    HW2 9009   1.911   0.388   2.494
 2704SOL     OW 9010   6.839   6.447   1.037
 2704SOL    HW1 9011   6.932   6.486   1.034
 2704SOL    HW2 9012   6.840   6.363   1.091
 2705SOL     OW 9013   0.896   4.992   4.213
 2705SOL    HW1 9014   0.973   5.027   4.266
 2705SOL    HW2 9015   0.881   4.896   4.236
 2706SOL     OW 9016   0.908   0.714   1.645
 2706SOL    HW1 9017   0.975   0.664   1.590
 2706SOL    HW2 9018   0.857   0.650   1.702
 2707SOL     OW 9019   2.448   0.807   4.949
 2707SOL    HW1 9020   2.544   0.780   4.948
 2707SOL    HW2 9021   2.419   0.824   5.043
 2708SOL     OW 9022   0.704   2.448   0.454
 2708SOL    HW1 9023   0.783   2.393   0.429
 2708SOL    HW2 9024   0.673   2.501   0.375
 2709SOL     OW 9025   5.888   6.236   0.552
 2709SOL    HW1 9026   5.804   6.237   0.497
 2709SOL    HW2 9027   5.899   6.324   0.598
 2710SOL     OW 9028   0.842   2.785   3.559
 2710SOL    HW1 9029   0.889   2.847   3.622
 2710SOL    HW2 9030   0.908   2.727   3.512
 2711SOL     OW 9031   2.533   1.383   3.982
 2711SOL    HW1 9032   2.477   1.361   4.062
 2711SOL    HW2 9033   2.475   1.394   3.902
 2712SOL     OW 9034   3.286   4.862   0.751
 2712SOL    HW1 9035   3.202   4.813   0.774
 2712SOL    HW2 9036   3.363   4.819   0.798
 2713SOL     OW 9037   2.232   1.968   5.080
 2713SOL    HW1 9038   2.151   1.910   5.073
 2713SOL    HW2 9039   2.205   2.064   5.069
 2714SOL     OW 9040   4.783   2.360   0.464
 2714SOL    HW1 9041   4.830   2.272   0.473
 2714SOL    HW2 9042   4.793   2.393   0.370
 2715SOL     OW 9043   4.999   1.284   0.626
 2715SOL    HW1 9044   5.033   1.321   0.539
 2715SOL    HW2 9045   4.914   1.330   0.650
 2716SOL     OW 9046   5.397   4.448   2.788
 2716SOL    HW1 9047   5.395   4.363   2.735
 2716SOL    HW2 9048   5.492   4.475   2.803
 2717SOL     OW 9049   2.396   4.806   2.098
 2717SOL    HW1 9050   2.484   4.784   2.140
 2717SOL    HW2 9051   2.403   4.795   1.999
 2718SOL     OW 9052   1.366   3.012   6.089
 2718SOL    HW1 9053   1.333   3.072   6.017
 2718SOL    HW2 9054   1.441   3.056   6.138
 2719SOL     OW 9055   6.710   5.812   1.103
 2719SOL    HW1 9056   6.735   5.909   1.101
 2719SOL    HW2 9057   6.750   5.766   1.024
 2720SOL     OW 9058   2.096   5.978   2.370
 2720SOL    HW1 9059   2.142   5.900   2.327
 2720SOL    HW2 9060   2.163   6.049   2.391
 2721SOL     OW 9061   3.028   0.743   4.421
 2721SOL    HW1 9062   2.940   0.789   4.411
 2721SOL    HW2 9063   3.012   0.649   4.454
 2722SOL     OW 9064   6.702   5.886   1.656
 2722SOL    HW1 9065   6.684   5.809   1.596
 2722SOL    HW2 9066   6.729   5.966   1.602
 2723SOL     OW 9067   0.553   6.658   5.642
 2723SOL    HW1 9068   0.517   6.707   5.563
 2723SOL    HW2 9069   0.642   6.618   5.618
 2724SOL     OW 9070   2.246   6.787   6.776
 2724SOL    HW1 9071   2.236   6.712   6.711
 2724SOL    HW2 9072   2.339   6.790   6.811
 2725SOL     OW 9073   5.842   4.854   4.222
 2725SOL    HW1 9074   5.873   4.816   4.309
 2725SOL    HW2 9075   5.758   4.808   4.194
 2726SOL     OW 9076   0.060   3.523   1.025
 2726SOL    HW1 9077   0.032   3.603   0.974
 2726SOL    HW2 9078   0.102   3.456   0.964
 2727SOL     OW 9079   0.522   5.370   4.078
 2727SOL    HW1 9080   0.589   5.302   4.105
 2727SOL    HW2 9081   0.465   5.394   4.156
 2728SOL     OW 9082   3.872   6.613   5.914
 2728SOL    HW1 9083   3.960   6.657   5.900
 2728SOL    HW2 9084   3.886   6.519   5.946
 2729SOL     OW 9085   6.812   5.653   1.297
 2729SOL    HW1 9086   6.906   5.683   1.312
 2729SOL    HW2 9087   6.773   5.706   1.222
 2730SOL     OW 9088   2.086   5.057   1.183
 2730SOL    HW1 9089   2.148   5.123   1.140
 2730SOL    HW2 9090   2.076   4.977   1.123
 2731SOL     OW 9091   3.974   3.488   2.104
 2731SOL    HW1 9092   3.950   3.542   2.023
 2731SOL    HW2 9093   4.035   3.541   2.163
 2732SOL     OW 9094   5.684   2.679   2.181
 2732SOL    HW1 9095   5.652   2.645   2.270
 2732SOL    HW2 9096   5.720   2.603   2.127
 2733SOL     OW 9097   0.670   0.236   5.078
 2733SOL    HW1 9098   0.703   0.184   5.000
 2733SOL    HW2 9099   0.629   0.174   5.145
 2734SOL     OW 9100   2.145   5.621   1.698
 2734SOL    HW1 9101   2.089   5.583   1.772
 2734SOL    HW2 9102   2.096   5.610   1.611
 2735SOL     OW 9103   1.066   3.161   2.817
 2735SOL    HW1 9104   1.051   3.103   2.897
 2735SOL    HW2 9105   1.040   3.110   2.734
 2736SOL     OW 9106   4.070   6.641   5.111
 2736SOL    HW1 9107   3.981   6.594   5.116
 2736SOL    HW2 9108   4.126   6.600   5.040
 2737SOL     OW 9109   3.523   3.708   5.605
 2737SOL    HW1 9110   3.467   3.635   5.644
 2737SOL    HW2 9111   3.516   3.706   5.506
 2738SOL     OW 9112   5.668   4.666   4.109
 2738SOL    HW1 9113   5.581   4.688   4.152
 2738SOL    HW2 9114   5.686   4.568   4.116
 2739SOL     OW 9115   6.717   4.718   0.882
 2739SOL    HW1 9116   6.644   4.735   0.949
 2739SOL    HW2 9117   6.755   4.806   0.852
 2740SOL     OW 9118   6.030   3.735   2.622
 2740SOL    HW1 9119   6.106   3.675   2.599
 2740SOL    HW2 9120   5.944   3.692   2.596
 2741SOL     OW 9121   6.384   0.622   5.397
 2741SOL    HW1 9122   6.321   0.605   5.321
 2741SOL    HW2 9123   6.394   0.538   5.451
 2742SOL     OW 9124   2.283   5.022   6.726
 2742SOL    HW1 9125   2.322   5.006   6.636
 2742SOL    HW2 9126   2.220   5.100   6.723
 2743SOL     OW 9127   0.112   5.529   2.404
 2743SOL    HW1 9128   0.014   5.517   2.420
 2743SOL    HW2 9129   0.150   5.447   2.361
 2744SOL     OW 9130   5.184   1.437   6.940
 2744SOL    HW1 9131   5.155   1.489   0.000
 2744SOL    HW2 9132   5.117   1.365   6.922
 2745SOL     OW 9133   0.924   0.041   6.547
 2745SOL    HW1 9134   0.850   0.074   6.488
 2745SOL    HW2 9135   0.889   0.025   6.639
 2746SOL     OW 9136   2.052   2.250   3.781
 2746SOL    HW1 9137   1.976   2.303   3.817
 2746SOL    HW2 9138   2.022   2.200   3.700
 2747SOL     OW 9139   5.991   3.492   5.687
 2747SOL    HW1 9140   6.022   3.507   5.594
 2747SOL    HW2 9141   5.901   3.534   5.699
 2748SOL     OW 9142   4.751   2.412   0.763
 2748SOL    HW1 9143   4.760   2.493   0.705
 2748SOL    HW2 9144   4.713   2.337   0.710
 2749SOL     OW 9145   6.173   4.655   3.427
 2749SOL    HW1 9146   6.080   4.653   3.464
 2749SOL    HW2 9147   6.218   4.740   3.456
 2750SOL     OW 9148   0.877   4.658   1.008
 2750SOL    HW1 9149   0.777   4.659   1.006
 2750SOL    HW2 9150   0.909   4.573   1.050
 2751SOL     OW 9151   0.070   6.313   0.853
 2751SOL    HW1 9152   0.016   6.232   0.829
 2751SOL    HW2 9153   0.143   6.325   0.786
 2752SOL     OW 9154   4.779   4.749   5.466
 2752SOL    HW1 9155   4.839   4.685   5.513
 2752SOL    HW2 9156   4.800   4.843   5.493
 2753SOL     OW 9157   0.598   6.870   5.832
 2753SOL    HW1 9158   0.563   6.960   5.805
 2753SOL    HW2 9159   0.577   6.804   5.760
 2754SOL     OW 9160   6.897   0.676   3.349
 2754SOL    HW1 9161   6.866   0.581   3.354
 2754SOL    HW2 9162   6.989   0.682   3.388
 2755SOL     OW 9163   2.490   6.822   3.919
 2755SOL    HW1 9164   2.517   6.728   3.938
 2755SOL    HW2 9165   2.542   6.884   3.978
 2756SOL     OW 9166   5.471   4.227   5.745
 2756SOL    HW1 9167   5.434   4.172   5.669
 2756SOL    HW2 9168   5.568   4.205   5.757
 2757SOL     OW 9169   2.286   1.610   6.126
 2757SOL    HW1 9170   2.290   1.675   6.049
 2757SOL    HW2 9171   2.236   1.652   6.202
 2758SOL     OW 9172   5.091   6.392   3.175
 2758SOL    HW1 9173   4.995   6.365   3.167
 2758SOL    HW2 9174   5.148   6.324   3.130
 2759SOL     OW 9175   4.305   5.812   5.509
 2759SOL    HW1 9176   4.212   5.775   5.518
 2759SOL    HW2 9177   4.357   5.756   5.444
 2760SOL     OW 9178   0.224   5.572   2.717
 2760SOL    HW1 9179   0.179   5.591   2.804
 2760SOL    HW2 9180   0.240   5.658   2.668
 2761SOL     OW 9181   1.731   4.559   4.583
 2761SOL    HW1 9182   1.748   4.656   4.600
 2761SOL    HW2 9183   1.771   4.533   4.495
 2762SOL     OW 9184   2.040   1.821   6.570
 2762SOL    HW1 9185   1.950   1.824   6.615
 2762SOL    HW2 9186   2.106   1.778   6.632
 2763SOL     OW 9187   4.555   1.725   4.811
 2763SOL    HW1 9188   4.553   1.742   4.909
 2763SOL    HW2 9189   4.550   1.627   4.794
 2764SOL     OW 9190   6.661   0.598   2.225
 2764SOL    HW1 9191   6.681   0.570   2.319
 2764SOL    HW2 9192   6.589   0.540   2.187
 2765SOL     OW 9193   6.119   6.899   1.214
 2765SOL    HW1 9194   6.058   6.956   1.271
 2765SOL    HW2 9195   6.079   6.888   1.123
 2766SOL     OW 9196   4.210   2.498   0.024
 2766SOL    HW1 9197   4.191   2.434   6.970
 2766SOL    HW2 9198   4.289   2.555   7.020
 2767SOL     OW 9199   6.785   5.650   6.776
 2767SOL    HW1 9200   6.696   5.607   6.792
 2767SOL    HW2 9201   6.780   5.747   6.800
 2768SOL     OW 9202   4.732   0.456   1.345
 2768SOL    HW1 9203   4.797   0.524   1.310
 2768SOL    HW2 9204   4.772   0.410   1.424
 2769SOL     OW 9205   2.447   4.210   6.473
 2769SOL    HW1 9206   2.505   4.141   6.429
 2769SOL    HW2 9207   2.413   4.273   6.404
 2770SOL     OW 9208   4.762   5.705   5.397
 2770SOL    HW1 9209   4.812   5.743   5.319
 2770SOL    HW2 9210   4.667   5.735   5.394
 2771SOL     OW 9211   5.699   1.585   4.510
 2771SOL    HW1 9212   5.634   1.581   4.586
 2771SOL    HW2 9213   5.705   1.495   4.467
 2772SOL     OW 9214   2.984   0.906   1.093
 2772SOL    HW1 9215   2.885   0.906   1.100
 2772SOL    HW2 9216   3.017   0.999   1.078
 2773SOL     OW 9217   6.379   2.715   4.014
 2773SOL    HW1 9218   6.383   2.787   3.945
 2773SOL    HW2 9219   6.469   2.674   4.026
 2774SOL     OW 9220   5.390   3.209   2.807
 2774SOL    HW1 9221   5.463   3.228   2.872
 2774SOL    HW2 9222   5.328   3.140   2.845
 2775SOL     OW 9223   6.125   3.681   5.113
 2775SOL    HW1 9224   6.194   3.691   5.184
 2775SOL    HW2 9225   6.127   3.588   5.077
 2776SOL     OW 9226   4.972   4.337   6.215
 2776SOL    HW1 9227   4.993   4.423   6.170
 2776SOL    HW2 9228   4.996   4.343   6.312
 2777SOL     OW 9229   2.941   2.056   1.262
 2777SOL    HW1 9230   2.972   2.138   1.311
 2777SOL    HW2 9231   3.001   1.979   1.284
 2778SOL     OW 9232   1.235   6.360   6.238
 2778SOL    HW1 9233   1.142   6.338   6.270
 2778SOL    HW2 9234   1.301   6.299   6.282
 2779SOL     OW 9235   5.769   6.384   2.007
 2779SOL    HW1 9236   5.839   6.343   1.948
 2779SOL    HW2 9237   5.685   6.399   1.954
 2780SOL     OW 9238   0.038   6.889   5.622
 2780SOL    HW1 9239   0.005   6.803   5.659
 2780SOL    HW2 9240   6.986   6.934   5.571
 2781SOL     OW 9241   5.905   0.582   2.697
 2781SOL    HW1 9242   5.907   0.499   2.752
 2781SOL    HW2 9243   5.826   0.637   2.723
 2782SOL     OW 9244   4.693   1.245   5.161
 2782SOL    HW1 9245   4.680   1.345   5.160
 2782SOL    HW2 9246   4.720   1.216   5.253
 2783SOL     OW 9247   6.699   4.135   2.239
 2783SOL    HW1 9248   6.635   4.211   2.252
 2783SOL    HW2 9249   6.676   4.086   2.155
 2784SOL     OW 9250   3.529   1.233   2.219
 2784SOL    HW1 9251   3.433   1.232   2.190
 2784SOL    HW2 9252   3.576   1.152   2.183
 2785SOL     OW 9253   5.456   2.192   0.804
 2785SOL    HW1 9254   5.360   2.183   0.831
 2785SOL    HW2 9255   5.509   2.229   0.880
 2786SOL     OW 9256   6.173   6.848   2.003
 2786SOL    HW1 9257   6.077   6.831   1.982
 2786SOL    HW2 9258   6.231   6.791   1.945
 2787SOL     OW 9259   5.947   6.852   5.405
 2787SOL    HW1 9260   5.965   6.788   5.331
 2787SOL    HW2 9261   5.930   6.802   5.490
 2788SOL     OW 9262   2.757   6.503   5.855
 2788SOL    HW1 9263   2.679   6.547   5.811
 2788SOL    HW2 9264   2.830   6.569   5.868
 2789SOL     OW 9265   1.905   1.939   3.884
 2789SOL    HW1 9266   1.889   1.998   3.964
 2789SOL    HW2 9267   1.938   1.994   3.808
 2790SOL     OW 9268   3.076   5.337   1.640
 2790SOL    HW1 9269   3.067   5.365   1.736
 2790SOL    HW2 9270   3.080   5.237   1.635
 2791SOL     OW 9271   0.755   3.259   2.195
 2791SOL    HW1 9272   0.679   3.207   2.156
 2791SOL    HW2 9273   0.721   3.345   2.233
 2792SOL     OW 9274   2.292   0.428   4.271
 2792SOL    HW1 9275   2.249   0.373   4.343
 2792SOL    HW2 9276   2.251   0.406   4.183
 2793SOL     OW 9277   5.208   3.559   1.787
 2793SOL    HW1 9278   5.189   3.504   1.706
 2793SOL    HW2 9279   5.298   3.535   1.824
 2794SOL     OW 9280   6.613   2.125   5.896
 2794SOL    HW1 9281   6.676   2.098   5.969
 2794SOL    HW2 9282   6.547   2.052   5.880
 2795SOL     OW 9283   0.740   3.444   0.971
 2795SOL    HW1 9284   0.743   3.544   0.976
 2795SOL    HW2 9285   0.799   3.405   1.042
 2796SOL     OW 9286   0.089   6.204   3.571
 2796SOL    HW1 9287   0.070   6.157   3.657
 2796SOL    HW2 9288   0.174   6.168   3.532
 2797SOL     OW 9289   5.052   5.401   5.244
 2797SOL    HW1 9290   5.020   5.442   5.330
 2797SOL    HW2 9291   5.089   5.473   5.185
 2798SOL     OW 9292   6.366   5.727   2.682
 2798SOL    HW1 9293   6.266   5.726   2.685
 2798SOL    HW2 9294   6.400   5.814   2.716
 2799SOL     OW 9295   5.768   5.783   5.945
 2799SOL    HW1 9296   5.815   5.788   5.857
 2799SOL    HW2 9297   5.673   5.758   5.930
 2800SOL     OW 9298   5.582   6.674   5.830
 2800SOL    HW1 9299   5.557   6.579   5.848
 2800SOL    HW2 9300   5.581   6.691   5.731
 2801SOL     OW 9301   0.524   5.692   5.801
 2801SOL    HW1 9302   0.447   5.745   5.836
 2801SOL    HW2 9303   0.609   5.743   5.816
 2802SOL     OW 9304   5.554   6.604   5.531
 2802SOL    HW1 9305   5.465   6.582   5.571
 2802SOL    HW2 9306   5.541   6.657   5.448
 2803SOL     OW 9307   3.865   5.358   5.502
 2803SOL    HW1 9308   3.819   5.280   5.459
 2803SOL    HW2 9309   3.798   5.430   5.522
 2804SOL     OW 9310   0.809   3.842   5.142
 2804SOL    HW1 9311   0.822   3.745   5.159
 2804SOL    HW2 9312   0.897   3.887   5.133
 2805SOL     OW 9313   5.901   3.265   3.172
 2805SOL    HW1 9314   5.885   3.351   3.123
 2805SOL    HW2 9315   5.900   3.190   3.106
 2806SOL     OW 9316   2.097   3.911   5.862
 2806SOL    HW1 9317   2.121   3.815   5.867
 2806SOL    HW2 9318   2.112   3.955   5.951
 2807SOL     OW 9319   4.752   6.887   3.364
 2807SOL    HW1 9320   4.723   6.814   3.426
 2807SOL    HW2 9321   4.671   6.933   3.327
 2808SOL     OW 9322   6.574   5.358   1.625
 2808SOL    HW1 9323   6.517   5.300   1.568
 2808SOL    HW2 9324   6.648   5.305   1.665
 2809SOL     OW 9325   5.134   2.602   1.440
 2809SOL    HW1 9326   5.232   2.607   1.420
 2809SOL    HW2 9327   5.096   2.695   1.443
 2810SOL     OW 9328   2.642   5.986   2.775
 2810SOL    HW1 9329   2.611   5.927   2.850
 2810SOL    HW2 9330   2.712   5.939   2.721
 2811SOL     OW 9331   1.193   1.660   3.041
 2811SOL    HW1 9332   1.222   1.676   3.135
 2811SOL    HW2 9333   1.179   1.749   2.996
 2812SOL     OW 9334   6.140   3.512   0.485
 2812SOL    HW1 9335   6.181   3.464   0.408
 2812SOL    HW2 9336   6.064   3.569   0.453
 2813SOL     OW 9337   0.279   1.822   0.065
 2813SOL    HW1 9338   0.195   1.852   0.111
 2813SOL    HW2 9339   0.258   1.745   0.005
 2814SOL     OW 9340   3.165   3.907   5.646
 2814SOL    HW1 9341   3.111   3.991   5.645
 2814SOL    HW2 9342   3.237   3.914   5.714
 2815SOL     OW 9343   6.814   5.026   6.341
 2815SOL    HW1 9344   6.797   5.103   6.403
 2815SOL    HW2 9345   6.905   4.988   6.359
 2816SOL     OW 9346   6.617   6.287   4.245
 2816SOL    HW1 9347   6.522   6.307   4.220
 2816SOL    HW2 9348   6.621   6.202   4.296
 2817SOL     OW 9349   3.107   0.607   2.697
 2817SOL    HW1 9350   3.008   0.597   2.694
 2817SOL    HW2 9351   3.131   0.703   2.706
 2818SOL     OW 9352   0.399   0.955   2.469
 2818SOL    HW1 9353   0.361   0.973   2.379
 2818SOL    HW2 9354   0.498   0.946   2.463
 2819SOL     OW 9355   1.754   0.127   2.080
 2819SOL    HW1 9356   1.769   0.222   2.107
 2819SOL    HW2 9357   1.656   0.110   2.073
 2820SOL     OW 9358   1.455   1.921   2.752
 2820SOL    HW1 9359   1.509   1.907   2.835
 2820SOL    HW2 9360   1.516   1.924   2.673
 2821SOL     OW 9361   3.105   4.723   5.942
 2821SOL    HW1 9362   3.163   4.666   5.884
 2821SOL    HW2 9363   3.027   4.756   5.889
 2822SOL     OW 9364   4.596   1.980   0.483
 2822SOL    HW1 9365   4.601   2.044   0.559
 2822SOL    HW2 9366   4.503   1.978   0.447
 2823SOL     OW 9367   6.101   1.293   0.142
 2823SOL    HW1 9368   6.085   1.218   0.206
 2823SOL    HW2 9369   6.104   1.379   0.192
 2824SOL     OW 9370   2.080   1.980   5.472
 2824SOL    HW1 9371   2.081   2.056   5.537
 2824SOL    HW2 9372   2.169   1.973   5.428
 2825SOL     OW 9373   5.659   0.381   5.914
 2825SOL    HW1 9374   5.640   0.474   5.946
 2825SOL    HW2 9375   5.661   0.319   5.993
 2826SOL     OW 9376   3.720   2.696   6.438
 2826SOL    HW1 9377   3.801   2.745   6.407
 2826SOL    HW2 9378   3.651   2.697   6.367
 2827SOL     OW 9379   0.155   0.306   6.344
 2827SOL    HW1 9380   0.137   0.362   6.425
 2827SOL    HW2 9381   0.241   0.335   6.302
 2828SOL     OW 9382   1.915   3.026   0.695
 2828SOL    HW1 9383   1.929   2.986   0.605
 2828SOL    HW2 9384   1.977   2.984   0.761
 2829SOL     OW 9385   3.300   3.252   3.354
 2829SOL    HW1 9386   3.393   3.280   3.330
 2829SOL    HW2 9387   3.293   3.153   3.346
 2830SOL     OW 9388   3.135   3.858   5.350
 2830SOL    HW1 9389   3.171   3.859   5.443
 2830SOL    HW2 9390   3.070   3.933   5.339
 2831SOL     OW 9391   1.009   3.456   2.795
 2831SOL    HW1 9392   1.021   3.518   2.873
 2831SOL    HW2 9393   1.011   3.361   2.828
 2832SOL     OW 9394   0.932   2.796   1.603
 2832SOL    HW1 9395   0.954   2.755   1.692
 2832SOL    HW2 9396   0.864   2.740   1.556
 2833SOL     OW 9397   2.979   1.398   2.225
 2833SOL    HW1 9398   2.987   1.379   2.127
 2833SOL    HW2 9399   3.050   1.464   2.252
 2834SOL     OW 9400   3.812   6.568   5.091
 2834SOL    HW1 9401   3.802   6.557   4.992
 2834SOL    HW2 9402   3.723   6.591   5.130
 2835SOL     OW 9403   0.419   6.624   0.981
 2835SOL    HW1 9404   0.477   6.546   0.958
 2835SOL    HW2 9405   0.324   6.593   0.988
 2836SOL     OW 9406   1.324   6.629   1.658
 2836SOL    HW1 9407   1.310   6.569   1.579
 2836SOL    HW2 9408   1.236   6.662   1.690
 2837SOL     OW 9409   5.364   4.922   2.616
 2837SOL    HW1 9410   5.415   4.982   2.677
 2837SOL    HW2 9411   5.396   4.935   2.522
 2838SOL     OW 9412   4.215   3.462   0.925
 2838SOL    HW1 9413   4.314   3.473   0.917
 2838SOL    HW2 9414   4.195   3.391   0.992
 2839SOL     OW 9415   0.147   2.757   2.151
 2839SOL    HW1 9416   0.153   2.804   2.240
 2839SOL    HW2 9417   0.227   2.699   2.139
 2840SOL     OW 9418   1.617   5.816   1.844
 2840SOL    HW1 9419   1.563   5.753   1.900
 2840SOL    HW2 9420   1.570   5.904   1.837
 2841SOL     OW 9421   5.916   2.235   6.361
 2841SOL    HW1 9422   5.906   2.333   6.380
 2841SOL    HW2 9423   6.001   2.202   6.401
 2842SOL     OW 9424   0.398   5.359   4.314
 2842SOL    HW1 9425   0.301   5.384   4.314
 2842SOL    HW2 9426   0.408   5.264   4.343
 2843SOL     OW 9427   2.890   1.492   2.529
 2843SOL    HW1 9428   2.917   1.464   2.437
 2843SOL    HW2 9429   2.861   1.412   2.581
 2844SOL     OW 9430   6.283   5.319   0.416
 2844SOL    HW1 9431   6.357   5.253   0.426
 2844SOL    HW2 9432   6.259   5.356   0.506
 2845SOL     OW 9433   5.204   2.995   2.296
 2845SOL    HW1 9434   5.197   2.906   2.251
 2845SOL    HW2 9435   5.120   3.012   2.349
 2846SOL     OW 9436   3.891   0.569   0.656
 2846SOL    HW1 9437   3.795   0.575   0.682
 2846SOL    HW2 9438   3.943   0.526   0.729
 2847SOL     OW 9439   5.089   3.795   3.479
 2847SOL    HW1 9440   5.044   3.761   3.396
 2847SOL    HW2 9441   5.055   3.886   3.501
 2848SOL     OW 9442   2.408   2.898   5.808
 2848SOL    HW1 9443   2.393   2.799   5.809
 2848SOL    HW2 9444   2.323   2.946   5.827
 2849SOL     OW 9445   3.427   0.463   1.579
 2849SOL    HW1 9446   3.470   0.468   1.669
 2849SOL    HW2 9447   3.338   0.417   1.587
 2850SOL     OW 9448   2.128   0.273   3.199
 2850SOL    HW1 9449   2.029   0.259   3.206
 2850SOL    HW2 9450   2.176   0.204   3.252
 2851SOL     OW 9451   5.022   3.131   6.636
 2851SOL    HW1 9452   5.009   3.094   6.728
 2851SOL    HW2 9453   4.967   3.079   6.571
 2852SOL     OW 9454   6.230   4.334   6.641
 2852SOL    HW1 9455   6.142   4.359   6.681
 2852SOL    HW2 9456   6.223   4.334   6.541
 2853SOL     OW 9457   1.107   2.472   6.698
 2853SOL    HW1 9458   1.033   2.539   6.708
 2853SOL    HW2 9459   1.186   2.516   6.654
 2854SOL     OW 9460   3.999   0.385   5.669
 2854SOL    HW1 9461   4.056   0.309   5.636
 2854SOL    HW2 9462   3.977   0.445   5.592
 2855SOL     OW 9463   1.475   2.061   5.416
 2855SOL    HW1 9464   1.557   2.081   5.469
 2855SOL    HW2 9465   1.483   1.971   5.374
 2856SOL     OW 9466   1.130   3.104   4.362
 2856SOL    HW1 9467   1.070   3.026   4.350
 2856SOL    HW2 9468   1.208   3.077   4.419
 2857SOL     OW 9469   0.681   2.682   1.522
 2857SOL    HW1 9470   0.620   2.622   1.471
 2857SOL    HW2 9471   0.660   2.777   1.500
 2858SOL     OW 9472   4.724   5.276   2.317
 2858SOL    HW1 9473   4.635   5.297   2.357
 2858SOL    HW2 9474   4.751   5.350   2.255
 2859SOL     OW 9475   6.632   6.717   0.148
 2859SOL    HW1 9476   6.652   6.768   0.064
 2859SOL    HW2 9477   6.614   6.781   0.222
 2860SOL     OW 9478   2.504   0.461   2.370
 2860SOL    HW1 9479   2.407   0.451   2.352
 2860SOL    HW2 9480   2.543   0.530   2.309
 2861SOL     OW 9481   3.320   5.692   5.492
 2861SOL    HW1 9482   3.342   5.784   5.459
 2861SOL    HW2 9483   3.396   5.630   5.473
 2862SOL     OW 9484   4.202   2.265   1.883
 2862SOL    HW1 9485   4.119   2.309   1.848
 2862SOL    HW2 9486   4.282   2.312   1.845
 2863SOL     OW 9487   4.927   1.570   6.142
 2863SOL    HW1 9488   5.027   1.575   6.145
 2863SOL    HW2 9489   4.893   1.630   6.069
 2864SOL     OW 9490   4.765   2.613   0.595
 2864SOL    HW1 9491   4.803   2.696   0.553
 2864SOL    HW2 9492   4.791   2.534   0.540
 2865SOL     OW 9493   4.148   6.730   3.811
 2865SOL    HW1 9494   4.106   6.647   3.774
 2865SOL    HW2 9495   4.190   6.782   3.737
 2866SOL     OW 9496   5.456   4.183   0.032
 2866SOL    HW1 9497   5.414   4.192   6.963
 2866SOL    HW2 9498   5.424   4.099   0.076
 2867SOL     OW 9499   6.292   5.985   3.285
 2867SOL    HW1 9500   6.225   6.005   3.357
 2867SOL    HW2 9501   6.341   6.068   3.262
 2868SOL     OW 9502   1.334   1.156   5.324
 2868SOL    HW1 9503   1.400   1.172   5.397
 2868SOL    HW2 9504   1.253   1.213   5.340
 2869SOL     OW 9505   6.381   0.952   3.275
 2869SOL    HW1 9506   6.462   1.005   3.304
 2869SOL    HW2 9507   6.332   1.003   3.204
 2870SOL     OW 9508   0.736   2.037   5.941
 2870SOL    HW1 9509   0.695   1.950   5.969
 2870SOL    HW2 9510   0.675   2.083   5.877
 2871SOL     OW 9511   6.014   0.872   0.755
 2871SOL    HW1 9512   5.999   0.866   0.657
 2871SOL    HW2 9513   5.952   0.939   0.795
 2872SOL     OW 9514   2.676   1.963   1.209
 2872SOL    HW1 9515   2.665   1.888   1.274
 2872SOL    HW2 9516   2.764   2.008   1.225
 2873SOL     OW 9517   6.708   6.791   2.549
 2873SOL    HW1 9518   6.691   6.694   2.565
 2873SOL    HW2 9519   6.625   6.843   2.569
 2874SOL     OW 9520   3.655   6.446   2.874
 2874SOL    HW1 9521   3.657   6.545   2.862
 2874SOL    HW2 9522   3.598   6.405   2.803
 2875SOL     OW 9523   4.229   0.437   1.852
 2875SOL    HW1 9524   4.296   0.440   1.927
 2875SOL    HW2 9525   4.268   0.388   1.775
 2876SOL     OW 9526   2.022   0.536   3.065
 2876SOL    HW1 9527   1.923   0.530   3.081
 2876SOL    HW2 9528   2.064   0.448   3.086
 2877SOL     OW 9529   2.714   0.871   6.210
 2877SOL    HW1 9530   2.795   0.818   6.187
 2877SOL    HW2 9531   2.705   0.947   6.145
 2878SOL     OW 9532   2.875   3.880   5.109
 2878SOL    HW1 9533   2.948   3.812   5.101
 2878SOL    HW2 9534   2.853   3.917   5.019
 2879SOL     OW 9535   5.924   5.830   5.726
 2879SOL    HW1 9536   5.915   5.914   5.673
 2879SOL    HW2 9537   5.975   5.762   5.673
 2880SOL     OW 9538   0.555   1.314   3.304
 2880SOL    HW1 9539   0.469   1.346   3.263
 2880SOL    HW2 9540   0.625   1.306   3.233
 2881SOL     OW 9541   3.729   5.863   0.341
 2881SOL    HW1 9542   3.678   5.862   0.255
 2881SOL    HW2 9543   3.679   5.813   0.411
 2882SOL     OW 9544   0.058   5.765   1.350
 2882SOL    HW1 9545   0.056   5.693   1.420
 2882SOL    HW2 9546   0.142   5.755   1.295
 2883SOL     OW 9547   5.921   0.198   3.667
 2883SOL    HW1 9548   5.998   0.202   3.604
 2883SOL    HW2 9549   5.872   0.285   3.667
 2884SOL     OW 9550   0.768   6.598   2.643
 2884SOL    HW1 9551   0.848   6.598   2.583
 2884SOL    HW2 9552   0.707   6.523   2.618
 2885SOL     OW 9553   1.803   2.524   4.690
 2885SOL    HW1 9554   1.712   2.488   4.668
 2885SOL    HW2 9555   1.793   2.607   4.746
 2886SOL     OW 9556   1.807   3.351   6.442
 2886SOL    HW1 9557   1.738   3.419   6.416
 2886SOL    HW2 9558   1.810   3.343   6.542
 2887SOL     OW 9559   0.938   6.507   5.178
 2887SOL    HW1 9560   0.905   6.439   5.112
 2887SOL    HW2 9561   1.032   6.533   5.155
 2888SOL     OW 9562   0.314   4.610   0.278
 2888SOL    HW1 9563   0.377   4.551   0.329
 2888SOL    HW2 9564   0.317   4.702   0.315
 2889SOL     OW 9565   2.844   6.136   3.007
 2889SOL    HW1 9566   2.869   6.040   3.020
 2889SOL    HW2 9567   2.871   6.165   2.916
 2890SOL     OW 9568   1.576   6.063   0.757
 2890SOL    HW1 9569   1.628   6.009   0.691
 2890SOL    HW2 9570   1.544   6.147   0.712
 2891SOL     OW 9571   0.717   3.740   3.333
 2891SOL    HW1 9572   0.703   3.677   3.409
 2891SOL    HW2 9573   0.665   3.824   3.348
 2892SOL     OW 9574   6.162   2.680   1.513
 2892SOL    HW1 9575   6.134   2.617   1.586
 2892SOL    HW2 9576   6.222   2.750   1.552
 2893SOL     OW 9577   0.744   4.788   4.375
 2893SOL    HW1 9578   0.761   4.701   4.420
 2893SOL    HW2 9579   0.721   4.857   4.444
 2894SOL     OW 9580   1.220   3.666   1.534
 2894SOL    HW1 9581   1.185   3.620   1.453
 2894SOL    HW2 9582   1.144   3.690   1.595
 2895SOL     OW 9583   5.546   1.305   5.780
 2895SOL    HW1 9584   5.485   1.303   5.701
 2895SOL    HW2 9585   5.638   1.277   5.752
 2896SOL     OW 9586   4.325   6.881   5.520
 2896SOL    HW1 9587   4.299   6.806   5.459
 2896SOL    HW2 9588   4.407   6.925   5.484
 2897SOL     OW 9589   3.966   4.918   2.344
 2897SOL    HW1 9590   3.889   4.971   2.310
 2897SOL    HW2 9591   4.014   4.874   2.268
 2898SOL     OW 9592   4.286   4.673   4.123
 2898SOL    HW1 9593   4.329   4.759   4.095
 2898SOL    HW2 9594   4.342   4.629   4.193
 2899SOL     OW 9595   0.453   1.830   0.536
 2899SOL    HW1 9596   0.388   1.754   0.535
 2899SOL    HW2 9597   0.489   1.845   0.444
 2900SOL     OW 9598   3.724   4.605   6.843
 2900SOL    HW1 9599   3.736   4.698   6.808
 2900SOL    HW2 9600   3.665   4.607   6.923
 2901SOL     OW 9601   2.403   4.564   3.504
 2901SOL    HW1 9602   2.425   4.661   3.518
 2901SOL    HW2 9603   2.446   4.531   3.420
 2902SOL     OW 9604   6.446   5.106   3.149
 2902SOL    HW1 9605   6.473   5.098   3.053
 2902SOL    HW2 9606   6.401   5.021   3.178
 2903SOL     OW 9607   4.076   6.425   0.459
 2903SOL    HW1 9608   4.006   6.476   0.508
 2903SOL    HW2 9609   4.080   6.455   0.364
 2904SOL     OW 9610   2.812   5.265   5.270
 2904SOL    HW1 9611   2.907   5.256   5.301
 2904SOL    HW2 9612   2.795   5.202   5.195
 2905SOL     OW 9613   1.546   3.806   3.934
 2905SOL    HW1 9614   1.525   3.903   3.945
 2905SOL    HW2 9615   1.638   3.797   3.895
 2906SOL     OW 9616   4.938   5.680   2.796
 2906SOL    HW1 9617   4.981   5.738   2.727
 2906SOL    HW2 9618   4.840   5.677   2.780
 2907SOL     OW 9619   0.586   1.418   3.551
 2907SOL    HW1 9620   0.538   1.374   3.475
 2907SOL    HW2 9621   0.520   1.446   3.620
 2908SOL     OW 9622   5.039   0.375   3.441
 2908SOL    HW1 9623   4.994   0.285   3.444
 2908SOL    HW2 9624   5.083   0.387   3.352
 2909SOL     OW 9625   2.407   5.543   4.270
 2909SOL    HW1 9626   2.337   5.571   4.336
 2909SOL    HW2 9627   2.478   5.491   4.318
 2910SOL     OW 9628   5.745   0.063   3.854
 2910SOL    HW1 9629   5.710   0.117   3.931
 2910SOL    HW2 9630   5.801   0.121   3.795
 2911SOL     OW 9631   1.700   5.343   3.755
 2911SOL    HW1 9632   1.763   5.297   3.818
 2911SOL    HW2 9633   1.655   5.274   3.698
 2912SOL     OW 9634   6.405   6.575   0.421
 2912SOL    HW1 9635   6.429   6.671   0.436
 2912SOL    HW2 9636   6.348   6.568   0.339
 2913SOL     OW 9637   3.673   5.255   1.962
 2913SOL    HW1 9638   3.573   5.244   1.964
 2913SOL    HW2 9639   3.716   5.170   1.992
 2914SOL     OW 9640   6.182   5.729   0.014
 2914SOL    HW1 9641   6.131   5.643   0.019
 2914SOL    HW2 9642   6.119   5.805   0.029
 2915SOL     OW 9643   2.759   2.030   3.570
 2915SOL    HW1 9644   2.780   1.991   3.480
 2915SOL    HW2 9645   2.711   1.961   3.625
 2916SOL     OW 9646   0.988   5.392   0.589
 2916SOL    HW1 9647   0.980   5.435   0.499
 2916SOL    HW2 9648   1.069   5.334   0.591
 2917SOL     OW 9649   3.001   0.155   4.257
 2917SOL    HW1 9650   2.903   0.146   4.237
 2917SOL    HW2 9651   3.039   0.229   4.202
 2918SOL     OW 9652   6.144   4.302   5.524
 2918SOL    HW1 9653   6.113   4.367   5.594
 2918SOL    HW2 9654   6.243   4.289   5.533
 2919SOL     OW 9655   6.101   0.738   2.857
 2919SOL    HW1 9656   6.011   0.725   2.899
 2919SOL    HW2 9657   6.172   0.703   2.919
 2920SOL     OW 9658   2.986   0.639   1.097
 2920SOL    HW1 9659   3.067   0.617   1.152
 2920SOL    HW2 9660   2.954   0.730   1.120
 2921SOL     OW 9661   0.734   0.365   5.382
 2921SOL    HW1 9662   0.825   0.329   5.361
 2921SOL    HW2 9663   0.738   0.465   5.387
 2922SOL     OW 9664   4.852   6.386   1.715
 2922SOL    HW1 9665   4.769   6.337   1.741
 2922SOL    HW2 9666   4.829   6.461   1.653
 2923SOL     OW 9667   6.635   5.865   4.101
 2923SOL    HW1 9668   6.535   5.865   4.101
 2923SOL    HW2 9669   6.669   5.819   4.183
 2924SOL     OW 9670   0.012   2.471   5.276
 2924SOL    HW1 9671   0.096   2.522   5.295
 2924SOL    HW2 9672   6.976   2.469   5.358
 2925SOL     OW 9673   5.766   2.550   0.629
 2925SOL    HW1 9674   5.712   2.473   0.596
 2925SOL    HW2 9675   5.860   2.520   0.646
 2926SOL     OW 9676   5.705   2.335   6.646
 2926SOL    HW1 9677   5.692   2.257   6.584
 2926SOL    HW2 9678   5.789   2.322   6.698
 2927SOL     OW 9679   1.841   3.810   0.986
 2927SOL    HW1 9680   1.822   3.731   1.044
 2927SOL    HW2 9681   1.926   3.794   0.935
 2928SOL     OW 9682   0.125   0.675   6.545
 2928SOL    HW1 9683   0.066   0.601   6.579
 2928SOL    HW2 9684   0.093   0.704   6.455
 2929SOL     OW 9685   1.222   2.792   5.956
 2929SOL    HW1 9686   1.138   2.804   6.009
 2929SOL    HW2 9687   1.268   2.880   5.947
 2930SOL     OW 9688   5.319   6.895   5.672
 2930SOL    HW1 9689   5.236   6.913   5.726
 2930SOL    HW2 9690   5.349   6.978   5.627
 2931SOL     OW 9691   5.002   4.921   6.689
 2931SOL    HW1 9692   5.011   4.829   6.728
 2931SOL    HW2 9693   4.995   4.988   6.763
 2932SOL     OW 9694   1.116   5.849   2.093
 2932SOL    HW1 9695   1.108   5.806   2.183
 2932SOL    HW2 9696   1.025   5.864   2.055
 2933SOL     OW 9697   1.788   6.356   1.987
 2933SOL    HW1 9698   1.793   6.443   1.939
 2933SOL    HW2 9699   1.732   6.292   1.935
 2934SOL     OW 9700   5.531   2.772   0.008
 2934SOL    HW1 9701   5.617   2.752   6.982
 2934SOL    HW2 9702   5.507   2.696   0.069
 2935SOL     OW 9703   6.812   2.918   6.261
 2935SOL    HW1 9704   6.816   2.920   6.161
 2935SOL    HW2 9705   6.818   3.011   6.297
 2936SOL     OW 9706   4.829   6.008   0.475
 2936SOL    HW1 9707   4.815   5.998   0.574
 2936SOL    HW2 9708   4.746   6.046   0.434
 2937SOL     OW 9709   5.507   4.853   1.222
 2937SOL    HW1 9710   5.431   4.918   1.223
 2937SOL    HW2 9711   5.496   4.790   1.144
 2938SOL     OW 9712   5.579   4.628   0.132
 2938SOL    HW1 9713   5.553   4.541   0.175
 2938SOL    HW2 9714   5.509   4.696   0.152
 2939SOL     OW 9715   2.287   0.479   1.919
 2939SOL    HW1 9716   2.348   0.426   1.860
 2939SOL    HW2 9717   2.307   0.577   1.907
 2940SOL     OW 9718   5.383   4.973   5.376
 2940SOL    HW1 9719   5.408   4.888   5.330
 2940SOL    HW2 9720   5.299   5.009   5.336
 2941SOL     OW 9721   1.429   2.371   4.250
 2941SOL    HW1 9722   1.419   2.334   4.342
 2941SOL    HW2 9723   1.446   2.470   4.255
 2942SOL     OW 9724   3.960   1.784   0.931
 2942SOL    HW1 9725   3.967   1.835   0.845
 2942SOL    HW2 9726   3.866   1.755   0.945
 2943SOL     OW 9727   5.896   4.100   4.078
 2943SOL    HW1 9728   5.913   4.102   3.980
 2943SOL    HW2 9729   5.983   4.094   4.127
 2944SOL     OW 9730   2.798   6.216   3.993
 2944SOL    HW1 9731   2.729   6.167   4.046
 2944SOL    HW2 9732   2.807   6.309   4.028
 2945SOL     OW 9733   4.252   3.166   1.422
 2945SOL    HW1 9734   4.259   3.128   1.514
 2945SOL    HW2 9735   4.158   3.156   1.389
 2946SOL     OW 9736   1.972   4.726   6.193
 2946SOL    HW1 9737   2.000   4.821   6.181
 2946SOL    HW2 9738   1.923   4.717   6.280
 2947SOL     OW 9739   0.966   6.001   1.435
 2947SOL    HW1 9740   1.060   6.005   1.402
 2947SOL    HW2 9741   0.926   5.912   1.413
 2948SOL     OW 9742   0.340   4.359   4.616
 2948SOL    HW1 9743   0.256   4.340   4.667
 2948SOL    HW2 9744   0.328   4.329   4.521
 2949SOL     OW 9745   0.947   5.372   0.974
 2949SOL    HW1 9746   1.021   5.426   1.014
 2949SOL    HW2 9747   0.910   5.419   0.894
 2950SOL     OW 9748   5.916   5.801   4.500
 2950SOL    HW1 9749   5.856   5.879   4.484
 2950SOL    HW2 9750   6.003   5.833   4.538
 2951SOL     OW 9751   5.649   2.010   1.938
 2951SOL    HW1 9752   5.712   2.058   1.877
 2951SOL    HW2 9753   5.686   1.921   1.962
 2952SOL     OW 9754   0.104   6.112   5.666
 2952SOL    HW1 9755   0.050   6.196   5.670
 2952SOL    HW2 9756   0.151   6.099   5.753
 2953SOL     OW 9757   6.374   4.029   3.085
 2953SOL    HW1 9758   6.368   4.005   2.988
 2953SOL    HW2 9759   6.287   4.069   3.114
 2954SOL     OW 9760   1.115   5.180   1.784
 2954SOL    HW1 9761   1.021   5.148   1.774
 2954SOL    HW2 9762   1.164   5.167   1.698
 2955SOL     OW 9763   0.880   4.267   1.354
 2955SOL    HW1 9764   0.863   4.171   1.379
 2955SOL    HW2 9765   0.946   4.307   1.418
 2956SOL     OW 9766   5.699   5.434   3.006
 2956SOL    HW1 9767   5.766   5.508   3.006
 2956SOL    HW2 9768   5.732   5.358   2.951
 2957SOL     OW 9769   4.954   4.088   1.488
 2957SOL    HW1 9770   4.981   4.011   1.431
 2957SOL    HW2 9771   4.979   4.070   1.583
 2958SOL     OW 9772   2.233   4.198   3.409
 2958SOL    HW1 9773   2.149   4.250   3.394
 2958SOL    HW2 9774   2.264   4.160   3.322
 2959SOL     OW 9775   4.896   3.383   1.989
 2959SOL    HW1 9776   4.869   3.347   1.900
 2959SOL    HW2 9777   4.867   3.320   2.061
 2960SOL     OW 9778   3.208   0.160   0.301
 2960SOL    HW1 9779   3.169   0.131   0.388
 2960SOL    HW2 9780   3.139   0.153   0.229
 2961SOL     OW 9781   5.905   4.639   3.206
 2961SOL    HW1 9782   5.975   4.573   3.177
 2961SOL    HW2 9783   5.893   4.634   3.305
 2962SOL     OW 9784   4.400   5.904   3.688
 2962SOL    HW1 9785   4.496   5.899   3.713
 2962SOL    HW2 9786   4.381   5.992   3.645
 2963SOL     OW 9787   1.161   1.007   6.813
 2963SOL    HW1 9788   1.118   1.093   6.840
 2963SOL    HW2 9789   1.118   0.973   6.730
 2964SOL     OW 9790   0.260   1.600   5.396
 2964SOL    HW1 9791   0.280   1.625   5.491
 2964SOL    HW2 9792   0.282   1.503   5.383
 2965SOL     OW 9793   0.568   0.912   4.630
 2965SOL    HW1 9794   0.611   0.858   4.557
 2965SOL    HW2 9795   0.589   0.871   4.718
 2966SOL     OW 9796   4.833   5.200   2.973
 2966SOL    HW1 9797   4.891   5.119   2.960
 2966SOL    HW2 9798   4.863   5.250   3.054
 2967SOL     OW 9799   6.027   0.901   5.708
 2967SOL    HW1 9800   6.106   0.865   5.659
 2967SOL    HW2 9801   6.035   1.001   5.717
 2968SOL     OW 9802   1.006   2.700   0.669
 2968SOL    HW1 9803   0.967   2.727   0.581
 2968SOL    HW2 9804   0.955   2.621   0.705
 2969SOL     OW 9805   4.707   2.387   4.230
 2969SOL    HW1 9806   4.807   2.385   4.241
 2969SOL    HW2 9807   4.684   2.389   4.133
 2970SOL     OW 9808   2.602   2.930   5.391
 2970SOL    HW1 9809   2.539   2.974   5.327
 2970SOL    HW2 9810   2.589   2.831   5.388
 2971SOL     OW 9811   4.841   3.760   1.084
 2971SOL    HW1 9812   4.857   3.712   0.998
 2971SOL    HW2 9813   4.743   3.756   1.107
 2972SOL     OW 9814   6.262   4.667   6.520
 2972SOL    HW1 9815   6.256   4.633   6.426
 2972SOL    HW2 9816   6.265   4.767   6.519
 2973SOL     OW 9817   5.112   6.097   2.163
 2973SOL    HW1 9818   5.019   6.072   2.137
 2973SOL    HW2 9819   5.122   6.196   2.159
 2974SOL     OW 9820   0.269   4.572   3.723
 2974SOL    HW1 9821   0.177   4.540   3.748
 2974SOL    HW2 9822   0.328   4.566   3.804
 2975SOL     OW 9823   5.205   4.241   4.038
 2975SOL    HW1 9824   5.129   4.176   4.043
 2975SOL    HW2 9825   5.277   4.212   4.102
 2976SOL     OW 9826   4.603   1.827   2.398
 2976SOL    HW1 9827   4.613   1.840   2.497
 2976SOL    HW2 9828   4.506   1.838   2.373
 2977SOL     OW 9829   1.125   0.486   2.909
 2977SOL    HW1 9830   1.082   0.514   2.995
 2977SOL    HW2 9831   1.150   0.389   2.915
 2978SOL     OW 9832   3.563   4.610   0.050
 2978SOL    HW1 9833   3.527   4.699   0.079
 2978SOL    HW2 9834   3.490   4.543   0.049
 2979SOL     OW 9835   3.260   1.332   3.664
 2979SOL    HW1 9836   3.268   1.428   3.691
 2979SOL    HW2 9837   3.286   1.273   3.740
 2980SOL     OW 9838   1.898   5.626   5.613
 2980SOL    HW1 9839   1.883   5.544   5.668
 2980SOL    HW2 9840   1.824   5.634   5.545
 2981SOL     OW 9841   2.551   0.737   6.622
 2981SOL    HW1 9842   2.486   0.750   6.547
 2981SOL    HW2 9843   2.623   0.806   6.616
 2982SOL     OW 9844   2.617   5.997   1.018
 2982SOL    HW1 9845   2.643   5.914   0.968
 2982SOL    HW2 9846   2.575   5.972   1.105
 2983SOL     OW 9847   6.154   2.064   1.794
 2983SOL    HW1 9848   6.161   2.153   1.838
 2983SOL    HW2 9849   6.116   1.997   1.858
 2984SOL     OW 9850   6.157   5.079   0.090
 2984SOL    HW1 9851   6.061   5.106   0.099
 2984SOL    HW2 9852   6.167   5.015   0.014
 2985SOL     OW 9853   2.004   2.165   4.602
 2985SOL    HW1 9854   2.101   2.185   4.599
 2985SOL    HW2 9855   1.962   2.185   4.513
 2986SOL     OW 9856   3.565   4.180   2.827
 2986SOL    HW1 9857   3.575   4.123   2.746
 2986SOL    HW2 9858   3.655   4.197   2.867
 2987SOL     OW 9859   1.114   1.344   4.361
 2987SOL    HW1 9860   1.059   1.307   4.286
 2987SOL    HW2 9861   1.170   1.420   4.327
 2988SOL     OW 9862   1.534   6.646   2.546
 2988SOL    HW1 9863   1.448   6.696   2.550
 2988SOL    HW2 9864   1.541   6.598   2.459
 2989SOL     OW 9865   4.904   5.063   5.932
 2989SOL    HW1 9866   4.933   5.085   6.025
 2989SOL    HW2 9867   4.971   5.002   5.890
 2990SOL     OW 9868   4.029   1.624   4.087
 2990SOL    HW1 9869   3.932   1.631   4.109
 2990SOL    HW2 9870   4.051   1.689   4.014
 2991SOL     OW 9871   6.249   3.254   5.790
 2991SOL    HW1 9872   6.245   3.222   5.695
 2991SOL    HW2 9873   6.282   3.349   5.791
 2992SOL     OW 9874   1.194   5.019   4.691
 2992SOL    HW1 9875   1.246   4.981   4.767
 2992SOL    HW2 9876   1.156   5.108   4.716
 2993SOL     OW 9877   0.716   5.160   1.518
 2993SOL    HW1 9878   0.683   5.085   1.461
 2993SOL    HW2 9879   0.795   5.128   1.572
 2994SOL     OW 9880   4.107   6.576   0.223
 2994SOL    HW1 9881   4.176   6.646   0.241
 2994SOL    HW2 9882   4.120   6.539   0.131
 2995SOL     OW 9883   3.771   1.145   6.412
 2995SOL    HW1 9884   3.853   1.132   6.467
 2995SOL    HW2 9885   3.703   1.196   6.465
 2996SOL     OW 9886   0.457   1.072   5.161
 2996SOL    HW1 9887   0.378   1.022   5.197
 2996SOL    HW2 9888   0.541   1.033   5.199
 2997SOL     OW 9889   4.689   0.365   3.090
 2997SOL    HW1 9890   4.718   0.317   3.173
 2997SOL    HW2 9891   4.618   0.312   3.043
 2998SOL     OW 9892   5.270   6.712   3.713
 2998SOL    HW1 9893   5.330   6.680   3.786
 2998SOL    HW2 9894   5.314   6.697   3.625
 2999SOL     OW 9895   2.445   5.252   5.468
 2999SOL    HW1 9896   2.527   5.307   5.455
 2999SOL    HW2 9897   2.370   5.291   5.415
 3000SOL     OW 9898   3.101   3.943   6.283
 3000SOL    HW1 9899   3.173   3.963   6.349
 3000SOL    HW2 9900   3.141   3.917   6.195
 3001SOL     OW 9901   6.558   1.453   6.663
 3001SOL    HW1 9902   6.507   1.411   6.738
 3001SOL    HW2 9903   6.500   1.521   6.617
 3002SOL     OW 9904   3.653   2.383   0.167
 3002SOL    HW1 9905   3.703   2.319   0.226
 3002SOL    HW2 9906   3.559   2.391   0.199
 3003SOL     OW 9907   0.593   6.760   0.800
 3003SOL    HW1 9908   0.624   6.849   0.834
 3003SOL    HW2 9909   0.532   6.719   0.868
 3004SOL     OW 9910   1.027   4.301   2.396
 3004SOL    HW1 9911   1.050   4.372   2.462
 3004SOL    HW2 9912   0.931   4.275   2.405
 3005SOL     OW 9913   1.361   2.397   6.902
 3005SOL    HW1 9914   1.326   2.451   6.978
 3005SOL    HW2 9915   1.342   2.300   6.917
 3006SOL     OW 9916   5.652   2.585   4.682
 3006SOL    HW1 9917   5.593   2.635   4.618
 3006SOL    HW2 9918   5.699   2.512   4.634
 3007SOL     OW 9919   5.388   4.273   1.003
 3007SOL    HW1 9920   5.310   4.261   1.065
 3007SOL    HW2 9921   5.473   4.257   1.053
 3008SOL     OW 9922   2.928   2.452   6.368
 3008SOL    HW1 9923   2.909   2.407   6.455
 3008SOL    HW2 9924   2.889   2.544   6.368
 3009SOL     OW 9925   6.425   2.414   2.756
 3009SOL    HW1 9926   6.515   2.446   2.784
 3009SOL    HW2 9927   6.367   2.403   2.837
 3010SOL     OW 9928   2.830   5.670   3.516
 3010SOL    HW1 9929   2.900   5.711   3.575
 3010SOL    HW2 9930   2.855   5.576   3.495
 3011SOL     OW 9931   5.709   1.264   2.478
 3011SOL    HW1 9932   5.650   1.225   2.407
 3011SOL    HW2 9933   5.794   1.212   2.483
 3012SOL     OW 9934   2.462   3.174   6.733
 3012SOL    HW1 9935   2.556   3.147   6.755
 3012SOL    HW2 9936   2.463   3.249   6.667
 3013SOL     OW 9937   5.561   5.228   4.294
 3013SOL    HW1 9938   5.526   5.143   4.332
 3013SOL    HW2 9939   5.628   5.268   4.358
 3014SOL     OW 9940   4.888   2.175   5.476
 3014SOL    HW1 9941   4.919   2.227   5.397
 3014SOL    HW2 9942   4.798   2.136   5.457
 3015SOL     OW 9943   1.772   1.785   0.236
 3015SOL    HW1 9944   1.681   1.825   0.251
 3015SOL    HW2 9945   1.779   1.698   0.285
 3016SOL     OW 9946   3.323   6.330   4.320
 3016SOL    HW1 9947   3.415   6.359   4.293
 3016SOL    HW2 9948   3.330   6.259   4.389
 3017SOL     OW 9949   6.281   5.725   2.387
 3017SOL    HW1 9950   6.306   5.631   2.365
 3017SOL    HW2 9951   6.332   5.755   2.467
 3018SOL     OW 9952   2.837   0.357   6.612
 3018SOL    HW1 9953   2.760   0.304   6.647
 3018SOL    HW2 9954   2.832   0.361   6.512
 3019SOL     OW 9955   0.597   6.937   6.856
 3019SOL    HW1 9956   0.541   6.873   6.909
 3019SOL    HW2 9957   0.566   6.939   6.761
 3020SOL     OW 9958   4.003   3.130   0.862
 3020SOL    HW1 9959   4.035   3.189   0.788
 3020SOL    HW2 9960   4.082   3.095   0.912
 3021SOL     OW 9961   3.200   0.153   4.968
 3021SOL    HW1 9962   3.240   0.063   4.950
 3021SOL    HW2 9963   3.198   0.206   4.883
 3022SOL     OW 9964   4.339   5.072   4.439
 3022SOL    HW1 9965   4.243   5.076   4.410
 3022SOL    HW2 9966   4.392   5.138   4.387
 3023SOL     OW 9967   4.113   6.341   3.170
 3023SOL    HW1 9968   4.020   6.344   3.132
 3023SOL    HW2 9969   4.128   6.421   3.229
 3024SOL     OW 9970   5.687   6.640   4.232
 3024SOL    HW1 9971   5.712   6.549   4.199
 3024SOL    HW2 9972   5.637   6.632   4.318
 3025SOL     OW 9973   4.371   6.182   1.661
 3025SOL    HW1 9974   4.335   6.261   1.610
 3025SOL    HW2 9975   4.301   6.150   1.725
 3026SOL     OW 9976   0.083   1.262   5.896
 3026SOL    HW1 9977   0.088   1.240   5.993
 3026SOL    HW2 9978   0.120   1.185   5.843
 3027SOL     OW 9979   3.719   1.734   3.087
 3027SOL    HW1 9980   3.753   1.673   3.016
 3027SOL    HW2 9981   3.730   1.691   3.177
 3028SOL     OW 9982   1.306   3.141   5.445
 3028SOL    HW1 9983   1.229   3.084   5.413
 3028SOL    HW2 9984   1.313   3.134   5.544
 3029SOL     OW 9985   1.159   3.208   4.823
 3029SOL    HW1 9986   1.146   3.307   4.810
 3029SOL    HW2 9987   1.240   3.178   4.773
 3030SOL     OW 9988   1.357   3.021   0.804
 3030SOL    HW1 9989   1.440   3.036   0.749
 3030SOL    HW2 9990   1.295   3.099   0.792
 3031SOL     OW 9991   0.201   5.263   1.277
 3031SOL    HW1 9992   0.142   5.328   1.231
 3031SOL    HW2 9993   0.297   5.283   1.256
 3032SOL     OW 9994   1.981   6.840   1.810
 3032SOL    HW1 9995   2.052   6.911   1.805
 3032SOL    HW2 9996   1.979   6.801   1.901
 3033SOL     OW 9997   5.411   0.752   2.195
 3033SOL    HW1 9998   5.452   0.778   2.107
 3033SOL    HW2 9999   5.311   0.758   2.188
 3034SOL     OW10000   0.816   0.151   3.376
 3034SOL    HW110001   0.804   0.242   3.336
 3034SOL    HW210002   0.727   0.105   3.382
 3035SOL     OW10003   0.701   3.030   6.244
 3035SOL    HW110004   0.606   3.003   6.259
 3035SOL    HW210005   0.709   3.077   6.156
 3036SOL     OW10006   1.566   2.355   5.172
 3036SOL    HW110007   1.478   2.314   5.199
 3036SOL    HW210008   1.636   2.330   5.239
 3037SOL     OW10009   6.344   5.199   6.099
 3037SOL    HW110010   6.308   5.293   6.103
 3037SOL    HW210011   6.426   5.192   6.156
 3038SOL     OW10012   5.080   5.139   5.547
 3038SOL    HW110013   5.165   5.181   5.580
 3038SOL    HW210014   5.008   5.207   5.544
 3039SOL     OW10015   0.999   2.862   1.158
 3039SOL    HW110016   1.072   2.872   1.227
 3039SOL    HW210017   0.985   2.950   1.112
 3040SOL     OW10018   3.589   4.058   5.971
 3040SOL    HW110019   3.658   4.042   5.900
 3040SOL    HW210020   3.634   4.069   6.059
 3041SOL     OW10021   2.315   4.160   5.511
 3041SOL    HW110022   2.385   4.164   5.441
 3041SOL    HW210023   2.230   4.125   5.471
 3042SOL     OW10024   6.232   6.410   3.313
 3042SOL    HW110025   6.235   6.503   3.276
 3042SOL    HW210026   6.139   6.389   3.343
 3043SOL     OW10027   3.121   4.028   1.750
 3043SOL    HW110028   3.190   4.030   1.822
 3043SOL    HW210029   3.079   4.119   1.742
 3044SOL     OW10030   3.546   6.181   5.614
 3044SOL    HW110031   3.543   6.081   5.609
 3044SOL    HW210032   3.518   6.210   5.705
 3045SOL     OW10033   5.116   0.032   3.069
 3045SOL    HW110034   5.128   0.116   3.122
 3045SOL    HW210035   5.205   7.013   3.047
 3046SOL     OW10036   3.845   0.644   6.377
 3046SOL    HW110037   3.924   0.693   6.340
 3046SOL    HW210038   3.773   0.709   6.399
 3047SOL     OW10039   6.041   0.335   1.620
 3047SOL    HW110040   6.116   0.288   1.574
 3047SOL    HW210041   5.955   0.318   1.572
 3048SOL     OW10042   4.011   2.507   0.885
 3048SOL    HW110043   3.993   2.470   0.976
 3048SOL    HW210044   3.935   2.484   0.824
 3049SOL     OW10045   1.558   6.912   3.635
 3049SOL    HW110046   1.461   6.921   3.612
 3049SOL    HW210047   1.570   6.923   3.734
 3050SOL     OW10048   3.139   1.862   1.823
 3050SOL    HW110049   3.057   1.902   1.782
 3050SOL    HW210050   3.215   1.866   1.758
 3051SOL     OW10051   1.952   6.759   6.355
 3051SOL    HW110052   1.914   6.811   6.279
 3051SOL    HW210053   1.903   6.782   6.439
 3052SOL     OW10054   5.203   5.586   1.670
 3052SOL    HW110055   5.237   5.504   1.624
 3052SOL    HW210056   5.250   5.666   1.634
 3053SOL     OW10057   6.798   3.325   0.983
 3053SOL    HW110058   6.851   3.290   0.905
 3053SOL    HW210059   6.790   3.424   0.976
 3054SOL     OW10060   5.792   1.893   1.654
 3054SOL    HW110061   5.831   1.832   1.724
 3054SOL    HW210062   5.755   1.975   1.698
 3055SOL     OW10063   5.529   0.024   5.043
 3055SOL    HW110064   5.459   0.017   5.113
 3055SOL    HW210065   5.508   0.102   4.983
 3056SOL     OW10066   6.201   1.110   5.967
 3056SOL    HW110067   6.261   1.137   6.043
 3056SOL    HW210068   6.116   1.073   6.004
 3057SOL     OW10069   4.428   4.920   4.065
 3057SOL    HW110070   4.525   4.938   4.048
 3057SOL    HW210071   4.379   5.007   4.075
 3058SOL     OW10072   0.135   4.681   0.990
 3058SOL    HW110073   0.138   4.581   0.991
 3058SOL    HW210074   0.053   4.712   0.941
 3059SOL     OW10075   2.528   1.672   4.177
 3059SOL    HW110076   2.559   1.686   4.271
 3059SOL    HW210077   2.592   1.613   4.128
 3060SOL     OW10078   1.837   5.419   7.004
 3060SOL    HW110079   1.916   5.424   0.044
 3060SOL    HW210080   1.807   5.324   6.995
 3061SOL     OW10081   6.426   5.950   5.995
 3061SOL    HW110082   6.418   5.852   6.012
 3061SOL    HW210083   6.521   5.973   5.973
 3062SOL     OW10084   1.903   0.043   0.839
 3062SOL    HW110085   1.930   6.973   0.871
 3062SOL    HW210086   1.813   0.039   0.797
 3063SOL     OW10087   2.430   4.679   1.386
 3063SOL    HW110088   2.350   4.634   1.426
 3063SOL    HW210089   2.436   4.656   1.288
 3064SOL     OW10090   4.904   3.511   0.584
 3064SOL    HW110091   4.851   3.427   0.587
 3064SOL    HW210092   4.998   3.493   0.612
 3065SOL     OW10093   1.342   2.722   6.386
 3065SOL    HW110094   1.373   2.678   6.470
 3065SOL    HW210095   1.270   2.788   6.407
 3066SOL     OW10096   4.887   5.078   0.600
 3066SOL    HW110097   4.923   5.163   0.638
 3066SOL    HW210098   4.854   5.019   0.673
 3067SOL     OW10099   3.699   0.912   6.221
 3067SOL    HW110100   3.618   0.951   6.176
 3067SOL    HW210101   3.723   0.969   6.301
 3068SOL     OW10102   0.203   6.451   1.559
 3068SOL    HW110103   0.214   6.549   1.575
 3068SOL    HW210104   0.271   6.420   1.492
 3069SOL     OW10105   6.720   6.255   2.475
 3069SOL    HW110106   6.757   6.203   2.552
 3069SOL    HW210107   6.740   6.208   2.389
 3070SOL     OW10108   2.796   0.893   6.500
 3070SOL    HW110109   2.791   0.982   6.544
 3070SOL    HW210110   2.794   0.905   6.400
 3071SOL     OW10111   6.640   6.620   4.527
 3071SOL    HW110112   6.558   6.591   4.477
 3071SOL    HW210113   6.629   6.715   4.556
 3072SOL     OW10114   2.520   5.378   6.229
 3072SOL    HW110115   2.497   5.476   6.228
 3072SOL    HW210116   2.596   5.363   6.293
 3073SOL     OW10117   6.962   3.479   3.460
 3073SOL    HW110118   0.012   3.549   3.455
 3073SOL    HW210119   6.993   3.405   3.520
 3074SOL     OW10120   0.152   4.048   1.188
 3074SOL    HW110121   0.173   3.950   1.177
 3074SOL    HW210122   0.110   4.083   1.104
 3075SOL     OW10123   2.449   5.590   2.948
 3075SOL    HW110124   2.385   5.630   2.882
 3075SOL    HW210125   2.455   5.491   2.933
 3076SOL     OW10126   6.492   0.912   3.698
 3076SOL    HW110127   6.538   0.874   3.618
 3076SOL    HW210128   6.507   1.010   3.702
 3077SOL     OW10129   5.569   4.748   1.985
 3077SOL    HW110130   5.543   4.715   1.894
 3077SOL    HW210131   5.618   4.676   2.034
 3078SOL     OW10132   7.021   3.278   3.015
 3078SOL    HW110133   0.070   3.345   3.039
 3078SOL    HW210134   6.939   3.325   2.983
 3079SOL     OW10135   2.829   2.264   2.969
 3079SOL    HW110136   2.861   2.255   3.063
 3079SOL    HW210137   2.814   2.173   2.930
 3080SOL     OW10138   6.479   4.873   2.378
 3080SOL    HW110139   6.392   4.895   2.423
 3080SOL    HW210140   6.461   4.848   2.283
 3081SOL     OW10141   1.035   4.068   5.940
 3081SOL    HW110142   0.982   4.021   5.870
 3081SOL    HW210143   1.102   4.005   5.980
 3082SOL     OW10144   1.934   5.852   4.204
 3082SOL    HW110145   1.998   5.795   4.152
 3082SOL    HW210146   1.973   5.872   4.294
 3083SOL     OW10147   3.163   6.098   3.679
 3083SOL    HW110148   3.154   6.009   3.723
 3083SOL    HW210149   3.252   6.105   3.634
 3084SOL     OW10150   6.314   4.304   3.357
 3084SOL    HW110151   6.258   4.304   3.439
 3084SOL    HW210152   6.259   4.274   3.279
 3085SOL     OW10153   6.440   4.187   0.527
 3085SOL    HW110154   6.448   4.117   0.456
 3085SOL    HW210155   6.520   4.247   0.523
 3086SOL     OW10156   5.193   1.723   0.633
 3086SOL    HW110157   5.121   1.717   0.703
 3086SOL    HW210158   5.194   1.815   0.594
 3087SOL     OW10159   2.279   6.842   3.284
 3087SOL    HW110160   2.189   6.876   3.257
 3087SOL    HW210161   2.268   6.762   3.344
 3088SOL     OW10162   2.168   3.930   4.795
 3088SOL    HW110163   2.230   3.960   4.868
 3088SOL    HW210164   2.190   3.978   4.710
 3089SOL     OW10165   3.744   1.685   4.445
 3089SOL    HW110166   3.674   1.678   4.516
 3089SOL    HW210167   3.834   1.679   4.487
 3090SOL     OW10168   2.399   1.555   1.705
 3090SOL    HW110169   2.481   1.600   1.739
 3090SOL    HW210170   2.341   1.621   1.659
 3091SOL     OW10171   1.671   1.116   0.638
 3091SOL    HW110172   1.630   1.153   0.554
 3091SOL    HW210173   1.655   1.178   0.714
 3092SOL     OW10174   5.611   0.043   0.508
 3092SOL    HW110175   5.706   0.023   0.532
 3092SOL    HW210176   5.557   0.050   0.592
 3093SOL     OW10177   5.219   5.737   6.588
 3093SOL    HW110178   5.272   5.726   6.504
 3093SOL    HW210179   5.174   5.826   6.588
 3094SOL     OW10180   2.297   0.276   3.969
 3094SOL    HW110181   2.267   0.245   3.879
 3094SOL    HW210182   2.222   0.265   4.035
 3095SOL     OW10183   2.513   4.208   5.327
 3095SOL    HW110184   2.453   4.282   5.297
 3095SOL    HW210185   2.498   4.127   5.270
 3096SOL     OW10186   0.953   5.335   5.511
 3096SOL    HW110187   0.910   5.283   5.585
 3096SOL    HW210188   0.969   5.275   5.433
 3097SOL     OW10189   5.819   3.559   6.789
 3097SOL    HW110190   5.829   3.650   6.829
 3097SOL    HW210191   5.797   3.493   6.861
 3098SOL     OW10192   1.965   3.218   1.667
 3098SOL    HW110193   2.055   3.211   1.623
 3098SOL    HW210194   1.936   3.313   1.670
 3099SOL     OW10195   1.245   6.097   4.045
 3099SOL    HW110196   1.284   6.158   3.976
 3099SOL    HW210197   1.150   6.122   4.062
 3100SOL     OW10198   6.740   5.925   3.865
 3100SOL    HW110199   6.734   6.024   3.855
 3100SOL    HW210200   6.705   5.898   3.955
 3101SOL     OW10201   6.065   5.798   6.212
 3101SOL    HW110202   5.987   5.738   6.228
 3101SOL    HW210203   6.061   5.875   6.276
 3102SOL     OW10204   6.100   6.843   1.545
 3102SOL    HW110205   6.125   6.936   1.572
 3102SOL    HW210206   6.019   6.846   1.486
 3103SOL     OW10207   4.397   1.589   1.723
 3103SOL    HW110208   4.373   1.539   1.640
 3103SOL    HW210209   4.463   1.536   1.776
 3104SOL     OW10210   4.370   0.578   6.267
 3104SOL    HW110211   4.469   0.583   6.260
 3104SOL    HW210212   4.338   0.643   6.337
 3105SOL     OW10213   5.953   4.179   1.275
 3105SOL    HW110214   5.975   4.083   1.293
 3105SOL    HW210215   5.934   4.191   1.178
 3106SOL     OW10216   4.733   6.852   4.602
 3106SOL    HW110217   4.686   6.883   4.520
 3106SOL    HW210218   4.823   6.895   4.607
 3107SOL     OW10219   3.495   0.650   4.530
 3107SOL    HW110220   3.458   0.705   4.605
 3107SOL    HW210221   3.430   0.578   4.506
 3108SOL     OW10222   2.223   5.571   4.922
 3108SOL    HW110223   2.209   5.582   4.824
 3108SOL    HW210224   2.174   5.490   4.954
 3109SOL     OW10225   5.897   6.726   3.515
 3109SOL    HW110226   5.982   6.674   3.513
 3109SOL    HW210227   5.916   6.823   3.498
 3110SOL     OW10228   1.453   3.779   2.957
 3110SOL    HW110229   1.434   3.683   2.936
 3110SOL    HW210230   1.369   3.822   2.992
 3111SOL     OW10231   6.778   5.055   3.442
 3111SOL    HW110232   6.814   5.148   3.446
 3111SOL    HW210233   6.695   5.048   3.498
 3112SOL     OW10234   3.217   3.106   0.174
 3112SOL    HW110235   3.291   3.046   0.144
 3112SOL    HW210236   3.232   3.133   0.269
 3113SOL     OW10237   3.202   4.939   2.984
 3113SOL    HW110238   3.266   5.005   3.024
 3113SOL    HW210239   3.253   4.860   2.950
 3114SOL     OW10240   3.490   1.755   0.150
 3114SOL    HW110241   3.434   1.825   0.195
 3114SOL    HW210242   3.526   1.692   0.219
 3115SOL     OW10243   4.154   4.668   6.138
 3115SOL    HW110244   4.192   4.580   6.110
 3115SOL    HW210245   4.058   4.673   6.110
 3116SOL     OW10246   6.583   2.045   6.638
 3116SOL    HW110247   6.539   2.114   6.581
 3116SOL    HW210248   6.629   1.978   6.580
 3117SOL     OW10249   4.490   4.035   5.357
 3117SOL    HW110250   4.528   3.948   5.328
 3117SOL    HW210251   4.500   4.045   5.456
 3118SOL     OW10252   0.995   5.127   2.110
 3118SOL    HW110253   0.923   5.059   2.124
 3118SOL    HW210254   0.993   5.158   2.015
 3119SOL     OW10255   2.212   2.471   0.117
 3119SOL    HW110256   2.162   2.389   0.147
 3119SOL    HW210257   2.278   2.446   0.047
 3120SOL     OW10258   2.723   0.470   5.824
 3120SOL    HW110259   2.810   0.501   5.862
 3120SOL    HW210260   2.658   0.456   5.898
 3121SOL     OW10261   6.138   1.611   4.607
 3121SOL    HW110262   6.192   1.648   4.532
 3121SOL    HW210263   6.173   1.646   4.694
 3122SOL     OW10264   4.896   5.748   5.652
 3122SOL    HW110265   4.963   5.811   5.612
 3122SOL    HW210266   4.847   5.701   5.579
 3123SOL     OW10267   2.436   1.521   2.384
 3123SOL    HW110268   2.464   1.465   2.307
 3123SOL    HW210269   2.353   1.572   2.360
 3124SOL     OW10270   4.928   0.078   4.576
 3124SOL    HW110271   4.864   0.139   4.622
 3124SOL    HW210272   4.931   0.100   4.478
 3125SOL     OW10273   1.160   3.387   5.462
 3125SOL    HW110274   1.208   3.300   5.457
 3125SOL    HW210275   1.226   3.462   5.464
 3126SOL     OW10276   5.683   4.178   5.490
 3126SOL    HW110277   5.738   4.226   5.422
 3126SOL    HW210278   5.700   4.080   5.485
 3127SOL     OW10279   1.926   2.385   6.452
 3127SOL    HW110280   1.971   2.413   6.537
 3127SOL    HW210281   1.983   2.317   6.405
 3128SOL     OW10282   3.500   1.617   6.255
 3128SOL    HW110283   3.482   1.715   6.246
 3128SOL    HW210284   3.426   1.574   6.307
 3129SOL     OW10285   6.512   3.688   6.998
 3129SOL    HW110286   6.439   3.746   6.961
 3129SOL    HW210287   6.498   3.593   6.967
 3130SOL     OW10288   2.108   4.461   2.327
 3130SOL    HW110289   2.080   4.498   2.239
 3130SOL    HW210290   2.041   4.485   2.397
 3131SOL     OW10291   0.636   3.090   1.742
 3131SOL    HW110292   0.730   3.123   1.749
 3131SOL    HW210293   0.576   3.146   1.800
 3132SOL     OW10294   5.148   5.096   6.536
 3132SOL    HW110295   5.106   5.013   6.572
 3132SOL    HW210296   5.106   5.176   6.578
 3133SOL     OW10297   3.281   1.149   3.296
 3133SOL    HW110298   3.314   1.242   3.310
 3133SOL    HW210299   3.184   1.151   3.272
 3134SOL     OW10300   4.190   4.224   1.181
 3134SOL    HW110301   4.277   4.191   1.217
 3134SOL    HW210302   4.143   4.150   1.133
 3135SOL     OW10303   4.604   0.374   5.619
 3135SOL    HW110304   4.616   0.473   5.628
 3135SOL    HW210305   4.592   0.351   5.523
 3136SOL     OW10306   5.249   0.092   2.524
 3136SOL    HW110307   5.233   0.034   2.444
 3136SOL    HW210308   5.173   0.157   2.534
 3137SOL     OW10309   6.379   6.999   2.921
 3137SOL    HW110310   6.454   6.962   2.866
 3137SOL    HW210311   6.400   0.073   2.946
 3138SOL     OW10312   0.056   6.076   3.810
 3138SOL    HW110313   0.131   6.010   3.815
 3138SOL    HW210314   0.007   6.076   3.898
 3139SOL     OW10315   3.784   5.347   0.248
 3139SOL    HW110316   3.732   5.414   0.195
 3139SOL    HW210317   3.851   5.303   0.189
 3140SOL     OW10318   6.461   6.200   6.363
 3140SOL    HW110319   6.410   6.185   6.448
 3140SOL    HW210320   6.465   6.298   6.344
 3141SOL     OW10321   0.981   0.604   6.685
 3141SOL    HW110322   0.904   0.540   6.680
 3141SOL    HW210323   1.065   0.556   6.658
 3142SOL     OW10324   2.691   6.861   2.616
 3142SOL    HW110325   2.607   6.875   2.563
 3142SOL    HW210326   2.700   6.934   2.684
 3143SOL     OW10327   6.286   1.715   0.087
 3143SOL    HW110328   6.262   1.785   0.154
 3143SOL    HW210329   6.270   1.751   7.015
 3144SOL     OW10330   4.276   4.025   0.849
 3144SOL    HW110331   4.332   3.945   0.828
 3144SOL    HW210332   4.334   4.104   0.864
 3145SOL     OW10333   2.126   6.363   1.857
 3145SOL    HW110334   2.075   6.447   1.841
 3145SOL    HW210335   2.096   6.293   1.792
 3146SOL     OW10336   0.562   1.681   4.468
 3146SOL    HW110337   0.571   1.660   4.566
 3146SOL    HW210338   0.556   1.780   4.456
 3147SOL     OW10339   2.932   5.294   0.522
 3147SOL    HW110340   2.934   5.208   0.572
 3147SOL    HW210341   2.845   5.341   0.538
 3148SOL     OW10342   6.817   6.758   3.794
 3148SOL    HW110343   6.842   6.765   3.697
 3148SOL    HW210344   6.727   6.714   3.801
 3149SOL     OW10345   3.523   0.697   6.291
 3149SOL    HW110346   3.542   0.656   6.202
 3149SOL    HW210347   3.578   0.779   6.302
 3150SOL     OW10348   6.412   5.593   5.389
 3150SOL    HW110349   6.351   5.671   5.388
 3150SOL    HW210350   6.414   5.551   5.297
 3151SOL     OW10351   0.556   1.220   4.936
 3151SOL    HW110352   0.521   1.171   5.015
 3151SOL    HW210353   0.638   1.173   4.902
 3152SOL     OW10354   0.788   5.223   0.656
 3152SOL    HW110355   0.868   5.257   0.606
 3152SOL    HW210356   0.773   5.279   0.737
 3153SOL     OW10357   6.352   5.634   0.243
 3153SOL    HW110358   6.419   5.602   0.175
 3153SOL    HW210359   6.292   5.702   0.200
 3154SOL     OW10360   6.864   2.405   6.683
 3154SOL    HW110361   6.869   2.341   6.760
 3154SOL    HW210362   6.951   2.453   6.673
 3155SOL     OW10363   6.644   4.746   0.504
 3155SOL    HW110364   6.618   4.678   0.435
 3155SOL    HW210365   6.743   4.759   0.503
 3156SOL     OW10366   3.048   3.156   2.020
 3156SOL    HW110367   2.988   3.232   2.047
 3156SOL    HW210368   3.126   3.150   2.082
 3157SOL     OW10369   2.482   1.845   5.812
 3157SOL    HW110370   2.498   1.870   5.716
 3157SOL    HW210371   2.570   1.836   5.859
 3158SOL     OW10372   3.362   1.413   3.986
 3158SOL    HW110373   3.294   1.471   4.032
 3158SOL    HW210374   3.318   1.329   3.955
 3159SOL     OW10375   5.574   0.080   6.767
 3159SOL    HW110376   5.656   0.024   6.780
 3159SOL    HW210377   5.601   0.174   6.746
 3160SOL     OW10378   1.176   5.930   5.716
 3160SOL    HW110379   1.238   5.888   5.650
 3160SOL    HW210380   1.175   6.029   5.702
 3161SOL     OW10381   2.317   2.776   2.981
 3161SOL    HW110382   2.244   2.708   2.992
 3161SOL    HW210383   2.295   2.837   2.905
 3162SOL     OW10384   1.618   5.171   1.317
 3162SOL    HW110385   1.622   5.271   1.325
 3162SOL    HW210386   1.693   5.130   1.368
 3163SOL     OW10387   4.301   3.870   6.296
 3163SOL    HW110388   4.288   3.821   6.382
 3163SOL    HW210389   4.378   3.829   6.247
 3164SOL     OW10390   3.830   5.728   1.245
 3164SOL    HW110391   3.844   5.717   1.146
 3164SOL    HW210392   3.736   5.759   1.261
 3165SOL     OW10393   1.097   6.982   1.655
 3165SOL    HW110394   1.070   6.896   1.611
 3165SOL    HW210395   1.116   0.030   1.585
 3166SOL     OW10396   4.239   1.933   3.382
 3166SOL    HW110397   4.201   1.880   3.306
 3166SOL    HW210398   4.178   2.008   3.404
 3167SOL     OW10399   5.912   4.168   1.008
 3167SOL    HW110400   5.847   4.128   0.944
 3167SOL    HW210401   5.994   4.197   0.959
 3168SOL     OW10402   5.051   2.914   0.094
 3168SOL    HW110403   5.010   2.919   0.003
 3168SOL    HW210404   5.149   2.895   0.086
 3169SOL     OW10405   2.348   4.331   4.240
 3169SOL    HW110406   2.359   4.233   4.255
 3169SOL    HW210407   2.346   4.378   4.328
 3170SOL     OW10408   4.040   5.925   1.586
 3170SOL    HW110409   3.944   5.950   1.570
 3170SOL    HW210410   4.063   5.844   1.531
 3171SOL     OW10411   0.087   1.228   2.091
 3171SOL    HW110412   0.028   1.274   2.024
 3171SOL    HW210413   0.033   1.163   2.144
 3172SOL     OW10414   0.220   5.853   0.215
 3172SOL    HW110415   0.137   5.873   0.163
 3172SOL    HW210416   0.213   5.891   0.307
 3173SOL     OW10417   3.477   2.727   0.074
 3173SOL    HW110418   3.396   2.769   0.115
 3173SOL    HW210419   3.456   2.696   7.002
 3174SOL     OW10420   3.202   2.732   0.684
 3174SOL    HW110421   3.128   2.734   0.752
 3174SOL    HW210422   3.163   2.713   0.594
 3175SOL     OW10423   5.934   0.740   1.710
 3175SOL    HW110424   5.983   0.681   1.645
 3175SOL    HW210425   6.000   0.801   1.755
 3176SOL     OW10426   1.120   4.101   5.525
 3176SOL    HW110427   1.139   4.010   5.561
 3176SOL    HW210428   1.119   4.098   5.425
 3177SOL     OW10429   4.757   4.508   3.360
 3177SOL    HW110430   4.817   4.463   3.295
 3177SOL    HW210431   4.688   4.443   3.393
 3178SOL     OW10432   6.734   2.107   0.885
 3178SOL    HW110433   6.764   2.029   0.831
 3178SOL    HW210434   6.693   2.175   0.824
 3179SOL     OW10435   1.149   2.479   1.615
 3179SOL    HW110436   1.175   2.535   1.537
 3179SOL    HW210437   1.156   2.382   1.591
 3180SOL     OW10438   5.903   0.690   0.116
 3180SOL    HW110439   5.963   0.629   0.168
 3180SOL    HW210440   5.828   0.720   0.174
 3181SOL     OW10441   6.922   1.907   2.613
 3181SOL    HW110442   6.843   1.874   2.664
 3181SOL    HW210443   6.892   1.957   2.532
 3182SOL     OW10444   2.552   0.266   6.591
 3182SOL    HW110445   2.597   0.337   6.536
 3182SOL    HW210446   2.454   0.282   6.593
 3183SOL     OW10447   4.835   4.135   2.198
 3183SOL    HW110448   4.883   4.207   2.148
 3183SOL    HW210449   4.789   4.174   2.278
 3184SOL     OW10450   0.843   3.025   2.625
 3184SOL    HW110451   0.824   3.108   2.573
 3184SOL    HW210452   0.846   2.946   2.563
 3185SOL     OW10453   4.891   5.473   6.720
 3185SOL    HW110454   4.911   5.422   6.637
 3185SOL    HW210455   4.891   5.571   6.700
 3186SOL     OW10456   3.199   2.126   1.006
 3186SOL    HW110457   3.155   2.205   0.962
 3186SOL    HW210458   3.186   2.131   1.105
 3187SOL     OW10459   4.652   5.326   0.398
 3187SOL    HW110460   4.751   5.322   0.410
 3187SOL    HW210461   4.608   5.271   0.469
 3188SOL     OW10462   1.110   6.819   4.388
 3188SOL    HW110463   1.195   6.802   4.339
 3188SOL    HW210464   1.036   6.768   4.345
 3189SOL     OW10465   1.156   1.957   1.231
 3189SOL    HW110466   1.153   2.056   1.217
 3189SOL    HW210467   1.223   1.917   1.169
 3190SOL     OW10468   0.581   5.400   0.173
 3190SOL    HW110469   0.546   5.481   0.220
 3190SOL    HW210470   0.551   5.318   0.222
 3191SOL     OW10471   5.025   5.834   0.849
 3191SOL    HW110472   4.996   5.739   0.834
 3191SOL    HW210473   5.107   5.852   0.796
 3192SOL     OW10474   0.083   3.242   1.422
 3192SOL    HW110475   0.037   3.223   1.335
 3192SOL    HW210476   0.109   3.338   1.426
 3193SOL     OW10477   4.457   0.991   6.627
 3193SOL    HW110478   4.497   0.972   6.537
 3193SOL    HW210479   4.366   0.951   6.632
 3194SOL     OW10480   1.159   1.876   6.732
 3194SOL    HW110481   1.145   1.855   6.635
 3194SOL    HW210482   1.071   1.893   6.776
 3195SOL     OW10483   2.430   1.228   3.536
 3195SOL    HW110484   2.508   1.267   3.486
 3195SOL    HW210485   2.464   1.173   3.612
 3196SOL     OW10486   0.331   0.792   6.810
 3196SOL    HW110487   0.348   0.798   6.712
 3196SOL    HW210488   0.407   0.834   6.860
 3197SOL     OW10489   3.143   6.683   4.160
 3197SOL    HW110490   3.104   6.757   4.214
 3197SOL    HW210491   3.205   6.721   4.091
 3198SOL     OW10492   6.142   3.183   3.813
 3198SOL    HW110493   6.067   3.165   3.877
 3198SOL    HW210494   6.166   3.098   3.765
 3199SOL     OW10495   5.091   4.110   2.940
 3199SOL    HW110496   5.076   4.204   2.909
 3199SOL    HW210497   5.189   4.091   2.944
 3200SOL     OW10498   5.828   3.416   2.930
 3200SOL    HW110499   5.922   3.405   2.897
 3200SOL    HW210500   5.803   3.513   2.931
 3201SOL     OW10501   6.443   4.641   4.213
 3201SOL    HW110502   6.351   4.648   4.175
 3201SOL    HW210503   6.510   4.641   4.138
 3202SOL     OW10504   1.246   4.713   1.530
 3202SOL    HW110505   1.190   4.673   1.457
 3202SOL    HW210506   1.227   4.811   1.537
 3203SOL     OW10507   6.293   2.306   0.527
 3203SOL    HW110508   6.385   2.330   0.496
 3203SOL    HW210509   6.293   2.296   0.626
 3204SOL     OW10510   4.672   6.097   3.171
 3204SOL    HW110511   4.744   6.039   3.133
 3204SOL    HW210512   4.583   6.053   3.159
 3205SOL     OW10513   5.381   2.513   5.813
 3205SOL    HW110514   5.339   2.552   5.894
 3205SOL    HW210515   5.459   2.456   5.839
 3206SOL     OW10516   1.982   4.670   0.089
 3206SOL    HW110517   2.066   4.637   0.047
 3206SOL    HW210518   1.922   4.592   0.110
 3207SOL     OW10519   1.008   1.049   5.876
 3207SOL    HW110520   1.049   0.990   5.946
 3207SOL    HW210521   1.080   1.100   5.829
 3208SOL     OW10522   4.438   6.487   6.011
 3208SOL    HW110523   4.467   6.393   5.988
 3208SOL    HW210524   4.349   6.505   5.970
 3209SOL     OW10525   4.122   5.378   3.746
 3209SOL    HW110526   4.189   5.309   3.775
 3209SOL    HW210527   4.101   5.364   3.649
 3210SOL     OW10528   1.129   4.279   0.674
 3210SOL    HW110529   1.109   4.231   0.759
 3210SOL    HW210530   1.162   4.371   0.694
 3211SOL     OW10531   1.817   3.463   0.543
 3211SOL    HW110532   1.863   3.383   0.580
 3211SOL    HW210533   1.723   3.440   0.520
 3212SOL     OW10534   3.136   6.892   1.527
 3212SOL    HW110535   3.054   6.837   1.511
 3212SOL    HW210536   3.214   6.851   1.479
 3213SOL     OW10537   1.223   0.075   0.535
 3213SOL    HW110538   1.261   0.077   0.443
 3213SOL    HW210539   1.143   0.135   0.539
 3214SOL     OW10540   4.354   5.674   0.911
 3214SOL    HW110541   4.432   5.696   0.852
 3214SOL    HW210542   4.315   5.587   0.883
 3215SOL     OW10543   0.318   3.541   1.168
 3215SOL    HW110544   0.401   3.486   1.161
 3215SOL    HW210545   0.244   3.498   1.116
 3216SOL     OW10546   6.516   5.527   6.830
 3216SOL    HW110547   6.443   5.459   6.815
 3216SOL    HW210548   6.485   5.616   6.798
 3217SOL     OW10549   0.140   5.397   2.129
 3217SOL    HW110550   0.220   5.411   2.188
 3217SOL    HW210551   0.167   5.345   2.048
 3218SOL     OW10552   4.840   2.608   3.839
 3218SOL    HW110553   4.803   2.583   3.750
 3218SOL    HW210554   4.861   2.525   3.891
 3219SOL     OW10555   0.669   1.947   3.581
 3219SOL    HW110556   0.681   1.904   3.491
 3219SOL    HW210557   0.716   2.035   3.583
 3220SOL     OW10558   0.027   5.659   6.565
 3220SOL    HW110559   0.084   5.664   6.483
 3220SOL    HW210560   6.994   5.743   6.574
 3221SOL     OW10561   4.386   0.342   1.651
 3221SOL    HW110562   4.361   0.402   1.575
 3221SOL    HW210563   4.484   0.346   1.667
 3222SOL     OW10564   3.323   0.836   2.916
 3222SOL    HW110565   3.387   0.908   2.942
 3222SOL    HW210566   3.289   0.854   2.824
 3223SOL     OW10567   2.420   6.598   6.507
 3223SOL    HW110568   2.368   6.622   6.425
 3223SOL    HW210569   2.420   6.498   6.518
 3224SOL     OW10570   4.892   3.917   6.044
 3224SOL    HW110571   4.851   4.008   6.054
 3224SOL    HW210572   4.822   3.847   6.059
 3225SOL     OW10573   5.476   3.091   5.748
 3225SOL    HW110574   5.385   3.066   5.715
 3225SOL    HW210575   5.521   3.011   5.788
 3226SOL     OW10576   2.776   1.668   2.817
 3226SOL    HW110577   2.859   1.613   2.811
 3226SOL    HW210578   2.711   1.639   2.747
 3227SOL     OW10579   3.336   2.730   6.856
 3227SOL    HW110580   3.246   2.701   6.825
 3227SOL    HW210581   3.397   2.744   6.778
 3228SOL     OW10582   0.093   3.924   1.752
 3228SOL    HW110583   0.120   3.941   1.847
 3228SOL    HW210584   0.117   3.830   1.726
 3229SOL     OW10585   4.018   0.591   4.845
 3229SOL    HW110586   3.984   0.578   4.752
 3229SOL    HW210587   4.054   0.504   4.880
 3230SOL     OW10588   2.722   4.100   5.524
 3230SOL    HW110589   2.689   4.180   5.474
 3230SOL    HW210590   2.686   4.017   5.482
 3231SOL     OW10591   2.685   6.851   1.249
 3231SOL    HW110592   2.686   6.932   1.309
 3231SOL    HW210593   2.772   6.846   1.200
 3232SOL     OW10594   5.171   6.602   4.806
 3232SOL    HW110595   5.204   6.659   4.881
 3232SOL    HW210596   5.077   6.575   4.824
 3233SOL     OW10597   0.556   2.497   1.367
 3233SOL    HW110598   0.595   2.420   1.315
 3233SOL    HW210599   0.519   2.564   1.303
 3234SOL     OW10600   0.252   2.448   6.882
 3234SOL    HW110601   0.192   2.383   6.928
 3234SOL    HW210602   0.222   2.541   6.902
 3235SOL     OW10603   6.371   0.749   2.716
 3235SOL    HW110604   6.280   0.760   2.755
 3235SOL    HW210605   6.438   0.738   2.789
 3236SOL     OW10606   1.696   2.822   0.566
 3236SOL    HW110607   1.706   2.781   0.656
 3236SOL    HW210608   1.785   2.855   0.534
 3237SOL     OW10609   5.315   1.376   3.446
 3237SOL    HW110610   5.379   1.374   3.523
 3237SOL    HW210611   5.287   1.470   3.427
 3238SOL     OW10612   7.010   5.402   0.648
 3238SOL    HW110613   0.026   5.328   0.591
 3238SOL    HW210614   7.001   5.485   0.593
 3239SOL     OW10615   6.868   1.456   2.249
 3239SOL    HW110616   6.953   1.491   2.211
 3239SOL    HW210617   6.881   1.361   2.279
 3240SOL     OW10618   6.875   6.723   6.179
 3240SOL    HW110619   6.913   6.701   6.269
 3240SOL    HW210620   6.912   6.811   6.149
 3241SOL     OW10621   4.635   1.036   4.741
 3241SOL    HW110622   4.601   0.945   4.765
 3241SOL    HW210623   4.718   1.027   4.687
 3242SOL     OW10624   4.371   3.875   0.023
 3242SOL    HW110625   4.352   3.883   6.946
 3242SOL    HW210626   4.315   3.801   0.062
 3243SOL     OW10627   4.247   4.604   0.391
 3243SOL    HW110628   4.201   4.601   0.302
 3243SOL    HW210629   4.318   4.534   0.394
 3244SOL     OW10630   4.582   5.864   0.219
 3244SOL    HW110631   4.659   5.912   0.177
 3244SOL    HW210632   4.506   5.860   0.154
 3245SOL     OW10633   5.561   3.472   4.750
 3245SOL    HW110634   5.484   3.533   4.772
 3245SOL    HW210635   5.646   3.525   4.747
 3246SOL     OW10636   5.554   0.358   2.646
 3246SOL    HW110637   5.646   0.391   2.627
 3246SOL    HW210638   5.511   0.328   2.561
 3247SOL     OW10639   6.710   4.313   2.626
 3247SOL    HW110640   6.678   4.406   2.645
 3247SOL    HW210641   6.810   4.312   2.623
 3248SOL     OW10642   5.985   3.639   1.665
 3248SOL    HW110643   6.060   3.704   1.654
 3248SOL    HW210644   6.001   3.559   1.607
 3249SOL     OW10645   4.098   3.832   4.120
 3249SOL    HW110646   4.038   3.840   4.200
 3249SOL    HW210647   4.070   3.898   4.051
 3250SOL     OW10648   5.608   6.984   2.335
 3250SOL    HW110649   5.558   6.907   2.295
 3250SOL    HW210650   5.616   6.971   2.434
 3251SOL     OW10651   3.081   0.966   3.851
 3251SOL    HW110652   3.130   0.888   3.812
 3251SOL    HW210653   3.015   0.933   3.918
 3252SOL     OW10654   2.577   0.813   2.870
 3252SOL    HW110655   2.497   0.874   2.872
 3252SOL    HW210656   2.549   0.720   2.893
 3253SOL     OW10657   4.720   4.277   1.845
 3253SOL    HW110658   4.739   4.179   1.849
 3253SOL    HW210659   4.666   4.304   1.925
 3254SOL     OW10660   5.692   6.116   5.691
 3254SOL    HW110661   5.784   6.133   5.657
 3254SOL    HW210662   5.680   6.018   5.708
 3255SOL     OW10663   5.135   6.415   0.334
 3255SOL    HW110664   5.078   6.386   0.410
 3255SOL    HW210665   5.218   6.358   0.332
 3256SOL     OW10666   3.214   1.035   0.454
 3256SOL    HW110667   3.165   1.102   0.398
 3256SOL    HW210668   3.304   1.019   0.414
 3257SOL     OW10669   1.555   1.812   2.061
 3257SOL    HW110670   1.525   1.721   2.089
 3257SOL    HW210671   1.559   1.872   2.140
 3258SOL     OW10672   4.843   5.577   2.492
 3258SOL    HW110673   4.836   5.638   2.571
 3258SOL    HW210674   4.857   5.631   2.409
 3259SOL     OW10675   4.824   5.076   4.649
 3259SOL    HW110676   4.785   5.025   4.572
 3259SOL    HW210677   4.841   5.014   4.725
 3260SOL     OW10678   1.060   2.087   0.934
 3260SOL    HW110679   1.084   2.128   1.022
 3260SOL    HW210680   1.140   2.039   0.898
 3261SOL     OW10681   5.651   0.436   1.876
 3261SOL    HW110682   5.687   0.525   1.904
 3261SOL    HW210683   5.569   0.415   1.928
 3262SOL     OW10684   3.172   2.173   2.567
 3262SOL    HW110685   3.088   2.181   2.621
 3262SOL    HW210686   3.152   2.193   2.471
 3263SOL     OW10687   2.614   1.086   3.130
 3263SOL    HW110688   2.705   1.117   3.102
 3263SOL    HW210689   2.623   1.014   3.199
 3264SOL     OW10690   1.342   4.477   0.871
 3264SOL    HW110691   1.277   4.416   0.916
 3264SOL    HW210692   1.435   4.441   0.882
 3265SOL     OW10693   5.301   0.692   6.539
 3265SOL    HW110694   5.302   0.782   6.495
 3265SOL    HW210695   5.235   0.633   6.492
 3266SOL     OW10696   1.825   4.115   0.143
 3266SOL    HW110697   1.842   4.095   0.240
 3266SOL    HW210698   1.909   4.151   0.102
 3267SOL     OW10699   3.463   6.576   1.149
 3267SOL    HW110700   3.487   6.510   1.220
 3267SOL    HW210701   3.364   6.591   1.149
 3268SOL     OW10702   1.474   3.517   1.511
 3268SOL    HW110703   1.387   3.561   1.536
 3268SOL    HW210704   1.501   3.547   1.420
 3269SOL     OW10705   4.881   5.524   2.095
 3269SOL    HW110706   4.975   5.495   2.076
 3269SOL    HW210707   4.822   5.496   2.019
 3270SOL     OW10708   1.348   4.224   5.741
 3270SOL    HW110709   1.293   4.211   5.658
 3270SOL    HW210710   1.419   4.292   5.723
 3271SOL     OW10711   5.771   3.842   2.341
 3271SOL    HW110712   5.780   3.745   2.363
 3271SOL    HW210713   5.689   3.856   2.286
 3272SOL     OW10714   3.488   4.543   5.973
 3272SOL    HW110715   3.459   4.528   6.068
 3272SOL    HW210716   3.407   4.551   5.915
 3273SOL     OW10717   0.153   6.048   0.735
 3273SOL    HW110718   0.057   6.031   0.756
 3273SOL    HW210719   0.210   6.010   0.807
 3274SOL     OW10720   5.243   1.101   0.656
 3274SOL    HW110721   5.171   1.171   0.662
 3274SOL    HW210722   5.274   1.094   0.561
 3275SOL     OW10723   5.924   1.299   6.750
 3275SOL    HW110724   5.970   1.255   6.827
 3275SOL    HW210725   5.928   1.398   6.761
 3276SOL     OW10726   2.810   5.808   6.702
 3276SOL    HW110727   2.730   5.863   6.681
 3276SOL    HW210728   2.813   5.790   6.800
 3277SOL     OW10729   3.868   7.008   6.906
 3277SOL    HW110730   3.957   0.031   6.898
 3277SOL    HW210731   3.879   6.913   6.934
 3278SOL     OW10732   0.597   1.006   5.553
 3278SOL    HW110733   0.639   0.981   5.465
 3278SOL    HW210734   0.638   0.950   5.626
 3279SOL     OW10735   5.069   0.218   0.774
 3279SOL    HW110736   5.040   0.215   0.679
 3279SOL    HW210737   5.124   0.301   0.790
 3280SOL     OW10738   4.053   4.843   4.057
 3280SOL    HW110739   4.022   4.837   3.962
 3280SOL    HW210740   4.116   4.768   4.076
 3281SOL     OW10741   1.926   4.992   1.717
 3281SOL    HW110742   1.976   4.987   1.803
 3281SOL    HW210743   1.836   4.950   1.728
 3282SOL     OW10744   7.000   4.966   5.739
 3282SOL    HW110745   0.037   4.960   5.657
 3282SOL    HW210746   6.958   5.056   5.744
 3283SOL     OW10747   3.689   0.365   1.077
 3283SOL    HW110748   3.720   0.414   1.158
 3283SOL    HW210749   3.728   0.408   0.995
 3284SOL     OW10750   0.045   4.847   0.082
 3284SOL    HW110751   0.105   4.804   0.014
 3284SOL    HW210752   6.970   4.830   0.058
 3285SOL     OW10753   4.226   2.347   3.405
 3285SOL    HW110754   4.316   2.305   3.401
 3285SOL    HW210755   4.212   2.403   3.323
 3286SOL     OW10756   3.230   2.854   2.166
 3286SOL    HW110757   3.177   2.769   2.162
 3286SOL    HW210758   3.323   2.837   2.135
 3287SOL     OW10759   0.540   0.387   6.908
 3287SOL    HW110760   0.594   0.373   6.991
 3287SOL    HW210761   0.591   0.444   6.844
 3288SOL     OW10762   0.766   5.684   5.978
 3288SOL    HW110763   0.861   5.717   5.976
 3288SOL    HW210764   0.763   5.589   5.948
 3289SOL     OW10765   2.591   0.110   5.341
 3289SOL    HW110766   2.587   0.119   5.441
 3289SOL    HW210767   2.542   0.187   5.299
 3290SOL     OW10768   0.290   6.648   1.288
 3290SOL    HW110769   0.213   6.695   1.330
 3290SOL    HW210770   0.268   6.626   1.193
 3291SOL     OW10771   1.712   6.980   0.291
 3291SOL    HW110772   1.647   6.970   0.366
 3291SOL    HW210773   1.664   7.015   0.210
 3292SOL     OW10774   0.266   1.324   0.448
 3292SOL    HW110775   0.238   1.342   0.542
 3292SOL    HW210776   0.326   1.244   0.445
 3293SOL     OW10777   0.466   4.042   1.833
 3293SOL    HW110778   0.426   3.952   1.818
 3293SOL    HW210779   0.525   4.065   1.755
 3294SOL     OW10780   5.933   1.913   6.520
 3294SOL    HW110781   5.891   1.936   6.432
 3294SOL    HW210782   5.863   1.877   6.582
 3295SOL     OW10783   1.379   2.522   1.839
 3295SOL    HW110784   1.306   2.503   1.773
 3295SOL    HW210785   1.467   2.523   1.791
 3296SOL     OW10786   1.065   6.775   2.902
 3296SOL    HW110787   1.034   6.845   2.837
 3296SOL    HW210788   1.144   6.809   2.952
 3297SOL     OW10789   3.084   0.975   5.530
 3297SOL    HW110790   3.129   0.903   5.478
 3297SOL    HW210791   3.144   1.055   5.534
 3298SOL     OW10792   6.113   1.848   5.338
 3298SOL    HW110793   6.019   1.869   5.365
 3298SOL    HW210794   6.121   1.749   5.321
 3299SOL     OW10795   3.231   5.692   3.114
 3299SOL    HW110796   3.178   5.776   3.098
 3299SOL    HW210797   3.190   5.641   3.190
 3300SOL     OW10798   6.470   1.096   5.059
 3300SOL    HW110799   6.439   1.027   5.125
 3300SOL    HW210800   6.496   1.179   5.108
 3301SOL     OW10801   1.629   3.242   3.087
 3301SOL    HW110802   1.542   3.207   3.122
 3301SOL    HW210803   1.628   3.342   3.090
 3302SOL     OW10804   0.920   4.708   5.686
 3302SOL    HW110805   0.823   4.705   5.710
 3302SOL    HW210806   0.934   4.660   5.600
 3303SOL     OW10807   3.693   4.064   1.306
 3303SOL    HW110808   3.729   3.984   1.257
 3303SOL    HW210809   3.608   4.093   1.263
 3304SOL     OW10810   1.153   5.690   4.325
 3304SOL    HW110811   1.189   5.780   4.351
 3304SOL    HW210812   1.223   5.640   4.273
 3305SOL     OW10813   2.024   0.998   2.422
 3305SOL    HW110814   2.092   0.932   2.456
 3305SOL    HW210815   2.049   1.025   2.329
 3306SOL     OW10816   2.251   5.392   5.299
 3306SOL    HW110817   2.336   5.412   5.250
 3306SOL    HW210818   2.178   5.371   5.233
 3307SOL     OW10819   0.225   5.649   6.766
 3307SOL    HW110820   0.151   5.684   6.708
 3307SOL    HW210821   0.188   5.584   6.833
 3308SOL     OW10822   2.495   6.277   0.752
 3308SOL    HW110823   2.506   6.205   0.683
 3308SOL    HW210824   2.414   6.258   0.807
 3309SOL     OW10825   0.124   5.771   3.203
 3309SOL    HW110826   0.113   5.695   3.139
 3309SOL    HW210827   0.047   5.774   3.267
 3310SOL     OW10828   0.094   3.336   6.390
 3310SOL    HW110829   0.033   3.316   6.467
 3310SOL    HW210830   0.043   3.388   6.321
 3311SOL     OW10831   2.500   4.096   1.405
 3311SOL    HW110832   2.568   4.057   1.344
 3311SOL    HW210833   2.496   4.043   1.489
 3312SOL     OW10834   4.156   4.941   5.889
 3312SOL    HW110835   4.221   4.976   5.822
 3312SOL    HW210836   4.135   4.846   5.869
 3313SOL     OW10837   1.009   5.857   3.590
 3313SOL    HW110838   0.994   5.914   3.671
 3313SOL    HW210839   1.070   5.781   3.613
 3314SOL     OW10840   3.014   1.547   2.830
 3314SOL    HW110841   2.998   1.486   2.907
 3314SOL    HW210842   3.073   1.502   2.763
 3315SOL     OW10843   6.404   4.069   4.133
 3315SOL    HW110844   6.383   4.165   4.115
 3315SOL    HW210845   6.485   4.041   4.082
 3316SOL     OW10846   4.683   1.462   5.713
 3316SOL    HW110847   4.590   1.426   5.719
 3316SOL    HW210848   4.743   1.410   5.773
 3317SOL     OW10849   4.332   3.017   1.659
 3317SOL    HW110850   4.267   2.978   1.725
 3317SOL    HW210851   4.422   3.024   1.701
 3318SOL     OW10852   1.898   1.428   1.068
 3318SOL    HW110853   1.983   1.412   1.019
 3318SOL    HW210854   1.917   1.476   1.154
 3319SOL     OW10855   6.622   1.277   4.196
 3319SOL    HW110856   6.686   1.288   4.272
 3319SOL    HW210857   6.652   1.333   4.119
 3320SOL     OW10858   6.757   0.486   4.789
 3320SOL    HW110859   6.690   0.550   4.749
 3320SOL    HW210860   6.708   0.411   4.833
 3321SOL     OW10861   5.138   1.583   0.160
 3321SOL    HW110862   5.136   1.673   0.203
 3321SOL    HW210863   5.117   1.513   0.228
 3322SOL     OW10864   6.515   2.867   1.426
 3322SOL    HW110865   6.600   2.896   1.384
 3322SOL    HW210866   6.440   2.872   1.360
 3323SOL     OW10867   3.122   2.654   0.412
 3323SOL    HW110868   3.057   2.721   0.375
 3323SOL    HW210869   3.075   2.568   0.430
 3324SOL     OW10870   3.886   5.266   6.886
 3324SOL    HW110871   3.911   5.361   6.869
 3324SOL    HW210872   3.831   5.232   6.811
 3325SOL     OW10873   0.985   3.173   0.171
 3325SOL    HW110874   0.896   3.151   0.211
 3325SOL    HW210875   0.973   3.239   0.097
 3326SOL     OW10876   4.731   2.025   1.560
 3326SOL    HW110877   4.647   2.025   1.507
 3326SOL    HW210878   4.732   1.946   1.621
 3327SOL     OW10879   2.914   5.630   1.520
 3327SOL    HW110880   2.857   5.574   1.580
 3327SOL    HW210881   2.856   5.691   1.467
 3328SOL     OW10882   4.580   2.180   0.692
 3328SOL    HW110883   4.544   2.108   0.751
 3328SOL    HW210884   4.504   2.230   0.651
 3329SOL     OW10885   4.901   0.413   4.963
 3329SOL    HW110886   4.805   0.406   4.991
 3329SOL    HW210887   4.909   0.475   4.885
 3330SOL     OW10888   6.350   4.890   1.208
 3330SOL    HW110889   6.347   4.962   1.138
 3330SOL    HW210890   6.426   4.907   1.270
 3331SOL     OW10891   2.262   2.733   1.373
 3331SOL    HW110892   2.331   2.794   1.335
 3331SOL    HW210893   2.178   2.738   1.318
 3332SOL     OW10894   6.038   5.362   6.829
 3332SOL    HW110895   5.969   5.432   6.809
 3332SOL    HW210896   6.003   5.272   6.804
 3333SOL     OW10897   4.248   4.368   6.308
 3333SOL    HW110898   4.234   4.369   6.209
 3333SOL    HW210899   4.288   4.281   6.336
 3334SOL     OW10900   3.035   3.860   1.555
 3334SOL    HW110901   3.067   3.934   1.614
 3334SOL    HW210902   3.067   3.772   1.591
 3335SOL     OW10903   5.237   0.187   5.191
 3335SOL    HW110904   5.289   0.104   5.210
 3335SOL    HW210905   5.140   0.168   5.202
 3336SOL     OW10906   2.113   6.389   4.778
 3336SOL    HW110907   2.109   6.292   4.804
 3336SOL    HW210908   2.205   6.424   4.795
 3337SOL     OW10909   3.334   4.092   2.450
 3337SOL    HW110910   3.369   4.170   2.397
 3337SOL    HW210911   3.383   4.009   2.423
 3338SOL     OW10912   5.487   3.026   1.945
 3338SOL    HW110913   5.515   3.121   1.961
 3338SOL    HW210914   5.404   3.024   1.889
 3339SOL     OW10915   6.846   0.262   6.692
 3339SOL    HW110916   6.834   0.234   6.597
 3339SOL    HW210917   6.813   0.190   6.753
 3340SOL     OW10918   3.774   1.624   2.506
 3340SOL    HW110919   3.838   1.697   2.533
 3340SOL    HW210920   3.713   1.659   2.435
 3341SOL     OW10921   1.284   5.389   3.412
 3341SOL    HW110922   1.327   5.419   3.327
 3341SOL    HW210923   1.184   5.394   3.403
 3342SOL     OW10924   2.330   0.000   4.083
 3342SOL    HW110925   2.314   6.977   3.995
 3342SOL    HW210926   2.268   0.079   4.093
 3343SOL     OW10927   5.807   3.318   0.652
 3343SOL    HW110928   5.823   3.411   0.683
 3343SOL    HW210929   5.783   3.320   0.554
 3344SOL     OW10930   5.479   3.104   4.284
 3344SOL    HW110931   5.530   3.162   4.221
 3344SOL    HW210932   5.404   3.157   4.324
 3345SOL     OW10933   1.508   3.538   5.903
 3345SOL    HW110934   1.572   3.484   5.957
 3345SOL    HW210935   1.548   3.628   5.885
 3346SOL     OW10936   1.485   0.809   1.082
 3346SOL    HW110937   1.521   0.900   1.104
 3346SOL    HW210938   1.530   0.775   1.000
 3347SOL     OW10939   0.866   3.562   5.141
 3347SOL    HW110940   0.803   3.515   5.078
 3347SOL    HW210941   0.960   3.547   5.111
 3348SOL     OW10942   3.210   3.511   4.002
 3348SOL    HW110943   3.235   3.530   3.907
 3348SOL    HW210944   3.269   3.439   4.038
 3349SOL     OW10945   1.011   5.847   2.742
 3349SOL    HW110946   1.039   5.936   2.708
 3349SOL    HW210947   0.983   5.855   2.837
 3350SOL     OW10948   0.744   2.413   5.893
 3350SOL    HW110949   0.728   2.506   5.928
 3350SOL    HW210950   0.836   2.407   5.856
 3351SOL     OW10951   4.926   1.104   1.924
 3351SOL    HW110952   4.951   1.182   1.868
 3351SOL    HW210953   4.954   1.120   2.019
 3352SOL     OW10954   6.689   2.196   0.444
 3352SOL    HW110955   6.716   2.169   0.351
 3352SOL    HW210956   6.618   2.134   0.477
 3353SOL     OW10957   1.682   5.398   1.669
 3353SOL    HW110958   1.632   5.472   1.714
 3353SOL    HW210959   1.751   5.361   1.731
 3354SOL     OW10960   4.837   2.608   5.217
 3354SOL    HW110961   4.928   2.636   5.189
 3354SOL    HW210962   4.837   2.586   5.315
 3355SOL     OW10963   2.297   1.767   0.205
 3355SOL    HW110964   2.283   1.862   0.175
 3355SOL    HW210965   2.237   1.747   0.282
 3356SOL     OW10966   1.159   4.315   5.919
 3356SOL    HW110967   1.106   4.230   5.921
 3356SOL    HW210968   1.233   4.307   5.852
 3357SOL     OW10969   2.539   4.555   1.899
 3357SOL    HW110970   2.511   4.637   1.850
 3357SOL    HW210971   2.635   4.565   1.928
 3358SOL     OW10972   4.616   1.217   0.896
 3358SOL    HW110973   4.650   1.264   0.977
 3358SOL    HW210974   4.541   1.269   0.856
 3359SOL     OW10975   0.047   0.285   3.247
 3359SOL    HW110976   0.136   0.328   3.263
 3359SOL    HW210977   0.058   0.187   3.236
 3360SOL     OW10978   0.382   1.390   7.011
 3360SOL    HW110979   0.470   1.437   6.998
 3360SOL    HW210980   0.398   1.294   0.010
 3361SOL     OW10981   1.016   4.690   4.083
 3361SOL    HW110982   1.016   4.741   3.997
 3361SOL    HW210983   1.087   4.725   4.143
 3362SOL     OW10984   3.713   1.257   3.144
 3362SOL    HW110985   3.808   1.242   3.168
 3362SOL    HW210986   3.707   1.300   3.054
 3363SOL     OW10987   6.372   6.805   1.787
 3363SOL    HW110988   6.355   6.756   1.701
 3363SOL    HW210989   6.438   6.879   1.771
 3364SOL     OW10990   1.269   4.717   3.894
 3364SOL    HW110991   1.287   4.784   3.966
 3364SOL    HW210992   1.171   4.719   3.871
 3365SOL     OW10993   6.787   2.036   5.422
 3365SOL    HW110994   6.739   1.949   5.415
 3365SOL    HW210995   6.743   2.103   5.362
 3366SOL     OW10996   5.754   6.456   5.051
 3366SOL    HW110997   5.764   6.431   5.148
 3366SOL    HW210998   5.747   6.373   4.996
 3367SOL     OW10999   3.632   2.642   1.591
 3367SOL    HW111000   3.575   2.724   1.584
 3367SOL    HW211001   3.712   2.662   1.647
 3368SOL     OW11002   0.414   4.850   5.706
 3368SOL    HW111003   0.483   4.843   5.778
 3368SOL    HW211004   0.434   4.785   5.633
 3369SOL     OW11005   3.563   2.748   6.217
 3369SOL    HW111006   3.469   2.754   6.251
 3369SOL    HW211007   3.561   2.732   6.118
 3370SOL     OW11008   0.082   5.955   6.625
 3370SOL    HW111009   0.045   6.021   6.691
 3370SOL    HW211010   0.179   5.974   6.610
 3371SOL     OW11011   2.124   2.989   2.141
 3371SOL    HW111012   2.123   3.076   2.093
 3371SOL    HW211013   2.088   2.917   2.081
 3372SOL     OW11014   0.725   1.926   0.697
 3372SOL    HW111015   0.632   1.959   0.679
 3372SOL    HW211016   0.739   1.837   0.654
 3373SOL     OW11017   6.963   1.466   3.081
 3373SOL    HW111018   6.983   1.409   3.001
 3373SOL    HW211019   6.954   1.562   3.053
 3374SOL     OW11020   1.386   6.225   4.689
 3374SOL    HW111021   1.477   6.245   4.724
 3374SOL    HW211022   1.318   6.245   4.761
 3375SOL     OW11023   6.766   5.698   6.449
 3375SOL    HW111024   6.701   5.761   6.491
 3375SOL    HW211025   6.792   5.628   6.516
 3376SOL     OW11026   3.884   2.951   3.160
 3376SOL    HW111027   3.935   3.017   3.106
 3376SOL    HW211028   3.934   2.929   3.243
 3377SOL     OW11029   6.757   6.310   5.791
 3377SOL    HW111030   6.821   6.235   5.802
 3377SOL    HW211031   6.741   6.353   5.880
 3378SOL     OW11032   0.418   1.076   0.440
 3378SOL    HW111033   0.498   1.133   0.419
 3378SOL    HW211034   0.445   0.979   0.437
 3379SOL     OW11035   6.539   6.856   6.327
 3379SOL    HW111036   6.566   6.774   6.376
 3379SOL    HW211037   6.449   6.842   6.285
 3380SOL     OW11038   5.896   6.899   5.063
 3380SOL    HW111039   5.969   6.871   5.126
 3380SOL    HW211040   5.836   6.964   5.109
 3381SOL     OW11041   0.858   2.602   1.120
 3381SOL    HW111042   0.923   2.540   1.163
 3381SOL    HW211043   0.893   2.696   1.127
 3382SOL     OW11044   0.323   2.434   0.578
 3382SOL    HW111045   0.295   2.339   0.590
 3382SOL    HW211046   0.411   2.448   0.624
 3383SOL     OW11047   4.703   5.817   1.777
 3383SOL    HW111048   4.650   5.867   1.709
 3383SOL    HW211049   4.660   5.828   1.867
 3384SOL     OW11050   3.046   3.323   6.077
 3384SOL    HW111051   3.098   3.323   5.991
 3384SOL    HW211052   2.974   3.392   6.072
 3385SOL     OW11053   6.878   3.041   4.212
 3385SOL    HW111054   6.934   3.039   4.129
 3385SOL    HW211055   6.800   2.979   4.201
 3386SOL     OW11056   5.665   4.507   6.736
 3386SOL    HW111057   5.738   4.574   6.736
 3386SOL    HW211058   5.672   4.450   6.654
 3387SOL     OW11059   3.336   0.635   3.281
 3387SOL    HW111060   3.360   0.732   3.285
 3387SOL    HW211061   3.266   0.621   3.211
 3388SOL     OW11062   5.179   3.103   1.854
 3388SOL    HW111063   5.100   3.080   1.797
 3388SOL    HW211064   5.159   3.186   1.906
 3389SOL     OW11065   5.390   4.993   5.832
 3389SOL    HW111066   5.306   4.949   5.803
 3389SOL    HW211067   5.468   4.934   5.811
 3390SOL     OW11068   4.989   5.989   6.158
 3390SOL    HW111069   4.944   6.062   6.106
 3390SOL    HW211070   5.066   5.953   6.105
 3391SOL     OW11071   5.109   3.122   5.384
 3391SOL    HW111072   5.050   3.158   5.311
 3391SOL    HW211073   5.182   3.066   5.344
 3392SOL     OW11074   2.912   6.593   3.671
 3392SOL    HW111075   2.985   6.586   3.738
 3392SOL    HW211076   2.836   6.534   3.698
 3393SOL     OW11077   0.344   6.217   6.763
 3393SOL    HW111078   0.415   6.282   6.737
 3393SOL    HW211079   0.319   6.162   6.683
 3394SOL     OW11080   5.578   3.810   2.024
 3394SOL    HW111081   5.651   3.877   2.038
 3394SOL    HW211082   5.618   3.721   2.002
 3395SOL     OW11083   5.166   3.168   3.131
 3395SOL    HW111084   5.231   3.243   3.126
 3395SOL    HW211085   5.163   3.131   3.224
 3396SOL     OW11086   4.547   1.968   3.485
 3396SOL    HW111087   4.543   1.959   3.584
 3396SOL    HW211088   4.461   1.937   3.445
 3397SOL     OW11089   2.460   0.357   5.716
 3397SOL    HW111090   2.554   0.389   5.699
 3397SOL    HW211091   2.420   0.410   5.791
 3398SOL     OW11092   0.447   6.909   4.689
 3398SOL    HW111093   0.433   6.985   4.752
 3398SOL    HW211094   0.473   6.827   4.742
 3399SOL     OW11095   5.635   4.184   3.966
 3399SOL    HW111096   5.705   4.149   4.029
 3399SOL    HW211097   5.573   4.110   3.941
 3400SOL     OW11098   4.835   3.159   5.618
 3400SOL    HW111099   4.888   3.086   5.662
 3400SOL    HW211100   4.792   3.216   5.688
 3401SOL     OW11101   0.116   3.129   1.002
 3401SOL    HW111102   0.123   3.204   0.936
 3401SOL    HW211103   0.049   3.154   1.073
 3402SOL     OW11104   3.967   5.946   6.863
 3402SOL    HW111105   3.874   5.980   6.875
 3402SOL    HW211106   4.028   5.993   6.926
 3403SOL     OW11107   3.886   5.498   4.870
 3403SOL    HW111108   3.919   5.489   4.964
 3403SOL    HW211109   3.927   5.426   4.813
 3404SOL     OW11110   5.003   1.186   6.942
 3404SOL    HW111111   4.954   1.119   6.886
 3404SOL    HW211112   5.002   1.157   0.017
 3405SOL     OW11113   6.805   3.919   4.593
 3405SOL    HW111114   6.807   3.911   4.693
 3405SOL    HW211115   6.840   4.009   4.567
 3406SOL     OW11116   0.751   4.286   1.778
 3406SOL    HW111117   0.749   4.201   1.725
 3406SOL    HW211118   0.842   4.328   1.770
 3407SOL     OW11119   1.190   5.097   5.855
 3407SOL    HW111120   1.202   5.130   5.761
 3407SOL    HW211121   1.277   5.061   5.889
 3408SOL     OW11122   4.812   3.848   5.197
 3408SOL    HW111123   4.820   3.772   5.133
 3408SOL    HW211124   4.720   3.849   5.237
 3409SOL     OW11125   3.394   6.524   6.496
 3409SOL    HW111126   3.376   6.556   6.589
 3409SOL    HW211127   3.324   6.560   6.435
 3410SOL     OW11128   6.691   6.414   0.795
 3410SOL    HW111129   6.711   6.509   0.771
 3410SOL    HW211130   6.722   6.396   0.889
 3411SOL     OW11131   0.449   2.777   1.860
 3411SOL    HW111132   0.361   2.792   1.815
 3411SOL    HW211133   0.498   2.864   1.867
 3412SOL     OW11134   4.483   2.924   0.173
 3412SOL    HW111135   4.432   2.896   0.092
 3412SOL    HW211136   4.559   2.860   0.188
 3413SOL     OW11137   5.688   1.403   0.950
 3413SOL    HW111138   5.619   1.418   1.020
 3413SOL    HW211139   5.761   1.471   0.959
 3414SOL     OW11140   3.037   0.624   5.448
 3414SOL    HW111141   3.016   0.538   5.495
 3414SOL    HW211142   3.131   0.651   5.469
 3415SOL     OW11143   1.774   3.759   4.761
 3415SOL    HW111144   1.775   3.686   4.693
 3415SOL    HW211145   1.679   3.777   4.788
 3416SOL     OW11146   0.126   5.726   0.809
 3416SOL    HW111147   0.136   5.687   0.718
 3416SOL    HW211148   0.202   5.789   0.827
 3417SOL     OW11149   1.016   6.331   2.841
 3417SOL    HW111150   0.994   6.405   2.905
 3417SOL    HW211151   1.084   6.270   2.882
 3418SOL     OW11152   3.494   0.403   4.268
 3418SOL    HW111153   3.575   0.462   4.260
 3418SOL    HW211154   3.495   0.336   4.194
 3419SOL     OW11155   2.718   5.837   5.011
 3419SOL    HW111156   2.787   5.906   4.988
 3419SOL    HW211157   2.758   5.771   5.076
 3420SOL     OW11158   5.678   2.977   4.414
 3420SOL    HW111159   5.719   3.045   4.475
 3420SOL    HW211160   5.602   3.018   4.364
 3421SOL     OW11161   5.312   1.174   4.969
 3421SOL    HW111162   5.378   1.119   4.917
 3421SOL    HW211163   5.223   1.130   4.966
 3422SOL     OW11164   2.094   0.454   0.577
 3422SOL    HW111165   2.170   0.512   0.608
 3422SOL    HW211166   2.122   0.405   0.494
 3423SOL     OW11167   0.588   4.630   6.906
 3423SOL    HW111168   0.641   4.546   6.898
 3423SOL    HW211169   0.493   4.609   6.927
 3424SOL     OW11170   2.898   6.569   1.273
 3424SOL    HW111171   2.889   6.640   1.343
 3424SOL    HW211172   2.942   6.488   1.314
 3425SOL     OW11173   5.778   4.973   2.696
 3425SOL    HW111174   5.752   4.878   2.677
 3425SOL    HW211175   5.705   5.017   2.749
 3426SOL     OW11176   4.348   2.806   0.373
 3426SOL    HW111177   4.414   2.736   0.399
 3426SOL    HW211178   4.388   2.865   0.303
 3427SOL     OW11179   6.094   0.242   0.285
 3427SOL    HW111180   6.152   0.320   0.265
 3427SOL    HW211181   6.121   0.202   0.373
 3428SOL     OW11182   2.150   5.274   0.458
 3428SOL    HW111183   2.154   5.373   0.443
 3428SOL    HW211184   2.212   5.228   0.395
 3429SOL     OW11185   0.266   2.135   0.325
 3429SOL    HW111186   0.215   2.214   0.291
 3429SOL    HW211187   0.203   2.073   0.372
 3430SOL     OW11188   1.213   6.542   5.113
 3430SOL    HW111189   1.184   6.519   5.206
 3430SOL    HW211190   1.302   6.588   5.117
 3431SOL     OW11191   0.854   0.010   1.467
 3431SOL    HW111192   0.785   6.963   1.491
 3431SOL    HW211193   0.944   6.986   1.463
 3432SOL     OW11194   1.764   2.462   6.924
 3432SOL    HW111195   1.810   2.539   6.881
 3432SOL    HW211196   1.696   2.496   6.989
 3433SOL     OW11197   1.208   0.430   6.081
 3433SOL    HW111198   1.160   0.427   5.994
 3433SOL    HW211199   1.146   0.402   6.155
 3434SOL     OW11200   4.427   1.369   1.251
 3434SOL    HW111201   4.462   1.457   1.283
 3434SOL    HW211202   4.412   1.374   1.152
 3435SOL     OW11203   0.434   1.910   0.811
 3435SOL    HW111204   0.440   1.925   0.712
 3435SOL    HW211205   0.479   1.823   0.834
 3436SOL     OW11206   3.994   5.792   6.635
 3436SOL    HW111207   3.981   5.855   6.712
 3436SOL    HW211208   3.920   5.805   6.569
 3437SOL     OW11209   2.208   0.999   6.114
 3437SOL    HW111210   2.279   1.013   6.046
 3437SOL    HW211211   2.130   1.058   6.094
 3438SOL     OW11212   0.959   2.961   0.012
 3438SOL    HW111213   0.941   2.995   6.940
 3438SOL    HW211214   0.970   3.038   0.075
 3439SOL     OW11215   2.024   6.089   4.876
 3439SOL    HW111216   2.002   6.167   4.934
 3439SOL    HW211217   2.076   6.022   4.929
 3440SOL     OW11218   3.346   3.885   1.164
 3440SOL    HW111219   3.326   3.837   1.249
 3440SOL    HW211220   3.288   3.848   1.091
 3441SOL     OW11221   5.326   6.926   4.701
 3441SOL    HW111222   5.382   6.878   4.768
 3441SOL    HW211223   5.366   6.916   4.610
 3442SOL     OW11224   2.659   4.893   2.279
 3442SOL    HW111225   2.653   4.964   2.348
 3442SOL    HW211226   2.656   4.934   2.188
 3443SOL     OW11227   5.384   6.017   1.234
 3443SOL    HW111228   5.390   6.116   1.242
 3443SOL    HW211229   5.476   5.979   1.221
 3444SOL     OW11230   4.922   5.292   0.242
 3444SOL    HW111231   4.911   5.358   0.168
 3444SOL    HW211232   5.016   5.258   0.244
 3445SOL     OW11233   6.966   5.377   3.983
 3445SOL    HW111234   7.001   5.342   3.896
 3445SOL    HW211235   6.926   5.467   3.969
 3446SOL     OW11236   5.941   0.919   2.663
 3446SOL    HW111237   5.995   0.836   2.675
 3446SOL    HW211238   5.849   0.905   2.701
 3447SOL     OW11239   5.958   5.695   0.876
 3447SOL    HW111240   5.871   5.731   0.844
 3447SOL    HW211241   6.026   5.703   0.803
 3448SOL     OW11242   3.588   0.534   0.703
 3448SOL    HW111243   3.524   0.563   0.774
 3448SOL    HW211244   3.575   0.436   0.684
 3449SOL     OW11245   6.056   6.443   4.103
 3449SOL    HW111246   6.126   6.514   4.111
 3449SOL    HW211247   6.012   6.450   4.014
 3450SOL     OW11248   6.957   2.514   6.388
 3450SOL    HW111249   6.868   2.469   6.381
 3450SOL    HW211250   6.947   2.599   6.440
 3451SOL     OW11251   1.823   5.692   1.331
 3451SOL    HW111252   1.910   5.699   1.284
 3451SOL    HW211253   1.749   5.720   1.270
 3452SOL     OW11254   6.248   0.627   6.129
 3452SOL    HW111255   6.196   0.706   6.096
 3452SOL    HW211256   6.272   0.569   6.051
 3453SOL     OW11257   6.752   6.180   6.591
 3453SOL    HW111258   6.674   6.229   6.551
 3453SOL    HW211259   6.826   6.245   6.611
 3454SOL     OW11260   0.910   2.074   5.723
 3454SOL    HW111261   0.852   2.059   5.804
 3454SOL    HW211262   0.935   1.985   5.684
 3455SOL     OW11263   2.939   2.280   4.451
 3455SOL    HW111264   2.963   2.319   4.540
 3455SOL    HW211265   2.851   2.233   4.459
 3456SOL     OW11266   5.830   5.703   2.572
 3456SOL    HW111267   5.876   5.618   2.597
 3456SOL    HW211268   5.884   5.751   2.503
 3457SOL     OW11269   2.991   4.843   3.346
 3457SOL    HW111270   3.083   4.814   3.373
 3457SOL    HW211271   2.924   4.809   3.413
 3458SOL     OW11272   5.051   0.497   1.835
 3458SOL    HW111273   5.051   0.397   1.829
 3458SOL    HW211274   4.990   0.534   1.765
 3459SOL     OW11275   5.567   3.511   3.123
 3459SOL    HW111276   5.476   3.485   3.157
 3459SOL    HW211277   5.600   3.442   3.059
 3460SOL     OW11278   2.229   3.327   6.669
 3460SOL    HW111279   2.216   3.394   6.742
 3460SOL    HW211280   2.249   3.238   6.709
 3461SOL     OW11281   4.352   5.782   4.997
 3461SOL    HW111282   4.298   5.782   5.081
 3461SOL    HW211283   4.292   5.792   4.918
 3462SOL     OW11284   0.235   3.765   2.651
 3462SOL    HW111285   0.267   3.831   2.718
 3462SOL    HW211286   0.135   3.766   2.647
 3463SOL     OW11287   0.859   3.776   2.441
 3463SOL    HW111288   0.856   3.866   2.398
 3463SOL    HW211289   0.781   3.767   2.503
 3464SOL     OW11290   6.274   3.926   6.464
 3464SOL    HW111291   6.344   3.994   6.441
 3464SOL    HW211292   6.196   3.971   6.506
 3465SOL     OW11293   1.755   2.176   2.387
 3465SOL    HW111294   1.752   2.144   2.482
 3465SOL    HW211295   1.754   2.276   2.385
 3466SOL     OW11296   0.315   4.851   0.425
 3466SOL    HW111297   0.259   4.911   0.369
 3466SOL    HW211298   0.316   4.884   0.519
 3467SOL     OW11299   1.613   2.456   0.647
 3467SOL    HW111300   1.540   2.481   0.711
 3467SOL    HW211301   1.617   2.357   0.637
 3468SOL     OW11302   5.087   6.828   2.684
 3468SOL    HW111303   5.166   6.886   2.701
 3468SOL    HW211304   5.097   6.742   2.734
 3469SOL     OW11305   4.606   0.139   2.688
 3469SOL    HW111306   4.602   0.188   2.601
 3469SOL    HW211307   4.681   0.072   2.685
 3470SOL     OW11308   5.951   3.390   1.304
 3470SOL    HW111309   5.889   3.468   1.312
 3470SOL    HW211310   6.021   3.396   1.376
 3471SOL     OW11311   4.199   5.083   4.038
 3471SOL    HW111312   4.149   4.999   4.058
 3471SOL    HW211313   4.153   5.161   4.080
 3472SOL     OW11314   2.804   0.735   3.017
 3472SOL    HW111315   2.728   0.766   2.960
 3472SOL    HW211316   2.771   0.718   3.110
 3473SOL     OW11317   6.929   2.144   1.600
 3473SOL    HW111318   6.975   2.220   1.554
 3473SOL    HW211319   6.859   2.180   1.662
 3474SOL     OW11320   1.242   4.674   1.792
 3474SOL    HW111321   1.296   4.590   1.793
 3474SOL    HW211322   1.241   4.712   1.699
 3475SOL     OW11323   1.450   4.827   4.362
 3475SOL    HW111324   1.504   4.860   4.439
 3475SOL    HW211325   1.438   4.728   4.369
 3476SOL     OW11326   2.612   1.391   3.406
 3476SOL    HW111327   2.695   1.436   3.439
 3476SOL    HW211328   2.571   1.446   3.333
 3477SOL     OW11329   1.806   5.238   0.778
 3477SOL    HW111330   1.798   5.194   0.867
 3477SOL    HW211331   1.901   5.264   0.762
 3478SOL     OW11332   2.588   5.844   5.393
 3478SOL    HW111333   2.655   5.800   5.333
 3478SOL    HW211334   2.564   5.782   5.467
 3479SOL     OW11335   1.315   0.604   3.368
 3479SOL    HW111336   1.394   0.544   3.380
 3479SOL    HW211337   1.345   0.691   3.328
 3480SOL     OW11338   0.729   6.687   5.227
 3480SOL    HW111339   0.659   6.639   5.280
 3480SOL    HW211340   0.793   6.620   5.189
 3481SOL     OW11341   4.662   0.230   0.472
 3481SOL    HW111342   4.643   0.308   0.532
 3481SOL    HW211343   4.669   0.147   0.528
 3482SOL     OW11344   5.598   1.319   1.979
 3482SOL    HW111345   5.556   1.261   2.049
 3482SOL    HW211346   5.529   1.344   1.911
 3483SOL     OW11347   4.667   2.236   1.708
 3483SOL    HW111348   4.722   2.319   1.698
 3483SOL    HW211349   4.697   2.169   1.640
 3484SOL     OW11350   0.965   3.302   6.958
 3484SOL    HW111351   0.922   3.392   6.962
 3484SOL    HW211352   1.059   3.310   6.925
 3485SOL     OW11353   1.898   1.563   4.549
 3485SOL    HW111354   1.817   1.504   4.556
 3485SOL    HW211355   1.980   1.506   4.541
 3486SOL     OW11356   2.804   0.930   3.494
 3486SOL    HW111357   2.721   0.879   3.517
 3486SOL    HW211358   2.782   1.026   3.480
 3487SOL     OW11359   5.466   2.619   5.352
 3487SOL    HW111360   5.389   2.678   5.374
 3487SOL    HW211361   5.471   2.545   5.420
 3488SOL     OW11362   5.914   1.575   4.150
 3488SOL    HW111363   6.011   1.592   4.162
 3488SOL    HW211364   5.900   1.482   4.114
 3489SOL     OW11365   4.017   0.067   1.221
 3489SOL    HW111366   4.014   6.992   1.191
 3489SOL    HW211367   3.924   0.100   1.235
 3490SOL     OW11368   4.341   4.282   0.118
 3490SOL    HW111369   4.343   4.332   0.205
 3490SOL    HW211370   4.365   4.345   0.044
 3491SOL     OW11371   4.634   2.604   5.050
 3491SOL    HW111372   4.658   2.681   4.991
 3491SOL    HW211373   4.708   2.588   5.115
 3492SOL     OW11374   0.379   5.429   1.044
 3492SOL    HW111375   0.421   5.339   1.038
 3492SOL    HW211376   0.428   5.494   0.987
 3493SOL     OW11377   5.706   4.363   6.488
 3493SOL    HW111378   5.684   4.348   6.391
 3493SOL    HW211379   5.657   4.297   6.544
 3494SOL     OW11380   3.673   0.997   1.116
 3494SOL    HW111381   3.711   0.908   1.140
 3494SOL    HW211382   3.716   1.031   1.033
 3495SOL     OW11383   5.644   5.119   2.403
 3495SOL    HW111384   5.687   5.188   2.344
 3495SOL    HW211385   5.649   5.149   2.498
 3496SOL     OW11386   6.257   4.601   0.519
 3496SOL    HW111387   6.293   4.587   0.427
 3496SOL    HW211388   6.236   4.698   0.532
 3497SOL     OW11389   3.747   1.119   3.899
 3497SOL    HW111390   3.821   1.059   3.866
 3497SOL    HW211391   3.725   1.185   3.828
 3498SOL     OW11392   2.547   2.379   0.820
 3498SOL    HW111393   2.614   2.450   0.799
 3498SOL    HW211394   2.542   2.315   0.744
 3499SOL     OW11395   4.890   3.129   4.270
 3499SOL    HW111396   4.876   3.142   4.368
 3499SOL    HW211397   4.892   3.031   4.249
 3500SOL     OW11398   1.748   3.295   4.822
 3500SOL    HW111399   1.799   3.369   4.776
 3500SOL    HW211400   1.797   3.268   4.905
 3501SOL     OW11401   1.834   5.676   4.764
 3501SOL    HW111402   1.881   5.688   4.677
 3501SOL    HW211403   1.769   5.752   4.777
 3502SOL     OW11404   6.284   2.800   2.787
 3502SOL    HW111405   6.263   2.736   2.713
 3502SOL    HW211406   6.215   2.792   2.859
 3503SOL     OW11407   6.369   6.598   4.440
 3503SOL    HW111408   6.303   6.669   4.418
 3503SOL    HW211409   6.347   6.557   4.528
 3504SOL     OW11410   2.018   2.087   1.658
 3504SOL    HW111411   1.929   2.131   1.656
 3504SOL    HW211412   2.007   1.990   1.681
 3505SOL     OW11413   5.442   4.727   5.238
 3505SOL    HW111414   5.363   4.736   5.177
 3505SOL    HW211415   5.442   4.635   5.278
 3506SOL     OW11416   4.872   5.330   5.557
 3506SOL    HW111417   4.831   5.357   5.470
 3506SOL    HW211418   4.801   5.299   5.619
 3507SOL     OW11419   1.544   1.170   0.103
 3507SOL    HW111420   1.473   1.241   0.104
 3507SOL    HW211421   1.558   1.138   0.009
 3508SOL     OW11422   3.017   2.506   5.944
 3508SOL    HW111423   3.026   2.603   5.919
 3508SOL    HW211424   3.044   2.449   5.866
 3509SOL     OW11425   6.174   0.586   5.636
 3509SOL    HW111426   6.237   0.658   5.664
 3509SOL    HW211427   6.132   0.610   5.548
 3510SOL     OW11428   1.642   2.607   1.675
 3510SOL    HW111429   1.631   2.540   1.602
 3510SOL    HW211430   1.725   2.587   1.727
 3511SOL     OW11431   3.074   5.516   0.602
 3511SOL    HW111432   3.061   5.550   0.695
 3511SOL    HW211433   3.012   5.438   0.586
 3512SOL     OW11434   0.333   4.959   0.704
 3512SOL    HW111435   0.347   4.900   0.783
 3512SOL    HW211436   0.351   5.054   0.730
 3513SOL     OW11437   6.338   2.970   0.369
 3513SOL    HW111438   6.435   2.956   0.391
 3513SOL    HW211439   6.282   2.905   0.420
 3514SOL     OW11440   0.959   1.447   2.020
 3514SOL    HW111441   1.001   1.525   2.067
 3514SOL    HW211442   0.866   1.472   1.992
 3515SOL     OW11443   4.860   5.865   3.515
 3515SOL    HW111444   4.944   5.919   3.524
 3515SOL    HW211445   4.850   5.834   3.421
 3516SOL     OW11446   4.839   0.311   0.910
 3516SOL    HW111447   4.823   0.271   1.000
 3516SOL    HW211448   4.923   0.272   0.871
 3517SOL     OW11449   1.225   1.918   0.815
 3517SOL    HW111450   1.197   1.866   0.735
 3517SOL    HW211451   1.304   1.873   0.858
 3518SOL     OW11452   5.839   3.215   4.200
 3518SOL    HW111453   5.818   3.241   4.294
 3518SOL    HW211454   5.771   3.252   4.138
 3519SOL     OW11455   1.286   0.985   6.090
 3519SOL    HW111456   1.321   1.051   6.156
 3519SOL    HW211457   1.333   0.997   6.002
 3520SOL     OW11458   2.837   4.598   6.159
 3520SOL    HW111459   2.838   4.697   6.172
 3520SOL    HW211460   2.834   4.577   6.061
 3521SOL     OW11461   4.942   3.121   6.912
 3521SOL    HW111462   4.923   3.217   6.935
 3521SOL    HW211463   4.857   3.069   6.914
 3522SOL     OW11464   6.760   4.448   2.126
 3522SOL    HW111465   6.765   4.529   2.067
 3522SOL    HW211466   6.799   4.369   2.078
 3523SOL     OW11467   2.832   5.192   6.090
 3523SOL    HW111468   2.795   5.102   6.111
 3523SOL    HW211469   2.767   5.243   6.033
 3524SOL     OW11470   3.741   1.474   1.335
 3524SOL    HW111471   3.736   1.377   1.315
 3524SOL    HW211472   3.832   1.498   1.367
 3525SOL     OW11473   1.471   3.838   2.543
 3525SOL    HW111474   1.428   3.795   2.465
 3525SOL    HW211475   1.569   3.849   2.526
 3526SOL     OW11476   2.172   6.079   3.941
 3526SOL    HW111477   2.179   6.074   4.040
 3526SOL    HW211478   2.263   6.065   3.900
 3527SOL     OW11479   5.824   2.515   5.917
 3527SOL    HW111480   5.891   2.455   5.960
 3527SOL    HW211481   5.871   2.583   5.861
 3528SOL     OW11482   0.452   5.046   4.103
 3528SOL    HW111483   0.440   4.954   4.138
 3528SOL    HW211484   0.368   5.099   4.116
 3529SOL     OW11485   3.868   0.277   0.287
 3529SOL    HW111486   3.780   0.325   0.293
 3529SOL    HW211487   3.906   0.290   0.195
 3530SOL     OW11488   0.931   5.086   3.078
 3530SOL    HW111489   1.000   5.147   3.039
 3530SOL    HW211490   0.882   5.133   3.151
 3531SOL     OW11491   5.098   2.935   0.616
 3531SOL    HW111492   5.185   2.958   0.573
 3531SOL    HW211493   5.036   3.014   0.611
 3532SOL     OW11494   2.695   0.816   1.504
 3532SOL    HW111495   2.729   0.749   1.438
 3532SOL    HW211496   2.762   0.891   1.513
 3533SOL     OW11497   1.968   1.750   2.589
 3533SOL    HW111498   1.965   1.672   2.652
 3533SOL    HW211499   1.886   1.750   2.532
 3534SOL     OW11500   5.780   1.197   5.631
 3534SOL    HW111501   5.769   1.161   5.723
 3534SOL    HW211502   5.858   1.260   5.629
 3535SOL     OW11503   1.005   5.113   0.479
 3535SOL    HW111504   0.975   5.041   0.543
 3535SOL    HW211505   0.926   5.166   0.449
 3536SOL     OW11506   2.013   2.071   3.573
 3536SOL    HW111507   1.986   2.106   3.483
 3536SOL    HW211508   2.083   2.001   3.562
 3537SOL     OW11509   2.953   5.883   1.182
 3537SOL    HW111510   3.029   5.842   1.132
 3537SOL    HW211511   2.937   5.976   1.148
 3538SOL     OW11512   1.087   0.799   6.029
 3538SOL    HW111513   1.122   0.755   5.947
 3538SOL    HW211514   1.158   0.857   6.068
 3539SOL     OW11515   5.925   3.646   6.174
 3539SOL    HW111516   5.999   3.696   6.219
 3539SOL    HW211517   5.962   3.561   6.136
 3540SOL     OW11518   1.988   2.837   6.069
 3540SOL    HW111519   2.073   2.796   6.100
 3540SOL    HW211520   1.912   2.807   6.127
 3541SOL     OW11521   1.681   2.697   6.566
 3541SOL    HW111522   1.712   2.687   6.471
 3541SOL    HW211523   1.586   2.667   6.573
 3542SOL     OW11524   1.380   4.411   1.804
 3542SOL    HW111525   1.454   4.393   1.869
 3542SOL    HW211526   1.298   4.362   1.832
 3543SOL     OW11527   0.946   2.942   5.076
 3543SOL    HW111528   0.873   2.889   5.119
 3543SOL    HW211529   0.918   2.969   4.984
 3544SOL     OW11530   2.768   4.329   6.491
 3544SOL    HW111531   2.788   4.422   6.522
 3544SOL    HW211532   2.760   4.327   6.392
 3545SOL     OW11533   3.995   5.256   0.119
 3545SOL    HW111534   3.979   5.230   0.024
 3545SOL    HW211535   4.027   5.176   0.170
 3546SOL     OW11536   0.394   4.600   3.197
 3546SOL    HW111537   0.366   4.517   3.149
 3546SOL    HW211538   0.357   4.598   3.291
 3547SOL     OW11539   6.590   5.139   5.347
 3547SOL    HW111540   6.634   5.202   5.283
 3547SOL    HW211541   6.660   5.086   5.396
 3548SOL     OW11542   5.452   0.767   5.762
 3548SOL    HW111543   5.545   0.742   5.789
 3548SOL    HW211544   5.456   0.831   5.685
 3549SOL     OW11545   0.030   5.343   6.117
 3549SOL    HW111546   7.003   5.335   6.030
 3549SOL    HW211547   0.025   5.257   6.168
 3550SOL     OW11548   5.761   2.946   3.334
 3550SOL    HW111549   5.750   2.851   3.305
 3550SOL    HW211550   5.691   2.969   3.401
 3551SOL     OW11551   3.356   2.038   3.069
 3551SOL    HW111552   3.335   2.088   2.985
 3551SOL    HW211553   3.274   2.030   3.125
 3552SOL     OW11554   6.611   6.582   1.691
 3552SOL    HW111555   6.605   6.483   1.704
 3552SOL    HW211556   6.554   6.609   1.614
 3553SOL     OW11557   4.651   5.557   0.632
 3553SOL    HW111558   4.675   5.583   0.538
 3553SOL    HW211559   4.607   5.635   0.677
 3554SOL     OW11560   4.630   1.684   1.017
 3554SOL    HW111561   4.645   1.639   1.106
 3554SOL    HW211562   4.532   1.703   1.006
 3555SOL     OW11563   0.680   4.214   4.019
 3555SOL    HW111564   0.699   4.249   3.927
 3555SOL    HW211565   0.703   4.285   4.087
 3556SOL     OW11566   3.931   1.389   4.345
 3556SOL    HW111567   3.947   1.483   4.376
 3556SOL    HW211568   4.015   1.336   4.353
 3557SOL     OW11569   0.721   0.995   4.321
 3557SOL    HW111570   0.661   1.036   4.389
 3557SOL    HW211571   0.803   0.959   4.366
 3558SOL     OW11572   1.891   5.983   2.167
 3558SOL    HW111573   1.958   5.984   2.242
 3558SOL    HW211574   1.833   6.064   2.174
 3559SOL     OW11575   0.543   6.465   5.351
 3559SOL    HW111576   0.516   6.486   5.257
 3559SOL    HW211577   0.466   6.424   5.399
 3560SOL     OW11578   1.331   5.390   2.685
 3560SOL    HW111579   1.393   5.420   2.612
 3560SOL    HW211580   1.280   5.469   2.719
 3561SOL     OW11581   4.594   4.429   5.039
 3561SOL    HW111582   4.527   4.448   5.111
 3561SOL    HW211583   4.671   4.379   5.079
 3562SOL     OW11584   3.631   1.332   2.899
 3562SOL    HW111585   3.655   1.373   2.811
 3562SOL    HW211586   3.612   1.404   2.966
 3563SOL     OW11587   6.496   2.029   0.570
 3563SOL    HW111588   6.426   2.017   0.641
 3563SOL    HW211589   6.478   1.967   0.494
 3564SOL     OW11590   1.065   4.450   3.057
 3564SOL    HW111591   0.998   4.506   3.106
 3564SOL    HW211592   1.041   4.353   3.068
 3565SOL     OW11593   3.209   6.025   5.050
 3565SOL    HW111594   3.129   6.076   5.017
 3565SOL    HW211595   3.216   5.939   4.999
 3566SOL     OW11596   6.861   3.876   5.853
 3566SOL    HW111597   6.959   3.877   5.834
 3566SOL    HW211598   6.813   3.931   5.784
 3567SOL     OW11599   0.267   2.732   6.488
 3567SOL    HW111600   0.219   2.812   6.526
 3567SOL    HW211601   0.366   2.748   6.494
 3568SOL     OW11602   4.451   4.711   3.449
 3568SOL    HW111603   4.380   4.779   3.469
 3568SOL    HW211604   4.438   4.675   3.356
 3569SOL     OW11605   2.707   1.432   5.961
 3569SOL    HW111606   2.705   1.466   5.867
 3569SOL    HW211607   2.724   1.508   6.023
 3570SOL     OW11608   5.499   0.907   5.499
 3570SOL    HW111609   5.547   0.873   5.418
 3570SOL    HW211610   5.405   0.931   5.474
 3571SOL     OW11611   0.477   5.131   4.513
 3571SOL    HW111612   0.563   5.081   4.495
 3571SOL    HW211613   0.484   5.179   4.600
 3572SOL     OW11614   5.927   3.739   3.084
 3572SOL    HW111615   6.012   3.704   3.044
 3572SOL    HW211616   5.852   3.725   3.020
 3573SOL     OW11617   0.671   5.837   3.017
 3573SOL    HW111618   0.577   5.824   2.985
 3573SOL    HW211619   0.698   5.761   3.075
 3574SOL     OW11620   0.730   3.477   0.284
 3574SOL    HW111621   0.825   3.504   0.268
 3574SOL    HW211622   0.706   3.401   0.224
 3575SOL     OW11623   5.313   5.208   2.166
 3575SOL    HW111624   5.319   5.273   2.090
 3575SOL    HW211625   5.377   5.133   2.151
 3576SOL     OW11626   0.105   2.302   6.449
 3576SOL    HW111627   0.068   2.388   6.415
 3576SOL    HW211628   0.030   2.239   6.470
 3577SOL     OW11629   1.373   1.654   6.508
 3577SOL    HW111630   1.396   1.594   6.431
 3577SOL    HW211631   1.456   1.677   6.557
 3578SOL     OW11632   4.279   1.890   0.740
 3578SOL    HW111633   4.204   1.940   0.785
 3578SOL    HW211634   4.241   1.835   0.665
 3579SOL     OW11635   6.649   2.150   3.755
 3579SOL    HW111636   6.743   2.184   3.766
 3579SOL    HW211637   6.638   2.066   3.807
 3580SOL     OW11638   5.584   3.018   1.367
 3580SOL    HW111639   5.658   3.081   1.344
 3580SOL    HW211640   5.569   2.955   1.290
 3581SOL     OW11641   1.562   5.599   3.414
 3581SOL    HW111642   1.464   5.595   3.396
 3581SOL    HW211643   1.610   5.536   3.353
 3582SOL     OW11644   0.414   3.746   6.137
 3582SOL    HW111645   0.404   3.735   6.038
 3582SOL    HW211646   0.348   3.688   6.184
 3583SOL     OW11647   0.762   4.114   6.444
 3583SOL    HW111648   0.799   4.022   6.445
 3583SOL    HW211649   0.667   4.113   6.474
 3584SOL     OW11650   6.173   5.569   6.452
 3584SOL    HW111651   6.085   5.522   6.464
 3584SOL    HW211652   6.183   5.639   6.522
 3585SOL     OW11653   3.183   0.493   4.913
 3585SOL    HW111654   3.237   0.575   4.931
 3585SOL    HW211655   3.096   0.519   4.870
 3586SOL     OW11656   6.969   1.918   5.010
 3586SOL    HW111657   6.870   1.909   5.017
 3586SOL    HW211658   6.996   2.012   5.031
 3587SOL     OW11659   2.182   4.367   6.000
 3587SOL    HW111660   2.235   4.449   5.979
 3587SOL    HW211661   2.205   4.294   5.936
 3588SOL     OW11662   1.152   2.653   5.730
 3588SOL    HW111663   1.191   2.721   5.792
 3588SOL    HW211664   1.093   2.698   5.663
 3589SOL     OW11665   4.701   1.366   4.648
 3589SOL    HW111666   4.667   1.339   4.558
 3589SOL    HW211667   4.625   1.375   4.712
 3590SOL     OW11668   0.684   2.745   0.668
 3590SOL    HW111669   0.590   2.779   0.660
 3590SOL    HW211670   0.693   2.661   0.614
 3591SOL     OW11671   5.320   4.181   6.817
 3591SOL    HW111672   5.366   4.236   6.748
 3591SOL    HW211673   5.281   4.100   6.773
 3592SOL     OW11674   0.857   5.083   1.738
 3592SOL    HW111675   0.797   5.142   1.793
 3592SOL    HW211676   0.823   4.989   1.741
 3593SOL     OW11677   0.519   5.491   4.870
 3593SOL    HW111678   0.435   5.538   4.895
 3593SOL    HW211679   0.573   5.548   4.808
 3594SOL     OW11680   4.529   6.417   3.588
 3594SOL    HW111681   4.622   6.404   3.623
 3594SOL    HW211682   4.533   6.452   3.495
 3595SOL     OW11683   4.067   5.640   6.378
 3595SOL    HW111684   4.021   5.729   6.374
 3595SOL    HW211685   4.166   5.654   6.379
 3596SOL     OW11686   6.132   3.226   3.331
 3596SOL    HW111687   6.097   3.271   3.412
 3596SOL    HW211688   6.062   3.224   3.260
 3597SOL     OW11689   2.151   2.414   5.663
 3597SOL    HW111690   2.137   2.415   5.564
 3597SOL    HW211691   2.063   2.410   5.709
 3598SOL     OW11692   1.303   5.452   6.410
 3598SOL    HW111693   1.255   5.387   6.351
 3598SOL    HW211694   1.239   5.490   6.476
 3599SOL     OW11695   6.373   2.628   6.759
 3599SOL    HW111696   6.390   2.633   6.661
 3599SOL    HW211697   6.393   2.717   6.801
 3600SOL     OW11698   0.566   2.934   1.503
 3600SOL    HW111699   0.478   2.966   1.467
 3600SOL    HW211700   0.589   2.987   1.585
 3601SOL     OW11701   5.406   3.705   6.639
 3601SOL    HW111702   5.503   3.705   6.617
 3601SOL    HW211703   5.387   3.637   6.711
 3602SOL     OW11704   1.692   2.492   0.922
 3602SOL    HW111705   1.705   2.588   0.897
 3602SOL    HW211706   1.745   2.434   0.860
 3603SOL     OW11707   3.427   0.957   4.179
 3603SOL    HW111708   3.419   1.024   4.254
 3603SOL    HW211709   3.350   0.893   4.183
 3604SOL     OW11710   6.364   5.739   3.000
 3604SOL    HW111711   6.327   5.737   2.907
 3604SOL    HW211712   6.428   5.816   3.008
 3605SOL     OW11713   6.763   3.878   4.847
 3605SOL    HW111714   6.844   3.856   4.902
 3605SOL    HW211715   6.695   3.805   4.858
 3606SOL     OW11716   0.264   0.308   4.740
 3606SOL    HW111717   0.194   0.267   4.682
 3606SOL    HW211718   0.259   0.408   4.733
 3607SOL     OW11719   6.055   4.953   1.856
 3607SOL    HW111720   6.117   5.018   1.811
 3607SOL    HW211721   6.028   4.988   1.945
 3608SOL     OW11722   5.156   2.817   4.406
 3608SOL    HW111723   5.073   2.762   4.422
 3608SOL    HW211724   5.155   2.897   4.466
 3609SOL     OW11725   1.394   6.852   4.351
 3609SOL    HW111726   1.462   6.869   4.422
 3609SOL    HW211727   1.437   6.806   4.273
 3610SOL     OW11728   1.923   7.014   5.947
 3610SOL    HW111729   1.902   0.087   5.919
 3610SOL    HW211730   2.008   6.985   5.904
 3611SOL     OW11731   4.524   5.178   4.663
 3611SOL    HW111732   4.480   5.100   4.619
 3611SOL    HW211733   4.589   5.144   4.732
 3612SOL     OW11734   6.751   6.981   0.674
 3612SOL    HW111735   6.847   6.981   0.700
 3612SOL    HW211736   6.722   6.887   0.654
 3613SOL     OW11737   4.456   4.566   1.945
 3613SOL    HW111738   4.460   4.472   1.976
 3613SOL    HW211739   4.493   4.572   1.852
 3614SOL     OW11740   3.977   3.544   1.341
 3614SOL    HW111741   4.059   3.490   1.359
 3614SOL    HW211742   3.996   3.611   1.270
 3615SOL     OW11743   5.166   4.867   6.359
 3615SOL    HW111744   5.134   4.962   6.360
 3615SOL    HW211745   5.154   4.830   6.267
 3616SOL     OW11746   0.526   1.637   6.637
 3616SOL    HW111747   0.489   1.719   6.679
 3616SOL    HW211748   0.608   1.608   6.686
 3617SOL     OW11749   4.118   0.958   6.650
 3617SOL    HW111750   4.107   1.019   6.571
 3617SOL    HW211751   4.068   0.995   6.728
 3618SOL     OW11752   2.611   3.012   5.657
 3618SOL    HW111753   2.632   2.980   5.564
 3618SOL    HW211754   2.545   2.950   5.699
 3619SOL     OW11755   5.366   2.832   4.667
 3619SOL    HW111756   5.334   2.753   4.721
 3619SOL    HW211757   5.428   2.800   4.596
 3620SOL     OW11758   5.829   6.738   5.719
 3620SOL    HW111759   5.761   6.689   5.774
 3620SOL    HW211760   5.919   6.697   5.733
 3621SOL     OW11761   3.044   2.801   5.400
 3621SOL    HW111762   3.008   2.709   5.409
 3621SOL    HW211763   2.970   2.863   5.373
 3622SOL     OW11764   0.739   1.376   5.718
 3622SOL    HW111765   0.798   1.348   5.794
 3622SOL    HW211766   0.676   1.447   5.749
 3623SOL     OW11767   6.882   6.343   4.299
 3623SOL    HW111768   6.784   6.359   4.308
 3623SOL    HW211769   6.930   6.431   4.301
 3624SOL     OW11770   1.489   0.029   2.820
 3624SOL    HW111771   1.581   0.007   2.851
 3624SOL    HW211772   1.486   0.028   2.720
 3625SOL     OW11773   6.710   2.845   6.798
 3625SOL    HW111774   6.766   2.864   6.878
 3625SOL    HW211775   6.687   2.931   6.752
 3626SOL     OW11776   1.513   2.057   5.990
 3626SOL    HW111777   1.541   2.148   6.022
 3626SOL    HW211778   1.570   1.988   6.034
 3627SOL     OW11779   3.253   3.406   2.118
 3627SOL    HW111780   3.237   3.446   2.027
 3627SOL    HW211781   3.337   3.443   2.156
 3628SOL     OW11782   1.858   1.070   2.097
 3628SOL    HW111783   1.838   0.990   2.155
 3628SOL    HW211784   1.922   1.130   2.144
 3629SOL     OW11785   6.640   0.714   5.480
 3629SOL    HW111786   6.594   0.678   5.400
 3629SOL    HW211787   6.591   0.685   5.563
 3630SOL     OW11788   4.853   2.193   3.911
 3630SOL    HW111789   4.946   2.170   3.882
 3630SOL    HW211790   4.819   2.123   3.973
 3631SOL     OW11791   2.470   1.333   3.147
 3631SOL    HW111792   2.520   1.248   3.163
 3631SOL    HW211793   2.459   1.347   3.048
 3632SOL     OW11794   5.053   4.926   1.465
 3632SOL    HW111795   4.965   4.924   1.512
 3632SOL    HW211796   5.071   4.836   1.425
 3633SOL     OW11797   4.379   1.952   5.446
 3633SOL    HW111798   4.283   1.978   5.446
 3633SOL    HW211799   4.410   1.937   5.540
 3634SOL     OW11800   1.601   5.104   5.224
 3634SOL    HW111801   1.616   5.149   5.312
 3634SOL    HW211802   1.667   5.029   5.213
 3635SOL     OW11803   3.105   0.091   0.817
 3635SOL    HW111804   3.034   0.140   0.868
 3635SOL    HW211805   3.154   0.030   0.879
 3636SOL     OW11806   6.786   5.417   0.783
 3636SOL    HW111807   6.860   5.380   0.727
 3636SOL    HW211808   6.704   5.428   0.727
 3637SOL     OW11809   0.161   2.425   1.957
 3637SOL    HW111810   0.118   2.473   1.880
 3637SOL    HW211811   0.103   2.432   2.038
 3638SOL     OW11812   0.583   4.361   3.459
 3638SOL    HW111813   0.660   4.330   3.405
 3638SOL    HW211814   0.577   4.461   3.455
 3639SOL     OW11815   3.584   5.529   0.873
 3639SOL    HW111816   3.679   5.513   0.848
 3639SOL    HW211817   3.539   5.442   0.891
 3640SOL     OW11818   4.185   0.943   0.240
 3640SOL    HW111819   4.274   0.984   0.222
 3640SOL    HW211820   4.179   0.916   0.336
 3641SOL     OW11821   6.191   4.146   2.211
 3641SOL    HW111822   6.167   4.243   2.215
 3641SOL    HW211823   6.119   4.092   2.254
 3642SOL     OW11824   5.230   1.968   0.512
 3642SOL    HW111825   5.150   1.999   0.565
 3642SOL    HW211826   5.314   1.992   0.562
 3643SOL     OW11827   3.318   5.734   4.065
 3643SOL    HW111828   3.278   5.644   4.083
 3643SOL    HW211829   3.413   5.723   4.036
 3644SOL     OW11830   0.551   0.791   1.876
 3644SOL    HW111831   0.641   0.758   1.846
 3644SOL    HW211832   0.516   0.856   1.808
 3645SOL     OW11833   1.437   2.659   4.112
 3645SOL    HW111834   1.461   2.611   4.027
 3645SOL    HW211835   1.337   2.665   4.120
 3646SOL     OW11836   1.831   3.899   6.291
 3646SOL    HW111837   1.895   3.823   6.282
 3646SOL    HW211838   1.883   3.985   6.293
 3647SOL     OW11839   2.399   6.303   6.573
 3647SOL    HW111840   2.324   6.238   6.588
 3647SOL    HW211841   2.442   6.324   6.661
 3648SOL     OW11842   4.507   5.801   1.980
 3648SOL    HW111843   4.411   5.825   1.969
 3648SOL    HW211844   4.522   5.766   2.072
 3649SOL     OW11845   6.207   2.629   1.244
 3649SOL    HW111846   6.225   2.721   1.208
 3649SOL    HW211847   6.189   2.635   1.342
 3650SOL     OW11848   6.550   5.699   2.212
 3650SOL    HW111849   6.622   5.659   2.155
 3650SOL    HW211850   6.489   5.627   2.245
 3651SOL     OW11851   0.540   0.199   4.653
 3651SOL    HW111852   0.452   0.225   4.693
 3651SOL    HW211853   0.525   0.129   4.583
 3652SOL     OW11854   6.239   0.418   3.401
 3652SOL    HW111855   6.250   0.511   3.368
 3652SOL    HW211856   6.317   0.394   3.459
 3653SOL     OW11857   1.230   1.480   3.891
 3653SOL    HW111858   1.140   1.472   3.848
 3653SOL    HW211859   1.298   1.435   3.834
 3654SOL     OW11860   3.660   4.452   0.448
 3654SOL    HW111861   3.693   4.481   0.358
 3654SOL    HW211862   3.636   4.533   0.503
 3655SOL     OW11863   3.249   0.077   4.028
 3655SOL    HW111864   3.221   7.011   3.986
 3655SOL    HW211865   3.229   0.074   4.126
 3656SOL     OW11866   0.648   4.647   1.398
 3656SOL    HW111867   0.562   4.653   1.449
 3656SOL    HW211868   0.636   4.586   1.320
 3657SOL     OW11869   5.654   5.701   5.173
 3657SOL    HW111870   5.671   5.684   5.075
 3657SOL    HW211871   5.556   5.700   5.190
 3658SOL     OW11872   2.408   4.761   6.677
 3658SOL    HW111873   2.452   4.774   6.766
 3658SOL    HW211874   2.374   4.668   6.670
 3659SOL     OW11875   1.879   3.291   5.468
 3659SOL    HW111876   1.863   3.374   5.522
 3659SOL    HW211877   1.866   3.211   5.526
 3660SOL     OW11878   5.767   5.791   4.226
 3660SOL    HW111879   5.724   5.716   4.275
 3660SOL    HW211880   5.755   5.778   4.127
 3661SOL     OW11881   6.445   0.903   5.229
 3661SOL    HW111882   6.379   0.921   5.303
 3661SOL    HW211883   6.430   0.811   5.193
 3662SOL     OW11884   3.944   1.012   4.122
 3662SOL    HW111885   3.855   0.984   4.085
 3662SOL    HW211886   3.965   1.105   4.094
 3663SOL     OW11887   1.589   1.943   0.576
 3663SOL    HW111888   1.566   1.887   0.656
 3663SOL    HW211889   1.679   1.984   0.589
 3664SOL     OW11890   4.637   2.356   1.209
 3664SOL    HW111891   4.604   2.424   1.274
 3664SOL    HW211892   4.707   2.299   1.253
 3665SOL     OW11893   0.828   6.313   5.023
 3665SOL    HW111894   0.736   6.292   4.990
 3665SOL    HW211895   0.865   6.232   5.069
 3666SOL     OW11896   0.789   3.644   2.785
 3666SOL    HW111897   0.719   3.626   2.716
 3666SOL    HW211898   0.856   3.570   2.784
 3667SOL     OW11899   0.484   1.217   3.735
 3667SOL    HW111900   0.403   1.276   3.738
 3667SOL    HW211901   0.483   1.165   3.650
 3668SOL     OW11902   1.245   1.322   0.612
 3668SOL    HW111903   1.146   1.319   0.628
 3668SOL    HW211904   1.293   1.290   0.693
 3669SOL     OW11905   5.359   1.591   3.867
 3669SOL    HW111906   5.454   1.616   3.887
 3669SOL    HW211907   5.355   1.500   3.827
 3670SOL     OW11908   1.652   5.669   6.617
 3670SOL    HW111909   1.693   5.578   6.625
 3670SOL    HW211910   1.716   5.738   6.650
 3671SOL     OW11911   0.061   1.894   3.895
 3671SOL    HW111912   0.137   1.862   3.951
 3671SOL    HW211913   0.072   1.860   3.801
 3672SOL     OW11914   4.753   2.067   2.045
 3672SOL    HW111915   4.793   2.159   2.042
 3672SOL    HW211916   4.657   2.071   2.017
 3673SOL     OW11917   4.340   6.275   0.133
 3673SOL    HW111918   4.376   6.358   0.175
 3673SOL    HW211919   4.286   6.224   0.200
 3674SOL     OW11920   1.424   5.766   5.333
 3674SOL    HW111921   1.334   5.726   5.319
 3674SOL    HW211922   1.431   5.803   5.425
 3675SOL     OW11923   2.137   2.903   3.882
 3675SOL    HW111924   2.134   2.882   3.785
 3675SOL    HW211925   2.054   2.869   3.927
 3676SOL     OW11926   6.322   4.235   2.559
 3676SOL    HW111927   6.338   4.249   2.657
 3676SOL    HW211928   6.275   4.148   2.544
 3677SOL     OW11929   2.885   6.248   4.342
 3677SOL    HW111930   2.884   6.300   4.257
 3677SOL    HW211931   2.965   6.275   4.396
 3678SOL     OW11932   0.831   1.434   4.194
 3678SOL    HW111933   0.739   1.440   4.234
 3678SOL    HW211934   0.864   1.340   4.200
 3679SOL     OW11935   6.724   0.164   3.622
 3679SOL    HW111936   6.719   0.082   3.679
 3679SOL    HW211937   6.633   0.205   3.615
 3680SOL     OW11938   5.163   3.160   4.091
 3680SOL    HW111939   5.176   3.248   4.136
 3680SOL    HW211940   5.184   3.086   4.155
 3681SOL     OW11941   0.273   1.093   6.514
 3681SOL    HW111942   0.261   1.068   6.418
 3681SOL    HW211943   0.369   1.082   6.540
 3682SOL     OW11944   5.797   3.168   6.981
 3682SOL    HW111945   5.837   3.200   0.046
 3682SOL    HW211946   5.737   3.238   6.943
 3683SOL     OW11947   6.872   1.794   4.483
 3683SOL    HW111948   6.806   1.760   4.549
 3683SOL    HW211949   6.835   1.788   4.391
 3684SOL     OW11950   1.180   5.440   6.901
 3684SOL    HW111951   1.269   5.396   6.891
 3684SOL    HW211952   1.138   5.412   6.988
 3685SOL     OW11953   1.627   5.859   6.295
 3685SOL    HW111954   1.669   5.798   6.363
 3685SOL    HW211955   1.684   5.939   6.282
 3686SOL     OW11956   6.238   5.281   5.064
 3686SOL    HW111957   6.237   5.224   5.147
 3686SOL    HW211958   6.236   5.222   4.983
 3687SOL     OW11959   3.784   6.562   4.019
 3687SOL    HW111960   3.849   6.631   3.988
 3687SOL    HW211961   3.713   6.605   4.074
 3688SOL     OW11962   0.299   3.169   6.853
 3688SOL    HW111963   0.325   3.197   6.945
 3688SOL    HW211964   0.330   3.238   6.787
 3689SOL     OW11965   2.094   0.365   5.813
 3689SOL    HW111966   2.146   0.331   5.891
 3689SOL    HW211967   2.047   0.290   5.768
 3690SOL     OW11968   4.115   6.044   0.042
 3690SOL    HW111969   4.138   6.138   0.064
 3690SOL    HW211970   4.050   6.009   0.110
 3691SOL     OW11971   2.352   1.648   6.916
 3691SOL    HW111972   2.344   1.625   6.819
 3691SOL    HW211973   2.288   1.591   6.968
 3692SOL     OW11974   6.517   5.186   5.621
 3692SOL    HW111975   6.550   5.140   5.538
 3692SOL    HW211976   6.515   5.285   5.605
 3693SOL     OW11977   2.117   3.649   2.937
 3693SOL    HW111978   2.119   3.748   2.954
 3693SOL    HW211979   2.112   3.600   3.024
 3694SOL     OW11980   0.679   6.279   1.888
 3694SOL    HW111981   0.596   6.229   1.864
 3694SOL    HW211982   0.658   6.376   1.897
 3695SOL     OW11983   5.062   3.104   1.553
 3695SOL    HW111984   5.072   3.010   1.521
 3695SOL    HW211985   5.046   3.165   1.475
 3696SOL     OW11986   3.887   0.005   3.985
 3696SOL    HW111987   3.959   6.957   3.997
 3696SOL    HW211988   3.866   0.049   4.072
 3697SOL     OW11989   0.232   6.370   2.866
 3697SOL    HW111990   0.326   6.400   2.849
 3697SOL    HW211991   0.178   6.448   2.899
 3698SOL     OW11992   2.733   1.324   4.239
 3698SOL    HW111993   2.647   1.275   4.251
 3698SOL    HW211994   2.725   1.387   4.162
 3699SOL     OW11995   1.697   1.767   3.756
 3699SOL    HW111996   1.762   1.785   3.682
 3699SOL    HW211997   1.709   1.835   3.828
 3700SOL     OW11998   1.238   5.216   5.158
 3700SOL    HW111999   1.304   5.162   5.105
 3700SOL    HW212000   1.202   5.289   5.101
 3701SOL     OW12001   1.429   0.862   4.025
 3701SOL    HW112002   1.525   0.881   4.044
 3701SOL    HW212003   1.397   0.787   4.083
 3702SOL     OW12004   5.669   6.616   3.359
 3702SOL    HW112005   5.760   6.644   3.390
 3702SOL    HW212006   5.668   6.607   3.260
 3703SOL     OW12007   6.488   0.317   6.324
 3703SOL    HW112008   6.425   0.289   6.251
 3703SOL    HW212009   6.437   0.333   6.408
 3704SOL     OW12010   3.647   2.216   0.936
 3704SOL    HW112011   3.640   2.315   0.921
 3704SOL    HW212012   3.559   2.173   0.918
 3705SOL     OW12013   5.137   3.974   5.045
 3705SOL    HW112014   5.139   3.874   5.054
 3705SOL    HW212015   5.098   4.014   5.127
 3706SOL     OW12016   1.039   3.917   6.992
 3706SOL    HW112017   1.037   3.827   0.014
 3706SOL    HW212018   1.126   3.931   6.947
 3707SOL     OW12019   5.159   4.765   4.672
 3707SOL    HW112020   5.258   4.772   4.659
 3707SOL    HW212021   5.114   4.764   4.583
 3708SOL     OW12022   6.274   0.700   0.257
 3708SOL    HW112023   6.334   0.738   0.328
 3708SOL    HW212024   6.256   0.769   0.187
 3709SOL     OW12025   3.771   0.740   1.208
 3709SOL    HW112026   3.674   0.760   1.203
 3709SOL    HW212027   3.784   0.648   1.246
 3710SOL     OW12028   6.712   5.276   5.132
 3710SOL    HW112029   6.785   5.269   5.064
 3710SOL    HW212030   6.650   5.351   5.106
 3711SOL     OW12031   1.114   5.594   4.771
 3711SOL    HW112032   1.214   5.606   4.775
 3711SOL    HW212033   1.082   5.612   4.678
 3712SOL     OW12034   0.965   5.044   6.205
 3712SOL    HW112035   0.881   4.990   6.211
 3712SOL    HW212036   0.951   5.122   6.143
 3713SOL     OW12037   0.346   6.781   5.399
 3713SOL    HW112038   0.295   6.866   5.389
 3713SOL    HW212039   0.289   6.713   5.446
 3714SOL     OW12040   5.729   5.897   6.238
 3714SOL    HW112041   5.763   5.862   6.150
 3714SOL    HW212042   5.759   5.837   6.312
 3715SOL     OW12043   0.655   3.973   2.559
 3715SOL    HW112044   0.746   3.984   2.599
 3715SOL    HW212045   0.617   4.064   2.538
 3716SOL     OW12046   6.187   6.601   3.804
 3716SOL    HW112047   6.088   6.611   3.815
 3716SOL    HW212048   6.233   6.627   3.889
 3717SOL     OW12049   6.086   6.723   6.848
 3717SOL    HW112050   6.047   6.631   6.846
 3717SOL    HW212051   6.165   6.725   6.909
 3718SOL     OW12052   0.544   0.895   0.180
 3718SOL    HW112053   0.579   0.809   0.140
 3718SOL    HW212054   0.448   0.883   0.205
 3719SOL     OW12055   4.979   3.523   1.575
 3719SOL    HW112056   4.922   3.525   1.493
 3719SOL    HW212057   5.076   3.523   1.549
 3720SOL     OW12058   5.766   3.452   0.065
 3720SOL    HW112059   5.848   3.509   0.056
 3720SOL    HW212060   5.776   3.393   0.145
 3721SOL     OW12061   6.971   5.236   1.911
 3721SOL    HW112062   0.048   5.251   1.925
 3721SOL    HW212063   6.947   5.144   1.944
 3722SOL     OW12064   5.640   6.211   0.936
 3722SOL    HW112065   5.606   6.148   1.006
 3722SOL    HW212066   5.699   6.162   0.872
 3723SOL     OW12067   5.770   4.810   0.946
 3723SOL    HW112068   5.793   4.770   1.035
 3723SOL    HW212069   5.718   4.894   0.959
 3724SOL     OW12070   1.578   4.799   4.973
 3724SOL    HW112071   1.563   4.719   5.031
 3724SOL    HW212072   1.656   4.783   4.914
 3725SOL     OW12073   0.162   5.066   0.154
 3725SOL    HW112074   0.259   5.046   0.143
 3725SOL    HW212075   0.108   4.985   0.130
 3726SOL     OW12076   5.875   3.132   6.404
 3726SOL    HW112077   5.801   3.067   6.420
 3726SOL    HW212078   5.874   3.202   6.475
 3727SOL     OW12079   6.521   1.889   5.679
 3727SOL    HW112080   6.488   1.848   5.764
 3727SOL    HW212081   6.474   1.848   5.601
 3728SOL     OW12082   0.923   3.584   6.298
 3728SOL    HW112083   1.020   3.603   6.289
 3728SOL    HW212084   0.909   3.489   6.326
 3729SOL     OW12085   1.928   2.083   4.162
 3729SOL    HW112086   2.006   2.021   4.177
 3729SOL    HW212087   1.962   2.175   4.145
 3730SOL     OW12088   3.128   6.288   5.379
 3730SOL    HW112089   3.136   6.302   5.478
 3730SOL    HW212090   3.202   6.337   5.333
 3731SOL     OW12091   0.181   1.452   0.694
 3731SOL    HW112092   0.128   1.525   0.736
 3731SOL    HW212093   0.246   1.416   0.761
 3732SOL     OW12094   2.745   2.044   0.195
 3732SOL    HW112095   2.768   1.982   0.120
 3732SOL    HW212096   2.830   2.078   0.238
 3733SOL     OW12097   1.796   3.374   2.719
 3733SOL    HW112098   1.847   3.421   2.791
 3733SOL    HW212099   1.708   3.419   2.705
 3734SOL     OW12100   5.338   0.477   1.495
 3734SOL    HW112101   5.349   0.576   1.504
 3734SOL    HW212102   5.295   0.457   1.406
 3735SOL     OW12103   2.862   1.132   2.751
 3735SOL    HW112104   2.962   1.137   2.753
 3735SOL    HW212105   2.833   1.038   2.764
 3736SOL     OW12106   0.141   1.561   1.313
 3736SOL    HW112107   0.232   1.574   1.275
 3736SOL    HW212108   0.148   1.556   1.413
 3737SOL     OW12109   5.224   0.806   4.345
 3737SOL    HW112110   5.277   0.890   4.334
 3737SOL    HW212111   5.221   0.757   4.258
 3738SOL     OW12112   6.545   0.441   1.830
 3738SOL    HW112113   6.526   0.345   1.811
 3738SOL    HW212114   6.466   0.496   1.803
 3739SOL     OW12115   2.638   5.190   0.840
 3739SOL    HW112116   2.677   5.122   0.778
 3739SOL    HW212117   2.688   5.190   0.926
 3740SOL     OW12118   6.573   0.176   0.650
 3740SOL    HW112119   6.602   0.258   0.700
 3740SOL    HW212120   6.648   0.110   0.649
 3741SOL     OW12121   5.270   2.623   6.047
 3741SOL    HW112122   5.269   2.723   6.052
 3741SOL    HW212123   5.214   2.586   6.121
 3742SOL     OW12124   3.133   1.927   6.618
 3742SOL    HW112125   3.178   1.838   6.617
 3742SOL    HW212126   3.106   1.952   6.525
 3743SOL     OW12127   6.017   3.013   0.747
 3743SOL    HW112128   5.976   3.001   0.657
 3743SOL    HW212129   5.971   3.087   0.795
 3744SOL     OW12130   1.901   6.145   1.668
 3744SOL    HW112131   1.801   6.145   1.670
 3744SOL    HW212132   1.935   6.059   1.705
 3745SOL     OW12133   4.657   4.511   2.522
 3745SOL    HW112134   4.566   4.521   2.481
 3745SOL    HW212135   4.718   4.581   2.485
 3746SOL     OW12136   6.212   0.904   3.888
 3746SOL    HW112137   6.234   0.859   3.802
 3746SOL    HW212138   6.151   0.981   3.871
 3747SOL     OW12139   3.516   6.006   4.950
 3747SOL    HW112140   3.597   5.952   4.932
 3747SOL    HW212141   3.527   6.055   5.037
 3748SOL     OW12142   5.784   0.710   1.950
 3748SOL    HW112143   5.836   0.788   1.986
 3748SOL    HW212144   5.810   0.693   1.855
 3749SOL     OW12145   1.864   5.069   3.411
 3749SOL    HW112146   1.899   4.981   3.379
 3749SOL    HW212147   1.922   5.142   3.376
 3750SOL     OW12148   6.372   5.163   1.454
 3750SOL    HW112149   6.343   5.200   1.365
 3750SOL    HW212150   6.431   5.083   1.440
 3751SOL     OW12151   6.719   3.565   1.532
 3751SOL    HW112152   6.819   3.562   1.536
 3751SOL    HW212153   6.691   3.587   1.439
 3752SOL     OW12154   6.996   6.674   0.862
 3752SOL    HW112155   7.019   6.685   0.766
 3752SOL    HW212156   6.900   6.699   0.876
 3753SOL     OW12157   0.047   1.142   4.194
 3753SOL    HW112158   6.987   1.104   4.148
 3753SOL    HW212159   0.116   1.164   4.125
 3754SOL     OW12160   4.122   6.756   1.291
 3754SOL    HW112161   4.067   6.673   1.294
 3754SOL    HW212162   4.082   6.824   1.352
 3755SOL     OW12163   5.489   5.789   4.490
 3755SOL    HW112164   5.494   5.886   4.466
 3755SOL    HW212165   5.487   5.780   4.590
 3756SOL     OW12166   2.255   5.453   6.357
 3756SOL    HW112167   2.312   5.393   6.301
 3756SOL    HW212168   2.158   5.435   6.336
 3757SOL     OW12169   4.153   6.196   6.641
 3757SOL    HW112170   4.060   6.161   6.625
 3757SOL    HW212171   4.163   6.221   6.737
 3758SOL     OW12172   2.158   1.039   5.330
 3758SOL    HW112173   2.136   0.976   5.254
 3758SOL    HW212174   2.098   1.119   5.325
 3759SOL     OW12175   4.461   5.826   6.021
 3759SOL    HW112176   4.539   5.873   6.061
 3759SOL    HW212177   4.488   5.782   5.936
 3760SOL     OW12178   1.941   1.649   5.275
 3760SOL    HW112179   1.849   1.613   5.288
 3760SOL    HW212180   1.981   1.672   5.363
 3761SOL     OW12181   1.115   0.904   4.743
 3761SOL    HW112182   1.125   0.975   4.812
 3761SOL    HW212183   1.197   0.846   4.743
 3762SOL     OW12184   1.366   4.124   0.069
 3762SOL    HW112185   1.340   4.104   6.995
 3762SOL    HW212186   1.284   4.150   0.120
 3763SOL     OW12187   0.222   4.265   1.353
 3763SOL    HW112188   0.178   4.206   1.285
 3763SOL    HW212189   0.318   4.238   1.363
 3764SOL     OW12190   1.803   6.785   3.886
 3764SOL    HW112191   1.746   6.864   3.908
 3764SOL    HW212192   1.745   6.704   3.879
 3765SOL     OW12193   4.419   0.905   1.109
 3765SOL    HW112194   4.409   0.954   1.022
 3765SOL    HW212195   4.412   0.807   1.092
 3766SOL     OW12196   0.971   1.253   3.781
 3766SOL    HW112197   0.957   1.168   3.832
 3766SOL    HW212198   0.913   1.325   3.820
 3767SOL     OW12199   2.267   4.243   0.173
 3767SOL    HW112200   2.315   4.156   0.186
 3767SOL    HW212201   2.273   4.297   0.257
 3768SOL     OW12202   1.705   6.154   4.955
 3768SOL    HW112203   1.628   6.116   5.008
 3768SOL    HW212204   1.791   6.133   5.002
 3769SOL     OW12205   6.042   6.668   5.231
 3769SOL    HW112206   6.116   6.712   5.181
 3769SOL    HW212207   6.064   6.572   5.245
 3770SOL     OW12208   2.006   0.383   6.839
 3770SOL    HW112209   2.012   0.293   6.795
 3770SOL    HW212210   2.059   0.383   6.923
 3771SOL     OW12211   6.040   3.476   0.032
 3771SOL    HW112212   6.089   3.447   0.114
 3771SOL    HW212213   6.045   3.403   6.984
 3772SOL     OW12214   0.005   0.852   6.736
 3772SOL    HW112215   0.035   0.892   6.823
 3772SOL    HW212216   0.084   0.828   6.681
 3773SOL     OW12217   6.082   2.625   6.160
 3773SOL    HW112218   6.065   2.529   6.136
 3773SOL    HW212219   6.046   2.684   6.089
 3774SOL     OW12220   0.454   6.153   0.458
 3774SOL    HW112221   0.511   6.101   0.395
 3774SOL    HW212222   0.391   6.210   0.406
 3775SOL     OW12223   5.071   5.183   2.292
 3775SOL    HW112224   5.129   5.217   2.217
 3775SOL    HW212225   5.069   5.251   2.366
 3776SOL     OW12226   3.896   1.321   0.693
 3776SOL    HW112227   3.918   1.409   0.650
 3776SOL    HW212228   3.803   1.295   0.669
 3777SOL     OW12229   3.526   5.072   4.432
 3777SOL    HW112230   3.431   5.046   4.447
 3777SOL    HW212231   3.534   5.172   4.439
 3778SOL     OW12232   3.766   5.075   2.303
 3778SOL    HW112233   3.694   5.007   2.319
 3778SOL    HW212234   3.724   5.165   2.293
 3779SOL     OW12235   1.826   4.736   0.740
 3779SOL    HW112236   1.853   4.832   0.733
 3779SOL    HW212237   1.879   4.691   0.812
 3780SOL     OW12238   5.669   6.170   5.358
 3780SOL    HW112239   5.590   6.224   5.387
 3780SOL    HW212240   5.746   6.231   5.338
 3781SOL     OW12241   0.915   6.977   4.513
 3781SOL    HW112242   0.998   6.932   4.479
 3781SOL    HW212243   0.940   0.036   4.567
 3782SOL     OW12244   2.660   0.656   4.038
 3782SOL    HW112245   2.637   0.590   4.110
 3782SOL    HW212246   2.665   0.609   3.950
 3783SOL     OW12247   5.696   5.284   4.055
 3783SOL    HW112248   5.620   5.333   4.010
 3783SOL    HW212249   5.666   5.253   4.145
 3784SOL     OW12250   4.766   2.781   2.177
 3784SOL    HW112251   4.785   2.865   2.127
 3784SOL    HW212252   4.740   2.709   2.112
 3785SOL     OW12253   1.602   1.799   6.589
 3785SOL    HW112254   1.585   1.897   6.582
 3785SOL    HW212255   1.659   1.780   6.668
 3786SOL     OW12256   2.229   6.232   2.898
 3786SOL    HW112257   2.165   6.306   2.920
 3786SOL    HW212258   2.307   6.269   2.847
 3787SOL     OW12259   6.219   0.659   2.249
 3787SOL    HW112260   6.145   0.665   2.316
 3787SOL    HW212261   6.279   0.582   2.272
 3788SOL     OW12262   0.604   4.058   4.487
 3788SOL    HW112263   0.559   4.078   4.400
 3788SOL    HW212264   0.691   4.011   4.469
 3789SOL     OW12265   0.506   2.613   5.147
 3789SOL    HW112266   0.541   2.646   5.235
 3789SOL    HW212267   0.536   2.674   5.074
 3790SOL     OW12268   1.183   4.851   5.189
 3790SOL    HW112269   1.106   4.848   5.253
 3790SOL    HW212270   1.260   4.898   5.233
 3791SOL     OW12271   5.267   0.600   0.448
 3791SOL    HW112272   5.303   0.507   0.436
 3791SOL    HW212273   5.336   0.656   0.494
 3792SOL     OW12274   1.057   1.852   5.238
 3792SOL    HW112275   1.014   1.838   5.149
 3792SOL    HW212276   1.155   1.867   5.226
 3793SOL     OW12277   4.578   6.513   2.767
 3793SOL    HW112278   4.619   6.426   2.738
 3793SOL    HW212279   4.479   6.510   2.753
 3794SOL     OW12280   2.708   3.835   0.404
 3794SOL    HW112281   2.617   3.842   0.445
 3794SOL    HW212282   2.722   3.742   0.368
 3795SOL     OW12283   4.673   6.424   6.380
 3795SOL    HW112284   4.654   6.334   6.341
 3795SOL    HW212285   4.770   6.444   6.372
 3796SOL     OW12286   3.059   1.906   2.340
 3796SOL    HW112287   3.123   1.894   2.264
 3796SOL    HW212288   3.040   2.003   2.354
 3797SOL     OW12289   0.373   3.764   2.045
 3797SOL    HW112290   0.293   3.813   2.080
 3797SOL    HW212291   0.354   3.666   2.046
 3798SOL     OW12292   2.477   5.710   2.513
 3798SOL    HW112293   2.528   5.698   2.428
 3798SOL    HW212294   2.519   5.654   2.585
 3799SOL     OW12295   0.767   2.349   4.381
 3799SOL    HW112296   0.734   2.326   4.289
 3799SOL    HW212297   0.793   2.265   4.429
 3800SOL     OW12298   5.595   3.271   4.079
 3800SOL    HW112299   5.580   3.363   4.117
 3800SOL    HW212300   5.545   3.262   3.993
 3801SOL     OW12301   6.334   6.756   3.047
 3801SOL    HW112302   6.426   6.734   3.076
 3801SOL    HW212303   6.337   6.829   2.978
 3802SOL     OW12304   1.233   2.091   2.733
 3802SOL    HW112305   1.320   2.042   2.728
 3802SOL    HW212306   1.249   2.189   2.722
 3803SOL     OW12307   3.323   2.442   1.304
 3803SOL    HW112308   3.232   2.406   1.324
 3803SOL    HW212309   3.370   2.465   1.389
 3804SOL     OW12310   5.064   0.973   4.013
 3804SOL    HW112311   5.030   1.061   4.046
 3804SOL    HW212312   5.143   0.987   3.953
 3805SOL     OW12313   2.576   2.815   1.732
 3805SOL    HW112314   2.652   2.758   1.701
 3805SOL    HW212315   2.591   2.909   1.701
 3806SOL     OW12316   3.960   4.083   6.322
 3806SOL    HW112317   3.999   4.143   6.393
 3806SOL    HW212318   4.028   4.067   6.251
 3807SOL     OW12319   2.055   5.297   3.101
 3807SOL    HW112320   2.041   5.303   3.200
 3807SOL    HW212321   2.135   5.351   3.075
 3808SOL     OW12322   4.422   0.661   1.028
 3808SOL    HW112323   4.462   0.611   1.105
 3808SOL    HW212324   4.456   0.623   0.942
 3809SOL     OW12325   5.840   3.203   0.914
 3809SOL    HW112326   5.784   3.226   0.835
 3809SOL    HW212327   5.876   3.286   0.956
 3810SOL     OW12328   4.364   2.447   4.418
 3810SOL    HW112329   4.363   2.472   4.515
 3810SOL    HW212330   4.353   2.347   4.410
 3811SOL     OW12331   1.131   3.926   4.374
 3811SOL    HW112332   1.158   3.971   4.290
 3811SOL    HW212333   1.135   3.826   4.362
 3812SOL     OW12334   5.281   0.236   4.567
 3812SOL    HW112335   5.200   0.188   4.534
 3812SOL    HW212336   5.265   0.270   4.660
 3813SOL     OW12337   4.901   4.783   0.476
 3813SOL    HW112338   4.932   4.760   0.383
 3813SOL    HW212339   4.808   4.818   0.472
 3814SOL     OW12340   0.221   0.070   0.496
 3814SOL    HW112341   0.209   6.991   0.493
 3814SOL    HW212342   0.292   0.097   0.432
 3815SOL     OW12343   4.581   3.110   0.011
 3815SOL    HW112344   4.533   3.063   0.086
 3815SOL    HW212345   4.655   3.051   6.998
 3816SOL     OW12346   0.746   5.938   6.678
 3816SOL    HW112347   0.790   5.880   6.747
 3816SOL    HW212348   0.816   5.976   6.618
 3817SOL     OW12349   4.700   4.251   2.421
 3817SOL    HW112350   4.715   4.333   2.476
 3817SOL    HW212351   4.671   4.175   2.480
 3818SOL     OW12352   5.675   0.728   0.297
 3818SOL    HW112353   5.621   0.683   0.368
 3818SOL    HW212354   5.693   0.823   0.324
 3819SOL     OW12355   5.784   5.494   1.525
 3819SOL    HW112356   5.841   5.416   1.499
 3819SOL    HW212357   5.843   5.572   1.545
 3820SOL     OW12358   5.517   7.003   3.118
 3820SOL    HW112359   5.592   6.958   3.071
 3820SOL    HW212360   5.552   0.062   3.169
 3821SOL     OW12361   2.195   1.599   0.809
 3821SOL    HW112362   2.294   1.595   0.797
 3821SOL    HW212363   2.167   1.529   0.875
 3822SOL     OW12364   1.277   6.701   2.464
 3822SOL    HW112365   1.300   6.636   2.391
 3822SOL    HW212366   1.270   6.793   2.427
 3823SOL     OW12367   2.927   2.779   6.068
 3823SOL    HW112368   2.923   2.733   6.157
 3823SOL    HW212369   2.837   2.773   6.024
 3824SOL     OW12370   6.019   2.459   0.670
 3824SOL    HW112371   6.099   2.485   0.616
 3824SOL    HW212372   6.028   2.363   0.699
 3825SOL     OW12373   1.125   6.174   0.545
 3825SOL    HW112374   1.197   6.153   0.611
 3825SOL    HW212375   1.076   6.256   0.575
 3826SOL     OW12376   0.941   2.714   6.663
 3826SOL    HW112377   0.989   2.781   6.719
 3826SOL    HW212378   0.843   2.732   6.665
 3827SOL     OW12379   2.482   2.513   1.186
 3827SOL    HW112380   2.525   2.603   1.193
 3827SOL    HW212381   2.549   2.447   1.152
 3828SOL     OW12382   3.763   2.377   1.661
 3828SOL    HW112383   3.737   2.326   1.744
 3828SOL    HW212384   3.692   2.445   1.641
 3829SOL     OW12385   1.632   4.932   4.174
 3829SOL    HW112386   1.551   4.878   4.197
 3829SOL    HW212387   1.604   5.016   4.127
 3830SOL     OW12388   0.760   0.402   4.236
 3830SOL    HW112389   0.663   0.377   4.228
 3830SOL    HW212390   0.799   0.415   4.145
 3831SOL     OW12391   4.440   2.231   2.442
 3831SOL    HW112392   4.440   2.184   2.530
 3831SOL    HW212393   4.346   2.241   2.410
 3832SOL     OW12394   5.629   0.884   3.041
 3832SOL    HW112395   5.618   0.979   3.071
 3832SOL    HW212396   5.556   0.828   3.080
 3833SOL     OW12397   0.882   5.996   5.630
 3833SOL    HW112398   0.821   6.017   5.706
 3833SOL    HW212399   0.976   5.990   5.664
 3834SOL     OW12400   4.466   3.419   1.627
 3834SOL    HW112401   4.512   3.508   1.622
 3834SOL    HW212402   4.534   3.346   1.630
 3835SOL     OW12403   2.781   5.689   5.244
 3835SOL    HW112404   2.807   5.618   5.311
 3835SOL    HW212405   2.864   5.733   5.210
 3836SOL     OW12406   1.906   4.127   5.468
 3836SOL    HW112407   1.898   4.094   5.373
 3836SOL    HW212408   1.965   4.066   5.520
 3837SOL     OW12409   4.889   4.080   6.995
 3837SOL    HW112410   4.863   4.169   6.958
 3837SOL    HW212411   4.808   4.020   6.996
 3838SOL     OW12412   6.626   3.656   4.711
 3838SOL    HW112413   6.572   3.594   4.654
 3838SOL    HW212414   6.640   3.743   4.663
 3839SOL     OW12415   3.934   0.944   3.797
 3839SOL    HW112416   4.022   0.968   3.756
 3839SOL    HW212417   3.945   0.862   3.853
 3840SOL     OW12418   1.725   1.504   5.369
 3840SOL    HW112419   1.722   1.500   5.469
 3840SOL    HW212420   1.632   1.500   5.333
 3841SOL     OW12421   0.322   3.174   5.524
 3841SOL    HW112422   0.237   3.128   5.549
 3841SOL    HW212423   0.302   3.267   5.494
 3842SOL     OW12424   1.297   3.923   6.610
 3842SOL    HW112425   1.308   3.941   6.512
 3842SOL    HW212426   1.278   4.009   6.658
 3843SOL     OW12427   0.157   4.048   2.618
 3843SOL    HW112428   0.062   4.018   2.616
 3843SOL    HW212429   0.195   4.031   2.709
 3844SOL     OW12430   0.386   2.934   6.788
 3844SOL    HW112431   0.484   2.938   6.769
 3844SOL    HW212432   0.355   3.023   6.820
 3845SOL     OW12433   3.656   2.930   2.958
 3845SOL    HW112434   3.718   2.887   3.023
 3845SOL    HW212435   3.649   3.028   2.978
 3846SOL     OW12436   1.014   4.946   3.956
 3846SOL    HW112437   1.042   5.004   3.880
 3846SOL    HW212438   0.955   4.997   4.018
 3847SOL     OW12439   6.265   0.864   4.638
 3847SOL    HW112440   6.284   0.923   4.559
 3847SOL    HW212441   6.350   0.843   4.685
 3848SOL     OW12442   3.158   5.614   2.595
 3848SOL    HW112443   3.252   5.600   2.627
 3848SOL    HW212444   3.098   5.624   2.674
 3849SOL     OW12445   0.650   1.780   5.192
 3849SOL    HW112446   0.732   1.739   5.229
 3849SOL    HW212447   0.640   1.755   5.095
 3850SOL     OW12448   2.489   3.490   1.346
 3850SOL    HW112449   2.559   3.444   1.292
 3850SOL    HW212450   2.493   3.588   1.329
 3851SOL     OW12451   1.741   4.569   2.909
 3851SOL    HW112452   1.737   4.484   2.857
 3851SOL    HW212453   1.833   4.609   2.901
 3852SOL     OW12454   4.812   6.839   4.287
 3852SOL    HW112455   4.729   6.891   4.265
 3852SOL    HW212456   4.891   6.899   4.284
 3853SOL     OW12457   1.289   2.794   2.655
 3853SOL    HW112458   1.380   2.826   2.628
 3853SOL    HW212459   1.221   2.827   2.590
 3854SOL     OW12460   0.884   3.038   2.305
 3854SOL    HW112461   0.811   2.970   2.315
 3854SOL    HW212462   0.844   3.126   2.279
 3855SOL     OW12463   5.072   5.947   6.531
 3855SOL    HW112464   5.042   5.957   6.437
 3855SOL    HW212465   5.007   5.991   6.592
 3856SOL     OW12466   6.424   6.319   5.660
 3856SOL    HW112467   6.339   6.277   5.692
 3856SOL    HW212468   6.491   6.248   5.641
 3857SOL     OW12469   1.009   5.811   5.975
 3857SOL    HW112470   1.038   5.862   5.894
 3857SOL    HW212471   1.029   5.864   6.057
 3858SOL     OW12472   1.434   6.279   5.221
 3858SOL    HW112473   1.422   6.284   5.122
 3858SOL    HW212474   1.468   6.367   5.254
 3859SOL     OW12475   6.586   2.172   3.011
 3859SOL    HW112476   6.591   2.208   3.105
 3859SOL    HW212477   6.499   2.125   2.998
 3860SOL     OW12478   1.574   0.682   5.765
 3860SOL    HW112479   1.522   0.650   5.844
 3860SOL    HW212480   1.649   0.619   5.747
 3861SOL     OW12481   5.154   4.789   2.321
 3861SOL    HW112482   5.142   4.754   2.414
 3861SOL    HW212483   5.156   4.712   2.256
 3862SOL     OW12484   0.543   0.039   5.225
 3862SOL    HW112485   0.465   0.034   5.289
 3862SOL    HW212486   0.539   6.982   5.162
 3863SOL     OW12487   4.545   2.785   6.452
 3863SOL    HW112488   4.562   2.826   6.363
 3863SOL    HW212489   4.624   2.731   6.480
 3864SOL     OW12490   2.986   1.615   5.146
 3864SOL    HW112491   2.886   1.621   5.150
 3864SOL    HW212492   3.024   1.699   5.108
 3865SOL     OW12493   3.728   0.086   0.999
 3865SOL    HW112494   3.788   0.110   0.922
 3865SOL    HW212495   3.698   0.170   1.045
 3866SOL     OW12496   4.058   1.290   0.910
 3866SOL    HW112497   4.008   1.311   0.826
 3866SOL    HW212498   4.016   1.337   0.988
 3867SOL     OW12499   1.580   3.451   3.713
 3867SOL    HW112500   1.647   3.446   3.786
 3867SOL    HW212501   1.539   3.360   3.699
 3868SOL     OW12502   2.496   6.631   0.960
 3868SOL    HW112503   2.543   6.580   1.032
 3868SOL    HW212504   2.533   6.605   0.871
 3869SOL     OW12505   6.696   3.039   4.520
 3869SOL    HW112506   6.614   2.995   4.483
 3869SOL    HW212507   6.758   3.063   4.445
 3870SOL     OW12508   4.514   5.260   0.641
 3870SOL    HW112509   4.486   5.349   0.604
 3870SOL    HW212510   4.436   5.198   0.641
 3871SOL     OW12511   4.232   0.384   2.539
 3871SOL    HW112512   4.141   0.425   2.536
 3871SOL    HW212513   4.285   0.416   2.460
 3872SOL     OW12514   3.489   2.793   2.081
 3872SOL    HW112515   3.545   2.821   2.002
 3872SOL    HW212516   3.544   2.800   2.164
 3873SOL     OW12517   0.089   4.981   1.505
 3873SOL    HW112518   0.151   4.935   1.442
 3873SOL    HW212519   0.134   5.061   1.543
 3874SOL     OW12520   3.700   6.048   6.926
 3874SOL    HW112521   3.674   5.982   6.855
 3874SOL    HW212522   3.657   6.136   6.906
 3875SOL     OW12523   0.844   2.576   2.332
 3875SOL    HW112524   0.785   2.566   2.252
 3875SOL    HW212525   0.892   2.490   2.350
 3876SOL     OW12526   6.377   5.168   6.685
 3876SOL    HW112527   6.366   5.249   6.744
 3876SOL    HW212528   6.293   5.114   6.688
 3877SOL     OW12529   6.953   2.726   0.058
 3877SOL    HW112530   6.950   2.704   6.981
 3877SOL    HW212531   7.012   2.806   0.073
 3878SOL     OW12532   2.538   6.570   5.310
 3878SOL    HW112533   2.448   6.540   5.281
 3878SOL    HW212534   2.544   6.670   5.303
 3879SOL     OW12535   4.760   6.644   0.886
 3879SOL    HW112536   4.765   6.743   0.892
 3879SOL    HW212537   4.743   6.616   0.792
 3880SOL     OW12538   5.907   4.363   3.525
 3880SOL    HW112539   5.894   4.333   3.619
 3880SOL    HW212540   6.004   4.367   3.503
 3881SOL     OW12541   1.374   5.466   0.329
 3881SOL    HW112542   1.298   5.401   0.324
 3881SOL    HW212543   1.457   5.418   0.355
 3882SOL     OW12544   5.980   1.392   4.503
 3882SOL    HW112545   6.002   1.488   4.521
 3882SOL    HW212546   5.908   1.387   4.435
 3883SOL     OW12547   4.512   1.221   3.398
 3883SOL    HW112548   4.584   1.200   3.332
 3883SOL    HW212549   4.549   1.210   3.491
 3884SOL     OW12550   1.527   5.834   4.000
 3884SOL    HW112551   1.450   5.803   3.944
 3884SOL    HW212552   1.492   5.869   4.088
 3885SOL     OW12553   6.398   1.381   4.321
 3885SOL    HW112554   6.425   1.473   4.349
 3885SOL    HW212555   6.472   1.339   4.269
 3886SOL     OW12556   6.622   0.007   5.116
 3886SOL    HW112557   6.592   0.051   5.201
 3886SOL    HW212558   6.570   6.943   5.102
 3887SOL     OW12559   5.333   2.131   5.694
 3887SOL    HW112560   5.308   2.171   5.782
 3887SOL    HW212561   5.397   2.192   5.647
 3888SOL     OW12562   0.866   0.719   6.441
 3888SOL    HW112563   0.923   0.707   6.523
 3888SOL    HW212564   0.896   0.800   6.391
 3889SOL     OW12565   0.283   3.164   6.303
 3889SOL    HW112566   0.336   3.200   6.227
 3889SOL    HW212567   0.220   3.235   6.336
 3890SOL     OW12568   5.647   6.297   2.902
 3890SOL    HW112569   5.602   6.343   2.826
 3890SOL    HW212570   5.710   6.360   2.947
 3891SOL     OW12571   5.323   4.167   4.910
 3891SOL    HW112572   5.292   4.109   4.985
 3891SOL    HW212573   5.262   4.154   4.831
 3892SOL     OW12574   0.434   0.620   2.486
 3892SOL    HW112575   0.347   0.580   2.513
 3892SOL    HW212576   0.450   0.602   2.389
 3893SOL     OW12577   2.865   5.665   2.218
 3893SOL    HW112578   2.874   5.596   2.146
 3893SOL    HW212579   2.865   5.621   2.308
 3894SOL     OW12580   3.378   2.256   0.257
 3894SOL    HW112581   3.326   2.180   0.296
 3894SOL    HW212582   3.351   2.341   0.301
 3895SOL     OW12583   1.280   0.985   5.117
 3895SOL    HW112584   1.243   1.048   5.050
 3895SOL    HW212585   1.293   1.033   5.204
 3896SOL     OW12586   0.258   2.500   6.036
 3896SOL    HW112587   0.220   2.501   5.943
 3896SOL    HW212588   0.198   2.552   6.097
 3897SOL     OW12589   3.292   6.670   1.847
 3897SOL    HW112590   3.202   6.652   1.887
 3897SOL    HW212591   3.325   6.759   1.878
 3898SOL     OW12592   3.233   2.996   3.299
 3898SOL    HW112593   3.160   3.013   3.232
 3898SOL    HW212594   3.298   2.931   3.261
 3899SOL     OW12595   4.773   1.032   4.303
 3899SOL    HW112596   4.746   0.955   4.246
 3899SOL    HW212597   4.695   1.064   4.357
 3900SOL     OW12598   5.303   3.404   3.137
 3900SOL    HW112599   5.270   3.410   3.231
 3900SOL    HW212600   5.258   3.473   3.081
 3901SOL     OW12601   2.547   6.319   6.005
 3901SOL    HW112602   2.597   6.405   6.012
 3901SOL    HW212603   2.607   6.249   5.966
 3902SOL     OW12604   4.586   4.416   2.244
 3902SOL    HW112605   4.634   4.351   2.302
 3902SOL    HW212606   4.558   4.372   2.159
 3903SOL     OW12607   4.145   3.314   6.702
 3903SOL    HW112608   4.168   3.405   6.737
 3903SOL    HW212609   4.047   3.309   6.683
 3904SOL     OW12610   1.023   1.174   6.204
 3904SOL    HW112611   1.064   1.262   6.229
 3904SOL    HW212612   1.090   1.119   6.155
 3905SOL     OW12613   5.972   6.502   5.982
 3905SOL    HW112614   5.920   6.425   5.944
 3905SOL    HW212615   6.003   6.561   5.907
 3906SOL     OW12616   1.943   5.129   5.509
 3906SOL    HW112617   1.852   5.165   5.488
 3906SOL    HW212618   1.959   5.046   5.455
 3907SOL     OW12619   0.287   0.974   4.721
 3907SOL    HW112620   0.381   0.948   4.698
 3907SOL    HW212621   0.232   0.975   4.638
 3908SOL     OW12622   0.778   1.251   6.672
 3908SOL    HW112623   0.814   1.300   6.592
 3908SOL    HW212624   0.697   1.199   6.644
 3909SOL     OW12625   6.097   4.100   6.213
 3909SOL    HW112626   6.180   4.110   6.268
 3909SOL    HW212627   6.017   4.101   6.273
 3910SOL     OW12628   3.703   4.124   1.962
 3910SOL    HW112629   3.618   4.164   1.930
 3910SOL    HW212630   3.779   4.187   1.944
 3911SOL     OW12631   5.134   1.424   0.858
 3911SOL    HW112632   5.065   1.391   0.793
 3911SOL    HW212633   5.133   1.524   0.859
 3912SOL     OW12634   4.071   0.528   6.502
 3912SOL    HW112635   4.088   0.608   6.445
 3912SOL    HW212636   3.979   0.494   6.486
 3913SOL     OW12637   3.626   5.810   6.768
 3913SOL    HW112638   3.552   5.854   6.717
 3913SOL    HW212639   3.598   5.718   6.793
 3914SOL     OW12640   4.987   1.296   1.749
 3914SOL    HW112641   5.029   1.368   1.805
 3914SOL    HW212642   5.048   1.274   1.672
 3915SOL     OW12643   3.922   6.732   6.966
 3915SOL    HW112644   3.843   6.702   7.020
 3915SOL    HW212645   3.965   6.653   6.922
 3916SOL     OW12646   2.472   6.924   3.064
 3916SOL    HW112647   2.496   6.852   2.999
 3916SOL    HW212648   2.416   6.885   3.137
 3917SOL     OW12649   2.526   4.761   0.431
 3917SOL    HW112650   2.615   4.716   0.422
 3917SOL    HW212651   2.484   4.770   0.340
 3918SOL     OW12652   4.273   0.582   0.740
 3918SOL    HW112653   4.349   0.611   0.683
 3918SOL    HW212654   4.262   0.483   0.733
 3919SOL     OW12655   3.962   0.799   0.233
 3919SOL    HW112656   4.042   0.852   0.203
 3919SOL    HW212657   3.991   0.724   0.292
 3920SOL     OW12658   2.125   0.757   7.011
 3920SOL    HW112659   2.093   0.696   0.063
 3920SOL    HW212660   2.204   0.715   6.965
 3921SOL     OW12661   6.940   2.713   6.817
 3921SOL    HW112662   6.848   2.737   6.786
 3921SOL    HW212663   6.992   2.676   6.740
 3922SOL     OW12664   4.816   5.236   1.523
 3922SOL    HW112665   4.748   5.307   1.539
 3922SOL    HW212666   4.772   5.156   1.481
 3923SOL     OW12667   5.501   2.001   1.181
 3923SOL    HW112668   5.430   2.071   1.168
 3923SOL    HW212669   5.495   1.935   1.106
 3924SOL     OW12670   0.643   4.342   2.934
 3924SOL    HW112671   0.583   4.320   3.011
 3924SOL    HW212672   0.617   4.431   2.896
 3925SOL     OW12673   4.621   4.610   1.721
 3925SOL    HW112674   4.687   4.682   1.702
 3925SOL    HW212675   4.646   4.527   1.671
 3926SOL     OW12676   0.625   0.149   5.507
 3926SOL    HW112677   0.569   0.086   5.453
 3926SOL    HW212678   0.671   0.213   5.446
 3927SOL     OW12679   0.508   3.014   3.873
 3927SOL    HW112680   0.574   2.949   3.911
 3927SOL    HW212681   0.555   3.099   3.849
 3928SOL     OW12682   2.826   6.536   2.053
 3928SOL    HW112683   2.808   6.633   2.070
 3928SOL    HW212684   2.740   6.485   2.054
 3929SOL     OW12685   0.029   0.933   7.010
 3929SOL    HW112686   6.979   0.904   0.054
 3929SOL    HW212687   0.089   1.000   0.033
 3930SOL     OW12688   0.941   2.117   3.900
 3930SOL    HW112689   0.921   2.020   3.891
 3930SOL    HW212690   0.940   2.160   3.809
 3931SOL     OW12691   1.824   2.057   1.931
 3931SOL    HW112692   1.776   2.044   2.017
 3931SOL    HW212693   1.917   2.022   1.939
 3932SOL     OW12694   2.557   5.162   4.404
 3932SOL    HW112695   2.468   5.181   4.445
 3932SOL    HW212696   2.600   5.086   4.454
 3933SOL     OW12697   1.202   6.374   0.113
 3933SOL    HW112698   1.152   6.359   0.027
 3933SOL    HW212699   1.160   6.320   0.186
 3934SOL     OW12700   0.071   1.401   3.307
 3934SOL    HW112701   0.032   1.310   3.295
 3934SOL    HW212702   0.038   1.462   3.235
 3935SOL     OW12703   6.828   2.096   6.059
 3935SOL    HW112704   6.905   2.033   6.049
 3935SOL    HW212705   6.862   2.190   6.068
 3936SOL     OW12706   6.644   6.146   5.579
 3936SOL    HW112707   6.719   6.105   5.527
 3936SOL    HW212708   6.682   6.204   5.652
 3937SOL     OW12709   0.624   6.096   2.921
 3937SOL    HW112710   0.672   6.091   2.833
 3937SOL    HW212711   0.627   6.006   2.965
 3938SOL     OW12712   6.879   3.251   4.379
 3938SOL    HW112713   6.902   3.174   4.319
 3938SOL    HW212714   6.782   3.249   4.400
 3939SOL     OW12715   2.200   1.649   3.703
 3939SOL    HW112716   2.108   1.649   3.742
 3939SOL    HW212717   2.253   1.574   3.742
 3940SOL     OW12718   3.008   4.787   2.062
 3940SOL    HW112719   2.939   4.718   2.038
 3940SOL    HW212720   3.062   4.809   1.981
 3941SOL     OW12721   5.940   6.896   3.981
 3941SOL    HW112722   5.914   6.973   3.924
 3941SOL    HW212723   5.889   6.899   4.067
 3942SOL     OW12724   0.685   6.182   5.327
 3942SOL    HW112725   0.629   6.264   5.321
 3942SOL    HW212726   0.767   6.202   5.381
 3943SOL     OW12727   1.099   3.208   1.472
 3943SOL    HW112728   1.175   3.182   1.531
 3943SOL    HW212729   1.014   3.167   1.506
 3944SOL     OW12730   5.758   3.614   5.687
 3944SOL    HW112731   5.755   3.637   5.785
 3944SOL    HW212732   5.683   3.662   5.640
 3945SOL     OW12733   1.025   2.430   3.164
 3945SOL    HW112734   1.028   2.449   3.262
 3945SOL    HW212735   1.000   2.335   3.149
 3946SOL     OW12736   0.364   3.830   6.984
 3946SOL    HW112737   0.419   3.911   7.005
 3946SOL    HW212738   0.300   3.814   0.038
 3947SOL     OW12739   6.297   5.345   6.866
 3947SOL    HW112740   6.202   5.369   6.843
 3947SOL    HW212741   6.304   5.332   6.965
 3948SOL     OW12742   1.232   3.315   6.886
 3948SOL    HW112743   1.296   3.347   6.955
 3948SOL    HW212744   1.235   3.377   6.807
 3949SOL     OW12745   6.413   0.234   3.214
 3949SOL    HW112746   6.434   0.319   3.262
 3949SOL    HW212747   6.422   0.247   3.116
 3950SOL     OW12748   4.201   4.162   1.679
 3950SOL    HW112749   4.285   4.164   1.733
 3950SOL    HW212750   4.153   4.076   1.695
 3951SOL     OW12751   0.350   1.838   6.775
 3951SOL    HW112752   0.271   1.893   6.804
 3951SOL    HW212753   0.354   1.754   6.829
 3952SOL     OW12754   6.288   3.210   4.118
 3952SOL    HW112755   6.266   3.305   4.136
 3952SOL    HW212756   6.214   3.168   4.066
 3953SOL     OW12757   3.259   4.496   5.827
 3953SOL    HW112758   3.266   4.484   5.728
 3953SOL    HW212759   3.227   4.411   5.869
 3954SOL     OW12760   6.045   4.495   5.711
 3954SOL    HW112761   6.021   4.413   5.763
 3954SOL    HW212762   5.963   4.543   5.682
 3955SOL     OW12763   4.544   6.380   0.469
 3955SOL    HW112764   4.486   6.432   0.407
 3955SOL    HW212765   4.575   6.297   0.423
 3956SOL     OW12766   0.597   2.733   5.398
 3956SOL    HW112767   0.508   2.751   5.439
 3956SOL    HW212768   0.660   2.807   5.419
 3957SOL     OW12769   3.149   5.901   3.900
 3957SOL    HW112770   3.207   5.838   3.951
 3957SOL    HW212771   3.093   5.849   3.835
 3958SOL     OW12772   5.596   6.455   0.275
 3958SOL    HW112773   5.559   6.548   0.267
 3958SOL    HW212774   5.688   6.453   0.236
 3959SOL     OW12775   3.344   6.107   1.295
 3959SOL    HW112776   3.441   6.084   1.288
 3959SOL    HW212777   3.302   6.102   1.205
 3960SOL     OW12778   5.067   2.535   6.504
 3960SOL    HW112779   5.106   2.623   6.532
 3960SOL    HW212780   5.122   2.461   6.543
 3961SOL     OW12781   5.018   2.066   1.879
 3961SOL    HW112782   4.933   2.040   1.925
 3961SOL    HW212783   5.091   2.076   1.947
 3962SOL     OW12784   0.689   6.182   6.809
 3962SOL    HW112785   0.689   6.083   6.798
 3962SOL    HW212786   0.740   6.224   6.733
 3963SOL     OW12787   6.008   5.612   3.395
 3963SOL    HW112788   6.090   5.641   3.345
 3963SOL    HW212789   5.928   5.660   3.360
 3964SOL     OW12790   4.455   5.518   5.141
 3964SOL    HW112791   4.499   5.428   5.152
 3964SOL    HW212792   4.431   5.531   5.045
 3965SOL     OW12793   3.573   4.838   6.023
 3965SOL    HW112794   3.650   4.795   5.976
 3965SOL    HW212795   3.516   4.886   5.956
 3966SOL     OW12796   6.511   4.571   6.579
 3966SOL    HW112797   6.414   4.597   6.573
 3966SOL    HW212798   6.566   4.654   6.592
 3967SOL     OW12799   0.850   5.137   3.344
 3967SOL    HW112800   0.841   5.045   3.383
 3967SOL    HW212801   0.907   5.193   3.405
 3968SOL     OW12802   5.434   0.251   2.398
 3968SOL    HW112803   5.395   0.314   2.331
 3968SOL    HW212804   5.361   0.211   2.453
 3969SOL     OW12805   1.059   4.522   2.567
 3969SOL    HW112806   1.086   4.617   2.553
 3969SOL    HW212807   0.994   4.517   2.643
 3970SOL     OW12808   4.740   5.205   3.569
 3970SOL    HW112809   4.835   5.233   3.553
 3970SOL    HW212810   4.680   5.285   3.561
 3971SOL     OW12811   2.951   5.184   2.713
 3971SOL    HW112812   3.008   5.242   2.770
 3971SOL    HW212813   3.008   5.128   2.654
 3972SOL     OW12814   0.174   5.711   0.550
 3972SOL    HW112815   0.219   5.647   0.486
 3972SOL    HW212816   0.212   5.802   0.537
 3973SOL     OW12817   3.233   3.418   5.002
 3973SOL    HW112818   3.290   3.499   4.998
 3973SOL    HW212819   3.264   3.358   5.076
 3974SOL     OW12820   0.496   0.567   6.308
 3974SOL    HW112821   0.526   0.661   6.290
 3974SOL    HW212822   0.513   0.545   6.404
 3975SOL     OW12823   6.805   0.516   5.778
 3975SOL    HW112824   6.814   0.455   5.857
 3975SOL    HW212825   6.849   0.603   5.799
 3976SOL     OW12826   0.844   5.094   1.200
 3976SOL    HW112827   0.853   5.045   1.114
 3976SOL    HW212828   0.799   5.036   1.268
 3977SOL     OW12829   3.076   5.109   5.970
 3977SOL    HW112830   3.123   5.040   6.025
 3977SOL    HW212831   2.987   5.130   6.012
 3978SOL     OW12832   5.501   1.077   4.639
 3978SOL    HW112833   5.522   1.001   4.701
 3978SOL    HW212834   5.573   1.147   4.648
 3979SOL     OW12835   1.740   6.629   1.870
 3979SOL    HW112836   1.667   6.653   1.805
 3979SOL    HW212837   1.711   6.651   1.963
 3980SOL     OW12838   6.346   3.743   5.300
 3980SOL    HW112839   6.385   3.666   5.250
 3980SOL    HW212840   6.357   3.729   5.399
 3981SOL     OW12841   0.378   1.432   6.116
 3981SOL    HW112842   0.321   1.478   6.048
 3981SOL    HW212843   0.473   1.459   6.103
 3982SOL     OW12844   2.492   0.724   4.540
 3982SOL    HW112845   2.467   0.631   4.568
 3982SOL    HW212846   2.463   0.788   4.611
 3983SOL     OW12847   3.025   6.107   4.669
 3983SOL    HW112848   3.042   6.167   4.747
 3983SOL    HW212849   3.096   6.122   4.599
 3984SOL     OW12850   1.831   0.055   1.776
 3984SOL    HW112851   1.886   6.993   1.767
 3984SOL    HW212852   1.871   0.114   1.847
 3985SOL     OW12853   2.248   3.719   6.869
 3985SOL    HW112854   2.329   3.688   6.919
 3985SOL    HW212855   2.241   3.819   6.877
 3986SOL     OW12856   0.193   1.647   2.781
 3986SOL    HW112857   0.098   1.625   2.758
 3986SOL    HW212858   0.212   1.741   2.754
 3987SOL     OW12859   1.549   5.101   4.939
 3987SOL    HW112860   1.560   5.093   5.038
 3987SOL    HW212861   1.624   5.054   4.893
 3988SOL     OW12862   3.742   1.757   5.878
 3988SOL    HW112863   3.692   1.822   5.820
 3988SOL    HW212864   3.725   1.780   5.974
 3989SOL     OW12865   5.994   0.527   5.841
 3989SOL    HW112866   6.059   0.546   5.767
 3989SOL    HW212867   6.029   0.452   5.897
 3990SOL     OW12868   5.430   2.272   4.431
 3990SOL    HW112869   5.493   2.305   4.502
 3990SOL    HW212870   5.452   2.317   4.344
 3991SOL     OW12871   6.555   2.490   3.106
 3991SOL    HW112872   6.581   2.576   3.150
 3991SOL    HW212873   6.614   2.475   3.027
 3992SOL     OW12874   4.612   2.974   6.625
 3992SOL    HW112875   4.532   3.027   6.654
 3992SOL    HW212876   4.583   2.904   6.559
 3993SOL     OW12877   2.462   2.064   3.335
 3993SOL    HW112878   2.493   2.124   3.261
 3993SOL    HW212879   2.488   1.970   3.315
 3994SOL     OW12880   2.235   2.836   4.841
 3994SOL    HW112881   2.210   2.895   4.765
 3994SOL    HW212882   2.294   2.886   4.904
 3995SOL     OW12883   2.690   4.650   3.764
 3995SOL    HW112884   2.620   4.704   3.810
 3995SOL    HW212885   2.679   4.554   3.788
 3996SOL     OW12886   2.036   1.275   4.969
 3996SOL    HW112887   1.996   1.362   5.000
 3996SOL    HW212888   1.991   1.199   5.017
 3997SOL     OW12889   4.877   3.767   3.325
 3997SOL    HW112890   4.889   3.810   3.235
 3997SOL    HW212891   4.815   3.823   3.380
 3998SOL     OW12892   5.534   2.103   2.158
 3998SOL    HW112893   5.598   2.058   2.097
 3998SOL    HW212894   5.484   2.174   2.108
 3999SOL     OW12895   5.918   4.111   3.725
 3999SOL    HW112896   5.963   4.089   3.639
 3999SOL    HW212897   5.856   4.036   3.750
 4000SOL     OW12898   3.159   5.316   2.854
 4000SOL    HW112899   3.195   5.399   2.897
 4000SOL    HW212900   3.234   5.255   2.830
 4001SOL     OW12901   2.187   3.450   5.125
 4001SOL    HW112902   2.266   3.431   5.183
 4001SOL    HW212903   2.190   3.546   5.095
 4002SOL     OW12904   3.746   3.478   4.785
 4002SOL    HW112905   3.803   3.492   4.704
 4002SOL    HW212906   3.802   3.441   4.859
 4003SOL     OW12907   2.246   1.244   6.277
 4003SOL    HW112908   2.248   1.243   6.177
 4003SOL    HW212909   2.331   1.205   6.313
 4004SOL     OW12910   6.519   3.003   4.711
 4004SOL    HW112911   6.500   2.906   4.721
 4004SOL    HW212912   6.599   3.015   4.651
 4005SOL     OW12913   4.884   4.556   1.464
 4005SOL    HW112914   4.880   4.462   1.430
 4005SOL    HW212915   4.933   4.614   1.399
 4006SOL     OW12916   5.717   4.664   2.402
 4006SOL    HW112917   5.736   4.585   2.460
 4006SOL    HW212918   5.639   4.715   2.440
 4007SOL     OW12919   0.174   2.357   2.983
 4007SOL    HW112920   0.174   2.258   2.974
 4007SOL    HW212921   0.158   2.399   2.893
 4008SOL     OW12922   3.478   0.993   6.046
 4008SOL    HW112923   3.511   1.056   5.976
 4008SOL    HW212924   3.421   0.923   6.002
 4009SOL     OW12925   4.355   1.982   1.187
 4009SOL    HW112926   4.264   1.971   1.147
 4009SOL    HW212927   4.412   2.039   1.128
 4010SOL     OW12928   2.855   3.478   1.478
 4010SOL    HW112929   2.767   3.502   1.518
 4010SOL    HW212930   2.853   3.383   1.447
 4011SOL     OW12931   0.148   6.639   1.828
 4011SOL    HW112932   0.148   6.699   1.909
 4011SOL    HW212933   0.132   6.694   1.746
 4012SOL     OW12934   4.325   6.414   2.213
 4012SOL    HW112935   4.381   6.451   2.288
 4012SOL    HW212936   4.293   6.322   2.238
 4013SOL     OW12937   2.043   0.579   1.363
 4013SOL    HW112938   2.014   0.509   1.297
 4013SOL    HW212939   2.132   0.555   1.401
 4014SOL     OW12940   3.509   5.921   3.808
 4014SOL    HW112941   3.456   5.988   3.860
 4014SOL    HW212942   3.492   5.830   3.844
 4015SOL     OW12943   4.360   4.725   6.891
 4015SOL    HW112944   4.274   4.745   6.845
 4015SOL    HW212945   4.364   4.774   6.978
 4016SOL     OW12946   2.309   5.680   6.846
 4016SOL    HW112947   2.267   5.688   6.755
 4016SOL    HW212948   2.381   5.749   6.855
 4017SOL     OW12949   0.820   6.115   6.143
 4017SOL    HW112950   0.909   6.075   6.123
 4017SOL    HW212951   0.828   6.176   6.222
 4018SOL     OW12952   4.918   6.349   1.339
 4018SOL    HW112953   4.945   6.254   1.346
 4018SOL    HW212954   4.971   6.404   1.404
 4019SOL     OW12955   5.970   4.307   2.933
 4019SOL    HW112956   5.915   4.254   2.869
 4019SOL    HW212957   5.912   4.345   3.004
 4020SOL     OW12958   6.697   3.291   5.847
 4020SOL    HW112959   6.789   3.254   5.837
 4020SOL    HW212960   6.675   3.348   5.768
 4021SOL     OW12961   3.590   4.201   5.239
 4021SOL    HW112962   3.622   4.279   5.185
 4021SOL    HW212963   3.644   4.196   5.324
 4022SOL     OW12964   4.139   0.093   6.923
 4022SOL    HW112965   4.165   0.022   6.988
 4022SOL    HW212966   4.197   0.086   6.841
 4023SOL     OW12967   0.387   0.339   5.168
 4023SOL    HW112968   0.483   0.321   5.147
 4023SOL    HW212969   0.331   0.264   5.133
 4024SOL     OW12970   2.438   5.357   4.753
 4024SOL    HW112971   2.411   5.311   4.668
 4024SOL    HW212972   2.418   5.298   4.831
 4025SOL     OW12973   0.963   5.998   3.808
 4025SOL    HW112974   0.874   6.043   3.810
 4025SOL    HW212975   0.992   5.977   3.901
 4026SOL     OW12976   6.158   6.670   3.545
 4026SOL    HW112977   6.201   6.638   3.460
 4026SOL    HW212978   6.204   6.628   3.623
 4027SOL     OW12979   3.032   1.942   0.142
 4027SOL    HW112980   3.080   2.005   0.082
 4027SOL    HW212981   3.005   1.861   0.090
 4028SOL     OW12982   3.994   1.716   3.580
 4028SOL    HW112983   3.960   1.646   3.644
 4028SOL    HW212984   4.090   1.736   3.600
 4029SOL     OW12985   2.808   4.539   5.845
 4029SOL    HW112986   2.726   4.496   5.808
 4029SOL    HW212987   2.826   4.624   5.796
 4030SOL     OW12988   0.383   1.528   1.666
 4030SOL    HW112989   0.391   1.558   1.761
 4030SOL    HW212990   0.437   1.587   1.607
 4031SOL     OW12991   5.052   5.903   3.794
 4031SOL    HW112992   5.005   5.986   3.765
 4031SOL    HW212993   5.002   5.860   3.869
 4032SOL     OW12994   6.769   0.292   1.742
 4032SOL    HW112995   6.837   0.281   1.814
 4032SOL    HW212996   6.687   0.238   1.764
 4033SOL     OW12997   2.497   2.904   1.386
 4033SOL    HW112998   2.423   2.966   1.413
 4033SOL    HW212999   2.544   2.871   1.468
 4034SOL     OW13000   6.300   1.671   4.810
 4034SOL    HW113001   6.342   1.757   4.838
 4034SOL    HW213002   6.355   1.595   4.843
 4035SOL     OW13003   6.650   1.949   1.092
 4035SOL    HW113004   6.659   2.004   1.009
 4035SOL    HW213005   6.566   1.896   1.087
 4036SOL     OW13006   4.483   5.620   2.207
 4036SOL    HW113007   4.387   5.642   2.190
 4036SOL    HW213008   4.490   5.530   2.248
 4037SOL     OW13009   2.262   1.509   0.147
 4037SOL    HW113010   2.269   1.609   0.148
 4037SOL    HW213011   2.180   1.481   0.195
 4038SOL     OW13012   4.532   3.075   1.420
 4038SOL    HW113013   4.591   3.119   1.489
 4038SOL    HW213014   4.443   3.120   1.421
 4039SOL     OW13015   6.145   5.478   1.179
 4039SOL    HW113016   6.138   5.509   1.273
 4039SOL    HW213017   6.211   5.403   1.173
 4040SOL     OW13018   3.687   0.162   6.078
 4040SOL    HW113019   3.709   0.175   6.175
 4040SOL    HW213020   3.720   0.240   6.026
 4041SOL     OW13021   0.993   5.260   1.469
 4041SOL    HW113022   1.047   5.199   1.411
 4041SOL    HW213023   0.895   5.243   1.455
 4042SOL     OW13024   6.023   5.582   3.008
 4042SOL    HW113025   6.026   5.636   3.092
 4042SOL    HW213026   6.085   5.504   3.017
 4043SOL     OW13027   6.772   2.241   5.213
 4043SOL    HW113028   6.806   2.315   5.272
 4043SOL    HW213029   6.840   2.220   5.143
 4044SOL     OW13030   4.511   6.976   3.274
 4044SOL    HW113031   4.470   6.897   3.318
 4044SOL    HW213032   4.478   6.982   3.179
 4045SOL     OW13033   3.683   6.111   5.176
 4045SOL    HW113034   3.720   6.130   5.267
 4045SOL    HW213035   3.653   6.196   5.134
 4046SOL     OW13036   1.426   1.846   4.125
 4046SOL    HW113037   1.435   1.761   4.073
 4046SOL    HW213038   1.473   1.837   4.213
 4047SOL     OW13039   1.612   2.220   0.437
 4047SOL    HW113040   1.561   2.152   0.490
 4047SOL    HW213041   1.707   2.223   0.469
 4048SOL     OW13042   4.951   1.682   1.983
 4048SOL    HW113043   4.896   1.705   2.064
 4048SOL    HW213044   4.908   1.723   1.903
 4049SOL     OW13045   5.594   5.167   6.226
 4049SOL    HW113046   5.529   5.240   6.205
 4049SOL    HW213047   5.556   5.079   6.198
 4050SOL     OW13048   1.226   6.968   1.897
 4050SOL    HW113049   1.159   6.954   1.969
 4050SOL    HW213050   1.180   6.965   1.808
 4051SOL     OW13051   4.279   1.968   6.950
 4051SOL    HW113052   4.299   1.914   6.869
 4051SOL    HW213053   4.236   1.910   7.019
 4052SOL     OW13054   6.691   1.439   2.642
 4052SOL    HW113055   6.708   1.341   2.633
 4052SOL    HW213056   6.685   1.481   2.552
 4053SOL     OW13057   3.027   5.627   3.924
 4053SOL    HW113058   2.961   5.687   3.969
 4053SOL    HW213059   3.078   5.576   3.994
 4054SOL     OW13060   6.487   4.272   1.736
 4054SOL    HW113061   6.533   4.193   1.777
 4054SOL    HW213062   6.536   4.355   1.762
 4055SOL     OW13063   2.740   3.297   0.303
 4055SOL    HW113064   2.758   3.300   0.205
 4055SOL    HW213065   2.693   3.212   0.326
 4056SOL     OW13066   4.102   3.913   0.246
 4056SOL    HW113067   4.078   3.979   0.174
 4056SOL    HW213068   4.072   3.949   0.335
 4057SOL     OW13069   6.420   3.084   1.086
 4057SOL    HW113070   6.367   3.123   1.010
 4057SOL    HW213071   6.455   3.158   1.143
 4058SOL     OW13072   1.743   0.270   4.644
 4058SOL    HW113073   1.762   0.363   4.674
 4058SOL    HW213074   1.680   0.226   4.708
 4059SOL     OW13075   1.100   1.882   2.900
 4059SOL    HW113076   1.159   1.934   2.838
 4059SOL    HW213077   1.097   1.786   2.871
 4060SOL     OW13078   5.371   5.676   5.165
 4060SOL    HW113079   5.283   5.710   5.197
 4060SOL    HW213080   5.361   5.580   5.137
 4061SOL     OW13081   2.874   4.754   2.454
 4061SOL    HW113082   2.957   4.795   2.416
 4061SOL    HW213083   2.796   4.777   2.396
 4062SOL     OW13084   2.126   1.940   2.198
 4062SOL    HW113085   2.045   1.883   2.212
 4062SOL    HW213086   2.121   1.984   2.108
 4063SOL     OW13087   5.980   6.489   6.820
 4063SOL    HW113088   5.972   6.500   6.721
 4063SOL    HW213089   5.979   6.392   6.843
 4064SOL     OW13090   2.894   0.333   4.023
 4064SOL    HW113091   2.805   0.311   4.063
 4064SOL    HW213092   2.941   0.398   4.082
 4065SOL     OW13093   0.791   6.933   1.201
 4065SOL    HW113094   0.713   6.981   1.161
 4065SOL    HW213095   0.841   6.996   1.262
 4066SOL     OW13096   5.379   5.087   4.046
 4066SOL    HW113097   5.432   5.022   3.992
 4066SOL    HW213098   5.426   5.104   4.133
 4067SOL     OW13099   6.411   3.205   2.956
 4067SOL    HW113100   6.338   3.213   2.889
 4067SOL    HW213101   6.400   3.275   3.026
 4068SOL     OW13102   2.181   1.446   4.504
 4068SOL    HW113103   2.214   1.507   4.432
 4068SOL    HW213104   2.258   1.414   4.558
 4069SOL     OW13105   2.179   4.954   6.368
 4069SOL    HW113106   2.147   4.994   6.283
 4069SOL    HW213107   2.102   4.912   6.417
 4070SOL     OW13108   0.168   3.590   2.350
 4070SOL    HW113109   0.143   3.669   2.294
 4070SOL    HW213110   0.096   3.522   2.347
 4071SOL     OW13111   1.596   0.687   5.371
 4071SOL    HW113112   1.576   0.761   5.306
 4071SOL    HW213113   1.691   0.694   5.401
 4072SOL     OW13114   0.201   5.357   4.656
 4072SOL    HW113115   0.207   5.287   4.726
 4072SOL    HW213116   0.275   5.423   4.668
 4073SOL     OW13117   2.202   6.374   6.380
 4073SOL    HW113118   2.290   6.362   6.426
 4073SOL    HW213119   2.217   6.399   6.285
 4074SOL     OW13120   6.770   3.771   1.902
 4074SOL    HW113121   6.834   3.797   1.974
 4074SOL    HW213122   6.764   3.671   1.897
 4075SOL     OW13123   4.234   1.996   1.879
 4075SOL    HW113124   4.187   1.937   1.945
 4075SOL    HW213125   4.190   2.086   1.879
 4076SOL     OW13126   2.550   2.631   5.404
 4076SOL    HW113127   2.555   2.533   5.383
 4076SOL    HW213128   2.461   2.667   5.375
 4077SOL     OW13129   3.053   0.742   0.178
 4077SOL    HW113130   3.096   0.653   0.167
 4077SOL    HW213131   3.104   0.810   0.124
 4078SOL     OW13132   0.532   5.719   1.692
 4078SOL    HW113133   0.606   5.721   1.625
 4078SOL    HW213134   0.541   5.797   1.754
 4079SOL     OW13135   1.156   1.738   4.043
 4079SOL    HW113136   1.163   1.641   4.018
 4079SOL    HW213137   1.238   1.767   4.091
 4080SOL     OW13138   3.530   4.578   6.584
 4080SOL    HW113139   3.606   4.559   6.645
 4080SOL    HW213140   3.507   4.495   6.532
 4081SOL     OW13141   1.928   2.790   4.829
 4081SOL    HW113142   1.875   2.791   4.743
 4081SOL    HW213143   2.010   2.846   4.818
 4082SOL     OW13144   1.571   3.089   0.643
 4082SOL    HW113145   1.526   3.143   0.572
 4082SOL    HW213146   1.623   3.015   0.600
 4083SOL     OW13147   0.053   4.647   2.072
 4083SOL    HW113148   0.059   4.746   2.085
 4083SOL    HW213149   0.069   4.601   2.159
 4084SOL     OW13150   4.777   2.512   3.557
 4084SOL    HW113151   4.801   2.419   3.585
 4084SOL    HW213152   4.679   2.517   3.539
 4085SOL     OW13153   2.070   6.036   0.858
 4085SOL    HW113154   1.979   6.075   0.845
 4085SOL    HW213155   2.062   5.943   0.893
 4086SOL     OW13156   1.391   5.494   1.743
 4086SOL    HW113157   1.312   5.540   1.783
 4086SOL    HW213158   1.422   5.422   1.805
 4087SOL     OW13159   1.849   1.295   3.303
 4087SOL    HW113160   1.832   1.375   3.246
 4087SOL    HW213161   1.887   1.324   3.391
 4088SOL     OW13162   6.672   0.925   6.776
 4088SOL    HW113163   6.697   0.829   6.792
 4088SOL    HW213164   6.743   0.969   6.721
 4089SOL     OW13165   6.009   5.404   4.159
 4089SOL    HW113166   5.917   5.380   4.127
 4089SOL    HW213167   6.065   5.432   4.082
 4090SOL     OW13168   1.400   5.427   5.517
 4090SOL    HW113169   1.415   5.438   5.419
 4090SOL    HW213170   1.379   5.516   5.557
 4091SOL     OW13171   6.689   6.518   6.587
 4091SOL    HW113172   6.763   6.581   6.562
 4091SOL    HW213173   6.630   6.504   6.508
 4092SOL     OW13174   5.924   2.547   5.280
 4092SOL    HW113175   5.898   2.643   5.294
 4092SOL    HW213176   5.950   2.534   5.184
 4093SOL     OW13177   4.754   5.902   2.233
 4093SOL    HW113178   4.725   5.970   2.166
 4093SOL    HW213179   4.847   5.872   2.212
 4094SOL     OW13180   2.096   5.791   5.512
 4094SOL    HW113181   2.164   5.726   5.478
 4094SOL    HW213182   2.015   5.742   5.543
 4095SOL     OW13183   1.020   3.404   0.620
 4095SOL    HW113184   1.041   3.335   0.550
 4095SOL    HW213185   0.923   3.426   0.618
 4096SOL     OW13186   4.617   6.837   6.181
 4096SOL    HW113187   4.574   6.866   6.096
 4096SOL    HW213188   4.672   6.755   6.164
 4097SOL     OW13189   4.093   4.883   4.928
 4097SOL    HW113190   4.140   4.795   4.935
 4097SOL    HW213191   4.087   4.910   4.832
 4098SOL     OW13192   6.592   2.346   1.715
 4098SOL    HW113193   6.597   2.248   1.732
 4098SOL    HW213194   6.504   2.381   1.747
 4099SOL     OW13195   3.107   5.291   1.136
 4099SOL    HW113196   3.061   5.296   1.224
 4099SOL    HW213197   3.101   5.198   1.100
 4100SOL     OW13198   6.819   0.133   4.740
 4100SOL    HW113199   6.724   0.147   4.768
 4100SOL    HW213200   6.872   0.100   4.818
 4101SOL     OW13201   6.396   1.258   6.800
 4101SOL    HW113202   6.457   1.217   6.868
 4101SOL    HW213203   6.319   1.196   6.782
 4102SOL     OW13204   0.454   0.788   0.497
 4102SOL    HW113205   0.433   0.763   0.591
 4102SOL    HW213206   0.508   0.715   0.454
 4103SOL     OW13207   6.962   6.976   0.193
 4103SOL    HW113208   6.954   7.007   0.288
 4103SOL    HW213209   6.891   7.020   0.138
 4104SOL     OW13210   0.076   4.716   3.017
 4104SOL    HW113211   0.057   4.618   3.007
 4104SOL    HW213212   0.001   4.768   2.978
 4105SOL     OW13213   5.324   6.908   1.566
 4105SOL    HW113214   5.389   6.837   1.594
 4105SOL    HW213215   5.350   6.944   1.477
 4106SOL     OW13216   6.183   3.201   2.781
 4106SOL    HW113217   6.144   3.292   2.765
 4106SOL    HW213218   6.110   3.133   2.782
 4107SOL     OW13219   0.943   4.915   1.005
 4107SOL    HW113220   0.922   4.818   1.014
 4107SOL    HW213221   1.036   4.925   0.969
 4108SOL     OW13222   5.834   4.905   5.449
 4108SOL    HW113223   5.763   4.888   5.381
 4108SOL    HW213224   5.825   4.840   5.524
 4109SOL     OW13225   5.894   0.214   4.971
 4109SOL    HW113226   5.895   0.245   4.876
 4109SOL    HW213227   5.799   0.211   5.004
 4110SOL     OW13228   4.520   3.593   6.115
 4110SOL    HW113229   4.588   3.538   6.066
 4110SOL    HW213230   4.429   3.556   6.098
 4111SOL     OW13231   5.110   3.537   0.337
 4111SOL    HW113232   5.146   3.628   0.360
 4111SOL    HW213233   5.159   3.467   0.389
 4112SOL     OW13234   4.956   6.242   4.739
 4112SOL    HW113235   4.898   6.199   4.807
 4112SOL    HW213236   4.933   6.208   4.648
 4113SOL     OW13237   5.161   6.291   4.927
 4113SOL    HW113238   5.220   6.371   4.932
 4113SOL    HW213239   5.081   6.311   4.871
 4114SOL     OW13240   3.527   2.020   4.383
 4114SOL    HW113241   3.429   2.004   4.397
 4114SOL    HW213242   3.540   2.070   4.297
 4115SOL     OW13243   3.402   5.246   1.947
 4115SOL    HW113244   3.342   5.172   1.916
 4115SOL    HW213245   3.366   5.284   2.032
 4116SOL     OW13246   3.006   0.951   2.471
 4116SOL    HW113247   2.954   1.016   2.415
 4116SOL    HW213248   2.962   0.942   2.560
 4117SOL     OW13249   1.506   4.109   2.468
 4117SOL    HW113250   1.465   4.081   2.554
 4117SOL    HW213251   1.441   4.093   2.393
 4118SOL     OW13252   3.629   6.538   7.002
 4118SOL    HW113253   3.568   6.473   6.959
 4118SOL    HW213254   3.627   6.525   0.081
 4119SOL     OW13255   2.734   1.830   3.745
 4119SOL    HW113256   2.784   1.843   3.830
 4119SOL    HW213257   2.636   1.819   3.766
 4120SOL     OW13258   3.564   1.292   6.529
 4120SOL    HW113259   3.489   1.305   6.464
 4120SOL    HW213260   3.529   1.302   6.622
 4121SOL     OW13261   5.730   1.365   4.369
 4121SOL    HW113262   5.750   1.281   4.419
 4121SOL    HW213263   5.714   1.345   4.273
 4122SOL     OW13264   1.172   5.369   4.574
 4122SOL    HW113265   1.109   5.328   4.640
 4122SOL    HW213266   1.220   5.446   4.616
 4123SOL     OW13267   4.337   4.471   5.589
 4123SOL    HW113268   4.241   4.480   5.616
 4123SOL    HW213269   4.394   4.522   5.654
 4124SOL     OW13270   0.234   5.968   0.482
 4124SOL    HW113271   0.299   6.039   0.456
 4124SOL    HW213272   0.201   5.987   0.575
 4125SOL     OW13273   5.253   1.659   2.147
 4125SOL    HW113274   5.181   1.625   2.087
 4125SOL    HW213275   5.216   1.731   2.206
 4126SOL     OW13276   1.571   3.473   4.373
 4126SOL    HW113277   1.486   3.517   4.402
 4126SOL    HW213278   1.556   3.424   4.287
 4127SOL     OW13279   4.825   4.772   5.106
 4127SOL    HW113280   4.863   4.684   5.138
 4127SOL    HW213281   4.889   4.845   5.128
 4128SOL     OW13282   1.226   2.945   1.315
 4128SOL    HW113283   1.188   2.963   1.405
 4128SOL    HW213284   1.251   3.031   1.271
 4129SOL     OW13285   3.917   1.661   5.681
 4129SOL    HW113286   3.848   1.681   5.751
 4129SOL    HW213287   3.999   1.714   5.700
 4130SOL     OW13288   6.390   3.400   6.894
 4130SOL    HW113289   6.395   3.359   6.985
 4130SOL    HW213290   6.339   3.340   6.832
 4131SOL     OW13291   0.540   0.838   3.655
 4131SOL    HW113292   0.621   0.784   3.678
 4131SOL    HW213293   0.525   0.907   3.726
 4132SOL     OW13294   5.071   4.501   3.544
 4132SOL    HW113295   5.091   4.462   3.634
 4132SOL    HW213296   4.972   4.508   3.532
 4133SOL     OW13297   2.705   5.618   0.795
 4133SOL    HW113298   2.711   5.579   0.887
 4133SOL    HW213299   2.730   5.714   0.798
 4134SOL     OW13300   2.331   3.610   0.861
 4134SOL    HW113301   2.282   3.559   0.789
 4134SOL    HW213302   2.374   3.545   0.924
 4135SOL     OW13303   1.268   1.755   2.606
 4135SOL    HW113304   1.338   1.816   2.643
 4135SOL    HW213305   1.309   1.667   2.584
 4136SOL     OW13306   1.394   2.351   3.459
 4136SOL    HW113307   1.393   2.298   3.374
 4136SOL    HW213308   1.453   2.431   3.446
 4137SOL     OW13309   1.155   4.259   0.942
 4137SOL    HW113310   1.059   4.247   0.967
 4137SOL    HW213311   1.213   4.234   1.019
 4138SOL     OW13312   5.127   5.460   2.888
 4138SOL    HW113313   5.093   5.375   2.848
 4138SOL    HW213314   5.070   5.537   2.858
 4139SOL     OW13315   1.987   1.718   6.176
 4139SOL    HW113316   1.924   1.769   6.235
 4139SOL    HW213317   2.053   1.781   6.135
 4140SOL     OW13318   3.380   0.423   5.378
 4140SOL    HW113319   3.318   0.406   5.302
 4140SOL    HW213320   3.371   0.518   5.407
 4141SOL     OW13321   6.103   6.315   0.923
 4141SOL    HW113322   6.128   6.219   0.915
 4141SOL    HW213323   6.185   6.370   0.938
 4142SOL     OW13324   6.551   4.927   1.386
 4142SOL    HW113325   6.627   4.988   1.407
 4142SOL    HW213326   6.579   4.832   1.404
 4143SOL     OW13327   5.608   1.212   0.431
 4143SOL    HW113328   5.558   1.262   0.502
 4143SOL    HW213329   5.680   1.271   0.393
 4144SOL     OW13330   4.635   3.350   0.233
 4144SOL    HW113331   4.633   3.326   0.136
 4144SOL    HW213332   4.729   3.365   0.262
 4145SOL     OW13333   6.748   6.084   1.462
 4145SOL    HW113334   6.836   6.051   1.426
 4145SOL    HW213335   6.761   6.172   1.506
 4146SOL     OW13336   6.289   0.724   3.576
 4146SOL    HW113337   6.359   0.791   3.599
 4146SOL    HW213338   6.308   0.686   3.486
 4147SOL     OW13339   5.222   3.937   6.716
 4147SOL    HW113340   5.292   3.875   6.680
 4147SOL    HW213341   5.162   3.966   6.642
 4148SOL     OW13342   1.246   0.596   5.588
 4148SOL    HW113343   1.330   0.619   5.540
 4148SOL    HW213344   1.235   0.496   5.589
 4149SOL     OW13345   6.888   3.472   0.277
 4149SOL    HW113346   6.964   3.464   0.341
 4149SOL    HW213347   6.924   3.480   0.184
 4150SOL     OW13348   1.379   0.971   5.837
 4150SOL    HW113349   1.343   0.998   5.747
 4150SOL    HW213350   1.369   0.873   5.849
 4151SOL     OW13351   2.459   5.739   6.165
 4151SOL    HW113352   2.521   5.748   6.242
 4151SOL    HW213353   2.461   5.824   6.111
 4152SOL     OW13354   4.834   5.976   0.758
 4152SOL    HW113355   4.815   6.051   0.821
 4152SOL    HW213356   4.920   5.931   0.783
 4153SOL     OW13357   4.532   5.547   6.813
 4153SOL    HW113358   4.487   5.541   6.902
 4153SOL    HW213359   4.604   5.617   6.817
 4154SOL     OW13360   6.905   5.297   3.572
 4154SOL    HW113361   6.983   5.300   3.635
 4154SOL    HW213362   6.924   5.355   3.493
 4155SOL     OW13363   1.390   0.925   2.780
 4155SOL    HW113364   1.295   0.957   2.784
 4155SOL    HW213365   1.451   1.004   2.792
 4156SOL     OW13366   5.185   6.053   5.031
 4156SOL    HW113367   5.208   6.141   4.990
 4156SOL    HW213368   5.136   6.068   5.117
 4157SOL     OW13369   4.649   5.260   4.088
 4157SOL    HW113370   4.671   5.221   3.999
 4157SOL    HW213371   4.734   5.283   4.136
 4158SOL     OW13372   0.716   3.999   1.994
 4158SOL    HW113373   0.639   4.029   1.938
 4158SOL    HW213374   0.785   4.071   1.996
 4159SOL     OW13375   1.879   3.523   3.644
 4159SOL    HW113376   1.924   3.459   3.706
 4159SOL    HW213377   1.790   3.487   3.618
 4160SOL     OW13378   5.968   1.134   1.106
 4160SOL    HW113379   5.920   1.087   1.180
 4160SOL    HW213380   5.984   1.229   1.131
 4161SOL     OW13381   0.928   1.473   0.648
 4161SOL    HW113382   1.013   1.479   0.701
 4161SOL    HW213383   0.866   1.409   0.693
 4162SOL     OW13384   0.136   6.379   6.454
 4162SOL    HW113385   0.080   6.391   6.372
 4162SOL    HW213386   0.217   6.325   6.431
 4163SOL     OW13387   5.194   6.620   3.281
 4163SOL    HW113388   5.132   6.699   3.277
 4163SOL    HW213389   5.148   6.540   3.242
 4164SOL     OW13390   1.623   6.610   5.892
 4164SOL    HW113391   1.632   6.709   5.880
 4164SOL    HW213392   1.639   6.587   5.988
 4165SOL     OW13393   4.267   6.739   6.805
 4165SOL    HW113394   4.237   6.780   6.891
 4165SOL    HW213395   4.220   6.784   6.728
 4166SOL     OW13396   6.247   3.163   0.898
 4166SOL    HW113397   6.258   3.080   0.842
 4166SOL    HW213398   6.160   3.159   0.947
 4167SOL     OW13399   1.551   3.854   1.032
 4167SOL    HW113400   1.595   3.806   0.956
 4167SOL    HW213401   1.501   3.788   1.089
 4168SOL     OW13402   6.585   4.669   1.432
 4168SOL    HW113403   6.540   4.613   1.501
 4168SOL    HW213404   6.683   4.672   1.450
 4169SOL     OW13405   5.914   4.307   4.457
 4169SOL    HW113406   5.970   4.237   4.501
 4169SOL    HW213407   5.950   4.326   4.366
 4170SOL     OW13408   4.986   4.262   5.734
 4170SOL    HW113409   4.956   4.171   5.760
 4170SOL    HW213410   4.938   4.330   5.790
 4171SOL     OW13411   6.621   5.285   0.213
 4171SOL    HW113412   6.717   5.307   0.193
 4171SOL    HW213413   6.562   5.354   0.173
 4172SOL     OW13414   0.660   1.795   6.060
 4172SOL    HW113415   0.710   1.832   6.139
 4172SOL    HW213416   0.564   1.822   6.065
 4173SOL     OW13417   5.327   3.744   5.552
 4173SOL    HW113418   5.319   3.688   5.634
 4173SOL    HW213419   5.423   3.765   5.535
 4174SOL     OW13420   5.265   0.564   3.298
 4174SOL    HW113421   5.287   0.524   3.387
 4174SOL    HW213422   5.218   0.496   3.241
 4175SOL     OW13423   2.556   5.956   4.391
 4175SOL    HW113424   2.638   5.955   4.448
 4175SOL    HW213425   2.582   5.961   4.295
 4176SOL     OW13426   2.896   6.260   1.911
 4176SOL    HW113427   2.962   6.259   1.836
 4176SOL    HW213428   2.846   6.346   1.911
 4177SOL     OW13429   5.947   4.336   5.101
 4177SOL    HW113430   5.897   4.293   5.026
 4177SOL    HW213431   5.953   4.435   5.085
 4178SOL     OW13432   4.842   0.665   4.317
 4178SOL    HW113433   4.746   0.637   4.310
 4178SOL    HW213434   4.871   0.705   4.231
 4179SOL     OW13435   5.102   2.653   3.670
 4179SOL    HW113436   5.085   2.587   3.597
 4179SOL    HW213437   5.081   2.611   3.759
 4180SOL     OW13438   5.151   4.302   1.156
 4180SOL    HW113439   5.083   4.231   1.177
 4180SOL    HW213440   5.104   4.389   1.140
 4181SOL     OW13441   2.679   1.640   1.100
 4181SOL    HW113442   2.706   1.705   1.029
 4181SOL    HW213443   2.733   1.657   1.183
 4182SOL     OW13444   0.720   6.611   3.575
 4182SOL    HW113445   0.751   6.600   3.481
 4182SOL    HW213446   0.662   6.692   3.582
 4183SOL     OW13447   4.115   1.224   6.880
 4183SOL    HW113448   4.145   1.319   6.872
 4183SOL    HW213449   4.103   1.201   6.977
 4184SOL     OW13450   4.978   5.136   1.281
 4184SOL    HW113451   5.019   5.079   1.353
 4184SOL    HW213452   4.929   5.212   1.324
 4185SOL     OW13453   0.690   5.544   2.115
 4185SOL    HW113454   0.613   5.481   2.099
 4185SOL    HW213455   0.655   5.638   2.123
 4186SOL     OW13456   2.306   5.101   0.306
 4186SOL    HW113457   2.391   5.080   0.353
 4186SOL    HW213458   2.327   5.136   0.214
 4187SOL     OW13459   3.414   3.507   5.752
 4187SOL    HW113460   3.347   3.434   5.734
 4187SOL    HW213461   3.482   3.475   5.818
 4188SOL     OW13462   4.418   0.051   4.551
 4188SOL    HW113463   4.358   0.039   4.472
 4188SOL    HW213464   4.464   0.140   4.544
 4189SOL     OW13465   3.849   7.019   5.503
 4189SOL    HW113466   3.847   6.920   5.489
 4189SOL    HW213467   3.791   0.023   5.581
 4190SOL     OW13468   0.685   0.662   0.079
 4190SOL    HW113469   0.782   0.683   0.085
 4190SOL    HW213470   0.664   0.583   0.137
 4191SOL     OW13471   5.241   3.810   3.060
 4191SOL    HW113472   5.187   3.893   3.079
 4191SOL    HW213473   5.184   3.729   3.073
 4192SOL     OW13474   0.601   1.222   4.078
 4192SOL    HW113475   0.593   1.285   4.155
 4192SOL    HW213476   0.593   1.127   4.111
 4193SOL     OW13477   1.377   0.408   2.421
 4193SOL    HW113478   1.341   0.389   2.513
 4193SOL    HW213479   1.457   0.468   2.429
 4194SOL     OW13480   5.764   0.689   5.110
 4194SOL    HW113481   5.701   0.720   5.181
 4194SOL    HW213482   5.829   0.762   5.088
 4195SOL     OW13483   4.174   6.616   2.094
 4195SOL    HW113484   4.165   6.693   2.158
 4195SOL    HW213485   4.233   6.546   2.133
 4196SOL     OW13486   5.473   1.908   3.679
 4196SOL    HW113487   5.399   1.909   3.746
 4196SOL    HW213488   5.523   1.994   3.683
 4197SOL     OW13489   5.094   5.894   5.565
 4197SOL    HW113490   5.067   5.983   5.530
 4197SOL    HW213491   5.133   5.905   5.657
 4198SOL     OW13492   5.900   3.653   0.365
 4198SOL    HW113493   5.903   3.702   0.278
 4198SOL    HW213494   5.855   3.711   0.434
 4199SOL     OW13495   2.072   3.152   6.471
 4199SOL    HW113496   2.047   3.161   6.568
 4199SOL    HW213497   2.111   3.061   6.455
 4200SOL     OW13498   3.352   6.446   6.040
 4200SOL    HW113499   3.407   6.438   6.124
 4200SOL    HW213500   3.360   6.539   6.005
 4201SOL     OW13501   6.326   6.055   3.858
 4201SOL    HW113502   6.350   5.985   3.790
 4201SOL    HW213503   6.232   6.084   3.843
 4202SOL     OW13504   3.999   5.343   5.742
 4202SOL    HW113505   3.956   5.346   5.653
 4202SOL    HW213506   4.089   5.388   5.738
 4203SOL     OW13507   4.864   5.049   0.330
 4203SOL    HW113508   4.883   5.040   0.428
 4203SOL    HW213509   4.877   5.143   0.301
 4204SOL     OW13510   3.993   3.188   2.542
 4204SOL    HW113511   4.042   3.246   2.476
 4204SOL    HW213512   4.000   3.228   2.633
 4205SOL     OW13513   4.004   5.327   3.497
 4205SOL    HW113514   3.907   5.328   3.518
 4205SOL    HW213515   4.027   5.406   3.439
 4206SOL     OW13516   6.528   0.610   5.765
 4206SOL    HW113517   6.627   0.621   5.754
 4206SOL    HW213518   6.496   0.536   5.705
 4207SOL     OW13519   1.679   1.294   1.585
 4207SOL    HW113520   1.645   1.356   1.514
 4207SOL    HW213521   1.765   1.330   1.622
 4208SOL     OW13522   0.875   3.931   6.715
 4208SOL    HW113523   0.793   3.887   6.751
 4208SOL    HW213524   0.938   3.861   6.681
 4209SOL     OW13525   0.484   1.160   5.770
 4209SOL    HW113526   0.546   1.208   5.833
 4209SOL    HW213527   0.537   1.094   5.716
 4210SOL     OW13528   2.957   3.403   2.139
 4210SOL    HW113529   3.045   3.427   2.180
 4210SOL    HW213530   2.887   3.397   2.211
 4211SOL     OW13531   3.771   5.647   5.516
 4211SOL    HW113532   3.851   5.621   5.462
 4211SOL    HW213533   3.798   5.713   5.586
 4212SOL     OW13534   5.996   2.661   2.544
 4212SOL    HW113535   5.940   2.650   2.626
 4212SOL    HW213536   6.092   2.659   2.568
 4213SOL     OW13537   2.401   0.740   1.949
 4213SOL    HW113538   2.450   0.715   1.866
 4213SOL    HW213539   2.406   0.838   1.963
 4214SOL     OW13540   1.749   4.595   5.193
 4214SOL    HW113541   1.650   4.584   5.184
 4214SOL    HW213542   1.792   4.506   5.198
 4215SOL     OW13543   6.992   6.333   4.769
 4215SOL    HW113544   6.946   6.422   4.773
 4215SOL    HW213545   0.038   6.333   4.694
 4216SOL     OW13546   0.999   1.746   3.339
 4216SOL    HW113547   1.011   1.682   3.415
 4216SOL    HW213548   1.083   1.798   3.325
 4217SOL     OW13549   6.691   0.289   2.837
 4217SOL    HW113550   6.694   0.236   2.752
 4217SOL    HW213551   6.779   0.283   2.883
 4218SOL     OW13552   4.654   0.798   1.647
 4218SOL    HW113553   4.619   0.758   1.563
 4218SOL    HW213554   4.582   0.853   1.690
 4219SOL     OW13555   2.855   5.281   3.648
 4219SOL    HW113556   2.954   5.272   3.649
 4219SOL    HW213557   2.826   5.343   3.721
 4220SOL     OW13558   5.620   2.715   3.543
 4220SOL    HW113559   5.569   2.793   3.579
 4220SOL    HW213560   5.615   2.715   3.443
 4221SOL     OW13561   6.330   5.785   6.306
 4221SOL    HW113562   6.293   5.715   6.367
 4221SOL    HW213563   6.260   5.812   6.241
 4222SOL     OW13564   5.731   2.409   2.913
 4222SOL    HW113565   5.635   2.395   2.935
 4222SOL    HW213566   5.776   2.321   2.902
 4223SOL     OW13567   2.995   3.203   5.461
 4223SOL    HW113568   2.920   3.197   5.527
 4223SOL    HW213569   2.957   3.223   5.370
 4224SOL     OW13570   4.861   3.220   3.307
 4224SOL    HW113571   4.922   3.141   3.309
 4224SOL    HW213572   4.850   3.251   3.212
 4225SOL     OW13573   3.979   0.515   5.441
 4225SOL    HW113574   3.926   0.532   5.359
 4225SOL    HW213575   4.057   0.578   5.445
 4226SOL     OW13576   0.596   0.617   2.704
 4226SOL    HW113577   0.680   0.670   2.690
 4226SOL    HW213578   0.535   0.631   2.625
 4227SOL     OW13579   3.737   4.834   6.713
 4227SOL    HW113580   3.817   4.885   6.684
 4227SOL    HW213581   3.656   4.867   6.664
 4228SOL     OW13582   0.677   3.617   4.145
 4228SOL    HW113583   0.768   3.658   4.141
 4228SOL    HW213584   0.611   3.680   4.106
 4229SOL     OW13585   4.846   5.223   5.172
 4229SOL    HW113586   4.841   5.204   5.074
 4229SOL    HW213587   4.920   5.289   5.189
 4230SOL     OW13588   1.963   0.357   3.997
 4230SOL    HW113589   1.891   0.422   4.019
 4230SOL    HW213590   1.976   0.353   3.898
 4231SOL     OW13591   5.730   6.222   4.938
 4231SOL    HW113592   5.786   6.146   4.972
 4231SOL    HW213593   5.643   6.186   4.904
 4232SOL     OW13594   0.331   4.367   2.636
 4232SOL    HW113595   0.362   4.392   2.544
 4232SOL    HW213596   0.252   4.422   2.661
 4233SOL     OW13597   6.845   0.661   6.814
 4233SOL    HW113598   6.820   0.598   6.741
 4233SOL    HW213599   6.900   0.736   6.777
 4234SOL     OW13600   1.561   0.289   5.827
 4234SOL    HW113601   1.504   0.211   5.853
 4234SOL    HW213602   1.517   0.374   5.855
 4235SOL     OW13603   5.243   4.140   5.940
 4235SOL    HW113604   5.289   4.132   5.851
 4235SOL    HW213605   5.210   4.049   5.968
 4236SOL     OW13606   0.263   3.461   2.998
 4236SOL    HW113607   0.187   3.525   2.983
 4236SOL    HW213608   0.340   3.488   2.940
 4237SOL     OW13609   6.537   5.302   3.284
 4237SOL    HW113610   6.636   5.314   3.275
 4237SOL    HW213611   6.506   5.234   3.217
 4238SOL     OW13612   3.289   4.867   2.663
 4238SOL    HW113613   3.221   4.824   2.723
 4238SOL    HW213614   3.302   4.962   2.691
 4239SOL     OW13615   5.662   1.551   3.462
 4239SOL    HW113616   5.575   1.601   3.461
 4239SOL    HW213617   5.721   1.585   3.389
 4240SOL     OW13618   2.424   6.915   0.151
 4240SOL    HW113619   2.432   6.840   0.216
 4240SOL    HW213620   2.385   6.882   0.065
 4241SOL     OW13621   6.360   0.766   1.306
 4241SOL    HW113622   6.265   0.793   1.323
 4241SOL    HW213623   6.387   0.798   1.215
 4242SOL     OW13624   2.254   0.799   3.376
 4242SOL    HW113625   2.187   0.731   3.407
 4242SOL    HW213626   2.283   0.778   3.283
 4243SOL     OW13627   6.895   4.319   3.686
 4243SOL    HW113628   6.919   4.234   3.638
 4243SOL    HW213629   6.869   4.389   3.620
 4244SOL     OW13630   5.490   5.342   0.789
 4244SOL    HW113631   5.442   5.275   0.733
 4244SOL    HW213632   5.479   5.318   0.886
 4245SOL     OW13633   6.392   1.053   6.264
 4245SOL    HW113634   6.419   1.146   6.239
 4245SOL    HW213635   6.424   0.989   6.194
 4246SOL     OW13636   5.751   3.123   3.794
 4246SOL    HW113637   5.706   3.071   3.867
 4246SOL    HW213638   5.817   3.186   3.834
 4247SOL     OW13639   2.335   5.102   3.447
 4247SOL    HW113640   2.426   5.114   3.408
 4247SOL    HW213641   2.315   5.178   3.509
 4248SOL     OW13642   1.686   1.436   3.585
 4248SOL    HW113643   1.694   1.340   3.612
 4248SOL    HW213644   1.771   1.466   3.543
 4249SOL     OW13645   4.965   1.206   4.156
 4249SOL    HW113646   5.015   1.220   4.242
 4249SOL    HW213647   4.871   1.180   4.176
 4250SOL     OW13648   5.936   6.355   4.572
 4250SOL    HW113649   5.936   6.442   4.522
 4250SOL    HW213650   5.842   6.324   4.585
 4251SOL     OW13651   5.973   3.430   1.029
 4251SOL    HW113652   6.045   3.493   1.001
 4251SOL    HW213653   5.949   3.447   1.124
 4252SOL     OW13654   5.437   5.962   6.480
 4252SOL    HW113655   5.413   5.870   6.447
 4252SOL    HW213656   5.526   5.988   6.442
 4253SOL     OW13657   3.399   6.921   1.319
 4253SOL    HW113658   3.469   6.906   1.249
 4253SOL    HW213659   3.359   6.834   1.346
 4254SOL     OW13660   1.737   3.927   2.068
 4254SOL    HW113661   1.722   3.915   1.970
 4254SOL    HW213662   1.675   3.998   2.103
 4255SOL     OW13663   6.511   4.316   3.848
 4255SOL    HW113664   6.585   4.376   3.818
 4255SOL    HW213665   6.424   4.350   3.811
 4256SOL     OW13666   1.180   5.833   0.988
 4256SOL    HW113667   1.213   5.820   0.894
 4256SOL    HW213668   1.091   5.879   0.986
 4257SOL     OW13669   3.716   1.066   4.977
 4257SOL    HW113670   3.642   1.134   4.984
 4257SOL    HW213671   3.707   1.000   5.052
 4258SOL     OW13672   3.107   6.210   0.629
 4258SOL    HW113673   3.060   6.276   0.572
 4258SOL    HW213674   3.195   6.248   0.659
 4259SOL     OW13675   1.324   6.652   1.178
 4259SOL    HW113676   1.235   6.640   1.134
 4259SOL    HW213677   1.340   6.750   1.195
 4260SOL     OW13678   5.866   0.731   3.031
 4260SOL    HW113679   5.838   0.635   3.037
 4260SOL    HW213680   5.789   0.789   3.056
 4261SOL     OW13681   2.192   0.402   2.687
 4261SOL    HW113682   2.217   0.366   2.597
 4261SOL    HW213683   2.148   0.330   2.741
 4262SOL     OW13684   0.648   3.873   6.183
 4262SOL    HW113685   0.711   3.880   6.260
 4262SOL    HW213686   0.566   3.822   6.211
 4263SOL     OW13687   2.565   0.298   3.216
 4263SOL    HW113688   2.529   0.217   3.262
 4263SOL    HW213689   2.572   0.281   3.118
 4264SOL     OW13690   0.088   2.210   4.800
 4264SOL    HW113691   0.076   2.289   4.739
 4264SOL    HW213692   0.175   2.166   4.781
 4265SOL     OW13693   3.653   1.219   0.612
 4265SOL    HW113694   3.573   1.247   0.559
 4265SOL    HW213695   3.648   1.121   0.631
 4266SOL     OW13696   1.779   6.153   6.571
 4266SOL    HW113697   1.838   6.090   6.522
 4266SOL    HW213698   1.796   6.247   6.539
 4267SOL     OW13699   2.252   4.067   4.252
 4267SOL    HW113700   2.182   4.135   4.229
 4267SOL    HW213701   2.210   3.977   4.262
 4268SOL     OW13702   0.970   5.814   6.832
 4268SOL    HW113703   0.983   5.911   6.811
 4268SOL    HW213704   1.051   5.779   6.879
 4269SOL     OW13705   2.947   6.987   3.174
 4269SOL    HW113706   2.907   6.899   3.149
 4269SOL    HW213707   2.903   0.040   3.123
 4270SOL     OW13708   3.862   2.947   2.034
 4270SOL    HW113709   3.808   2.920   2.114
 4270SOL    HW213710   3.811   3.014   1.980
 4271SOL     OW13711   0.292   0.517   0.544
 4271SOL    HW113712   0.240   0.555   0.621
 4271SOL    HW213713   0.247   0.540   0.458
 4272SOL     OW13714   6.562   2.806   4.436
 4272SOL    HW113715   6.516   2.731   4.482
 4272SOL    HW213716   6.525   2.815   4.343
 4273SOL     OW13717   4.552   6.430   4.422
 4273SOL    HW113718   4.509   6.486   4.351
 4273SOL    HW213719   4.587   6.346   4.382
 4274SOL     OW13720   1.506   6.810   2.113
 4274SOL    HW113721   1.482   6.907   2.127
 4274SOL    HW213722   1.513   6.792   2.015
 4275SOL     OW13723   6.725   2.106   4.246
 4275SOL    HW113724   6.770   2.178   4.299
 4275SOL    HW213725   6.792   2.061   4.188
 4276SOL     OW13726   2.809   5.435   4.082
 4276SOL    HW113727   2.785   5.338   4.084
 4276SOL    HW213728   2.781   5.475   3.995
 4277SOL     OW13729   6.698   4.616   2.877
 4277SOL    HW113730   6.783   4.600   2.828
 4277SOL    HW213731   6.701   4.707   2.919
 4278SOL     OW13732   0.172   6.728   4.879
 4278SOL    HW113733   0.188   6.825   4.895
 4278SOL    HW213734   0.151   6.683   4.966
 4279SOL     OW13735   2.041   1.095   3.281
 4279SOL    HW113736   1.986   1.174   3.254
 4279SOL    HW213737   2.078   1.110   3.374
 4280SOL     OW13738   5.692   6.993   5.515
 4280SOL    HW113739   5.702   6.952   5.606
 4280SOL    HW213740   5.724   6.929   5.445
 4281SOL     OW13741   5.907   4.632   3.481
 4281SOL    HW113742   5.893   4.534   3.496
 4281SOL    HW213743   5.872   4.683   3.559
 4282SOL     OW13744   3.325   4.547   0.368
 4282SOL    HW113745   3.250   4.569   0.431
 4282SOL    HW213746   3.307   4.590   0.280
 4283SOL     OW13747   2.540   0.987   3.385
 4283SOL    HW113748   2.536   0.912   3.451
 4283SOL    HW213749   2.475   1.058   3.411
 4284SOL     OW13750   3.932   4.499   1.014
 4284SOL    HW113751   3.877   4.437   1.069
 4284SOL    HW213752   4.029   4.476   1.025
 4285SOL     OW13753   2.434   1.021   5.927
 4285SOL    HW113754   2.456   0.929   5.895
 4285SOL    HW213755   2.459   1.088   5.857
 4286SOL     OW13756   5.772   6.879   6.031
 4286SOL    HW113757   5.727   6.819   5.965
 4286SOL    HW213758   5.704   6.938   6.074
 4287SOL     OW13759   4.797   0.781   5.967
 4287SOL    HW113760   4.823   0.809   5.874
 4287SOL    HW213761   4.774   0.684   5.967
 4288SOL     OW13762   0.940   5.705   3.956
 4288SOL    HW113763   0.915   5.691   4.052
 4288SOL    HW213764   1.039   5.695   3.946
 4289SOL     OW13765   0.559   2.140   5.750
 4289SOL    HW113766   0.612   2.203   5.693
 4289SOL    HW213767   0.474   2.185   5.780
 4290SOL     OW13768   1.120   6.014   4.652
 4290SOL    HW113769   1.147   6.002   4.557
 4290SOL    HW213770   1.091   6.109   4.666
 4291SOL     OW13771   4.821   3.651   6.874
 4291SOL    HW113772   4.805   3.665   6.971
 4291SOL    HW213773   4.862   3.734   6.835
 4292SOL     OW13774   6.538   3.183   0.119
 4292SOL    HW113775   6.596   3.239   0.178
 4292SOL    HW213776   6.467   3.139   0.174
 4293SOL     OW13777   3.427   4.291   0.342
 4293SOL    HW113778   3.359   4.363   0.356
 4293SOL    HW213779   3.517   4.327   0.368
 4294SOL     OW13780   1.700   1.337   6.513
 4294SOL    HW113781   1.767   1.295   6.573
 4294SOL    HW213782   1.744   1.369   6.429
 4295SOL     OW13783   5.394   5.427   4.208
 4295SOL    HW113784   5.436   5.345   4.248
 4295SOL    HW213785   5.460   5.502   4.209
 4296SOL     OW13786   3.290   6.774   0.247
 4296SOL    HW113787   3.249   6.688   0.276
 4296SOL    HW213788   3.382   6.782   0.287
 4297SOL     OW13789   5.853   0.173   1.801
 4297SOL    HW113790   5.801   0.247   1.844
 4297SOL    HW213791   5.917   0.211   1.734
 4298SOL     OW13792   3.641   5.969   1.049
 4298SOL    HW113793   3.714   5.931   0.993
 4298SOL    HW213794   3.592   6.039   0.997
 4299SOL     OW13795   1.584   2.365   6.721
 4299SOL    HW113796   1.511   2.370   6.790
 4299SOL    HW213797   1.663   2.418   6.753
 4300SOL     OW13798   2.774   0.058   0.365
 4300SOL    HW113799   2.768   0.094   0.458
 4300SOL    HW213800   2.739   0.126   0.301
 4301SOL     OW13801   5.031   0.144   1.329
 4301SOL    HW113802   4.946   0.096   1.348
 4301SOL    HW213803   5.073   0.108   1.246
 4302SOL     OW13804   6.794   0.342   5.984
 4302SOL    HW113805   6.880   0.316   6.027
 4302SOL    HW213806   6.727   0.268   5.996
 4303SOL     OW13807   0.303   4.260   4.371
 4303SOL    HW113808   0.376   4.225   4.313
 4303SOL    HW213809   0.255   4.334   4.324
 4304SOL     OW13810   3.197   3.199   2.545
 4304SOL    HW113811   3.190   3.101   2.563
 4304SOL    HW213812   3.278   3.218   2.490
 4305SOL     OW13813   1.173   6.953   5.711
 4305SOL    HW113814   1.144   7.018   5.780
 4305SOL    HW213815   1.163   6.994   5.620
 4306SOL     OW13816   4.552   4.608   4.457
 4306SOL    HW113817   4.495   4.616   4.538
 4306SOL    HW213818   4.545   4.692   4.402
 4307SOL     OW13819   6.166   3.970   5.330
 4307SOL    HW113820   6.203   4.055   5.295
 4307SOL    HW213821   6.232   3.896   5.316
 4308SOL     OW13822   6.384   5.658   1.472
 4308SOL    HW113823   6.421   5.673   1.564
 4308SOL    HW213824   6.457   5.669   1.405
 4309SOL     OW13825   1.154   1.481   0.864
 4309SOL    HW113826   1.194   1.416   0.929
 4309SOL    HW213827   1.144   1.570   0.908
 4310SOL     OW13828   1.465   2.781   1.539
 4310SOL    HW113829   1.366   2.791   1.551
 4310SOL    HW213830   1.497   2.701   1.589
 4311SOL     OW13831   0.380   5.975   2.809
 4311SOL    HW113832   0.460   6.035   2.813
 4311SOL    HW213833   0.316   6.001   2.882
 4312SOL     OW13834   1.406   5.512   2.452
 4312SOL    HW113835   1.500   5.495   2.423
 4312SOL    HW213836   1.405   5.586   2.519
 4313SOL     OW13837   5.027   2.295   0.792
 4313SOL    HW113838   5.068   2.385   0.775
 4313SOL    HW213839   4.928   2.305   0.802
 4314SOL     OW13840   5.718   1.760   5.177
 4314SOL    HW113841   5.713   1.664   5.204
 4314SOL    HW213842   5.628   1.791   5.146
 4315SOL     OW13843   2.187   0.903   3.613
 4315SOL    HW113844   2.245   0.894   3.533
 4315SOL    HW213845   2.163   0.812   3.647
 4316SOL     OW13846   5.040   0.549   1.547
 4316SOL    HW113847   5.119   0.610   1.541
 4316SOL    HW213848   5.051   0.474   1.483
 4317SOL     OW13849   5.480   1.757   5.760
 4317SOL    HW113850   5.476   1.675   5.818
 4317SOL    HW213851   5.400   1.760   5.700
 4318SOL     OW13852   1.424   1.777   4.893
 4318SOL    HW113853   1.480   1.835   4.952
 4318SOL    HW213854   1.445   1.681   4.909
 4319SOL     OW13855   2.218   2.051   1.004
 4319SOL    HW113856   2.235   2.051   1.103
 4319SOL    HW213857   2.283   1.990   0.959
 4320SOL     OW13858   3.493   5.269   1.018
 4320SOL    HW113859   3.543   5.258   1.104
 4320SOL    HW213860   3.418   5.333   1.032
 4321SOL     OW13861   0.012   4.492   4.464
 4321SOL    HW113862   0.050   4.488   4.556
 4321SOL    HW213863   6.935   4.471   4.468
 4322SOL     OW13864   6.207   2.923   6.995
 4322SOL    HW113865   6.304   2.937   6.975
 4322SOL    HW213866   6.157   2.908   6.910
 4323SOL     OW13867   4.431   4.479   0.683
 4323SOL    HW113868   4.407   4.575   0.697
 4323SOL    HW213869   4.428   4.457   0.585
 4324SOL     OW13870   5.643   4.518   5.747
 4324SOL    HW113871   5.631   4.495   5.651
 4324SOL    HW213872   5.558   4.557   5.783
 4325SOL     OW13873   3.094   1.068   2.010
 4325SOL    HW113874   3.034   0.992   2.036
 4325SOL    HW213875   3.153   1.039   1.935
 4326SOL     OW13876   4.615   4.763   2.048
 4326SOL    HW113877   4.552   4.707   1.995
 4326SOL    HW213878   4.694   4.708   2.075
 4327SOL     OW13879   5.571   5.781   1.332
 4327SOL    HW113880   5.576   5.684   1.309
 4327SOL    HW213881   5.505   5.795   1.406
 4328SOL     OW13882   5.372   4.449   5.671
 4328SOL    HW113883   5.391   4.361   5.715
 4328SOL    HW213884   5.358   4.435   5.573
 4329SOL     OW13885   4.346   2.850   5.969
 4329SOL    HW113886   4.307   2.758   5.960
 4329SOL    HW213887   4.278   2.918   5.943
 4330SOL     OW13888   2.176   6.071   4.222
 4330SOL    HW113889   2.208   6.015   4.298
 4330SOL    HW213890   2.096   6.124   4.250
 4331SOL     OW13891   5.677   0.814   2.272
 4331SOL    HW113892   5.579   0.829   2.267
 4331SOL    HW213893   5.725   0.894   2.236
 4332SOL     OW13894   5.352   3.343   2.556
 4332SOL    HW113895   5.410   3.423   2.538
 4332SOL    HW213896   5.393   3.288   2.628
 4333SOL     OW13897   4.336   1.609   5.267
 4333SOL    HW113898   4.395   1.690   5.263
 4333SOL    HW213899   4.307   1.594   5.361
 4334SOL     OW13900   2.411   2.675   2.521
 4334SOL    HW113901   2.366   2.743   2.463
 4334SOL    HW213902   2.448   2.602   2.464
 4335SOL     OW13903   3.535   3.404   1.550
 4335SOL    HW113904   3.518   3.315   1.506
 4335SOL    HW213905   3.599   3.392   1.625
 4336SOL     OW13906   2.575   6.711   6.258
 4336SOL    HW113907   2.612   6.622   6.233
 4336SOL    HW213908   2.476   6.703   6.274
 4337SOL     OW13909   2.228   4.537   1.515
 4337SOL    HW113910   2.288   4.457   1.514
 4337SOL    HW213911   2.145   4.518   1.463
 4338SOL     OW13912   6.087   6.614   5.764
 4338SOL    HW113913   6.134   6.699   5.739
 4338SOL    HW213914   6.128   6.537   5.715
 4339SOL     OW13915   4.203   2.834   6.372
 4339SOL    HW113916   4.260   2.905   6.330
 4339SOL    HW213917   4.202   2.846   6.471
 4340SOL     OW13918   6.221   3.773   1.625
 4340SOL    HW113919   6.223   3.871   1.602
 4340SOL    HW213920   6.314   3.742   1.647
 4341SOL     OW13921   1.150   5.035   1.289
 4341SOL    HW113922   1.241   5.022   1.249
 4341SOL    HW213923   1.084   5.055   1.217
 4342SOL     OW13924   5.369   4.104   3.080
 4342SOL    HW113925   5.414   4.083   2.993
 4342SOL    HW213926   5.438   4.117   3.151
 4343SOL     OW13927   2.915   5.993   4.912
 4343SOL    HW113928   2.923   6.075   4.969
 4343SOL    HW213929   2.966   6.006   4.827
 4344SOL     OW13930   0.897   4.009   2.723
 4344SOL    HW113931   0.942   3.971   2.642
 4344SOL    HW213932   0.901   4.109   2.719
 4345SOL     OW13933   3.552   4.117   4.700
 4345SOL    HW113934   3.503   4.149   4.618
 4345SOL    HW213935   3.493   4.124   4.780
 4346SOL     OW13936   2.143   3.195   2.858
 4346SOL    HW113937   2.157   3.218   2.954
 4346SOL    HW213938   2.144   3.279   2.803
 4347SOL     OW13939   5.294   6.582   3.024
 4347SOL    HW113940   5.263   6.594   3.118
 4347SOL    HW213941   5.303   6.671   2.980
 4348SOL     OW13942   0.248   5.602   3.965
 4348SOL    HW113943   0.175   5.605   3.897
 4348SOL    HW213944   0.235   5.524   4.026
 4349SOL     OW13945   6.469   1.891   3.177
 4349SOL    HW113946   6.479   1.796   3.145
 4349SOL    HW213947   6.418   1.891   3.263
 4350SOL     OW13948   4.086   1.916   4.098
 4350SOL    HW113949   4.000   1.874   4.127
 4350SOL    HW213950   4.066   1.999   4.045
 4351SOL     OW13951   1.067   6.263   1.594
 4351SOL    HW113952   1.136   6.194   1.615
 4351SOL    HW213953   1.057   6.272   1.494
 4352SOL     OW13954   6.494   4.330   2.326
 4352SOL    HW113955   6.480   4.429   2.326
 4352SOL    HW213956   6.441   4.289   2.400
 4353SOL     OW13957   3.445   3.139   6.744
 4353SOL    HW113958   3.361   3.138   6.797
 4353SOL    HW213959   3.438   3.073   6.669
 4354SOL     OW13960   2.036   1.357   6.427
 4354SOL    HW113961   1.973   1.408   6.369
 4354SOL    HW213962   2.116   1.330   6.373
 4355SOL     OW13963   2.083   6.462   3.004
 4355SOL    HW113964   2.089   6.559   2.984
 4355SOL    HW213965   2.003   6.445   3.063
 4356SOL     OW13966   4.755   3.906   6.450
 4356SOL    HW113967   4.826   3.841   6.478
 4356SOL    HW213968   4.707   3.870   6.370
 4357SOL     OW13969   0.331   0.906   1.454
 4357SOL    HW113970   0.384   0.828   1.420
 4357SOL    HW213971   0.283   0.880   1.537
 4358SOL     OW13972   6.157   1.187   0.893
 4358SOL    HW113973   6.112   1.107   0.932
 4358SOL    HW213974   6.196   1.163   0.804
 4359SOL     OW13975   1.278   1.409   6.800
 4359SOL    HW113976   1.228   1.347   6.860
 4359SOL    HW213977   1.371   1.375   6.787
 4360SOL     OW13978   0.627   3.314   3.527
 4360SOL    HW113979   0.677   3.240   3.482
 4360SOL    HW213980   0.628   3.299   3.626
 4361SOL     OW13981   2.374   4.309   1.539
 4361SOL    HW113982   2.439   4.249   1.492
 4361SOL    HW213983   2.300   4.255   1.579
 4362SOL     OW13984   7.002   5.928   4.039
 4362SOL    HW113985   6.953   5.872   3.972
 4362SOL    HW213986   6.955   6.016   4.048
 4363SOL     OW13987   4.373   1.664   0.945
 4363SOL    HW113988   4.326   1.691   1.029
 4363SOL    HW213989   4.337   1.717   0.868
 4364SOL     OW13990   3.190   4.062   3.726
 4364SOL    HW113991   3.162   3.998   3.655
 4364SOL    HW213992   3.209   4.151   3.686
 4365SOL     OW13993   2.610   0.147   1.889
 4365SOL    HW113994   2.540   0.096   1.940
 4365SOL    HW213995   2.696   0.144   1.940
 4366SOL     OW13996   6.114   6.479   6.254
 4366SOL    HW113997   6.027   6.464   6.207
 4366SOL    HW213998   6.190   6.454   6.193
 4367SOL     OW13999   2.672   4.936   4.042
 4367SOL    HW114000   2.597   4.900   3.986
 4367SOL    HW214001   2.650   4.922   4.139
 4368SOL     OW14002   3.659   5.608   1.674
 4368SOL    HW114003   3.588   5.541   1.692
 4368SOL    HW214004   3.628   5.671   1.602
 4369SOL     OW14005   4.607   4.814   2.933
 4369SOL    HW114006   4.597   4.861   3.021
 4369SOL    HW214007   4.551   4.731   2.934
 4370SOL     OW14008   3.685   4.713   1.483
 4370SOL    HW114009   3.695   4.806   1.449
 4370SOL    HW214010   3.737   4.703   1.568
 4371SOL     OW14011   1.954   2.020   2.622
 4371SOL    HW114012   1.905   2.033   2.708
 4371SOL    HW214013   1.970   1.922   2.608
 4372SOL     OW14014   2.520   2.376   4.291
 4372SOL    HW114015   2.503   2.475   4.296
 4372SOL    HW214016   2.442   2.327   4.330
 4373SOL     OW14017   4.464   1.378   0.201
 4373SOL    HW114018   4.560   1.375   0.230
 4373SOL    HW214019   4.409   1.416   0.275
 4374SOL     OW14020   1.167   1.374   1.489
 4374SOL    HW114021   1.092   1.388   1.554
 4374SOL    HW214022   1.246   1.337   1.536
 4375SOL     OW14023   4.381   6.024   3.137
 4375SOL    HW114024   4.306   6.040   3.200
 4375SOL    HW214025   4.345   5.996   3.048
 4376SOL     OW14026   6.243   0.305   2.720
 4376SOL    HW114027   6.213   0.212   2.700
 4376SOL    HW214028   6.184   0.345   2.790
 4377SOL     OW14029   5.572   5.386   6.918
 4377SOL    HW114030   5.603   5.355   7.007
 4377SOL    HW214031   5.600   5.481   6.903
 4378SOL     OW14032   1.827   2.773   2.432
 4378SOL    HW114033   1.906   2.735   2.481
 4378SOL    HW214034   1.818   2.870   2.456
 4379SOL     OW14035   2.614   1.356   1.901
 4379SOL    HW114036   2.559   1.292   1.846
 4379SOL    HW214037   2.711   1.337   1.886
 4380SOL     OW14038   2.115   6.579   4.010
 4380SOL    HW114039   2.104   6.491   3.965
 4380SOL    HW214040   2.057   6.583   4.092
 4381SOL     OW14041   2.151   4.193   5.106
 4381SOL    HW114042   2.196   4.281   5.120
 4381SOL    HW214043   2.213   4.131   5.058
 4382SOL     OW14044   6.074   3.234   6.257
 4382SOL    HW114045   6.003   3.202   6.320
 4382SOL    HW214046   6.101   3.159   6.196
 4383SOL     OW14047   0.905   3.214   5.408
 4383SOL    HW114048   0.960   3.273   5.350
 4383SOL    HW214049   0.832   3.173   5.354
 4384SOL     OW14050   5.304   1.569   6.751
 4384SOL    HW114051   5.260   1.519   6.827
 4384SOL    HW214052   5.345   1.653   6.786
 4385SOL     OW14053   6.832   2.689   4.515
 4385SOL    HW114054   6.805   2.611   4.573
 4385SOL    HW214055   6.752   2.742   4.491
 4386SOL     OW14056   1.879   3.663   6.650
 4386SOL    HW114057   1.939   3.731   6.691
 4386SOL    HW214058   1.813   3.708   6.589
 4387SOL     OW14059   0.482   1.120   1.452
 4387SOL    HW114060   0.441   1.211   1.445
 4387SOL    HW214061   0.411   1.050   1.440
 4388SOL     OW14062   4.815   1.003   6.457
 4388SOL    HW114063   4.859   1.016   6.368
 4388SOL    HW214064   4.837   1.081   6.516
 4389SOL     OW14065   6.043   2.163   0.749
 4389SOL    HW114066   5.976   2.110   0.696
 4389SOL    HW214067   6.120   2.104   0.773
 4390SOL     OW14068   4.037   1.624   2.084
 4390SOL    HW114069   4.087   1.583   2.008
 4390SOL    HW214070   3.964   1.563   2.114
 4391SOL     OW14071   1.533   5.848   6.023
 4391SOL    HW114072   1.567   5.836   6.116
 4391SOL    HW214073   1.447   5.899   6.025
 4392SOL     OW14074   6.870   3.673   5.525
 4392SOL    HW114075   6.845   3.596   5.584
 4392SOL    HW214076   6.951   3.648   5.471
 4393SOL     OW14077   5.339   6.948   2.712
 4393SOL    HW114078   5.427   6.932   2.668
 4393SOL    HW214079   5.286   7.014   2.658
 4394SOL     OW14080   5.799   5.698   2.893
 4394SOL    HW114081   5.820   5.732   2.801
 4394SOL    HW214082   5.883   5.669   2.938
 4395SOL     OW14083   3.879   0.864   1.916
 4395SOL    HW114084   3.893   0.956   1.954
 4395SOL    HW214085   3.840   0.872   1.824
 4396SOL     OW14086   2.641   2.267   4.064
 4396SOL    HW114087   2.600   2.287   4.153
 4396SOL    HW214088   2.599   2.185   4.026
 4397SOL     OW14089   0.343   1.308   4.785
 4397SOL    HW114090   0.287   1.302   4.868
 4397SOL    HW214091   0.431   1.264   4.801
 4398SOL     OW14092   0.947   4.342   4.823
 4398SOL    HW114093   0.950   4.388   4.734
 4398SOL    HW214094   0.927   4.244   4.810
 4399SOL     OW14095   1.746   0.938   1.860
 4399SOL    HW114096   1.757   1.016   1.921
 4399SOL    HW214097   1.731   0.971   1.766
 4400SOL     OW14098   2.478   0.313   4.920
 4400SOL    HW114099   2.380   0.292   4.912
 4400SOL    HW214100   2.531   0.238   4.881
 4401SOL     OW14101   4.744   0.407   6.854
 4401SOL    HW114102   4.660   0.372   6.813
 4401SOL    HW214103   4.814   0.416   6.783
 4402SOL     OW14104   2.260   6.545   1.428
 4402SOL    HW114105   2.162   6.562   1.426
 4402SOL    HW214106   2.308   6.614   1.374
 4403SOL     OW14107   0.590   6.716   3.933
 4403SOL    HW114108   0.538   6.647   3.882
 4403SOL    HW214109   0.568   6.807   3.898
 4404SOL     OW14110   0.344   4.295   5.983
 4404SOL    HW114111   0.322   4.338   6.071
 4404SOL    HW214112   0.439   4.264   5.984
 4405SOL     OW14113   3.072   4.609   1.043
 4405SOL    HW114114   3.083   4.511   1.058
 4405SOL    HW214115   2.986   4.640   1.084
 4406SOL     OW14116   6.647   4.339   0.820
 4406SOL    HW114117   6.582   4.404   0.780
 4406SOL    HW214118   6.738   4.382   0.826
 4407SOL     OW14119   0.818   4.145   0.616
 4407SOL    HW114120   0.721   4.135   0.594
 4407SOL    HW214121   0.833   4.235   0.658
 4408SOL     OW14122   4.005   1.265   1.564
 4408SOL    HW114123   4.102   1.247   1.548
 4408SOL    HW214124   3.979   1.351   1.519
 4409SOL     OW14125   4.470   6.667   1.683
 4409SOL    HW114126   4.385   6.616   1.696
 4409SOL    HW214127   4.518   6.675   1.770
 4410SOL     OW14128   1.504   5.707   0.283
 4410SOL    HW114129   1.480   5.757   0.199
 4410SOL    HW214130   1.432   5.641   0.304
 4411SOL     OW14131   3.170   2.985   3.583
 4411SOL    HW114132   3.106   3.060   3.568
 4411SOL    HW214133   3.203   2.951   3.495
 4412SOL     OW14134   3.644   0.418   4.577
 4412SOL    HW114135   3.597   0.506   4.567
 4412SOL    HW214136   3.577   0.344   4.570
 4413SOL     OW14137   5.015   5.789   4.958
 4413SOL    HW114138   5.091   5.854   4.973
 4413SOL    HW214139   4.977   5.803   4.866
 4414SOL     OW14140   3.875   5.114   1.672
 4414SOL    HW114141   3.816   5.060   1.731
 4414SOL    HW214142   3.920   5.054   1.605
 4415SOL     OW14143   3.941   3.667   6.279
 4415SOL    HW114144   4.017   3.635   6.335
 4415SOL    HW214145   3.930   3.606   6.201
 4416SOL     OW14146   2.478   0.177   4.312
 4416SOL    HW114147   2.453   0.091   4.268
 4416SOL    HW214148   2.397   0.234   4.322
 4417SOL     OW14149   5.730   4.360   3.086
 4417SOL    HW114150   5.733   4.270   3.129
 4417SOL    HW214151   5.712   4.430   3.155
 4418SOL     OW14152   5.412   0.738   3.144
 4418SOL    HW114153   5.375   0.683   3.218
 4418SOL    HW214154   5.338   0.768   3.084
 4419SOL     OW14155   5.466   6.009   0.458
 4419SOL    HW114156   5.387   6.003   0.398
 4419SOL    HW214157   5.436   6.025   0.552
 4420SOL     OW14158   5.274   1.320   1.320
 4420SOL    HW114159   5.350   1.347   1.379
 4420SOL    HW214160   5.303   1.320   1.225
 4421SOL     OW14161   2.110   1.471   4.092
 4421SOL    HW114162   2.205   1.486   4.119
 4421SOL    HW214163   2.084   1.536   4.020
 4422SOL     OW14164   3.198   4.203   5.906
 4422SOL    HW114165   3.111   4.173   5.867
 4422SOL    HW214166   3.193   4.200   6.006
 4423SOL     OW14167   0.924   2.710   5.536
 4423SOL    HW114168   0.915   2.614   5.561
 4423SOL    HW214169   0.905   2.721   5.438
 4424SOL     OW14170   5.025   6.933   4.129
 4424SOL    HW114171   5.003   7.007   4.065
 4424SOL    HW214172   5.115   6.949   4.168
 4425SOL     OW14173   3.568   5.717   6.367
 4425SOL    HW114174   3.478   5.740   6.405
 4425SOL    HW214175   3.594   5.625   6.396
 4426SOL     OW14176   0.767   2.004   4.850
 4426SOL    HW114177   0.766   1.911   4.887
 4426SOL    HW214178   0.860   2.041   4.856
 4427SOL     OW14179   6.844   6.150   2.697
 4427SOL    HW114180   6.907   6.082   2.659
 4427SOL    HW214181   6.849   6.148   2.797
 4428SOL     OW14182   3.316   5.397   2.159
 4428SOL    HW114183   3.241   5.404   2.224
 4428SOL    HW214184   3.360   5.486   2.148
 4429SOL     OW14185   3.170   0.048   3.331
 4429SOL    HW114186   3.217   0.130   3.300
 4429SOL    HW214187   3.084   0.038   3.281
 4430SOL     OW14188   4.974   3.491   4.879
 4430SOL    HW114189   5.058   3.490   4.932
 4430SOL    HW214190   4.904   3.543   4.928
 4431SOL     OW14191   1.777   0.678   1.950
 4431SOL    HW114192   1.689   0.646   1.985
 4431SOL    HW214193   1.768   0.773   1.920
 4432SOL     OW14194   3.220   4.095   4.241
 4432SOL    HW114195   3.166   4.179   4.244
 4432SOL    HW214196   3.224   4.061   4.148
 4433SOL     OW14197   5.896   0.592   4.670
 4433SOL    HW114198   5.869   0.502   4.702
 4433SOL    HW214199   5.842   0.617   4.589
 4434SOL     OW14200   3.496   1.827   3.604
 4434SOL    HW114201   3.564   1.899   3.605
 4434SOL    HW214202   3.515   1.762   3.678
 4435SOL     OW14203   4.092   3.940   1.053
 4435SOL    HW114204   4.166   3.946   0.987
 4435SOL    HW214205   4.020   4.005   1.029
 4436SOL     OW14206   3.724   1.723   1.052
 4436SOL    HW114207   3.650   1.736   1.119
 4436SOL    HW214208   3.701   1.646   0.992
 4437SOL     OW14209   5.750   1.782   4.231
 4437SOL    HW114210   5.814   1.724   4.181
 4437SOL    HW214211   5.737   1.746   4.323
 4438SOL     OW14212   4.953   0.899   0.448
 4438SOL    HW114213   4.938   0.800   0.440
 4438SOL    HW214214   5.050   0.918   0.439
 4439SOL     OW14215   0.445   5.846   1.399
 4439SOL    HW114216   0.500   5.897   1.333
 4439SOL    HW214217   0.501   5.825   1.479
 4440SOL     OW14218   2.134   4.987   0.480
 4440SOL    HW114219   2.173   5.062   0.427
 4440SOL    HW214220   2.101   4.916   0.418
 4441SOL     OW14221   6.960   1.653   2.690
 4441SOL    HW114222   6.870   1.652   2.735
 4441SOL    HW214223   6.982   1.747   2.663
 4442SOL     OW14224   2.482   6.081   5.349
 4442SOL    HW114225   2.560   6.135   5.318
 4442SOL    HW214226   2.512   5.990   5.375
 4443SOL     OW14227   6.811   2.921   1.239
 4443SOL    HW114228   6.873   2.871   1.300
 4443SOL    HW214229   6.775   2.859   1.170
 4444SOL     OW14230   4.031   5.244   6.013
 4444SOL    HW114231   4.022   5.251   5.913
 4444SOL    HW214232   4.070   5.155   6.037
 4445SOL     OW14233   6.388   0.486   0.835
 4445SOL    HW114234   6.291   0.465   0.835
 4445SOL    HW214235   6.408   0.553   0.764
 4446SOL     OW14236   6.076   1.262   1.967
 4446SOL    HW114237   6.143   1.289   1.898
 4446SOL    HW214238   5.997   1.323   1.962
 4447SOL     OW14239   5.838   3.918   6.194
 4447SOL    HW114240   5.891   3.834   6.200
 4447SOL    HW214241   5.746   3.898   6.162
 4448SOL     OW14242   3.033   3.793   1.292
 4448SOL    HW114243   2.939   3.806   1.263
 4448SOL    HW214244   3.040   3.808   1.391
 4449SOL     OW14245   5.014   0.484   5.964
 4449SOL    HW114246   5.017   0.524   5.872
 4449SOL    HW214247   4.920   0.491   6.000
 4450SOL     OW14248   3.899   3.502   4.156
 4450SOL    HW114249   3.823   3.491   4.220
 4450SOL    HW214250   3.978   3.541   4.205
 4451SOL     OW14251   6.045   3.779   4.270
 4451SOL    HW114252   6.144   3.781   4.255
 4451SOL    HW214253   5.998   3.766   4.183
 4452SOL     OW14254   5.928   6.641   3.854
 4452SOL    HW114255   5.953   6.732   3.887
 4452SOL    HW214256   5.839   6.646   3.807
 4453SOL     OW14257   0.322   3.011   1.142
 4453SOL    HW114258   0.404   3.066   1.127
 4453SOL    HW214259   0.243   3.056   1.101
 4454SOL     OW14260   6.802   2.004   6.778
 4454SOL    HW114261   6.706   2.004   6.750
 4454SOL    HW214262   6.843   2.092   6.757
 4455SOL     OW14263   3.665   6.240   6.607
 4455SOL    HW114264   3.745   6.180   6.603
 4455SOL    HW214265   3.638   6.266   6.514
 4456SOL     OW14266   2.918   5.384   2.161
 4456SOL    HW114267   2.865   5.383   2.076
 4456SOL    HW214268   2.959   5.294   2.175
 4457SOL     OW14269   4.243   2.395   0.814
 4457SOL    HW114270   4.158   2.448   0.819
 4457SOL    HW214271   4.283   2.405   0.723
 4458SOL     OW14272   1.082   3.767   6.670
 4458SOL    HW114273   1.162   3.805   6.624
 4458SOL    HW214274   1.112   3.702   6.740
 4459SOL     OW14275   4.763   0.790   3.562
 4459SOL    HW114276   4.698   0.757   3.631
 4459SOL    HW214277   4.822   0.715   3.533
 4460SOL     OW14278   2.868   2.984   5.289
 4460SOL    HW114279   2.773   2.971   5.317
 4460SOL    HW214280   2.880   3.077   5.253
 4461SOL     OW14281   1.252   0.573   2.221
 4461SOL    HW114282   1.235   0.547   2.316
 4461SOL    HW214283   1.293   0.497   2.172
 4462SOL     OW14284   6.705   4.083   1.854
 4462SOL    HW114285   6.743   3.999   1.891
 4462SOL    HW214286   6.780   4.145   1.829
 4463SOL     OW14287   4.743   2.939   6.891
 4463SOL    HW114288   4.700   2.927   6.802
 4463SOL    HW214289   4.757   2.849   6.934
 4464SOL     OW14290   6.833   5.086   0.378
 4464SOL    HW114291   6.775   5.125   0.306
 4464SOL    HW214292   6.777   5.064   0.457
 4465SOL     OW14293   2.585   5.439   2.353
 4465SOL    HW114294   2.514   5.379   2.390
 4465SOL    HW214295   2.675   5.397   2.368
 4466SOL     OW14296   2.172   1.091   3.040
 4466SOL    HW114297   2.149   1.083   3.137
 4466SOL    HW214298   2.147   1.008   2.992
 4467SOL     OW14299   1.842   0.186   3.317
 4467SOL    HW114300   1.815   0.125   3.242
 4467SOL    HW214301   1.793   0.160   3.401
 4468SOL     OW14302   1.873   3.179   1.008
 4468SOL    HW114303   1.784   3.188   0.963
 4468SOL    HW214304   1.874   3.233   1.092
 4469SOL     OW14305   4.256   0.223   1.306
 4469SOL    HW114306   4.182   0.190   1.247
 4469SOL    HW214307   4.343   0.189   1.271
 4470SOL     OW14308   5.935   3.177   1.910
 4470SOL    HW114309   5.899   3.217   1.994
 4470SOL    HW214310   5.868   3.115   1.870
 4471SOL     OW14311   0.058   1.966   6.591
 4471SOL    HW114312   7.018   1.886   6.597
 4471SOL    HW214313   0.014   2.036   6.535
 4472SOL     OW14314   1.583   3.112   3.783
 4472SOL    HW114315   1.672   3.130   3.825
 4472SOL    HW214316   1.597   3.079   3.689
 4473SOL     OW14317   6.668   2.625   3.868
 4473SOL    HW114318   6.734   2.569   3.817
 4473SOL    HW214319   6.699   2.720   3.869
 4474SOL     OW14320   3.619   0.511   1.784
 4474SOL    HW114321   3.584   0.592   1.831
 4474SOL    HW214322   3.707   0.532   1.742
 4475SOL     OW14323   1.892   3.825   2.486
 4475SOL    HW114324   1.921   3.773   2.566
 4475SOL    HW214325   1.844   3.908   2.514
 4476SOL     OW14326   4.519   6.792   4.346
 4476SOL    HW114327   4.454   6.816   4.419
 4476SOL    HW214328   4.481   6.719   4.290
 4477SOL     OW14329   1.256   0.704   5.848
 4477SOL    HW114330   1.216   0.662   5.766
 4477SOL    HW214331   1.312   0.637   5.896
 4478SOL     OW14332   3.325   6.572   2.658
 4478SOL    HW114333   3.297   6.542   2.749
 4478SOL    HW214334   3.381   6.655   2.666
 4479SOL     OW14335   1.257   0.756   1.543
 4479SOL    HW114336   1.287   0.759   1.448
 4479SOL    HW214337   1.333   0.727   1.601
 4480SOL     OW14338   2.503   3.381   5.941
 4480SOL    HW114339   2.466   3.308   5.998
 4480SOL    HW214340   2.459   3.379   5.851
 4481SOL     OW14341   2.818   6.352   5.572
 4481SOL    HW114342   2.801   6.414   5.648
 4481SOL    HW214343   2.847   6.263   5.607
 4482SOL     OW14344   0.907   4.259   4.364
 4482SOL    HW114345   0.915   4.167   4.400
 4482SOL    HW214346   0.823   4.267   4.310
 4483SOL     OW14347   5.052   3.585   1.986
 4483SOL    HW114348   5.116   3.595   1.910
 4483SOL    HW214349   4.999   3.501   1.974
 4484SOL     OW14350   3.187   3.015   5.511
 4484SOL    HW114351   3.155   3.090   5.454
 4484SOL    HW214352   3.155   2.928   5.473
 4485SOL     OW14353   4.588   1.810   5.079
 4485SOL    HW114354   4.629   1.888   5.031
 4485SOL    HW214355   4.647   1.782   5.155
 4486SOL     OW14356   4.929   4.305   4.670
 4486SOL    HW114357   5.002   4.248   4.707
 4486SOL    HW214358   4.918   4.386   4.727
 4487SOL     OW14359   2.552   2.962   6.349
 4487SOL    HW114360   2.534   2.903   6.271
 4487SOL    HW214361   2.582   3.052   6.318
 4488SOL     OW14362   6.513   3.555   5.960
 4488SOL    HW114363   6.425   3.591   5.929
 4488SOL    HW214364   6.583   3.572   5.891
 4489SOL     OW14365   6.093   5.520   4.559
 4489SOL    HW114366   6.107   5.562   4.649
 4489SOL    HW214367   5.995   5.516   4.538
 4490SOL     OW14368   6.242   2.548   3.178
 4490SOL    HW114369   6.246   2.505   3.088
 4490SOL    HW214370   6.173   2.502   3.234
 4491SOL     OW14371   0.122   2.445   4.680
 4491SOL    HW114372   0.094   2.479   4.590
 4491SOL    HW214373   0.132   2.522   4.743
 4492SOL     OW14374   5.378   4.384   1.790
 4492SOL    HW114375   5.462   4.358   1.837
 4492SOL    HW214376   5.317   4.305   1.785
 4493SOL     OW14377   4.817   6.563   5.282
 4493SOL    HW114378   4.872   6.597   5.205
 4493SOL    HW214379   4.877   6.524   5.351
 4494SOL     OW14380   6.720   1.507   5.873
 4494SOL    HW114381   6.809   1.472   5.846
 4494SOL    HW214382   6.669   1.435   5.921
 4495SOL     OW14383   4.235   6.487   4.438
 4495SOL    HW114384   4.297   6.525   4.506
 4495SOL    HW214385   4.172   6.422   4.481
 4496SOL     OW14386   5.412   5.250   1.029
 4496SOL    HW114387   5.386   5.278   1.121
 4496SOL    HW214388   5.331   5.215   0.981
 4497SOL     OW14389   4.664   0.827   6.816
 4497SOL    HW114390   4.638   0.754   6.879
 4497SOL    HW214391   4.592   0.840   6.748
 4498SOL     OW14392   6.510   3.469   6.419
 4498SOL    HW114393   6.446   3.541   6.445
 4498SOL    HW214394   6.555   3.495   6.333
 4499SOL     OW14395   6.864   3.502   4.146
 4499SOL    HW114396   6.810   3.434   4.097
 4499SOL    HW214397   6.901   3.462   4.229
 4500SOL     OW14398   2.919   3.497   3.472
 4500SOL    HW114399   2.901   3.468   3.566
 4500SOL    HW214400   2.910   3.596   3.465
 4501SOL     OW14401   0.063   2.985   5.346
 4501SOL    HW114402   0.015   2.995   5.433
 4501SOL    HW214403   0.027   2.907   5.296
 4502SOL     OW14404   0.917   2.149   6.654
 4502SOL    HW114405   0.903   2.214   6.729
 4502SOL    HW214406   0.977   2.189   6.586
 4503SOL     OW14407   3.212   6.793   2.313
 4503SOL    HW114408   3.186   6.788   2.410
 4503SOL    HW214409   3.307   6.765   2.303
 4504SOL     OW14410   6.642   1.866   4.841
 4504SOL    HW114411   6.668   1.858   4.937
 4504SOL    HW214412   6.694   1.800   4.786
 4505SOL     OW14413   6.047   5.962   2.726
 4505SOL    HW114414   6.057   5.976   2.825
 4505SOL    HW214415   6.068   5.867   2.703
 4506SOL     OW14416   4.258   2.312   3.698
 4506SOL    HW114417   4.335   2.372   3.720
 4506SOL    HW214418   4.224   2.333   3.606
 4507SOL     OW14419   5.984   5.005   2.497
 4507SOL    HW114420   5.964   5.089   2.445
 4507SOL    HW214421   5.911   4.990   2.565
 4508SOL     OW14422   1.003   4.701   6.079
 4508SOL    HW114423   1.037   4.757   6.004
 4508SOL    HW214424   1.050   4.613   6.080
 4509SOL     OW14425   5.138   2.684   2.516
 4509SOL    HW114426   5.110   2.763   2.571
 4509SOL    HW214427   5.078   2.676   2.436
 4510SOL     OW14428   4.679   0.710   4.545
 4510SOL    HW114429   4.779   0.713   4.542
 4510SOL    HW214430   4.645   0.658   4.467
 4511SOL     OW14431   6.667   3.260   6.472
 4511SOL    HW114432   6.629   3.351   6.454
 4511SOL    HW214433   6.652   3.201   6.392
 4512SOL     OW14434   2.547   0.133   5.617
 4512SOL    HW114435   2.502   0.207   5.667
 4512SOL    HW214436   2.562   0.056   5.679
 4513SOL     OW14437   5.626   6.315   0.527
 4513SOL    HW114438   5.557   6.268   0.583
 4513SOL    HW214439   5.582   6.354   0.446
 4514SOL     OW14440   4.376   1.397   5.743
 4514SOL    HW114441   4.397   1.371   5.837
 4514SOL    HW214442   4.277   1.398   5.730
 4515SOL     OW14443   0.404   2.961   6.017
 4515SOL    HW114444   0.462   2.977   5.937
 4515SOL    HW214445   0.312   2.996   6.000
 4516SOL     OW14446   1.548   0.350   0.072
 4516SOL    HW114447   1.515   0.437   0.036
 4516SOL    HW214448   1.532   0.347   0.171
 4517SOL     OW14449   2.849   1.110   6.676
 4517SOL    HW114450   2.834   1.173   6.751
 4517SOL    HW214451   2.920   1.043   6.701
 4518SOL     OW14452   6.615   1.089   3.368
 4518SOL    HW114453   6.685   1.132   3.426
 4518SOL    HW214454   6.627   1.119   3.273
 4519SOL     OW14455   5.414   0.359   1.989
 4519SOL    HW114456   5.390   0.415   2.068
 4519SOL    HW214457   5.421   0.263   2.016
 4520SOL     OW14458   4.782   6.004   4.024
 4520SOL    HW114459   4.698   6.059   4.017
 4520SOL    HW214460   4.861   6.065   4.032
 4521SOL     OW14461   5.918   2.018   3.445
 4521SOL    HW114462   5.972   1.988   3.367
 4521SOL    HW214463   5.834   1.963   3.451
 4522SOL     OW14464   5.999   6.899   3.240
 4522SOL    HW114465   5.948   6.944   3.312
 4522SOL    HW214466   6.073   6.959   3.208
 4523SOL     OW14467   1.689   4.483   0.390
 4523SOL    HW114468   1.770   4.537   0.414
 4523SOL    HW214469   1.696   4.452   0.296
 4524SOL     OW14470   5.532   2.947   3.846
 4524SOL    HW114471   5.602   2.894   3.894
 4524SOL    HW214472   5.461   2.885   3.812
 4525SOL     OW14473   5.130   1.051   3.058
 4525SOL    HW114474   5.089   1.024   3.145
 4525SOL    HW214475   5.174   0.972   3.015
 4526SOL     OW14476   5.816   0.313   1.461
 4526SOL    HW114477   5.782   0.334   1.369
 4526SOL    HW214478   5.743   0.330   1.527
 4527SOL     OW14479   3.934   1.404   3.429
 4527SOL    HW114480   4.020   1.455   3.419
 4527SOL    HW214481   3.952   1.316   3.473
 4528SOL     OW14482   4.406   0.043   0.130
 4528SOL    HW114483   4.457   0.128   0.141
 4528SOL    HW214484   4.446   7.011   0.055
 4529SOL     OW14485   3.480   1.480   5.306
 4529SOL    HW114486   3.401   1.528   5.345
 4529SOL    HW214487   3.479   1.490   5.207
 4530SOL     OW14488   1.185   3.535   6.255
 4530SOL    HW114489   1.163   3.455   6.199
 4530SOL    HW214490   1.253   3.591   6.207
 4531SOL     OW14491   0.506   3.768   4.016
 4531SOL    HW114492   0.433   3.819   4.061
 4531SOL    HW214493   0.467   3.692   3.964
 4532SOL     OW14494   6.032   2.413   3.604
 4532SOL    HW114495   6.118   2.363   3.594
 4532SOL    HW214496   5.975   2.369   3.673
 4533SOL     OW14497   1.589   0.600   2.138
 4533SOL    HW114498   1.552   0.511   2.111
 4533SOL    HW214499   1.536   0.637   2.214
 4534SOL     OW14500   4.834   4.485   4.887
 4534SOL    HW114501   4.749   4.481   4.939
 4534SOL    HW214502   4.906   4.529   4.942
 4535SOL     OW14503   4.868   1.522   2.331
 4535SOL    HW114504   4.818   1.520   2.417
 4535SOL    HW214505   4.953   1.471   2.340
 4536SOL     OW14506   3.926   1.502   3.760
 4536SOL    HW114507   3.904   1.550   3.846
 4536SOL    HW214508   3.996   1.433   3.777
 4537SOL     OW14509   3.758   3.325   5.673
 4537SOL    HW114510   3.699   3.257   5.717
 4537SOL    HW214511   3.832   3.350   5.735
 4538SOL     OW14512   2.551   0.440   4.190
 4538SOL    HW114513   2.515   0.349   4.168
 4538SOL    HW214514   2.481   0.492   4.240
 4539SOL     OW14515   2.171   1.005   4.610
 4539SOL    HW114516   2.104   0.960   4.550
 4539SOL    HW214517   2.128   1.084   4.654
 4540SOL     OW14518   2.932   3.569   4.576
 4540SOL    HW114519   2.948   3.565   4.674
 4540SOL    HW214520   2.940   3.477   4.537
 4541SOL     OW14521   5.930   1.605   0.946
 4541SOL    HW114522   5.874   1.664   1.003
 4541SOL    HW214523   5.923   1.635   0.851
 4542SOL     OW14524   6.220   1.154   3.108
 4542SOL    HW114525   6.210   1.253   3.123
 4542SOL    HW214526   6.139   1.120   3.060
 4543SOL     OW14527   4.816   1.837   1.742
 4543SOL    HW114528   4.807   1.756   1.685
 4543SOL    HW214529   4.753   1.832   1.819
 4544SOL     OW14530   3.189   6.254   6.285
 4544SOL    HW114531   3.189   6.348   6.319
 4544SOL    HW214532   3.145   6.251   6.195
 4545SOL     OW14533   5.322   3.720   5.089
 4545SOL    HW114534   5.392   3.792   5.091
 4545SOL    HW214535   5.279   3.713   5.179
 4546SOL     OW14536   2.244   1.555   6.650
 4546SOL    HW114537   2.226   1.487   6.578
 4546SOL    HW214538   2.171   1.552   6.718
 4547SOL     OW14539   6.047   2.432   3.331
 4547SOL    HW114540   6.042   2.430   3.431
 4547SOL    HW214541   5.962   2.468   3.294
 4548SOL     OW14542   1.294   4.115   4.907
 4548SOL    HW114543   1.275   4.212   4.899
 4548SOL    HW214544   1.370   4.090   4.846
 4549SOL     OW14545   6.107   4.399   2.189
 4549SOL    HW114546   6.110   4.489   2.145
 4549SOL    HW214547   6.106   4.411   2.289
 4550SOL     OW14548   1.701   5.779   3.099
 4550SOL    HW114549   1.685   5.835   3.180
 4550SOL    HW214550   1.791   5.736   3.105
 4551SOL     OW14551   6.197   1.598   5.976
 4551SOL    HW114552   6.258   1.543   5.920
 4551SOL    HW214553   6.106   1.557   5.976
 4552SOL     OW14554   6.232   2.902   1.248
 4552SOL    HW114555   6.305   2.957   1.208
 4552SOL    HW214556   6.154   2.960   1.270
 4553SOL     OW14557   4.007   4.413   6.420
 4553SOL    HW114558   4.011   4.347   6.495
 4553SOL    HW214559   4.096   4.419   6.375
 4554SOL     OW14560   4.802   0.198   1.152
 4554SOL    HW114561   4.809   0.108   1.194
 4554SOL    HW214562   4.830   0.268   1.217
 4555SOL     OW14563   3.209   1.361   5.862
 4555SOL    HW114564   3.131   1.346   5.802
 4555SOL    HW214565   3.293   1.335   5.816
 4556SOL     OW14566   4.595   2.652   4.244
 4556SOL    HW114567   4.646   2.567   4.230
 4556SOL    HW214568   4.507   2.631   4.286
 4557SOL     OW14569   4.736   6.762   4.881
 4557SOL    HW114570   4.739   6.663   4.873
 4557SOL    HW214571   4.729   6.803   4.791
 4558SOL     OW14572   0.538   3.565   5.451
 4558SOL    HW114573   0.563   3.657   5.422
 4558SOL    HW214574   0.614   3.524   5.502
 4559SOL     OW14575   0.959   4.033   1.721
 4559SOL    HW114576   0.986   4.037   1.817
 4559SOL    HW214577   1.032   3.992   1.667
 4560SOL     OW14578   5.515   5.110   2.733
 4560SOL    HW114579   5.513   5.123   2.832
 4560SOL    HW214580   5.476   5.190   2.688
 4561SOL     OW14581   2.303   0.589   1.457
 4561SOL    HW114582   2.356   0.576   1.373
 4561SOL    HW214583   2.316   0.682   1.490
 4562SOL     OW14584   3.377   6.235   5.095
 4562SOL    HW114585   3.411   6.240   5.189
 4562SOL    HW214586   3.315   6.156   5.086
 4563SOL     OW14587   0.934   4.072   1.019
 4563SOL    HW114588   0.838   4.053   1.039
 4563SOL    HW214589   0.959   4.032   0.931
 4564SOL     OW14590   6.914   0.105   0.977
 4564SOL    HW114591   6.963   0.071   0.897
 4564SOL    HW214592   6.842   0.168   0.947
 4565SOL     OW14593   6.974   0.977   5.557
 4565SOL    HW114594   6.996   1.058   5.503
 4565SOL    HW214595   0.027   0.910   5.548
 4566SOL     OW14596   6.845   1.463   0.200
 4566SOL    HW114597   6.755   1.506   0.200
 4566SOL    HW214598   6.836   1.367   0.175
 4567SOL     OW14599   6.899   0.608   0.164
 4567SOL    HW114600   6.806   0.633   0.137
 4567SOL    HW214601   6.951   0.580   0.084
 4568SOL     OW14602   1.529   4.066   5.370
 4568SOL    HW114603   1.527   4.039   5.467
 4568SOL    HW214604   1.606   4.021   5.325
 4569SOL     OW14605   1.854   0.849   3.259
 4569SOL    HW114606   1.941   0.897   3.266
 4569SOL    HW214607   1.814   0.864   3.169
 4570SOL     OW14608   1.042   6.438   3.104
 4570SOL    HW114609   1.038   6.397   3.195
 4570SOL    HW214610   1.135   6.471   3.087
 4571SOL     OW14611   3.854   3.151   5.976
 4571SOL    HW114612   3.789   3.112   5.910
 4571SOL    HW214613   3.921   3.081   6.002
 4572SOL     OW14614   1.107   6.637   0.199
 4572SOL    HW114615   1.137   6.547   0.168
 4572SOL    HW214616   1.037   6.672   0.136
 4573SOL     OW14617   6.548   6.366   0.317
 4573SOL    HW114618   6.487   6.441   0.345
 4573SOL    HW214619   6.576   6.314   0.397
 4574SOL     OW14620   6.931   3.696   1.316
 4574SOL    HW114621   6.936   3.785   1.360
 4574SOL    HW214622   6.836   3.672   1.298
 4575SOL     OW14623   5.774   1.990   6.312
 4575SOL    HW114624   5.769   1.950   6.220
 4575SOL    HW214625   5.789   2.088   6.305
 4576SOL     OW14626   1.982   5.602   6.638
 4576SOL    HW114627   1.939   5.690   6.658
 4576SOL    HW214628   2.081   5.613   6.636
 4577SOL     OW14629   1.064   1.998   4.260
 4577SOL    HW114630   0.968   1.975   4.250
 4577SOL    HW214631   1.104   2.016   4.170
 4578SOL     OW14632   0.771   3.650   4.560
 4578SOL    HW114633   0.774   3.715   4.636
 4578SOL    HW214634   0.847   3.586   4.568
 4579SOL     OW14635   4.976   2.260   3.256
 4579SOL    HW114636   4.997   2.268   3.158
 4579SOL    HW214637   4.878   2.248   3.267
 4580SOL     OW14638   4.635   4.835   0.065
 4580SOL    HW114639   4.723   4.790   0.080
 4580SOL    HW214640   4.580   4.829   0.148
 4581SOL     OW14641   2.939   4.923   3.113
 4581SOL    HW114642   3.027   4.928   3.066
 4581SOL    HW214643   2.950   4.875   3.200
 4582SOL     OW14644   5.617   6.482   4.761
 4582SOL    HW114645   5.634   6.391   4.722
 4582SOL    HW214646   5.642   6.482   4.858
 4583SOL     OW14647   2.802   1.961   5.607
 4583SOL    HW114648   2.778   1.877   5.558
 4583SOL    HW214649   2.836   2.029   5.542
 4584SOL     OW14650   0.271   5.261   5.832
 4584SOL    HW114651   0.360   5.306   5.839
 4584SOL    HW214652   0.202   5.327   5.803
 4585SOL     OW14653   2.555   6.639   3.324
 4585SOL    HW114654   2.594   6.551   3.353
 4585SOL    HW214655   2.476   6.622   3.265
 4586SOL     OW14656   3.531   4.807   0.347
 4586SOL    HW114657   3.602   4.873   0.321
 4586SOL    HW214658   3.567   4.745   0.417
 4587SOL     OW14659   4.063   3.913   1.713
 4587SOL    HW114660   4.077   3.913   1.812
 4587SOL    HW214661   4.139   3.865   1.669
 4588SOL     OW14662   3.891   4.002   5.425
 4588SOL    HW114663   3.938   4.079   5.469
 4588SOL    HW214664   3.927   3.989   5.333
 4589SOL     OW14665   5.475   0.801   2.707
 4589SOL    HW114666   5.499   0.886   2.659
 4589SOL    HW214667   5.453   0.731   2.639
 4590SOL     OW14668   4.723   5.640   0.361
 4590SOL    HW114669   4.712   5.737   0.338
 4590SOL    HW214670   4.701   5.585   0.281
 4591SOL     OW14671   1.012   6.277   4.757
 4591SOL    HW114672   0.980   6.357   4.705
 4591SOL    HW214673   0.933   6.221   4.782
 4592SOL     OW14674   3.240   1.588   1.951
 4592SOL    HW114675   3.320   1.592   1.890
 4592SOL    HW214676   3.189   1.673   1.944
 4593SOL     OW14677   4.272   5.683   3.712
 4593SOL    HW114678   4.183   5.711   3.675
 4593SOL    HW214679   4.332   5.763   3.715
 4594SOL     OW14680   3.028   0.294   1.870
 4594SOL    HW114681   3.052   0.389   1.890
 4594SOL    HW214682   2.968   0.259   1.942
 4595SOL     OW14683   3.661   2.385   6.126
 4595SOL    HW114684   3.758   2.375   6.102
 4595SOL    HW214685   3.618   2.449   6.062
 4596SOL     OW14686   5.817   6.507   2.973
 4596SOL    HW114687   5.900   6.562   2.958
 4596SOL    HW214688   5.743   6.567   3.002
 4597SOL     OW14689   4.560   4.247   6.790
 4597SOL    HW114690   4.534   4.339   6.760
 4597SOL    HW214691   4.649   4.224   6.752
 4598SOL     OW14692   2.025   5.388   0.219
 4598SOL    HW114693   2.122   5.406   0.234
 4598SOL    HW214694   2.009   5.290   0.212
 4599SOL     OW14695   1.220   5.227   0.349
 4599SOL    HW114696   1.302   5.193   0.302
 4599SOL    HW214697   1.150   5.155   0.350
 4600SOL     OW14698   1.001   4.613   5.415
 4600SOL    HW114699   1.098   4.586   5.418
 4600SOL    HW214700   0.945   4.533   5.395
 4601SOL     OW14701   1.436   6.832   5.719
 4601SOL    HW114702   1.483   6.871   5.798
 4601SOL    HW214703   1.358   6.890   5.694
 4602SOL     OW14704   0.971   5.536   1.538
 4602SOL    HW114705   0.973   5.439   1.513
 4602SOL    HW214706   0.981   5.546   1.637
 4603SOL     OW14707   3.006   6.282   0.956
 4603SOL    HW114708   2.908   6.280   0.940
 4603SOL    HW214709   3.030   6.368   1.001
 4604SOL     OW14710   4.829   0.325   1.541
 4604SOL    HW114711   4.738   0.287   1.520
 4604SOL    HW214712   4.875   0.265   1.606
 4605SOL     OW14713   3.281   0.908   3.489
 4605SOL    HW114714   3.375   0.884   3.513
 4605SOL    HW214715   3.282   0.987   3.427
 4606SOL     OW14716   0.962   0.291   1.704
 4606SOL    HW114717   0.995   0.320   1.615
 4606SOL    HW214718   1.004   0.346   1.776
 4607SOL     OW14719   2.297   2.449   0.853
 4607SOL    HW114720   2.280   2.488   0.943
 4607SOL    HW214721   2.394   2.427   0.844
 4608SOL     OW14722   1.345   5.962   3.800
 4608SOL    HW114723   1.294   6.036   3.755
 4608SOL    HW214724   1.422   6.002   3.851
 4609SOL     OW14725   4.706   4.870   5.968
 4609SOL    HW114726   4.765   4.950   5.977
 4609SOL    HW214727   4.747   4.793   6.018
 4610SOL     OW14728   5.276   2.512   0.976
 4610SOL    HW114729   5.355   2.535   0.920
 4610SOL    HW214730   5.192   2.529   0.923
 4611SOL     OW14731   0.284   6.219   5.870
 4611SOL    HW114732   0.237   6.306   5.886
 4611SOL    HW214733   0.319   6.184   5.956
 4612SOL     OW14734   0.763   5.590   0.292
 4612SOL    HW114735   0.712   5.529   0.230
 4612SOL    HW214736   0.852   5.550   0.311
 4613SOL     OW14737   2.296   5.745   2.259
 4613SOL    HW114738   2.227   5.675   2.278
 4613SOL    HW214739   2.348   5.763   2.343
 4614SOL     OW14740   7.009   3.755   4.453
 4614SOL    HW114741   6.949   3.815   4.505
 4614SOL    HW214742   6.992   3.660   4.480
 4615SOL     OW14743   1.938   0.884   0.249
 4615SOL    HW114744   1.936   0.785   0.234
 4615SOL    HW214745   2.019   0.907   0.303
 4616SOL     OW14746   6.322   0.804   5.729
 4616SOL    HW114747   6.401   0.748   5.755
 4616SOL    HW214748   6.353   0.878   5.669
 4617SOL     OW14749   0.674   2.840   2.091
 4617SOL    HW114750   0.641   2.756   2.135
 4617SOL    HW214751   0.774   2.839   2.087
 4618SOL     OW14752   2.025   2.724   5.265
 4618SOL    HW114753   2.063   2.816   5.276
 4618SOL    HW214754   1.984   2.695   5.351
 4619SOL     OW14755   3.222   6.168   2.919
 4619SOL    HW114756   3.238   6.112   2.837
 4619SOL    HW214757   3.310   6.202   2.953
 4620SOL     OW14758   3.037   4.624   0.301
 4620SOL    HW114759   3.015   4.626   0.398
 4620SOL    HW214760   3.066   4.715   0.271
 4621SOL     OW14761   4.962   1.182   2.541
 4621SOL    HW114762   4.885   1.136   2.497
 4621SOL    HW214763   5.026   1.214   2.470
 4622SOL     OW14764   2.536   4.094   0.317
 4622SOL    HW114765   2.567   4.046   0.399
 4622SOL    HW214766   2.597   4.171   0.298
 4623SOL     OW14767   6.391   6.233   0.776
 4623SOL    HW114768   6.475   6.265   0.820
 4623SOL    HW214769   6.351   6.307   0.723
 4624SOL     OW14770   5.600   0.206   3.236
 4624SOL    HW114771   5.668   0.280   3.232
 4624SOL    HW214772   5.576   0.189   3.332
 4625SOL     OW14773   1.591   4.172   0.231
 4625SOL    HW114774   1.685   4.154   0.200
 4625SOL    HW214775   1.527   4.124   0.171
 4626SOL     OW14776   5.569   5.684   2.162
 4626SOL    HW114777   5.559   5.695   2.261
 4626SOL    HW214778   5.488   5.638   2.126
 4627SOL     OW14779   2.927   5.080   4.325
 4627SOL    HW114780   2.915   5.058   4.228
 4627SOL    HW214781   2.849   5.046   4.377
 4628SOL     OW14782   5.688   4.012   4.220
 4628SOL    HW114783   5.711   4.002   4.317
 4628SOL    HW214784   5.767   4.048   4.171
 4629SOL     OW14785   2.343   5.186   5.727
 4629SOL    HW114786   2.254   5.141   5.719
 4629SOL    HW214787   2.377   5.208   5.635
 4630SOL     OW14788   3.926   5.519   2.224
 4630SOL    HW114789   3.913   5.617   2.234
 4630SOL    HW214790   3.962   5.481   2.310
 4631SOL     OW14791   2.215   6.546   3.324
 4631SOL    HW114792   2.281   6.507   3.260
 4631SOL    HW214793   2.123   6.517   3.298
 4632SOL     OW14794   3.717   5.146   2.613
 4632SOL    HW114795   3.698   5.050   2.595
 4632SOL    HW214796   3.687   5.201   2.535
 4633SOL     OW14797   5.393   1.366   3.718
 4633SOL    HW114798   5.493   1.363   3.707
 4633SOL    HW214799   5.364   1.291   3.778
 4634SOL     OW14800   2.694   5.040   6.281
 4634SOL    HW114801   2.626   4.967   6.277
 4634SOL    HW214802   2.712   5.063   6.377
 4635SOL     OW14803   5.509   3.772   1.386
 4635SOL    HW114804   5.589   3.759   1.328
 4635SOL    HW214805   5.481   3.868   1.383
 4636SOL     OW14806   2.256   4.554   0.098
 4636SOL    HW114807   2.219   4.527   0.187
 4636SOL    HW214808   2.296   4.475   0.053
 4637SOL     OW14809   0.861   0.289   6.958
 4637SOL    HW114810   0.950   0.327   6.983
 4637SOL    HW214811   0.798   0.296   0.015
 4638SOL     OW14812   4.942   3.379   0.211
 4638SOL    HW114813   4.998   3.438   0.268
 4638SOL    HW214814   4.978   3.285   0.215
 4639SOL     OW14815   2.276   4.422   5.222
 4639SOL    HW114816   2.353   4.482   5.246
 4639SOL    HW214817   2.202   4.478   5.185
 4640SOL     OW14818   5.112   4.962   3.503
 4640SOL    HW114819   5.148   5.054   3.486
 4640SOL    HW214820   5.074   4.957   3.595
 4641SOL     OW14821   2.321   6.441   4.943
 4641SOL    HW114822   2.315   6.452   5.042
 4641SOL    HW214823   2.400   6.492   4.909
 4642SOL     OW14824   0.192   5.380   4.099
 4642SOL    HW114825   0.105   5.379   4.049
 4642SOL    HW214826   0.178   5.341   4.191
 4643SOL     OW14827   5.929   2.715   1.383
 4643SOL    HW114828   5.880   2.781   1.439
 4643SOL    HW214829   6.004   2.675   1.436
 4644SOL     OW14830   0.536   4.615   4.958
 4644SOL    HW114831   0.501   4.521   4.956
 4644SOL    HW214832   0.480   4.673   4.899
 4645SOL     OW14833   0.915   1.568   4.444
 4645SOL    HW114834   0.891   1.546   4.349
 4645SOL    HW214835   0.855   1.518   4.506
 4646SOL     OW14836   2.398   5.495   3.833
 4646SOL    HW114837   2.386   5.399   3.857
 4646SOL    HW214838   2.433   5.502   3.740
 4647SOL     OW14839   1.522   1.092   3.813
 4647SOL    HW114840   1.618   1.074   3.791
 4647SOL    HW214841   1.486   1.016   3.867
 4648SOL     OW14842   4.571   0.924   2.195
 4648SOL    HW114843   4.477   0.932   2.229
 4648SOL    HW214844   4.590   1.001   2.134
 4649SOL     OW14845   5.630   0.612   6.327
 4649SOL    HW114846   5.592   0.609   6.420
 4649SOL    HW214847   5.727   0.635   6.331
 4650SOL     OW14848   4.980   5.544   3.556
 4650SOL    HW114849   5.075   5.529   3.584
 4650SOL    HW214850   4.939   5.615   3.613
 4651SOL     OW14851   6.737   1.405   0.949
 4651SOL    HW114852   6.710   1.400   0.853
 4651SOL    HW214853   6.831   1.375   0.959
 4652SOL     OW14854   0.254   0.164   4.338
 4652SOL    HW114855   0.247   0.258   4.306
 4652SOL    HW214856   0.349   0.141   4.357
 4653SOL     OW14857   5.840   5.114   0.030
 4653SOL    HW114858   5.765   5.047   0.033
 4653SOL    HW214859   5.876   5.119   6.957
 4654SOL     OW14860   0.428   6.547   0.486
 4654SOL    HW114861   0.341   6.535   0.438
 4654SOL    HW214862   0.415   6.612   0.561
 4655SOL     OW14863   6.557   4.994   1.880
 4655SOL    HW114864   6.531   4.925   1.813
 4655SOL    HW214865   6.489   5.067   1.882
 4656SOL     OW14866   1.194   0.400   3.938
 4656SOL    HW114867   1.252   0.361   4.010
 4656SOL    HW214868   1.179   0.332   3.866
 4657SOL     OW14869   5.641   6.227   1.508
 4657SOL    HW114870   5.580   6.172   1.565
 4657SOL    HW214871   5.703   6.166   1.458
 4658SOL     OW14872   4.316   1.389   2.664
 4658SOL    HW114873   4.321   1.292   2.638
 4658SOL    HW214874   4.302   1.445   2.583
 4659SOL     OW14875   3.075   4.297   5.274
 4659SOL    HW114876   3.011   4.366   5.243
 4659SOL    HW214877   3.025   4.215   5.304
 4660SOL     OW14878   1.176   3.824   5.530
 4660SOL    HW114879   1.192   3.855   5.436
 4660SOL    HW214880   1.085   3.783   5.537
 4661SOL     OW14881   3.397   3.904   5.827
 4661SOL    HW114882   3.474   3.957   5.863
 4661SOL    HW214883   3.430   3.843   5.754
 4662SOL     OW14884   3.808   6.988   4.851
 4662SOL    HW114885   3.790   6.971   4.754
 4662SOL    HW214886   3.906   6.974   4.869
 4663SOL     OW14887   0.597   1.390   2.835
 4663SOL    HW114888   0.656   1.337   2.773
 4663SOL    HW214889   0.629   1.377   2.929
 4664SOL     OW14890   1.585   1.295   0.457
 4664SOL    HW114891   1.627   1.318   0.369
 4664SOL    HW214892   1.533   1.373   0.491
 4665SOL     OW14893   3.528   6.822   0.330
 4665SOL    HW114894   3.567   6.837   0.421
 4665SOL    HW214895   3.600   6.833   0.261
 4666SOL     OW14896   1.432   2.167   1.184
 4666SOL    HW114897   1.476   2.081   1.161
 4666SOL    HW214898   1.499   2.241   1.181
 4667SOL     OW14899   6.243   4.003   1.913
 4667SOL    HW114900   6.155   4.021   1.869
 4667SOL    HW214901   6.239   4.033   2.009
 4668SOL     OW14902   5.168   1.867   3.026
 4668SOL    HW114903   5.170   1.908   3.117
 4668SOL    HW214904   5.219   1.782   3.026
 4669SOL     OW14905   4.341   6.513   6.674
 4669SOL    HW114906   4.339   6.446   6.748
 4669SOL    HW214907   4.305   6.600   6.707
 4670SOL     OW14908   3.144   2.226   5.430
 4670SOL    HW114909   3.156   2.270   5.341
 4670SOL    HW214910   3.109   2.293   5.496
 4671SOL     OW14911   6.721   2.499   2.529
 4671SOL    HW114912   6.695   2.492   2.625
 4671SOL    HW214913   6.676   2.427   2.477
 4672SOL     OW14914   2.602   4.066   6.216
 4672SOL    HW114915   2.693   4.033   6.191
 4672SOL    HW214916   2.592   4.162   6.187
 4673SOL     OW14917   5.073   6.526   1.469
 4673SOL    HW114918   5.020   6.596   1.516
 4673SOL    HW214919   5.136   6.483   1.534
 4674SOL     OW14920   4.828   0.013   6.521
 4674SOL    HW114921   4.750   0.066   6.489
 4674SOL    HW214922   4.840   6.954   6.463
 4675SOL     OW14923   0.207   1.466   6.345
 4675SOL    HW114924   0.149   1.387   6.363
 4675SOL    HW214925   0.259   1.452   6.262
 4676SOL     OW14926   6.695   6.228   3.845
 4676SOL    HW114927   6.607   6.250   3.887
 4676SOL    HW214928   6.724   6.304   3.787
 4677SOL     OW14929   2.799   1.173   0.106
 4677SOL    HW114930   2.744   1.186   0.188
 4677SOL    HW214931   2.783   1.081   0.069
 4678SOL     OW14932   1.860   4.809   3.174
 4678SOL    HW114933   1.789   4.792   3.107
 4678SOL    HW214934   1.856   4.739   3.246
 4679SOL     OW14935   3.371   0.532   1.165
 4679SOL    HW114936   3.425   0.455   1.198
 4679SOL    HW214937   3.352   0.520   1.068
 4680SOL     OW14938   3.335   1.765   6.531
 4680SOL    HW114939   3.402   1.818   6.583
 4680SOL    HW214940   3.331   1.800   6.437
 4681SOL     OW14941   5.615   4.956   7.005
 4681SOL    HW114942   5.674   4.877   7.018
 4681SOL    HW214943   5.537   4.930   6.948
 4682SOL     OW14944   4.884   4.532   5.243
 4682SOL    HW114945   4.842   4.463   5.184
 4682SOL    HW214946   4.821   4.555   5.317
 4683SOL     OW14947   5.138   5.035   2.517
 4683SOL    HW114948   5.205   4.961   2.506
 4683SOL    HW214949   5.113   5.071   2.427
 4684SOL     OW14950   5.726   0.808   5.356
 4684SOL    HW114951   5.797   0.879   5.350
 4684SOL    HW214952   5.746   0.748   5.433
 4685SOL     OW14953   1.502   5.038   5.659
 4685SOL    HW114954   1.580   4.998   5.610
 4685SOL    HW214955   1.435   4.967   5.679
 4686SOL     OW14956   4.546   5.138   6.880
 4686SOL    HW114957   4.563   5.058   6.822
 4686SOL    HW214958   4.615   5.141   6.952
 4687SOL     OW14959   5.059   3.523   4.421
 4687SOL    HW114960   4.995   3.532   4.498
 4687SOL    HW214961   5.014   3.472   4.347
 4688SOL     OW14962   5.884   4.314   5.352
 4688SOL    HW114963   5.963   4.284   5.406
 4688SOL    HW214964   5.913   4.331   5.258
 4689SOL     OW14965   4.814   0.762   0.159
 4689SOL    HW114966   4.778   0.846   0.119
 4689SOL    HW214967   4.896   0.733   0.108
 4690SOL     OW14968   0.706   0.335   0.147
 4690SOL    HW114969   0.611   0.360   0.163
 4690SOL    HW214970   0.739   0.276   0.221
 4691SOL     OW14971   3.067   4.307   1.068
 4691SOL    HW114972   3.090   4.222   1.115
 4691SOL    HW214973   3.096   4.301   0.972
 4692SOL     OW14974   5.666   5.365   2.228
 4692SOL    HW114975   5.579   5.354   2.275
 4692SOL    HW214976   5.652   5.417   2.143
 4693SOL     OW14977   1.308   1.758   3.257
 4693SOL    HW114978   1.309   1.810   3.343
 4693SOL    HW214979   1.390   1.701   3.252
 4694SOL     OW14980   2.286   1.030   6.985
 4694SOL    HW114981   2.226   0.950   6.986
 4694SOL    HW214982   2.230   1.113   6.976
 4695SOL     OW14983   1.162   4.630   2.262
 4695SOL    HW114984   1.103   4.624   2.343
 4695SOL    HW214985   1.156   4.723   2.224
 4696SOL     OW14986   0.309   3.849   0.438
 4696SOL    HW114987   0.339   3.943   0.420
 4696SOL    HW214988   0.357   3.786   0.376
 4697SOL     OW14989   1.610   3.723   1.346
 4697SOL    HW114990   1.671   3.801   1.361
 4697SOL    HW214991   1.643   3.670   1.267
 4698SOL     OW14992   4.450   5.825   2.636
 4698SOL    HW114993   4.510   5.831   2.557
 4698SOL    HW214994   4.355   5.834   2.607
 4699SOL     OW14995   0.934   6.659   2.432
 4699SOL    HW114996   0.993   6.604   2.373
 4699SOL    HW214997   0.857   6.694   2.380
 4700SOL     OW14998   6.839   0.955   2.818
 4700SOL    HW114999   6.799   0.878   2.768
 4700SOL    HW215000   6.926   0.980   2.775
 4701SOL     OW15001   2.577   2.261   0.575
 4701SOL    HW115002   2.664   2.221   0.605
 4701SOL    HW215003   2.590   2.310   0.489
 4702SOL     OW15004   4.916   4.808   0.195
 4702SOL    HW115005   4.966   4.829   0.111
 4702SOL    HW215006   4.899   4.892   0.246
 4703SOL     OW15007   0.235   1.326   2.381
 4703SOL    HW115008   0.227   1.416   2.339
 4703SOL    HW215009   0.149   1.303   2.428
 4704SOL     OW15010   6.503   6.498   6.371
 4704SOL    HW115011   6.420   6.533   6.415
 4704SOL    HW215012   6.498   6.514   6.273
 4705SOL     OW15013   4.044   2.801   1.129
 4705SOL    HW115014   4.138   2.789   1.162
 4705SOL    HW215015   3.982   2.808   1.206
 4706SOL     OW15016   2.544   0.519   0.574
 4706SOL    HW115017   2.622   0.541   0.514
 4706SOL    HW215018   2.488   0.601   0.586
 4707SOL     OW15019   1.019   6.850   0.376
 4707SOL    HW115020   1.046   6.932   0.326
 4707SOL    HW215021   0.990   6.780   0.311
 4708SOL     OW15022   1.261   2.510   6.191
 4708SOL    HW115023   1.275   2.581   6.260
 4708SOL    HW215024   1.330   2.438   6.202
 4709SOL     OW15025   4.487   5.756   5.295
 4709SOL    HW115026   4.472   5.681   5.230
 4709SOL    HW215027   4.486   5.843   5.246
 4710SOL     OW15028   4.761   0.245   5.788
 4710SOL    HW115029   4.858   0.253   5.764
 4710SOL    HW215030   4.706   0.268   5.708
 4711SOL     OW15031   6.093   1.064   1.447
 4711SOL    HW115032   6.091   0.969   1.417
 4711SOL    HW215033   6.177   1.107   1.414
 4712SOL     OW15034   3.080   5.050   6.374
 4712SOL    HW115035   3.061   5.040   6.276
 4712SOL    HW215036   3.014   4.996   6.426
 4713SOL     OW15037   3.727   4.534   0.851
 4713SOL    HW115038   3.812   4.535   0.903
 4713SOL    HW215039   3.736   4.472   0.773
 4714SOL     OW15040   0.800   1.846   6.288
 4714SOL    HW115041   0.892   1.876   6.260
 4714SOL    HW215042   0.774   1.896   6.371
 4715SOL     OW15043   5.921   3.582   2.322
 4715SOL    HW115044   5.993   3.636   2.280
 4715SOL    HW215045   5.950   3.486   2.327
 4716SOL     OW15046   4.281   6.749   6.091
 4716SOL    HW115047   4.359   6.686   6.083
 4716SOL    HW215048   4.264   6.769   6.187
 4717SOL     OW15049   0.420   6.204   3.901
 4717SOL    HW115050   0.346   6.234   3.960
 4717SOL    HW215051   0.382   6.171   3.814
 4718SOL     OW15052   6.204   2.198   1.138
 4718SOL    HW115053   6.115   2.233   1.109
 4718SOL    HW215054   6.266   2.275   1.153
 4719SOL     OW15055   4.656   3.210   1.665
 4719SOL    HW115056   4.631   3.131   1.721
 4719SOL    HW215057   4.748   3.241   1.690
 4720SOL     OW15058   2.204   5.217   6.119
 4720SOL    HW115059   2.300   5.221   6.093
 4720SOL    HW215060   2.147   5.217   6.037
 4721SOL     OW15061   6.700   1.801   2.500
 4721SOL    HW115062   6.689   1.800   2.600
 4721SOL    HW215063   6.692   1.707   2.466
 4722SOL     OW15064   1.178   6.303   6.551
 4722SOL    HW115065   1.225   6.385   6.520
 4722SOL    HW215066   1.240   6.224   6.547
 4723SOL     OW15067   2.911   3.078   5.832
 4723SOL    HW115068   2.854   3.158   5.815
 4723SOL    HW215069   2.897   3.047   5.927
 4724SOL     OW15070   6.246   6.946   3.513
 4724SOL    HW115071   6.188   6.865   3.512
 4724SOL    HW215072   6.342   6.918   3.513
 4725SOL     OW15073   6.928   5.053   0.988
 4725SOL    HW115074   6.898   5.027   0.896
 4725SOL    HW215075   6.916   5.151   1.000
 4726SOL     OW15076   1.102   3.331   6.112
 4726SOL    HW115077   1.165   3.345   6.035
 4726SOL    HW215078   1.009   3.323   6.077
 4727SOL     OW15079   1.101   6.298   1.299
 4727SOL    HW115080   1.141   6.387   1.320
 4727SOL    HW215081   1.146   6.259   1.219
 4728SOL     OW15082   5.665   1.438   1.621
 4728SOL    HW115083   5.694   1.372   1.552
 4728SOL    HW215084   5.732   1.442   1.694
 4729SOL     OW15085   4.406   1.514   0.477
 4729SOL    HW115086   4.373   1.458   0.553
 4729SOL    HW215087   4.348   1.596   0.469
 4730SOL     OW15088   3.183   6.030   5.417
 4730SOL    HW115089   3.099   5.981   5.393
 4730SOL    HW215090   3.171   6.127   5.395
 4731SOL     OW15091   3.034   0.428   0.114
 4731SOL    HW115092   2.984   0.468   0.037
 4731SOL    HW215093   3.128   0.408   0.086
 4732SOL     OW15094   1.607   4.205   5.104
 4732SOL    HW115095   1.555   4.140   5.160
 4732SOL    HW215096   1.619   4.167   5.012
 4733SOL     OW15097   1.727   4.274   3.540
 4733SOL    HW115098   1.678   4.302   3.458
 4733SOL    HW215099   1.683   4.193   3.580
 4734SOL     OW15100   4.460   3.580   0.148
 4734SOL    HW115101   4.460   3.480   0.141
 4734SOL    HW215102   4.366   3.612   0.159
 4735SOL     OW15103   0.239   5.125   4.864
 4735SOL    HW115104   0.252   5.205   4.922
 4735SOL    HW215105   0.213   5.047   4.920
 4736SOL     OW15106   6.094   1.801   5.665
 4736SOL    HW115107   6.058   1.841   5.749
 4736SOL    HW215108   6.025   1.740   5.625
 4737SOL     OW15109   2.993   4.255   1.723
 4737SOL    HW115110   2.970   4.343   1.764
 4737SOL    HW215111   2.914   4.220   1.672
 4738SOL     OW15112   1.997   6.143   3.100
 4738SOL    HW115113   2.053   6.081   3.156
 4738SOL    HW215114   2.017   6.128   3.003
 4739SOL     OW15115   5.002   1.410   2.697
 4739SOL    HW115116   4.921   1.420   2.754
 4739SOL    HW215117   4.998   1.322   2.649
 4740SOL     OW15118   0.186   1.984   0.854
 4740SOL    HW115119   0.276   1.942   0.852
 4740SOL    HW215120   0.138   1.955   0.937
 4741SOL     OW15121   5.477   4.002   0.677
 4741SOL    HW115122   5.525   4.075   0.629
 4741SOL    HW215123   5.459   3.926   0.614
 4742SOL     OW15124   3.381   6.775   6.769
 4742SOL    HW115125   3.384   6.808   6.863
 4742SOL    HW215126   3.326   6.837   6.713
 4743SOL     OW15127   1.790   3.583   5.170
 4743SOL    HW115128   1.727   3.539   5.234
 4743SOL    HW215129   1.828   3.515   5.107
 4744SOL     OW15130   2.545   3.817   6.320
 4744SOL    HW115131   2.466   3.776   6.274
 4744SOL    HW215132   2.566   3.905   6.277
 4745SOL     OW15133   3.437   5.241   5.937
 4745SOL    HW115134   3.433   5.150   5.895
 4745SOL    HW215135   3.404   5.236   6.032
 4746SOL     OW15136   5.381   6.368   2.180
 4746SOL    HW115137   5.413   6.298   2.243
 4746SOL    HW215138   5.283   6.356   2.164
 4747SOL     OW15139   1.667   4.180   5.951
 4747SOL    HW115140   1.689   4.212   5.859
 4747SOL    HW215141   1.752   4.159   6.000
 4748SOL     OW15142   0.937   4.900   0.633
 4748SOL    HW115143   0.844   4.913   0.669
 4748SOL    HW215144   0.992   4.852   0.701
 4749SOL     OW15145   3.210   6.565   5.518
 4749SOL    HW115146   3.151   6.645   5.510
 4749SOL    HW215147   3.166   6.497   5.576
 4750SOL     OW15148   0.251   3.937   3.655
 4750SOL    HW115149   0.153   3.919   3.640
 4750SOL    HW215150   0.267   3.952   3.752
 4751SOL     OW15151   3.079   2.303   1.337
 4751SOL    HW115152   3.045   2.367   1.406
 4751SOL    HW215153   3.131   2.230   1.382
 4752SOL     OW15154   3.781   0.689   6.707
 4752SOL    HW115155   3.872   0.656   6.730
 4752SOL    HW215156   3.713   0.622   6.735
 4753SOL     OW15157   5.363   0.124   3.608
 4753SOL    HW115158   5.292   0.106   3.539
 4753SOL    HW215159   5.406   0.038   3.635
 4754SOL     OW15160   5.950   6.812   4.704
 4754SOL    HW115161   5.929   6.744   4.774
 4754SOL    HW215162   5.974   6.898   4.749
 4755SOL     OW15163   2.078   0.515   0.941
 4755SOL    HW115164   2.031   0.500   1.027
 4755SOL    HW215165   2.165   0.465   0.941
 4756SOL     OW15166   6.385   3.495   1.209
 4756SOL    HW115167   6.348   3.479   1.118
 4756SOL    HW215168   6.460   3.430   1.226
 4757SOL     OW15169   2.418   1.954   0.835
 4757SOL    HW115170   2.508   1.942   0.877
 4757SOL    HW215171   2.428   1.958   0.735
 4758SOL     OW15172   2.517   6.807   4.442
 4758SOL    HW115173   2.532   6.711   4.466
 4758SOL    HW215174   2.457   6.812   4.363
 4759SOL     OW15175   5.409   4.931   4.859
 4759SOL    HW115176   5.311   4.926   4.878
 4759SOL    HW215177   5.446   4.839   4.850
 4760SOL     OW15178   2.939   2.073   0.415
 4760SOL    HW115179   3.018   2.018   0.439
 4760SOL    HW215180   2.882   2.088   0.496
 4761SOL     OW15181   0.716   6.116   0.316
 4761SOL    HW115182   0.747   6.021   0.311
 4761SOL    HW215183   0.713   6.155   0.223
 4762SOL     OW15184   1.652   5.862   2.492
 4762SOL    HW115185   1.607   5.808   2.562
 4762SOL    HW215186   1.628   5.827   2.401
 4763SOL     OW15187   6.467   6.569   3.535
 4763SOL    HW115188   6.471   6.575   3.635
 4763SOL    HW215189   6.422   6.484   3.508
 4764SOL     OW15190   4.870   3.808   4.811
 4764SOL    HW115191   4.795   3.870   4.788
 4764SOL    HW215192   4.853   3.768   4.901
 4765SOL     OW15193   4.362   0.956   3.985
 4765SOL    HW115194   4.300   0.924   3.913
 4765SOL    HW215195   4.321   0.937   4.075
 4766SOL     OW15196   5.224   5.159   4.497
 4766SOL    HW115197   5.226   5.143   4.398
 4766SOL    HW215198   5.134   5.193   4.523
 4767SOL     OW15199   3.605   5.049   5.594
 4767SOL    HW115200   3.592   4.996   5.510
 4767SOL    HW215201   3.517   5.060   5.640
 4768SOL     OW15202   4.443   1.326   5.296
 4768SOL    HW115203   4.446   1.295   5.201
 4768SOL    HW215204   4.440   1.426   5.297
 4769SOL     OW15205   5.116   4.160   0.078
 4769SOL    HW115206   5.029   4.135   0.036
 4769SOL    HW215207   5.176   4.080   0.079
 4770SOL     OW15208   1.102   0.702   4.432
 4770SOL    HW115209   1.095   0.666   4.339
 4770SOL    HW215210   1.060   0.638   4.496
 4771SOL     OW15211   3.526   5.549   5.411
 4771SOL    HW115212   3.545   5.452   5.397
 4771SOL    HW215213   3.612   5.597   5.432
 4772SOL     OW15214   3.377   4.740   1.263
 4772SOL    HW115215   3.280   4.737   1.288
 4772SOL    HW215216   3.390   4.802   1.186
 4773SOL     OW15217   0.120   5.352   4.376
 4773SOL    HW115218   0.155   5.350   4.470
 4773SOL    HW215219   0.032   5.401   4.375
 4774SOL     OW15220   1.203   2.729   1.984
 4774SOL    HW115221   1.277   2.783   1.945
 4774SOL    HW215222   1.118   2.747   1.934
 4775SOL     OW15223   5.194   6.312   2.396
 4775SOL    HW115224   5.281   6.263   2.389
 4775SOL    HW215225   5.144   6.280   2.476
 4776SOL     OW15226   1.503   6.536   5.256
 4776SOL    HW115227   1.471   6.575   5.343
 4776SOL    HW215228   1.511   6.609   5.189
 4777SOL     OW15229   2.514   4.794   0.879
 4777SOL    HW115230   2.429   4.804   0.827
 4777SOL    HW215231   2.494   4.760   0.970
 4778SOL     OW15232   6.724   2.696   3.220
 4778SOL    HW115233   6.681   2.765   3.278
 4778SOL    HW215234   6.771   2.742   3.144
 4779SOL     OW15235   6.267   6.486   2.966
 4779SOL    HW115236   6.365   6.484   2.985
 4779SOL    HW215237   6.248   6.548   2.891
 4780SOL     OW15238   5.599   0.738   6.893
 4780SOL    HW115239   5.570   0.833   6.910
 4780SOL    HW215240   5.562   0.679   6.965
 4781SOL     OW15241   2.465   5.889   2.080
 4781SOL    HW115242   2.404   5.833   2.136
 4781SOL    HW215243   2.412   5.957   2.030
 4782SOL     OW15244   4.243   5.600   6.946
 4782SOL    HW115245   4.297   5.681   6.964
 4782SOL    HW215246   4.198   5.569   0.009
 4783SOL     OW15247   4.395   4.365   0.423
 4783SOL    HW115248   4.350   4.281   0.452
 4783SOL    HW215249   4.490   4.345   0.396
 4784SOL     OW15250   6.092   4.285   6.978
 4784SOL    HW115251   6.020   4.333   0.007
 4784SOL    HW215252   6.067   4.276   6.882
 4785SOL     OW15253   0.339   6.423   2.222
 4785SOL    HW115254   0.426   6.465   2.194
 4785SOL    HW215255   0.275   6.494   2.249
 4786SOL     OW15256   2.822   1.834   0.412
 4786SOL    HW115257   2.878   1.916   0.403
 4786SOL    HW215258   2.746   1.838   0.347
 4787SOL     OW15259   4.414   2.025   2.624
 4787SOL    HW115260   4.399   1.977   2.538
 4787SOL    HW215261   4.485   1.978   2.676
 4788SOL     OW15262   0.660   5.546   5.321
 4788SOL    HW115263   0.622   5.476   5.259
 4788SOL    HW215264   0.735   5.593   5.275
 4789SOL     OW15265   5.257   1.677   1.211
 4789SOL    HW115266   5.289   1.649   1.302
 4789SOL    HW215267   5.294   1.614   1.142
 4790SOL     OW15268   6.492   2.025   5.276
 4790SOL    HW115269   6.494   2.062   5.369
 4790SOL    HW215270   6.398   2.030   5.240
 4791SOL     OW15271   6.374   2.535   1.731
 4791SOL    HW115272   6.394   2.632   1.722
 4791SOL    HW215273   6.286   2.524   1.778
 4792SOL     OW15274   2.008   4.141   3.019
 4792SOL    HW115275   1.945   4.116   2.945
 4792SOL    HW215276   1.962   4.202   3.083
 4793SOL     OW15277   1.819   2.640   5.709
 4793SOL    HW115278   1.846   2.691   5.627
 4793SOL    HW215279   1.780   2.703   5.776
 4794SOL     OW15280   4.423   0.377   3.354
 4794SOL    HW115281   4.448   0.409   3.446
 4794SOL    HW215282   4.411   0.455   3.293
 4795SOL     OW15283   5.911   2.835   4.334
 4795SOL    HW115284   5.889   2.738   4.346
 4795SOL    HW215285   5.832   2.890   4.362
 4796SOL     OW15286   5.079   1.609   5.453
 4796SOL    HW115287   5.042   1.547   5.522
 4796SOL    HW215288   5.063   1.572   5.362
 4797SOL     OW15289   1.196   6.180   5.626
 4797SOL    HW115290   1.168   6.251   5.690
 4797SOL    HW215291   1.208   6.219   5.535
 4798SOL     OW15292   0.016   3.481   4.431
 4798SOL    HW115293   6.987   3.396   4.416
 4798SOL    HW215294   0.102   3.461   4.479
 4799SOL     OW15295   5.393   2.378   6.918
 4799SOL    HW115296   5.443   2.410   6.999
 4799SOL    HW215297   5.436   2.296   6.882
 4800SOL     OW15298   3.604   3.122   5.811
 4800SOL    HW115299   3.530   3.079   5.760
 4800SOL    HW215300   3.565   3.192   5.872
 4801SOL     OW15301   2.573   2.468   6.541
 4801SOL    HW115302   2.575   2.566   6.518
 4801SOL    HW215303   2.478   2.438   6.548
 4802SOL     OW15304   1.073   6.532   2.240
 4802SOL    HW115305   1.159   6.554   2.195
 4802SOL    HW215306   1.020   6.469   2.182
 4803SOL     OW15307   0.768   5.167   0.946
 4803SOL    HW115308   0.814   5.130   0.866
 4803SOL    HW215309   0.825   5.239   0.987
 4804SOL     OW15310   5.134   6.101   0.280
 4804SOL    HW115311   5.212   6.162   0.266
 4804SOL    HW215312   5.104   6.107   0.375
 4805SOL     OW15313   5.313   1.418   2.568
 4805SOL    HW115314   5.377   1.343   2.580
 4805SOL    HW215315   5.363   1.505   2.567
 4806SOL     OW15316   1.322   4.630   2.924
 4806SOL    HW115317   1.297   4.541   2.886
 4806SOL    HW215318   1.239   4.681   2.948
 4807SOL     OW15319   0.796   5.269   0.360
 4807SOL    HW115320   0.704   5.230   0.355
 4807SOL    HW215321   0.840   5.261   0.270
 4808SOL     OW15322   5.708   4.223   6.843
 4808SOL    HW115323   5.647   4.252   6.917
 4808SOL    HW215324   5.659   4.224   6.756
 4809SOL     OW15325   3.496   4.138   0.094
 4809SOL    HW115326   3.587   4.146   0.134
 4809SOL    HW215327   3.426   4.157   0.163
 4810SOL     OW15328   1.283   4.940   2.652
 4810SOL    HW115329   1.269   4.913   2.747
 4810SOL    HW215330   1.241   5.029   2.636
 4811SOL     OW15331   2.771   3.797   1.504
 4811SOL    HW115332   2.853   3.848   1.528
 4811SOL    HW215333   2.768   3.712   1.556
 4812SOL     OW15334   6.502   5.390   3.864
 4812SOL    HW115335   6.504   5.413   3.961
 4812SOL    HW215336   6.590   5.349   3.837
 4813SOL     OW15337   5.247   2.553   1.686
 4813SOL    HW115338   5.168   2.566   1.627
 4813SOL    HW215339   5.313   2.627   1.670
 4814SOL     OW15340   6.775   4.071   0.875
 4814SOL    HW115341   6.749   4.143   0.811
 4814SOL    HW215342   6.708   4.065   0.949
 4815SOL     OW15343   5.531   4.806   2.891
 4815SOL    HW115344   5.549   4.786   2.987
 4815SOL    HW215345   5.439   4.774   2.867
 4816SOL     OW15346   1.955   4.489   0.854
 4816SOL    HW115347   1.872   4.445   0.821
 4816SOL    HW215348   1.987   4.442   0.937
 4817SOL     OW15349   0.283   2.038   6.499
 4817SOL    HW115350   0.254   2.131   6.475
 4817SOL    HW215351   0.212   1.994   6.554
 4818SOL     OW15352   1.419   6.260   3.894
 4818SOL    HW115353   1.440   6.343   3.843
 4818SOL    HW215354   1.502   6.205   3.904
 4819SOL     OW15355   1.496   1.567   0.412
 4819SOL    HW115356   1.450   1.592   0.498
 4819SOL    HW215357   1.502   1.648   0.354
 4820SOL     OW15358   5.810   2.443   2.097
 4820SOL    HW115359   5.843   2.365   2.044
 4820SOL    HW215360   5.874   2.462   2.172
 4821SOL     OW15361   1.221   6.315   2.583
 4821SOL    HW115362   1.319   6.299   2.589
 4821SOL    HW215363   1.196   6.393   2.640
 4822SOL     OW15364   2.423   2.289   4.927
 4822SOL    HW115365   2.345   2.283   4.990
 4822SOL    HW215366   2.411   2.223   4.853
 4823SOL     OW15367   1.523   1.022   4.482
 4823SOL    HW115368   1.476   0.936   4.459
 4823SOL    HW215369   1.561   1.061   4.398
 4824SOL     OW15370   4.903   2.059   4.877
 4824SOL    HW115371   4.929   2.022   4.966
 4824SOL    HW215372   4.905   1.986   4.809
 4825SOL     OW15373   1.851   3.045   5.068
 4825SOL    HW115374   1.806   3.007   4.987
 4825SOL    HW215375   1.943   3.006   5.075
 4826SOL     OW15376   5.587   1.701   0.104
 4826SOL    HW115377   5.577   1.705   0.203
 4826SOL    HW215378   5.616   1.791   0.070
 4827SOL     OW15379   6.380   1.636   0.762
 4827SOL    HW115380   6.457   1.581   0.731
 4827SOL    HW215381   6.296   1.582   0.757
 4828SOL     OW15382   5.028   2.650   1.151
 4828SOL    HW115383   4.945   2.615   1.108
 4828SOL    HW215384   5.045   2.600   1.236
 4829SOL     OW15385   3.947   6.358   6.002
 4829SOL    HW115386   3.962   6.259   6.005
 4829SOL    HW215387   3.876   6.383   6.069
 4830SOL     OW15388   4.363   6.561   4.226
 4830SOL    HW115389   4.320   6.499   4.293
 4830SOL    HW215390   4.318   6.550   4.137
 4831SOL     OW15391   1.135   4.139   6.437
 4831SOL    HW115392   1.084   4.199   6.374
 4831SOL    HW215393   1.173   4.062   6.386
 4832SOL     OW15394   4.142   3.638   3.815
 4832SOL    HW115395   4.051   3.604   3.839
 4832SOL    HW215396   4.157   3.727   3.859
 4833SOL     OW15397   4.957   1.960   2.885
 4833SOL    HW115398   5.026   1.918   2.945
 4833SOL    HW215399   4.866   1.934   2.917
 4834SOL     OW15400   3.191   6.555   1.153
 4834SOL    HW115401   3.168   6.616   1.077
 4834SOL    HW215402   3.107   6.529   1.202
 4835SOL     OW15403   5.873   1.946   6.897
 4835SOL    HW115404   5.812   1.969   6.973
 4835SOL    HW215405   5.819   1.913   6.820
 4836SOL     OW15406   4.953   2.321   4.868
 4836SOL    HW115407   4.870   2.377   4.874
 4836SOL    HW215408   4.927   2.224   4.865
 4837SOL     OW15409   6.906   3.524   3.187
 4837SOL    HW115410   6.810   3.507   3.163
 4837SOL    HW215411   6.922   3.495   3.281
 4838SOL     OW15412   1.007   5.483   0.319
 4838SOL    HW115413   1.060   5.554   0.272
 4838SOL    HW215414   1.040   5.393   0.292
 4839SOL     OW15415   1.590   3.245   0.009
 4839SOL    HW115416   1.684   3.226   0.039
 4839SOL    HW215417   1.537   3.160   0.012
 4840SOL     OW15418   6.752   4.620   6.869
 4840SOL    HW115419   6.669   4.613   6.814
 4840SOL    HW215420   6.796   4.709   6.853
 4841SOL     OW15421   2.200   5.210   2.298
 4841SOL    HW115422   2.116   5.209   2.352
 4841SOL    HW215423   2.279   5.199   2.358
 4842SOL     OW15424   3.683   5.432   2.162
 4842SOL    HW115425   3.683   5.364   2.089
 4842SOL    HW215426   3.777   5.447   2.193
 4843SOL     OW15427   6.371   3.460   1.492
 4843SOL    HW115428   6.438   3.412   1.548
 4843SOL    HW215429   6.406   3.468   1.399
 4844SOL     OW15430   0.647   2.976   6.750
 4844SOL    HW115431   0.663   3.032   6.831
 4844SOL    HW215432   0.612   3.034   6.676
 4845SOL     OW15433   4.928   5.357   6.487
 4845SOL    HW115434   4.890   5.275   6.443
 4845SOL    HW215435   4.906   5.437   6.432
 4846SOL     OW15436   6.421   2.324   3.815
 4846SOL    HW115437   6.499   2.264   3.831
 4846SOL    HW215438   6.451   2.419   3.820
 4847SOL     OW15439   2.342   0.108   6.407
 4847SOL    HW115440   2.298   0.159   6.480
 4847SOL    HW215441   2.298   0.019   6.398
 4848SOL     OW15442   1.732   1.004   4.718
 4848SOL    HW115443   1.657   1.014   4.653
 4848SOL    HW215444   1.761   0.909   4.722
 4849SOL     OW15445   0.884   6.196   6.508
 4849SOL    HW115446   0.888   6.097   6.494
 4849SOL    HW215447   0.975   6.231   6.530
 4850SOL     OW15448   4.162   1.070   1.889
 4850SOL    HW115449   4.215   0.988   1.873
 4850SOL    HW215450   4.222   1.143   1.922
 4851SOL     OW15451   3.632   6.843   5.672
 4851SOL    HW115452   3.630   6.824   5.770
 4851SOL    HW215453   3.605   6.762   5.621
 4852SOL     OW15454   1.904   5.780   5.250
 4852SOL    HW115455   1.847   5.717   5.303
 4852SOL    HW215456   1.917   5.743   5.158
 4853SOL     OW15457   2.851   1.365   3.692
 4853SOL    HW115458   2.832   1.435   3.623
 4853SOL    HW215459   2.912   1.296   3.654
 4854SOL     OW15460   4.553   6.346   2.040
 4854SOL    HW115461   4.457   6.340   2.067
 4854SOL    HW215462   4.560   6.390   1.950
 4855SOL     OW15463   5.691   2.752   3.963
 4855SOL    HW115464   5.764   2.776   4.026
 4855SOL    HW215465   5.660   2.658   3.982
 4856SOL     OW15466   1.693   3.117   2.769
 4856SOL    HW115467   1.738   3.203   2.746
 4856SOL    HW215468   1.595   3.132   2.777
 4857SOL     OW15469   3.132   2.172   3.931
 4857SOL    HW115470   3.072   2.195   4.007
 4857SOL    HW215471   3.077   2.159   3.848
 4858SOL     OW15472   0.195   0.219   4.997
 4858SOL    HW115473   0.216   0.249   4.904
 4858SOL    HW215474   0.107   0.257   5.025
 4859SOL     OW15475   0.710   5.543   3.075
 4859SOL    HW115476   0.720   5.485   3.156
 4859SOL    HW215477   0.615   5.542   3.044
 4860SOL     OW15478   4.356   5.060   0.534
 4860SOL    HW115479   4.350   4.987   0.603
 4860SOL    HW215480   4.363   5.019   0.443
 4861SOL     OW15481   5.956   5.093   6.806
 4861SOL    HW115482   5.889   5.051   6.745
 4861SOL    HW215483   6.039   5.038   6.807
 4862SOL     OW15484   1.605   4.514   4.841
 4862SOL    HW115485   1.612   4.493   4.743
 4862SOL    HW215486   1.681   4.471   4.889
 4863SOL     OW15487   5.028   3.983   1.712
 4863SOL    HW115488   5.036   3.947   1.804
 4863SOL    HW215489   5.064   3.916   1.647
 4864SOL     OW15490   3.599   1.761   2.359
 4864SOL    HW115491   3.591   1.856   2.388
 4864SOL    HW215492   3.616   1.757   2.261
 4865SOL     OW15493   2.089   6.487   4.529
 4865SOL    HW115494   2.188   6.488   4.511
 4865SOL    HW215495   2.071   6.440   4.615
 4866SOL     OW15496   6.613   4.146   1.351
 4866SOL    HW115497   6.537   4.202   1.317
 4866SOL    HW215498   6.669   4.200   1.414
 4867SOL     OW15499   4.959   5.718   2.260
 4867SOL    HW115500   4.920   5.653   2.195
 4867SOL    HW215501   5.039   5.762   2.218
 4868SOL     OW15502   0.210   5.243   1.901
 4868SOL    HW115503   0.227   5.150   1.868
 4868SOL    HW215504   0.257   5.308   1.842
 4869SOL     OW15505   0.176   2.002   1.788
 4869SOL    HW115506   0.138   1.980   1.698
 4869SOL    HW215507   0.252   2.067   1.777
 4870SOL     OW15508   6.798   5.790   1.885
 4870SOL    HW115509   6.781   5.832   1.796
 4870SOL    HW215510   6.893   5.803   1.911
 4871SOL     OW15511   0.698   1.725   4.897
 4871SOL    HW115512   0.608   1.726   4.853
 4871SOL    HW215513   0.722   1.631   4.922
 4872SOL     OW15514   0.022   5.769   4.256
 4872SOL    HW115515   6.989   5.831   4.313
 4872SOL    HW215516   0.030   5.807   4.164
 4873SOL     OW15517   6.652   5.049   4.128
 4873SOL    HW115518   6.614   5.006   4.210
 4873SOL    HW215519   6.622   4.997   4.047
 4874SOL     OW15520   5.786   3.325   3.433
 4874SOL    HW115521   5.869   3.313   3.488
 4874SOL    HW215522   5.807   3.311   3.337
 4875SOL     OW15523   5.451   3.360   1.595
 4875SOL    HW115524   5.487   3.338   1.504
 4875SOL    HW215525   5.467   3.283   1.657
 4876SOL     OW15526   5.614   1.092   3.860
 4876SOL    HW115527   5.527   1.057   3.825
 4876SOL    HW215528   5.596   1.166   3.925
 4877SOL     OW15529   0.048   1.877   0.166
 4877SOL    HW115530   0.022   1.781   0.174
 4877SOL    HW215531   0.047   1.919   0.257
 4878SOL     OW15532   6.001   1.012   2.994
 4878SOL    HW115533   5.997   1.059   2.906
 4878SOL    HW215534   5.996   0.914   2.980
 4879SOL     OW15535   4.746   5.514   3.400
 4879SOL    HW115536   4.656   5.484   3.432
 4879SOL    HW215537   4.808   5.520   3.478
 4880SOL     OW15538   5.797   3.297   6.624
 4880SOL    HW115539   5.727   3.235   6.659
 4880SOL    HW215540   5.790   3.385   6.672
 4881SOL     OW15541   2.100   6.617   0.041
 4881SOL    HW115542   2.064   6.571   6.981
 4881SOL    HW215543   2.190   6.579   0.063
 4882SOL     OW15544   5.618   1.627   3.951
 4882SOL    HW115545   5.688   1.583   4.008
 4882SOL    HW215546   5.661   1.675   3.875
 4883SOL     OW15547   4.869   4.953   2.497
 4883SOL    HW115548   4.952   5.006   2.512
 4883SOL    HW215549   4.812   4.955   2.579
 4884SOL     OW15550   3.977   0.376   0.847
 4884SOL    HW115551   3.954   0.404   0.940
 4884SOL    HW215552   3.926   0.294   0.823
 4885SOL     OW15553   2.704   5.827   1.931
 4885SOL    HW115554   2.624   5.879   1.960
 4885SOL    HW215555   2.676   5.750   1.873
 4886SOL     OW15556   6.768   5.878   6.952
 4886SOL    HW115557   6.768   5.963   7.004
 4886SOL    HW215558   6.717   5.808   7.002
 4887SOL     OW15559   6.839   0.411   3.371
 4887SOL    HW115560   6.926   0.369   3.346
 4887SOL    HW215561   6.833   0.420   3.470
 4888SOL     OW15562   2.258   6.360   4.276
 4888SOL    HW115563   2.164   6.335   4.300
 4888SOL    HW215564   2.307   6.278   4.245
 4889SOL     OW15565   6.134   0.778   6.679
 4889SOL    HW115566   6.190   0.858   6.698
 4889SOL    HW215567   6.044   0.806   6.648
 4890SOL     OW15568   0.335   1.711   5.646
 4890SOL    HW115569   0.242   1.745   5.660
 4890SOL    HW215570   0.397   1.788   5.630
 4891SOL     OW15571   1.691   5.713   0.474
 4891SOL    HW115572   1.776   5.674   0.438
 4891SOL    HW215573   1.616   5.694   0.411
 4892SOL     OW15574   2.316   6.161   1.519
 4892SOL    HW115575   2.368   6.104   1.581
 4892SOL    HW215576   2.246   6.212   1.570
 4893SOL     OW15577   0.061   4.389   1.032
 4893SOL    HW115578   0.058   4.415   1.129
 4893SOL    HW215579   0.155   4.367   1.006
 4894SOL     OW15580   2.269   2.140   2.307
 4894SOL    HW115581   2.208   2.174   2.379
 4894SOL    HW215582   2.230   2.058   2.266
 4895SOL     OW15583   0.734   5.134   2.766
 4895SOL    HW115584   0.817   5.183   2.795
 4895SOL    HW215585   0.735   5.042   2.803
 4896SOL     OW15586   2.308   5.097   1.818
 4896SOL    HW115587   2.317   5.190   1.782
 4896SOL    HW215588   2.313   5.100   1.918
 4897SOL     OW15589   2.163   4.818   5.894
 4897SOL    HW115590   2.101   4.781   5.963
 4897SOL    HW215591   2.253   4.832   5.934
 4898SOL     OW15592   4.324   0.945   4.307
 4898SOL    HW115593   4.227   0.967   4.318
 4898SOL    HW215594   4.380   1.013   4.355
 4899SOL     OW15595   6.290   4.862   3.190
 4899SOL    HW115596   6.323   4.770   3.167
 4899SOL    HW215597   6.193   4.868   3.168
 4900SOL     OW15598   2.069   5.349   4.966
 4900SOL    HW115599   2.123   5.266   4.980
 4900SOL    HW215600   1.972   5.327   4.978
 4901SOL     OW15601   3.017   6.752   5.494
 4901SOL    HW115602   2.920   6.729   5.484
 4901SOL    HW215603   3.032   6.845   5.461
 4902SOL     OW15604   2.442   2.483   4.731
 4902SOL    HW115605   2.376   2.445   4.797
 4902SOL    HW215606   2.526   2.508   4.780
 4903SOL     OW15607   2.937   6.013   6.426
 4903SOL    HW115608   2.901   5.920   6.421
 4903SOL    HW215609   2.993   6.032   6.345
 4904SOL     OW15610   1.402   0.261   4.090
 4904SOL    HW115611   1.384   0.292   4.183
 4904SOL    HW215612   1.361   0.171   4.076
 4905SOL     OW15613   4.305   1.000   2.231
 4905SOL    HW115614   4.299   1.093   2.266
 4905SOL    HW215615   4.247   0.939   2.286
 4906SOL     OW15616   4.327   1.810   6.691
 4906SOL    HW115617   4.258   1.740   6.675
 4906SOL    HW215618   4.333   1.871   6.612
 4907SOL     OW15619   5.148   6.086   1.089
 4907SOL    HW115620   5.062   6.035   1.091
 4907SOL    HW215621   5.211   6.049   1.157
 4908SOL     OW15622   4.790   5.130   6.387
 4908SOL    HW115623   4.776   5.050   6.444
 4908SOL    HW215624   4.715   5.137   6.321
 4909SOL     OW15625   6.891   0.067   5.041
 4909SOL    HW115626   6.899   0.165   5.058
 4909SOL    HW215627   6.797   0.038   5.060
 4910SOL     OW15628   5.229   6.477   4.335
 4910SOL    HW115629   5.131   6.497   4.340
 4910SOL    HW215630   5.261   6.444   4.424
 4911SOL     OW15631   6.912   3.025   5.572
 4911SOL    HW115632   6.870   3.112   5.597
 4911SOL    HW215633   6.858   2.981   5.500
 4912SOL     OW15634   5.401   2.687   1.418
 4912SOL    HW115635   5.496   2.666   1.395
 4912SOL    HW215636   5.399   2.743   1.500
 4913SOL     OW15637   3.729   3.198   3.579
 4913SOL    HW115638   3.635   3.164   3.571
 4913SOL    HW215639   3.748   3.263   3.505
 4914SOL     OW15640   3.335   6.946   4.904
 4914SOL    HW115641   3.415   6.974   4.956
 4914SOL    HW215642   3.319   6.848   4.918
 4915SOL     OW15643   4.323   0.678   4.293
 4915SOL    HW115644   4.312   0.657   4.390
 4915SOL    HW215645   4.319   0.777   4.280
 4916SOL     OW15646   1.971   1.662   3.884
 4916SOL    HW115647   1.923   1.749   3.872
 4916SOL    HW215648   1.905   1.587   3.880
 4917SOL     OW15649   1.601   4.705   0.547
 4917SOL    HW115650   1.603   4.614   0.504
 4917SOL    HW215651   1.649   4.702   0.634
 4918SOL     OW15652   2.901   6.329   2.412
 4918SOL    HW115653   2.981   6.387   2.394
 4918SOL    HW215654   2.909   6.245   2.358
 4919SOL     OW15655   1.786   1.499   6.931
 4919SOL    HW115656   1.790   1.430   7.003
 4919SOL    HW215657   1.725   1.573   6.960
 4920SOL     OW15658   4.685   0.540   5.977
 4920SOL    HW115659   4.693   0.444   5.949
 4920SOL    HW215660   4.589   0.567   5.977
 4921SOL     OW15661   2.061   4.176   0.794
 4921SOL    HW115662   2.036   4.222   0.709
 4921SOL    HW215663   1.989   4.190   0.862
 4922SOL     OW15664   2.011   2.926   4.483
 4922SOL    HW115665   2.102   2.919   4.524
 4922SOL    HW215666   1.964   3.007   4.521
 4923SOL     OW15667   3.295   1.279   0.650
 4923SOL    HW115668   3.307   1.236   0.740
 4923SOL    HW215669   3.247   1.366   0.661
 4924SOL     OW15670   1.862   2.434   6.070
 4924SOL    HW115671   1.938   2.369   6.062
 4924SOL    HW215672   1.869   2.483   6.157
 4925SOL     OW15673   5.967   6.731   1.874
 4925SOL    HW115674   5.893   6.704   1.936
 4925SOL    HW215675   5.931   6.796   1.807
 4926SOL     OW15676   5.372   2.568   0.586
 4926SOL    HW115677   5.445   2.574   0.653
 4926SOL    HW215678   5.374   2.647   0.525
 4927SOL     OW15679   4.054   3.791   4.487
 4927SOL    HW115680   3.958   3.815   4.474
 4927SOL    HW215681   4.090   3.839   4.567
 4928SOL     OW15682   0.074   0.594   6.247
 4928SOL    HW115683   0.017   0.540   6.309
 4928SOL    HW215684   0.018   0.628   6.172
 4929SOL     OW15685   1.423   4.708   4.726
 4929SOL    HW115686   1.361   4.747   4.795
 4929SOL    HW215687   1.486   4.644   4.771
 4930SOL     OW15688   5.073   0.972   1.641
 4930SOL    HW115689   5.037   0.949   1.732
 4930SOL    HW215690   5.043   0.903   1.575
 4931SOL     OW15691   6.703   0.025   1.562
 4931SOL    HW115692   6.682   0.089   1.488
 4931SOL    HW215693   6.800   0.031   1.584
 4932SOL     OW15694   2.238   2.617   2.083
 4932SOL    HW115695   2.181   2.595   2.004
 4932SOL    HW215696   2.333   2.588   2.065
 4933SOL     OW15697   2.501   6.645   3.599
 4933SOL    HW115698   2.402   6.634   3.600
 4933SOL    HW215699   2.527   6.710   3.528
 4934SOL     OW15700   1.559   4.743   3.034
 4934SOL    HW115701   1.475   4.691   3.020
 4934SOL    HW215702   1.636   4.695   2.993
 4935SOL     OW15703   1.124   1.453   6.583
 4935SOL    HW115704   1.183   1.435   6.661
 4935SOL    HW215705   1.156   1.535   6.535
 4936SOL     OW15706   2.202   5.011   1.596
 4936SOL    HW115707   2.103   5.007   1.585
 4936SOL    HW215708   2.225   5.045   1.687
 4937SOL     OW15709   6.661   3.374   6.105
 4937SOL    HW115710   6.670   3.350   6.009
 4937SOL    HW215711   6.574   3.421   6.119
 4938SOL     OW15712   2.520   5.853   7.005
 4938SOL    HW115713   2.616   5.842   6.979
 4938SOL    HW215714   2.509   5.834   0.082
 4939SOL     OW15715   0.558   1.640   3.940
 4939SOL    HW115716   0.614   1.628   4.021
 4939SOL    HW215717   0.569   1.733   3.905
 4940SOL     OW15718   0.585   1.498   5.371
 4940SOL    HW115719   0.604   1.572   5.435
 4940SOL    HW215720   0.668   1.476   5.320
 4941SOL     OW15721   4.462   2.775   5.469
 4941SOL    HW115722   4.401   2.803   5.394
 4941SOL    HW215723   4.553   2.758   5.433
 4942SOL     OW15724   5.348   2.873   5.358
 4942SOL    HW115725   5.290   2.898   5.280
 4942SOL    HW215726   5.441   2.907   5.342
 4943SOL     OW15727   5.279   4.390   6.227
 4943SOL    HW115728   5.225   4.391   6.143
 4943SOL    HW215729   5.328   4.303   6.235
 4944SOL     OW15730   2.658   4.154   1.685
 4944SOL    HW115731   2.593   4.212   1.735
 4944SOL    HW215732   2.609   4.100   1.617
 4945SOL     OW15733   1.232   6.889   4.651
 4945SOL    HW115734   1.222   6.789   4.646
 4945SOL    HW215735   1.223   6.927   4.559
 4946SOL     OW15736   1.065   5.516   6.657
 4946SOL    HW115737   1.009   5.444   6.616
 4946SOL    HW215738   1.059   5.510   6.757
 4947SOL     OW15739   2.309   0.364   0.819
 4947SOL    HW115740   2.352   0.440   0.769
 4947SOL    HW215741   2.242   0.319   0.760
 4948SOL     OW15742   2.384   2.416   2.938
 4948SOL    HW115743   2.285   2.433   2.939
 4948SOL    HW215744   2.424   2.461   2.857
 4949SOL     OW15745   6.436   4.777   5.351
 4949SOL    HW115746   6.508   4.834   5.391
 4949SOL    HW215747   6.389   4.727   5.423
 4950SOL     OW15748   1.978   4.433   4.892
 4950SOL    HW115749   2.010   4.435   4.797
 4950SOL    HW215750   1.986   4.340   4.927
 4951SOL     OW15751   6.076   1.544   3.861
 4951SOL    HW115752   6.136   1.534   3.781
 4951SOL    HW215753   5.981   1.554   3.830
 4952SOL     OW15754   6.906   7.008   6.117
 4952SOL    HW115755   6.943   0.077   6.142
 4952SOL    HW215756   6.970   6.962   6.055
 4953SOL     OW15757   1.689   6.754   3.458
 4953SOL    HW115758   1.662   6.821   3.528
 4953SOL    HW215759   1.620   6.751   3.387
 4954SOL     OW15760   2.824   3.246   0.044
 4954SOL    HW115761   2.732   3.225   0.012
 4954SOL    HW215762   2.871   3.303   6.997
 4955SOL     OW15763   3.371   6.924   0.024
 4955SOL    HW115764   3.377   7.014   0.066
 4955SOL    HW215765   3.337   6.858   0.091
 4956SOL     OW15766   2.807   0.059   5.703
 4956SOL    HW115767   2.795   0.050   5.802
 4956SOL    HW215768   2.728   0.108   5.666
 4957SOL     OW15769   5.913   2.248   1.934
 4957SOL    HW115770   6.013   2.250   1.928
 4957SOL    HW215771   5.875   2.218   1.846
 4958SOL     OW15772   0.939   5.122   5.724
 4958SOL    HW115773   0.842   5.100   5.730
 4958SOL    HW215774   0.974   5.143   5.816
 4959SOL     OW15775   6.291   2.008   0.791
 4959SOL    HW115776   6.353   1.960   0.854
 4959SOL    HW215777   6.306   2.107   0.799
 4960SOL     OW15778   4.193   4.850   3.418
 4960SOL    HW115779   4.094   4.841   3.422
 4960SOL    HW215780   4.226   4.824   3.328
 4961SOL     OW15781   3.954   0.898   5.565
 4961SOL    HW115782   3.936   0.816   5.510
 4961SOL    HW215783   4.040   0.940   5.536
 4962SOL     OW15784   5.997   2.982   0.465
 4962SOL    HW115785   6.031   3.077   0.469
 4962SOL    HW215786   6.072   2.920   0.486
 4963SOL     OW15787   0.699   6.504   0.783
 4963SOL    HW115788   0.699   6.479   0.686
 4963SOL    HW215789   0.692   6.603   0.792
 4964SOL     OW15790   2.525   6.959   4.879
 4964SOL    HW115791   2.597   0.005   4.859
 4964SOL    HW215792   2.492   6.972   4.973
 4965SOL     OW15793   0.702   0.352   2.307
 4965SOL    HW115794   0.648   0.275   2.273
 4965SOL    HW215795   0.642   0.431   2.322
 4966SOL     OW15796   2.775   6.525   5.110
 4966SOL    HW115797   2.706   6.553   5.177
 4966SOL    HW215798   2.846   6.471   5.155
 4967SOL     OW15799   3.814   4.753   5.223
 4967SOL    HW115800   3.830   4.655   5.234
 4967SOL    HW215801   3.899   4.803   5.237
 4968SOL     OW15802   0.431   0.971   3.248
 4968SOL    HW115803   0.400   1.017   3.165
 4968SOL    HW215804   0.437   1.036   3.323
 4969SOL     OW15805   1.813   5.373   2.888
 4969SOL    HW115806   1.891   5.389   2.948
 4969SOL    HW215807   1.749   5.309   2.931
 4970SOL     OW15808   2.467   2.096   1.813
 4970SOL    HW115809   2.463   1.998   1.830
 4970SOL    HW215810   2.544   2.136   1.864
 4971SOL     OW15811   5.459   5.475   3.228
 4971SOL    HW115812   5.518   5.510   3.154
 4971SOL    HW215813   5.498   5.390   3.264
 4972SOL     OW15814   0.821   3.598   1.545
 4972SOL    HW115815   0.829   3.498   1.548
 4972SOL    HW215816   0.732   3.625   1.582
 4973SOL     OW15817   1.052   6.904   2.225
 4973SOL    HW115818   0.974   6.965   2.239
 4973SOL    HW215819   1.020   6.814   2.197
 4974SOL     OW15820   0.147   4.528   1.301
 4974SOL    HW115821   0.050   4.527   1.327
 4974SOL    HW215822   0.193   4.448   1.339
 4975SOL     OW15823   5.781   4.139   5.962
 4975SOL    HW115824   5.841   4.063   5.937
 4975SOL    HW215825   5.790   4.213   5.895
 4976SOL     OW15826   2.090   1.839   4.099
 4976SOL    HW115827   2.025   1.861   4.027
 4976SOL    HW215828   2.180   1.823   4.060
 4977SOL     OW15829   4.304   4.471   6.941
 4977SOL    HW115830   4.285   4.434   6.850
 4977SOL    HW215831   4.314   4.571   6.935
 4978SOL     OW15832   6.308   4.497   5.241
 4978SOL    HW115833   6.400   4.531   5.262
 4978SOL    HW215834   6.250   4.507   5.321
 4979SOL     OW15835   6.577   6.736   5.761
 4979SOL    HW115836   6.587   6.719   5.859
 4979SOL    HW215837   6.629   6.818   5.736
 4980SOL     OW15838   5.282   5.775   3.104
 4980SOL    HW115839   5.344   5.737   3.035
 4980SOL    HW215840   5.305   5.871   3.120
 4981SOL     OW15841   3.985   5.131   0.999
 4981SOL    HW115842   4.023   5.179   1.078
 4981SOL    HW215843   3.934   5.196   0.942
 4982SOL     OW15844   2.767   1.403   5.437
 4982SOL    HW115845   2.818   1.460   5.501
 4982SOL    HW215846   2.790   1.306   5.453
 4983SOL     OW15847   6.199   3.532   5.899
 4983SOL    HW115848   6.199   3.618   5.849
 4983SOL    HW215849   6.151   3.462   5.846
 4984SOL     OW15850   5.600   4.520   3.284
 4984SOL    HW115851   5.608   4.619   3.274
 4984SOL    HW215852   5.570   4.498   3.377
 4985SOL     OW15853   5.341   0.230   3.052
 4985SOL    HW115854   5.406   0.273   2.990
 4985SOL    HW215855   5.390   0.179   3.122
 4986SOL     OW15856   0.212   4.779   1.315
 4986SOL    HW115857   0.177   4.855   1.261
 4986SOL    HW215858   0.163   4.695   1.291
 4987SOL     OW15859   0.321   6.902   2.489
 4987SOL    HW115860   0.417   6.897   2.461
 4987SOL    HW215861   0.315   6.946   2.578
 4988SOL     OW15862   5.127   0.618   2.504
 4988SOL    HW115863   5.050   0.656   2.451
 4988SOL    HW215864   5.094   0.542   2.560
 4989SOL     OW15865   5.505   6.410   1.919
 4989SOL    HW115866   5.431   6.382   1.858
 4989SOL    HW215867   5.478   6.393   2.014
 4990SOL     OW15868   2.625   2.343   5.760
 4990SOL    HW115869   2.647   2.431   5.803
 4990SOL    HW215870   2.526   2.336   5.748
 4991SOL     OW15871   6.351   5.668   3.455
 4991SOL    HW115872   6.338   5.697   3.360
 4991SOL    HW215873   6.429   5.607   3.461
 4992SOL     OW15874   4.978   0.809   1.940
 4992SOL    HW115875   4.950   0.761   1.857
 4992SOL    HW215876   4.944   0.904   1.936
 4993SOL     OW15877   3.310   5.473   4.874
 4993SOL    HW115878   3.281   5.442   4.784
 4993SOL    HW215879   3.349   5.395   4.925
 4994SOL     OW15880   2.123   0.187   4.150
 4994SOL    HW115881   2.056   0.243   4.102
 4994SOL    HW215882   2.083   0.149   4.233
 4995SOL     OW15883   0.515   2.055   5.274
 4995SOL    HW115884   0.573   2.073   5.195
 4995SOL    HW215885   0.458   1.975   5.256
 4996SOL     OW15886   0.456   0.816   2.952
 4996SOL    HW115887   0.475   0.726   2.911
 4996SOL    HW215888   0.371   0.812   3.004
 4997SOL     OW15889   4.793   2.466   2.480
 4997SOL    HW115890   4.802   2.366   2.484
 4997SOL    HW215891   4.701   2.492   2.509
 4998SOL     OW15892   2.121   3.708   4.603
 4998SOL    HW115893   2.140   3.753   4.690
 4998SOL    HW215894   2.198   3.723   4.541
 4999SOL     OW15895   6.776   4.005   6.523
 4999SOL    HW115896   6.801   3.982   6.617
 4999SOL    HW215897   6.761   3.921   6.471
 5000SOL     OW15898   4.165   6.540   3.335
 5000SOL    HW115899   4.074   6.579   3.340
 5000SOL    HW215900   4.198   6.520   3.428
 5001SOL     OW15901   0.464   4.110   2.156
 5001SOL    HW115902   0.426   4.057   2.231
 5001SOL    HW215903   0.497   4.048   2.085
 5002SOL     OW15904   0.465   3.204   1.902
 5002SOL    HW115905   0.494   3.293   1.937
 5002SOL    HW215906   0.383   3.216   1.846
 5003SOL     OW15907   2.897   5.513   2.480
 5003SOL    HW115908   2.912   5.582   2.551
 5003SOL    HW215909   2.868   5.427   2.523
 5004SOL     OW15910   2.548   4.984   5.481
 5004SOL    HW115911   2.498   5.070   5.496
 5004SOL    HW215912   2.537   4.955   5.386
 5005SOL     OW15913   3.225   2.881   1.026
 5005SOL    HW115914   3.314   2.924   1.010
 5005SOL    HW215915   3.153   2.948   1.007
 5006SOL     OW15916   4.939   0.573   0.969
 5006SOL    HW115917   4.933   0.485   0.922
 5006SOL    HW215918   4.900   0.644   0.911
 5007SOL     OW15919   0.897   6.823   0.616
 5007SOL    HW115920   0.814   6.769   0.616
 5007SOL    HW215921   0.930   6.834   0.522
 5008SOL     OW15922   5.663   6.472   1.665
 5008SOL    HW115923   5.615   6.440   1.747
 5008SOL    HW215924   5.660   6.401   1.595
 5009SOL     OW15925   0.373   1.376   0.863
 5009SOL    HW115926   0.347   1.320   0.941
 5009SOL    HW215927   0.460   1.422   0.883
 5010SOL     OW15928   3.906   2.989   2.375
 5010SOL    HW115929   3.979   3.000   2.308
 5010SOL    HW215930   3.926   3.043   2.456
 5011SOL     OW15931   1.304   4.104   2.278
 5011SOL    HW115932   1.275   4.192   2.242
 5011SOL    HW215933   1.231   4.037   2.265
 5012SOL     OW15934   5.671   4.413   6.003
 5012SOL    HW115935   5.686   4.443   5.909
 5012SOL    HW215936   5.687   4.315   6.010
 5013SOL     OW15937   5.104   1.366   0.340
 5013SOL    HW115938   5.137   1.275   0.316
 5013SOL    HW215939   5.010   1.377   0.308
 5014SOL     OW15940   6.525   4.555   0.666
 5014SOL    HW115941   6.432   4.576   0.635
 5014SOL    HW215942   6.571   4.639   0.693
 5015SOL     OW15943   4.567   1.698   4.471
 5015SOL    HW115944   4.506   1.627   4.433
 5015SOL    HW215945   4.515   1.756   4.533
 5016SOL     OW15946   1.388   2.721   6.864
 5016SOL    HW115947   1.427   2.798   6.814
 5016SOL    HW215948   1.446   2.699   6.943
 5017SOL     OW15949   2.101   2.719   1.130
 5017SOL    HW115950   2.032   2.783   1.098
 5017SOL    HW215951   2.192   2.760   1.118
 5018SOL     OW15952   1.306   3.742   2.337
 5018SOL    HW115953   1.254   3.664   2.370
 5018SOL    HW215954   1.243   3.812   2.304
 5019SOL     OW15955   1.109   4.828   5.846
 5019SOL    HW115956   1.130   4.923   5.823
 5019SOL    HW215957   1.033   4.796   5.789
 5020SOL     OW15958   5.145   0.153   6.747
 5020SOL    HW115959   5.107   0.218   6.813
 5020SOL    HW215960   5.213   0.096   6.791
 5021SOL     OW15961   0.646   1.220   0.431
 5021SOL    HW115962   0.712   1.206   0.504
 5021SOL    HW215963   0.625   1.317   0.423
 5022SOL     OW15964   1.158   1.298   0.218
 5022SOL    HW115965   1.200   1.266   0.302
 5022SOL    HW215966   1.218   1.364   0.173
 5023SOL     OW15967   6.923   3.181   1.190
 5023SOL    HW115968   6.864   3.222   1.121
 5023SOL    HW215969   6.876   3.103   1.232
 5024SOL     OW15970   6.448   5.505   1.823
 5024SOL    HW115971   6.496   5.465   1.745
 5024SOL    HW215972   6.469   5.603   1.828
 5025SOL     OW15973   3.606   1.770   2.087
 5025SOL    HW115974   3.574   1.689   2.037
 5025SOL    HW215975   3.616   1.846   2.023
 5026SOL     OW15976   6.201   6.147   5.529
 5026SOL    HW115977   6.286   6.143   5.477
 5026SOL    HW215978   6.211   6.094   5.613
 5027SOL     OW15979   6.978   6.458   1.816
 5027SOL    HW115980   0.041   6.513   1.817
 5027SOL    HW215981   6.901   6.515   1.846
 5028SOL     OW15982   0.286   2.133   2.466
 5028SOL    HW115983   0.191   2.150   2.440
 5028SOL    HW215984   0.337   2.100   2.386
 5029SOL     OW15985   6.594   1.994   2.300
 5029SOL    HW115986   6.601   1.929   2.225
 5029SOL    HW215987   6.640   1.958   2.381
 5030SOL     OW15988   0.237   6.807   0.478
 5030SOL    HW115989   0.220   6.721   0.430
 5030SOL    HW215990   0.332   6.809   0.509
 5031SOL     OW15991   6.060   0.302   5.588
 5031SOL    HW115992   6.084   0.396   5.566
 5031SOL    HW215993   6.137   0.257   5.633
 5032SOL     OW15994   2.145   1.822   0.605
 5032SOL    HW115995   2.123   1.826   0.702
 5032SOL    HW215996   2.241   1.846   0.591
 5033SOL     OW15997   1.972   0.174   5.642
 5033SOL    HW115998   2.046   0.121   5.601
 5033SOL    HW215999   1.969   0.265   5.601
 5034SOL     OW16000   5.747   0.456   3.248
 5034SOL    HW116001   5.702   0.485   3.164
 5034SOL    HW216002   5.724   0.519   3.323
 5035SOL     OW16003   0.977   3.781   0.365
 5035SOL    HW116004   1.003   3.877   0.359
 5035SOL    HW216005   1.056   3.723   0.344
 5036SOL     OW16006   0.813   4.766   6.758
 5036SOL    HW116007   0.750   4.739   6.831
 5036SOL    HW216008   0.877   4.692   6.740
 5037SOL     OW16009   5.246   4.343   2.395
 5037SOL    HW116010   5.286   4.435   2.397
 5037SOL    HW216011   5.262   4.301   2.306
 5038SOL     OW16012   3.576   3.771   6.156
 5038SOL    HW116013   3.609   3.698   6.216
 5038SOL    HW216014   3.555   3.733   6.066
 5039SOL     OW16015   2.980   4.385   5.634
 5039SOL    HW116016   2.957   4.428   5.721
 5039SOL    HW216017   3.076   4.354   5.636
 5040SOL     OW16018   1.931   6.031   5.680
 5040SOL    HW116019   1.863   5.983   5.735
 5040SOL    HW216020   1.990   5.964   5.634
 5041SOL     OW16021   2.572   1.616   2.629
 5041SOL    HW116022   2.549   1.569   2.544
 5041SOL    HW216023   2.541   1.711   2.624
 5042SOL     OW16024   6.582   2.894   0.194
 5042SOL    HW116025   6.657   2.934   0.141
 5042SOL    HW216026   6.601   2.904   0.292
 5043SOL     OW16027   3.284   0.029   6.106
 5043SOL    HW116028   3.299   6.953   6.127
 5043SOL    HW216029   3.306   0.084   6.186
 5044SOL     OW16030   0.412   6.556   0.103
 5044SOL    HW116031   0.325   6.529   0.145
 5044SOL    HW216032   0.487   6.530   0.163
 5045SOL     OW16033   5.086   0.472   6.663
 5045SOL    HW116034   5.104   0.502   6.569
 5045SOL    HW216035   5.155   0.405   6.691
 5046SOL     OW16036   3.325   4.018   2.721
 5046SOL    HW116037   3.384   4.093   2.750
 5046SOL    HW216038   3.290   4.037   2.629
 5047SOL     OW16039   0.649   4.319   2.080
 5047SOL    HW116040   0.684   4.307   1.987
 5047SOL    HW216041   0.590   4.242   2.104
 5048SOL     OW16042   0.614   1.403   2.173
 5048SOL    HW116043   0.520   1.374   2.157
 5048SOL    HW216044   0.657   1.426   2.086
 5049SOL     OW16045   5.600   2.376   5.873
 5049SOL    HW116046   5.631   2.310   5.805
 5049SOL    HW216047   5.667   2.450   5.881
 5050SOL     OW16048   1.397   1.606   1.602
 5050SOL    HW116049   1.374   1.662   1.522
 5050SOL    HW216050   1.351   1.518   1.596
 5051SOL     OW16051   4.897   5.023   0.886
 5051SOL    HW116052   4.937   5.105   0.928
 5051SOL    HW216053   4.800   5.038   0.869
 5052SOL     OW16054   2.408   0.915   6.367
 5052SOL    HW116055   2.475   0.984   6.343
 5052SOL    HW216056   2.335   0.913   6.299
 5053SOL     OW16057   2.489   4.470   3.213
 5053SOL    HW116058   2.473   4.387   3.160
 5053SOL    HW216059   2.426   4.542   3.183
 5054SOL     OW16060   3.428   5.063   5.187
 5054SOL    HW116061   3.338   5.037   5.152
 5054SOL    HW216062   3.457   4.999   5.258
 5055SOL     OW16063   1.879   2.015   5.923
 5055SOL    HW116064   1.901   1.951   5.849
 5055SOL    HW216065   1.814   2.084   5.889
 5056SOL     OW16066   6.518   4.099   6.499
 5056SOL    HW116067   6.489   4.134   6.588
 5056SOL    HW216068   6.614   4.071   6.504
 5057SOL     OW16069   0.270   6.285   4.286
 5057SOL    HW116070   0.266   6.346   4.206
 5057SOL    HW216071   0.191   6.224   4.284
 5058SOL     OW16072   2.731   3.260   5.553
 5058SOL    HW116073   2.700   3.165   5.551
 5058SOL    HW216074   2.733   3.293   5.648
 5059SOL     OW16075   5.647   1.322   3.611
 5059SOL    HW116076   5.719   1.261   3.578
 5059SOL    HW216077   5.647   1.406   3.557
 5060SOL     OW16078   0.663   1.729   5.530
 5060SOL    HW116079   0.632   1.689   5.616
 5060SOL    HW216080   0.598   1.799   5.501
 5061SOL     OW16081   4.121   2.740   1.698
 5061SOL    HW116082   4.190   2.740   1.626
 5061SOL    HW216083   4.084   2.648   1.709
 5062SOL     OW16084   4.845   1.083   2.951
 5062SOL    HW116085   4.831   1.031   2.867
 5062SOL    HW216086   4.890   1.169   2.929
 5063SOL     OW16087   0.793   6.776   2.188
 5063SOL    HW116088   0.743   6.689   2.195
 5063SOL    HW216089   0.837   6.782   2.099
 5064SOL     OW16090   5.179   4.202   1.814
 5064SOL    HW116091   5.128   4.242   1.737
 5064SOL    HW216092   5.136   4.116   1.840
 5065SOL     OW16093   2.063   0.917   3.872
 5065SOL    HW116094   2.130   0.900   3.799
 5065SOL    HW216095   2.101   0.984   3.936
 5066SOL     OW16096   4.352   4.943   2.039
 5066SOL    HW116097   4.440   4.911   2.005
 5066SOL    HW216098   4.344   5.042   2.025
 5067SOL     OW16099   4.741   0.926   1.416
 5067SOL    HW116100   4.671   0.894   1.481
 5067SOL    HW216101   4.698   0.986   1.348
 5068SOL     OW16102   2.774   4.798   0.193
 5068SOL    HW116103   2.857   4.854   0.194
 5068SOL    HW216104   2.744   4.785   0.098
 5069SOL     OW16105   2.395   3.468   5.653
 5069SOL    HW116106   2.365   3.373   5.648
 5069SOL    HW216107   2.350   3.521   5.580
 5070SOL     OW16108   4.413   4.971   3.622
 5070SOL    HW116109   4.332   4.937   3.573
 5070SOL    HW216110   4.479   5.007   3.556
 5071SOL     OW16111   4.012   2.213   3.157
 5071SOL    HW116112   3.936   2.277   3.145
 5071SOL    HW216113   3.978   2.127   3.194
 5072SOL     OW16114   1.049   0.268   1.395
 5072SOL    HW116115   1.041   0.364   1.369
 5072SOL    HW216116   1.140   0.252   1.433
 5073SOL     OW16117   0.069   5.697   1.878
 5073SOL    HW116118   0.045   5.616   1.823
 5073SOL    HW216119   0.160   5.685   1.916
 5074SOL     OW16120   3.411   2.913   1.263
 5074SOL    HW116121   3.386   3.008   1.240
 5074SOL    HW216122   3.465   2.875   1.188
 5075SOL     OW16123   1.079   1.986   6.275
 5075SOL    HW116124   1.162   2.040   6.283
 5075SOL    HW216125   1.081   1.911   6.341
 5076SOL     OW16126   4.476   1.055   0.472
 5076SOL    HW116127   4.573   1.051   0.498
 5076SOL    HW216128   4.469   1.060   0.373
 5077SOL     OW16129   1.971   4.446   5.490
 5077SOL    HW116130   1.960   4.480   5.396
 5077SOL    HW216131   1.918   4.362   5.502
 5078SOL     OW16132   0.683   0.946   4.057
 5078SOL    HW116133   0.682   0.945   4.157
 5078SOL    HW216134   0.734   0.866   4.023
 5079SOL     OW16135   1.840   3.112   5.675
 5079SOL    HW116136   1.905   3.063   5.618
 5079SOL    HW216137   1.848   3.080   5.770
 5080SOL     OW16138   6.016   6.874   6.148
 5080SOL    HW116139   6.070   6.834   6.074
 5080SOL    HW216140   5.919   6.872   6.124
 5081SOL     OW16141   2.991   3.139   4.447
 5081SOL    HW116142   3.034   3.053   4.423
 5081SOL    HW216143   3.005   3.158   4.544
 5082SOL     OW16144   4.994   5.611   0.448
 5082SOL    HW116145   5.003   5.604   0.547
 5082SOL    HW216146   4.898   5.602   0.423
 5083SOL     OW16147   2.302   6.414   2.048
 5083SOL    HW116148   2.227   6.394   1.985
 5083SOL    HW216149   2.331   6.509   2.036
 5084SOL     OW16150   0.436   4.772   4.375
 5084SOL    HW116151   0.343   4.783   4.410
 5084SOL    HW216152   0.435   4.777   4.275
 5085SOL     OW16153   5.231   3.160   6.307
 5085SOL    HW116154   5.259   3.133   6.399
 5085SOL    HW216155   5.138   3.196   6.309
 5086SOL     OW16156   1.294   5.696   3.367
 5086SOL    HW116157   1.275   5.701   3.465
 5086SOL    HW216158   1.222   5.642   3.322
 5087SOL     OW16159   1.957   5.227   2.463
 5087SOL    HW116160   1.903   5.295   2.512
 5087SOL    HW216161   1.956   5.140   2.513
 5088SOL     OW16162   6.099   1.427   4.807
 5088SOL    HW116163   6.190   1.391   4.829
 5088SOL    HW216164   6.105   1.482   4.724
 5089SOL     OW16165   5.006   4.056   4.078
 5089SOL    HW116166   4.999   3.992   4.001
 5089SOL    HW216167   4.915   4.076   4.113
 5090SOL     OW16168   2.034   4.124   2.623
 5090SOL    HW116169   2.099   4.064   2.576
 5090SOL    HW216170   1.945   4.119   2.577
 5091SOL     OW16171   0.837   0.425   2.523
 5091SOL    HW116172   0.808   0.397   2.615
 5091SOL    HW216173   0.785   0.374   2.455
 5092SOL     OW16174   3.259   3.409   1.530
 5092SOL    HW116175   3.353   3.413   1.564
 5092SOL    HW216176   3.243   3.482   1.464
 5093SOL     OW16177   2.811   1.155   1.497
 5093SOL    HW116178   2.840   1.185   1.406
 5093SOL    HW216179   2.718   1.188   1.514
 5094SOL     OW16180   2.569   5.587   5.871
 5094SOL    HW116181   2.477   5.550   5.861
 5094SOL    HW216182   2.600   5.623   5.782
 5095SOL     OW16183   6.099   2.236   4.880
 5095SOL    HW116184   6.196   2.214   4.866
 5095SOL    HW216185   6.064   2.185   4.958
 5096SOL     OW16186   4.053   4.346   0.346
 5096SOL    HW116187   4.119   4.394   0.289
 5096SOL    HW216188   3.996   4.413   0.395
 5097SOL     OW16189   1.338   0.777   6.636
 5097SOL    HW116190   1.375   0.686   6.615
 5097SOL    HW216191   1.277   0.805   6.562
 5098SOL     OW16192   1.902   0.439   1.761
 5098SOL    HW116193   1.804   0.425   1.772
 5098SOL    HW216194   1.919   0.534   1.734
 5099SOL     OW16195   0.508   6.463   6.654
 5099SOL    HW116196   0.537   6.479   6.748
 5099SOL    HW216197   0.417   6.502   6.640
 5100SOL     OW16198   3.598   5.282   5.340
 5100SOL    HW116199   3.505   5.250   5.358
 5100SOL    HW216200   3.663   5.211   5.366
 5101SOL     OW16201   4.959   6.366   0.125
 5101SOL    HW116202   4.999   6.371   0.216
 5101SOL    HW216203   4.972   6.453   0.077
 5102SOL     OW16204   5.199   0.117   4.274
 5102SOL    HW116205   5.244   0.189   4.328
 5102SOL    HW216206   5.100   0.122   4.289
 5103SOL     OW16207   0.086   1.579   3.875
 5103SOL    HW116208   0.160   1.622   3.926
 5103SOL    HW216209   0.097   1.480   3.877
 5104SOL     OW16210   1.483   6.494   2.775
 5104SOL    HW116211   1.484   6.401   2.738
 5104SOL    HW216212   1.493   6.560   2.700
 5105SOL     OW16213   3.541   2.739   0.368
 5105SOL    HW116214   3.607   2.692   0.310
 5105SOL    HW216215   3.534   2.835   0.339
 5106SOL     OW16216   3.487   1.018   0.355
 5106SOL    HW116217   3.498   1.117   0.351
 5106SOL    HW216218   3.562   0.978   0.407
 5107SOL     OW16219   3.229   0.926   0.115
 5107SOL    HW116220   3.298   0.862   0.148
 5107SOL    HW216221   3.273   0.997   0.060
 5108SOL     OW16222   2.864   3.503   4.314
 5108SOL    HW116223   2.828   3.536   4.401
 5108SOL    HW216224   2.962   3.525   4.308
 5109SOL     OW16225   1.137   0.957   0.545
 5109SOL    HW116226   1.205   0.942   0.617
 5109SOL    HW216227   1.183   0.986   0.461
 5110SOL     OW16228   0.340   0.405   6.150
 5110SOL    HW116229   0.256   0.443   6.110
 5110SOL    HW216230   0.392   0.478   6.193
 5111SOL     OW16231   2.513   1.209   5.237
 5111SOL    HW116232   2.535   1.134   5.176
 5111SOL    HW216233   2.576   1.286   5.220
 5112SOL     OW16234   1.050   0.172   2.968
 5112SOL    HW116235   0.963   0.219   2.981
 5112SOL    HW216236   1.035   0.089   2.914
 5113SOL     OW16237   2.274   6.752   0.854
 5113SOL    HW116238   2.358   6.737   0.905
 5113SOL    HW216239   2.250   6.849   0.858
 5114SOL     OW16240   2.969   1.400   7.010
 5114SOL    HW116241   3.030   1.335   6.966
 5114SOL    HW216242   2.876   1.386   6.977
 5115SOL     OW16243   2.025   5.276   4.513
 5115SOL    HW116244   1.972   5.333   4.450
 5115SOL    HW216245   1.970   5.255   4.593
 5116SOL     OW16246   6.385   6.768   6.842
 5116SOL    HW116247   6.482   6.744   6.843
 5116SOL    HW216248   6.364   6.820   6.925
 5117SOL     OW16249   2.713   4.740   4.832
 5117SOL    HW116250   2.761   4.688   4.903
 5117SOL    HW216251   2.617   4.714   4.830
 5118SOL     OW16252   4.865   0.603   0.387
 5118SOL    HW116253   4.818   0.652   0.313
 5118SOL    HW216254   4.891   0.512   0.355
 5119SOL     OW16255   5.278   0.735   1.554
 5119SOL    HW116256   5.313   0.682   1.631
 5119SOL    HW216257   5.321   0.825   1.554
 5120SOL     OW16258   4.031   1.239   4.028
 5120SOL    HW116259   4.107   1.263   3.968
 5120SOL    HW216260   4.022   1.307   4.100
 5121SOL     OW16261   2.764   1.786   0.021
 5121SOL    HW116262   2.762   1.700   0.073
 5121SOL    HW216263   2.711   1.775   6.957
 5122SOL     OW16264   2.906   6.685   2.650
 5122SOL    HW116265   2.872   6.620   2.718
 5122SOL    HW216266   2.830   6.739   2.615
 5123SOL     OW16267   4.747   1.659   5.267
 5123SOL    HW116268   4.713   1.672   5.360
 5123SOL    HW216269   4.824   1.595   5.269
 5124SOL     OW16270   3.282   4.899   4.810
 5124SOL    HW116271   3.340   4.819   4.795
 5124SOL    HW216272   3.332   4.981   4.780
 5125SOL     OW16273   6.705   3.396   3.915
 5125SOL    HW116274   6.614   3.433   3.935
 5125SOL    HW216275   6.696   3.304   3.879
 5126SOL     OW16276   6.530   5.454   5.578
 5126SOL    HW116277   6.472   5.502   5.513
 5126SOL    HW216278   6.623   5.490   5.574
 5127SOL     OW16279   0.504   3.691   0.275
 5127SOL    HW116280   0.569   3.624   0.309
 5127SOL    HW216281   0.448   3.651   0.203
 5128SOL     OW16282   6.755   0.498   6.599
 5128SOL    HW116283   6.772   0.409   6.641
 5128SOL    HW216284   6.664   0.499   6.559
 5129SOL     OW16285   4.940   0.310   2.980
 5129SOL    HW116286   4.933   0.216   2.947
 5129SOL    HW216287   4.848   0.347   2.996
 5130SOL     OW16288   1.887   5.186   3.884
 5130SOL    HW116289   1.940   5.140   3.813
 5130SOL    HW216290   1.896   5.137   3.971
 5131SOL     OW16291   2.633   5.196   4.126
 5131SOL    HW116292   2.628   5.111   4.075
 5131SOL    HW216293   2.592   5.183   4.217
 5132SOL     OW16294   3.319   2.205   6.118
 5132SOL    HW116295   3.249   2.271   6.144
 5132SOL    HW216296   3.405   2.226   6.165
 5133SOL     OW16297   1.879   5.131   6.406
 5133SOL    HW116298   1.864   5.105   6.311
 5133SOL    HW216299   1.817   5.079   6.466
 5134SOL     OW16300   6.799   1.160   1.966
 5134SOL    HW116301   6.787   1.250   1.925
 5134SOL    HW216302   6.720   1.139   2.023
 5135SOL     OW16303   5.282   3.565   4.550
 5135SOL    HW116304   5.199   3.534   4.504
 5135SOL    HW216305   5.258   3.629   4.623
 5136SOL     OW16306   5.552   0.620   6.638
 5136SOL    HW116307   5.560   0.665   6.727
 5136SOL    HW216308   5.460   0.633   6.603
 5137SOL     OW16309   4.862   3.440   5.579
 5137SOL    HW116310   4.838   3.535   5.557
 5137SOL    HW216311   4.822   3.379   5.510
 5138SOL     OW16312   4.099   3.317   4.366
 5138SOL    HW116313   4.003   3.290   4.360
 5138SOL    HW216314   4.105   3.417   4.375
 5139SOL     OW16315   1.007   0.176   4.035
 5139SOL    HW116316   1.066   0.158   3.956
 5139SOL    HW216317   1.058   0.158   4.119
 5140SOL     OW16318   4.002   1.978   5.759
 5140SOL    HW116319   3.902   1.987   5.761
 5140SOL    HW216320   4.042   2.068   5.742
 5141SOL     OW16321   6.342   3.994   0.685
 5141SOL    HW116322   6.357   4.068   0.619
 5141SOL    HW216323   6.384   4.018   0.772
 5142SOL     OW16324   5.276   6.021   3.882
 5142SOL    HW116325   5.328   5.972   3.953
 5142SOL    HW216326   5.189   5.975   3.866
 5143SOL     OW16327   0.392   4.778   4.090
 5143SOL    HW116328   0.295   4.757   4.079
 5143SOL    HW216329   0.443   4.741   4.013
 5144SOL     OW16330   0.978   4.867   5.374
 5144SOL    HW116331   1.023   4.907   5.453
 5144SOL    HW216332   0.971   4.768   5.386
 5145SOL     OW16333   3.291   5.793   6.456
 5145SOL    HW116334   3.304   5.860   6.383
 5145SOL    HW216335   3.297   5.839   6.544
 5146SOL     OW16336   3.352   3.289   5.202
 5146SOL    HW116337   3.450   3.308   5.198
 5146SOL    HW216338   3.335   3.197   5.167
 5147SOL     OW16339   6.835   5.650   3.919
 5147SOL    HW116340   6.788   5.739   3.926
 5147SOL    HW216341   6.919   5.661   3.865
 5148SOL     OW16342   0.285   1.010   2.231
 5148SOL    HW116343   0.272   1.102   2.195
 5148SOL    HW216344   0.286   0.944   2.156
 5149SOL     OW16345   6.481   5.356   4.249
 5149SOL    HW116346   6.581   5.363   4.256
 5149SOL    HW216347   6.439   5.377   4.337
 5150SOL     OW16348   2.375   5.331   3.598
 5150SOL    HW116349   2.278   5.353   3.588
 5150SOL    HW216350   2.430   5.407   3.562
 5151SOL     OW16351   6.913   3.714   2.197
 5151SOL    HW116352   6.909   3.812   2.218
 5151SOL    HW216353   6.890   3.662   2.279
 5152SOL     OW16354   1.380   5.220   6.907
 5152SOL    HW116355   1.390   5.126   6.875
 5152SOL    HW216356   1.384   5.221   7.007
 5153SOL     OW16357   0.576   2.337   0.665
 5153SOL    HW116358   0.540   2.249   0.633
 5153SOL    HW216359   0.621   2.384   0.589
 5154SOL     OW16360   0.763   2.683   5.982
 5154SOL    HW116361   0.799   2.671   6.074
 5154SOL    HW216362   0.825   2.742   5.929
 5155SOL     OW16363   3.951   6.562   1.977
 5155SOL    HW116364   4.040   6.569   2.021
 5155SOL    HW216365   3.896   6.642   2.000
 5156SOL     OW16366   5.232   4.807   5.672
 5156SOL    HW116367   5.286   4.729   5.704
 5156SOL    HW216368   5.250   4.822   5.575
 5157SOL     OW16369   3.162   1.620   3.194
 5157SOL    HW116370   3.243   1.627   3.136
 5157SOL    HW216371   3.102   1.549   3.159
 5158SOL     OW16372   4.107   1.997   1.080
 5158SOL    HW116373   4.025   2.050   1.102
 5158SOL    HW216374   4.082   1.918   1.025
 5159SOL     OW16375   5.572   3.351   5.768
 5159SOL    HW116376   5.530   3.260   5.764
 5159SOL    HW216377   5.666   3.342   5.802
 5160SOL     OW16378   7.002   4.704   3.366
 5160SOL    HW116379   0.032   4.791   3.365
 5160SOL    HW216380   6.929   4.709   3.433
 5161SOL     OW16381   1.896   3.374   6.713
 5161SOL    HW116382   1.906   3.471   6.693
 5161SOL    HW216383   1.973   3.343   6.769
 5162SOL     OW16384   0.727   5.631   2.803
 5162SOL    HW116385   0.741   5.729   2.791
 5162SOL    HW216386   0.754   5.605   2.896
 5163SOL     OW16387   2.926   6.941   1.104
 5163SOL    HW116388   2.888   0.003   1.062
 5163SOL    HW216389   3.010   6.966   1.154
 5164SOL     OW16390   3.710   2.650   0.167
 5164SOL    HW116391   3.632   2.706   0.140
 5164SOL    HW216392   3.687   2.553   0.158
 5165SOL     OW16393   0.661   3.936   5.916
 5165SOL    HW116394   0.676   3.917   6.013
 5165SOL    HW216395   0.577   3.889   5.886
 5166SOL     OW16396   1.833   5.407   2.614
 5166SOL    HW116397   1.901   5.477   2.591
 5166SOL    HW216398   1.823   5.402   2.713
 5167SOL     OW16399   6.220   4.980   5.636
 5167SOL    HW116400   6.298   4.983   5.699
 5167SOL    HW216401   6.217   4.890   5.592
 5168SOL     OW16402   5.437   3.498   1.920
 5168SOL    HW116403   5.418   3.487   2.017
 5168SOL    HW216404   5.527   3.542   1.908
 5169SOL     OW16405   3.654   2.056   3.626
 5169SOL    HW116406   3.752   2.041   3.638
 5169SOL    HW216407   3.633   2.154   3.637
 5170SOL     OW16408   1.534   3.453   4.797
 5170SOL    HW116409   1.597   3.381   4.827
 5170SOL    HW216410   1.583   3.518   4.739
 5171SOL     OW16411   0.211   4.176   5.790
 5171SOL    HW116412   0.220   4.080   5.818
 5171SOL    HW216413   0.274   4.232   5.843
 5172SOL     OW16414   1.660   3.258   2.372
 5172SOL    HW116415   1.701   3.258   2.281
 5172SOL    HW216416   1.649   3.352   2.404
 5173SOL     OW16417   4.591   5.046   4.961
 5173SOL    HW116418   4.538   4.965   4.937
 5173SOL    HW216419   4.531   5.114   5.004
 5174SOL     OW16420   2.399   4.849   3.511
 5174SOL    HW116421   2.366   4.938   3.479
 5174SOL    HW216422   2.495   4.857   3.538
 5175SOL     OW16423   3.044   4.043   6.738
 5175SOL    HW116424   3.085   4.135   6.742
 5175SOL    HW216425   3.031   4.016   6.643
 5176SOL     OW16426   5.246   3.809   0.362
 5176SOL    HW116427   5.311   3.754   0.414
 5176SOL    HW216428   5.164   3.825   0.417
 5177SOL     OW16429   5.774   6.882   0.679
 5177SOL    HW116430   5.710   6.805   0.671
 5177SOL    HW216431   5.867   6.847   0.694
 5178SOL     OW16432   1.239   3.383   2.659
 5178SOL    HW116433   1.260   3.389   2.562
 5178SOL    HW216434   1.149   3.422   2.676
 5179SOL     OW16435   4.660   4.386   4.330
 5179SOL    HW116436   4.696   4.398   4.238
 5179SOL    HW216437   4.610   4.467   4.358
 5180SOL     OW16438   2.981   1.234   1.244
 5180SOL    HW116439   2.893   1.277   1.222
 5180SOL    HW216440   3.024   1.202   1.160
 5181SOL     OW16441   5.115   1.340   2.372
 5181SOL    HW116442   5.166   1.380   2.449
 5181SOL    HW216443   5.158   1.369   2.286
 5182SOL     OW16444   4.148   4.840   2.160
 5182SOL    HW116445   4.203   4.905   2.106
 5182SOL    HW216446   4.191   4.750   2.157
 5183SOL     OW16447   3.697   1.612   2.831
 5183SOL    HW116448   3.661   1.561   2.753
 5183SOL    HW216449   3.639   1.691   2.850
 5184SOL     OW16450   0.589   2.301   3.800
 5184SOL    HW116451   0.552   2.390   3.775
 5184SOL    HW216452   0.595   2.295   3.899
 5185SOL     OW16453   5.238   0.775   2.924
 5185SOL    HW116454   5.140   0.754   2.926
 5185SOL    HW216455   5.257   0.839   2.849
 5186SOL     OW16456   5.877   1.632   0.233
 5186SOL    HW116457   5.957   1.577   0.254
 5186SOL    HW216458   5.797   1.573   0.222
 5187SOL     OW16459   1.290   5.904   4.818
 5187SOL    HW116460   1.332   5.836   4.759
 5187SOL    HW216461   1.207   5.939   4.775
 5188SOL     OW16462   6.659   5.639   1.533
 5188SOL    HW116463   6.708   5.620   1.449
 5188SOL    HW216464   6.627   5.552   1.573
 5189SOL     OW16465   4.418   5.201   1.148
 5189SOL    HW116466   4.510   5.233   1.124
 5189SOL    HW216467   4.399   5.225   1.244
 5190SOL     OW16468   0.524   3.530   4.535
 5190SOL    HW116469   0.617   3.567   4.534
 5190SOL    HW216470   0.510   3.479   4.621
 5191SOL     OW16471   3.890   6.703   2.397
 5191SOL    HW116472   3.958   6.630   2.393
 5191SOL    HW216473   3.936   6.792   2.391
 5192SOL     OW16474   1.684   5.480   1.090
 5192SOL    HW116475   1.734   5.410   1.039
 5192SOL    HW216476   1.689   5.459   1.188
 5193SOL     OW16477   5.522   5.599   5.527
 5193SOL    HW116478   5.487   5.527   5.467
 5193SOL    HW216479   5.451   5.626   5.592
 5194SOL     OW16480   4.300   2.153   0.178
 5194SOL    HW116481   4.355   2.206   0.115
 5194SOL    HW216482   4.260   2.213   0.248
 5195SOL     OW16483   6.946   0.283   4.252
 5195SOL    HW116484   0.025   0.288   4.245
 5195SOL    HW216485   6.921   0.222   4.327
 5196SOL     OW16486   4.754   6.972   1.970
 5196SOL    HW116487   4.849   6.989   1.944
 5196SOL    HW216488   4.743   6.986   2.069
 5197SOL     OW16489   2.160   3.975   6.135
 5197SOL    HW116490   2.256   3.979   6.106
 5197SOL    HW216491   2.155   3.941   6.229
 5198SOL     OW16492   4.640   6.062   3.427
 5198SOL    HW116493   4.726   6.034   3.469
 5198SOL    HW216494   4.652   6.073   3.329
 5199SOL     OW16495   1.100   6.184   0.270
 5199SOL    HW116496   1.029   6.114   0.265
 5199SOL    HW216497   1.136   6.189   0.363
 5200SOL     OW16498   0.167   3.766   5.503
 5200SOL    HW116499   0.192   3.723   5.416
 5200SOL    HW216500   0.234   3.836   5.526
 5201SOL     OW16501   0.338   0.012   2.732
 5201SOL    HW116502   0.253   0.026   2.782
 5201SOL    HW216503   0.403   6.984   2.790
 5202SOL     OW16504   5.409   2.859   6.446
 5202SOL    HW116505   5.395   2.916   6.365
 5202SOL    HW216506   5.475   2.903   6.507
 5203SOL     OW16507   2.066   2.449   6.695
 5203SOL    HW116508   2.011   2.488   6.768
 5203SOL    HW216509   2.155   2.421   6.731
 5204SOL     OW16510   3.461   5.213   6.289
 5204SOL    HW116511   3.504   5.123   6.280
 5204SOL    HW216512   3.520   5.271   6.345
 5205SOL     OW16513   0.528   6.306   0.870
 5205SOL    HW116514   0.452   6.272   0.814
 5205SOL    HW216515   0.575   6.380   0.822
 5206SOL     OW16516   0.631   4.217   5.958
 5206SOL    HW116517   0.633   4.124   5.921
 5206SOL    HW216518   0.702   4.272   5.915
 5207SOL     OW16519   1.230   5.800   3.975
 5207SOL    HW116520   1.237   5.854   3.891
 5207SOL    HW216521   1.251   5.859   4.054
 5208SOL     OW16522   3.696   2.031   6.040
 5208SOL    HW116523   3.730   2.055   5.949
 5208SOL    HW216524   3.602   2.062   6.050
 5209SOL     OW16525   5.433   5.715   3.447
 5209SOL    HW116526   5.338   5.731   3.419
 5209SOL    HW216527   5.469   5.637   3.396
 5210SOL     OW16528   5.013   2.901   5.531
 5210SOL    HW116529   5.020   2.989   5.483
 5210SOL    HW216530   4.922   2.892   5.570
 5211SOL     OW16531   3.000   3.488   4.827
 5211SOL    HW116532   2.982   3.394   4.799
 5211SOL    HW216533   3.056   3.489   4.909
 5212SOL     OW16534   6.624   2.322   0.748
 5212SOL    HW116535   6.655   2.324   0.653
 5212SOL    HW216536   6.648   2.408   0.793
 5213SOL     OW16537   4.276   3.860   6.763
 5213SOL    HW116538   4.184   3.872   6.800
 5213SOL    HW216539   4.303   3.942   6.712
 5214SOL     OW16540   4.746   1.894   5.641
 5214SOL    HW116541   4.815   1.907   5.571
 5214SOL    HW216542   4.681   1.824   5.611
 5215SOL     OW16543   6.122   4.903   3.680
 5215SOL    HW116544   6.196   4.940   3.736
 5215SOL    HW216545   6.137   4.927   3.584
 5216SOL     OW16546   4.660   4.992   1.512
 5216SOL    HW116547   4.688   4.932   1.587
 5216SOL    HW216548   4.565   5.022   1.526
 5217SOL     OW16549   3.734   5.456   4.553
 5217SOL    HW116550   3.743   5.501   4.464
 5217SOL    HW216551   3.679   5.513   4.614
 5218SOL     OW16552   0.808   0.706   4.020
 5218SOL    HW116553   0.832   0.614   3.989
 5218SOL    HW216554   0.891   0.760   4.030
 5219SOL     OW16555   3.822   0.627   5.821
 5219SOL    HW116556   3.909   0.624   5.772
 5219SOL    HW216557   3.839   0.649   5.917
 5220SOL     OW16558   1.899   5.891   2.579
 5220SOL    HW116559   1.967   5.929   2.516
 5220SOL    HW216560   1.807   5.908   2.545
 5221SOL     OW16561   5.602   2.499   3.977
 5221SOL    HW116562   5.515   2.528   3.937
 5221SOL    HW216563   5.660   2.459   3.906
 5222SOL     OW16564   3.356   6.055   3.490
 5222SOL    HW116565   3.344   6.151   3.464
 5222SOL    HW216566   3.451   6.040   3.517
 5223SOL     OW16567   6.340   2.295   0.783
 5223SOL    HW116568   6.436   2.308   0.810
 5223SOL    HW216569   6.283   2.357   0.837
 5224SOL     OW16570   0.070   2.735   4.108
 5224SOL    HW116571   0.053   2.655   4.051
 5224SOL    HW216572   0.157   2.777   4.082
 5225SOL     OW16573   0.312   0.176   3.516
 5225SOL    HW116574   0.285   0.258   3.567
 5225SOL    HW216575   0.231   0.135   3.474
 5226SOL     OW16576   0.470   6.111   4.742
 5226SOL    HW116577   0.432   6.117   4.650
 5226SOL    HW216578   0.402   6.071   4.804
 5227SOL     OW16579   1.212   3.497   4.079
 5227SOL    HW116580   1.187   3.402   4.061
 5227SOL    HW216581   1.299   3.517   4.034
 5228SOL     OW16582   6.212   2.298   1.557
 5228SOL    HW116583   6.278   2.355   1.606
 5228SOL    HW216584   6.229   2.202   1.578
 5229SOL     OW16585   1.633   5.571   6.930
 5229SOL    HW116586   1.578   5.519   6.864
 5229SOL    HW216587   1.700   5.510   6.973
 5230SOL     OW16588   0.943   6.459   0.943
 5230SOL    HW116589   0.847   6.477   0.923
 5230SOL    HW216590   0.955   6.362   0.966
 5231SOL     OW16591   4.103   3.504   5.677
 5231SOL    HW116592   4.064   3.447   5.750
 5231SOL    HW216593   4.105   3.452   5.592
 5232SOL     OW16594   3.530   2.284   5.647
 5232SOL    HW116595   3.502   2.359   5.588
 5232SOL    HW216596   3.449   2.232   5.674
 5233SOL     OW16597   5.076   0.869   2.193
 5233SOL    HW116598   5.079   0.969   2.190
 5233SOL    HW216599   5.081   0.833   2.100
 5234SOL     OW16600   2.470   0.759   0.082
 5234SOL    HW116601   2.565   0.728   0.090
 5234SOL    HW216602   2.429   0.722   7.019
 5235SOL     OW16603   1.905   2.885   1.056
 5235SOL    HW116604   1.977   2.896   0.988
 5235SOL    HW216605   1.862   2.974   1.073
 5236SOL     OW16606   5.759   3.972   2.578
 5236SOL    HW116607   5.846   3.957   2.625
 5236SOL    HW216608   5.759   3.923   2.491
 5237SOL     OW16609   2.110   0.796   5.145
 5237SOL    HW116610   2.049   0.839   5.079
 5237SOL    HW216611   2.114   0.698   5.127
 5238SOL     OW16612   1.262   4.216   0.427
 5238SOL    HW116613   1.228   4.283   0.361
 5238SOL    HW216614   1.240   4.246   0.520
 5239SOL     OW16615   3.738   3.006   3.950
 5239SOL    HW116616   3.795   3.002   4.033
 5239SOL    HW216617   3.796   3.023   3.871
 5240SOL     OW16618   3.547   1.923   6.341
 5240SOL    HW116619   3.617   1.928   6.413
 5240SOL    HW216620   3.508   2.013   6.326
 5241SOL     OW16621   0.750   5.462   5.653
 5241SOL    HW116622   0.743   5.560   5.671
 5241SOL    HW216623   0.782   5.448   5.560
 5242SOL     OW16624   6.905   6.017   6.429
 5242SOL    HW116625   6.852   6.066   6.498
 5242SOL    HW216626   6.983   5.973   6.473
 5243SOL     OW16627   1.255   5.331   1.562
 5243SOL    HW116628   1.156   5.334   1.575
 5243SOL    HW216629   1.297   5.403   1.618
 5244SOL     OW16630   3.510   4.363   6.408
 5244SOL    HW116631   3.538   4.411   6.324
 5244SOL    HW216632   3.421   4.319   6.393
 5245SOL     OW16633   4.704   4.418   0.644
 5245SOL    HW116634   4.613   4.397   0.680
 5245SOL    HW216635   4.773   4.393   0.711
 5246SOL     OW16636   5.743   4.229   2.770
 5246SOL    HW116637   5.725   4.193   2.679
 5246SOL    HW216638   5.710   4.323   2.776
 5247SOL     OW16639   0.851   0.174   0.337
 5247SOL    HW116640   0.889   0.205   0.425
 5247SOL    HW216641   0.926   0.150   0.275
 5248SOL     OW16642   5.504   0.776   4.234
 5248SOL    HW116643   5.573   0.812   4.171
 5248SOL    HW216644   5.519   0.814   4.325
 5249SOL     OW16645   6.850   4.397   5.189
 5249SOL    HW116646   6.880   4.432   5.100
 5249SOL    HW216647   6.813   4.305   5.178
 5250SOL     OW16648   1.120   0.823   5.502
 5250SOL    HW116649   1.170   0.743   5.535
 5250SOL    HW216650   1.162   0.906   5.540
 5251SOL     OW16651   0.512   3.227   0.391
 5251SOL    HW116652   0.449   3.296   0.426
 5251SOL    HW216653   0.539   3.166   0.466
 5252SOL     OW16654   2.199   5.770   0.533
 5252SOL    HW116655   2.131   5.843   0.544
 5252SOL    HW216656   2.160   5.684   0.566
 5253SOL     OW16657   5.505   3.870   4.473
 5253SOL    HW116658   5.490   3.833   4.382
 5253SOL    HW216659   5.464   3.809   4.541
 5254SOL     OW16660   4.485   1.578   2.785
 5254SOL    HW116661   4.546   1.530   2.848
 5254SOL    HW216662   4.434   1.512   2.731
 5255SOL     OW16663   4.410   0.559   5.936
 5255SOL    HW116664   4.366   0.507   5.862
 5255SOL    HW216665   4.349   0.634   5.964
 5256SOL     OW16666   4.305   0.884   3.395
 5256SOL    HW116667   4.369   0.933   3.336
 5256SOL    HW216668   4.334   0.892   3.490
 5257SOL     OW16669   4.860   6.323   2.385
 5257SOL    HW116670   4.896   6.395   2.326
 5257SOL    HW216671   4.763   6.340   2.402
 5258SOL     OW16672   5.550   3.614   1.631
 5258SOL    HW116673   5.498   3.662   1.561
 5258SOL    HW216674   5.512   3.522   1.645
 5259SOL     OW16675   4.736   6.296   0.716
 5259SOL    HW116676   4.652   6.273   0.666
 5259SOL    HW216677   4.720   6.283   0.814
 5260SOL     OW16678   5.659   3.954   1.134
 5260SOL    HW116679   5.747   3.908   1.149
 5260SOL    HW216680   5.584   3.891   1.153
 5261SOL     OW16681   1.270   3.529   6.706
 5261SOL    HW116682   1.315   3.528   6.617
 5261SOL    HW216683   1.330   3.571   6.773
 5262SOL     OW16684   2.703   0.501   3.363
 5262SOL    HW116685   2.662   0.433   3.303
 5262SOL    HW216686   2.794   0.470   3.391
 5263SOL     OW16687   2.004   1.298   5.335
 5263SOL    HW116688   1.908   1.308   5.362
 5263SOL    HW216689   2.022   1.354   5.253
 5264SOL     OW16690   5.955   1.393   2.369
 5264SOL    HW116691   5.865   1.361   2.399
 5264SOL    HW216692   5.984   1.470   2.425
 5265SOL     OW16693   5.523   4.026   3.530
 5265SOL    HW116694   5.462   3.950   3.504
 5265SOL    HW216695   5.523   4.036   3.630
 5266SOL     OW16696   2.881   6.458   1.594
 5266SOL    HW116697   2.941   6.522   1.642
 5266SOL    HW216698   2.799   6.442   1.648
 5267SOL     OW16699   4.827   4.201   5.402
 5267SOL    HW116700   4.789   4.114   5.432
 5267SOL    HW216701   4.915   4.216   5.447
 5268SOL     OW16702   6.250   0.544   6.383
 5268SOL    HW116703   6.166   0.584   6.419
 5268SOL    HW216704   6.266   0.579   6.291
 5269SOL     OW16705   2.032   6.810   4.273
 5269SOL    HW116706   2.132   6.803   4.265
 5269SOL    HW216707   1.990   6.731   4.229
 5270SOL     OW16708   5.096   1.807   1.679
 5270SOL    HW116709   5.001   1.834   1.688
 5270SOL    HW216710   5.156   1.881   1.710
 5271SOL     OW16711   5.884   5.625   4.922
 5271SOL    HW116712   5.912   5.569   5.000
 5271SOL    HW216713   5.958   5.627   4.855
 5272SOL     OW16714   2.280   6.035   1.919
 5272SOL    HW116715   2.182   6.032   1.936
 5272SOL    HW216716   2.309   6.130   1.907
 5273SOL     OW16717   6.652   2.935   3.375
 5273SOL    HW116718   6.646   2.990   3.291
 5273SOL    HW216719   6.566   2.942   3.425
 5274SOL     OW16720   6.742   6.143   2.156
 5274SOL    HW116721   6.812   6.135   2.086
 5274SOL    HW216722   6.723   6.052   2.194
 5275SOL     OW16723   3.718   2.010   6.532
 5275SOL    HW116724   3.764   2.035   6.447
 5275SOL    HW216725   3.784   1.967   6.594
 5276SOL     OW16726   1.339   0.616   0.941
 5276SOL    HW116727   1.421   0.598   0.888
 5276SOL    HW216728   1.357   0.690   1.006
 5277SOL     OW16729   1.700   2.227   3.114
 5277SOL    HW116730   1.688   2.133   3.143
 5277SOL    HW216731   1.615   2.262   3.075
 5278SOL     OW16732   4.528   0.281   4.247
 5278SOL    HW116733   4.432   0.283   4.219
 5278SOL    HW216734   4.586   0.304   4.169
 5279SOL     OW16735   1.464   5.162   6.587
 5279SOL    HW116736   1.547   5.167   6.641
 5279SOL    HW216737   1.387   5.136   6.647
 5280SOL     OW16738   3.315   6.484   5.293
 5280SOL    HW116739   3.301   6.528   5.382
 5280SOL    HW216740   3.400   6.431   5.296
 5281SOL     OW16741   0.656   1.694   2.981
 5281SOL    HW116742   0.629   1.606   2.942
 5281SOL    HW216743   0.751   1.689   3.012
 5282SOL     OW16744   2.112   1.778   3.145
 5282SOL    HW116745   2.202   1.737   3.132
 5282SOL    HW216746   2.122   1.873   3.175
 5283SOL     OW16747   3.816   6.804   2.012
 5283SOL    HW116748   3.890   6.869   1.998
 5283SOL    HW216749   3.774   6.819   2.102
 5284SOL     OW16750   5.536   3.819   3.102
 5284SOL    HW116751   5.567   3.725   3.094
 5284SOL    HW216752   5.441   3.826   3.074
 5285SOL     OW16753   2.066   4.241   4.251
 5285SOL    HW116754   2.118   4.303   4.193
 5285SOL    HW216755   1.969   4.267   4.250
 5286SOL     OW16756   0.469   3.737   0.983
 5286SOL    HW116757   0.438   3.714   0.892
 5286SOL    HW216758   0.410   3.695   1.051
 5287SOL     OW16759   1.469   5.705   1.550
 5287SOL    HW116760   1.482   5.648   1.631
 5287SOL    HW216761   1.515   5.793   1.563
 5288SOL     OW16762   3.950   0.408   2.547
 5288SOL    HW116763   3.863   0.366   2.571
 5288SOL    HW216764   3.939   0.464   2.466
 5289SOL     OW16765   1.881   5.709   5.960
 5289SOL    HW116766   1.847   5.660   6.040
 5289SOL    HW216767   1.813   5.704   5.886
 5290SOL     OW16768   1.636   4.677   5.499
 5290SOL    HW116769   1.700   4.691   5.423
 5290SOL    HW216770   1.649   4.585   5.537
 5291SOL     OW16771   2.837   4.941   5.546
 5291SOL    HW116772   2.881   4.880   5.480
 5291SOL    HW216773   2.749   4.971   5.510
 5292SOL     OW16774   6.558   4.526   0.328
 5292SOL    HW116775   6.603   4.557   0.244
 5292SOL    HW216776   6.462   4.507   0.309
 5293SOL     OW16777   1.082   0.801   3.946
 5293SOL    HW116778   1.089   0.899   3.924
 5293SOL    HW216779   1.145   0.750   3.888
 5294SOL     OW16780   5.579   2.951   4.974
 5294SOL    HW116781   5.601   2.919   4.882
 5294SOL    HW216782   5.479   2.949   4.987
 5295SOL     OW16783   4.303   0.914   2.504
 5295SOL    HW116784   4.345   0.831   2.540
 5295SOL    HW216785   4.216   0.891   2.461
 5296SOL     OW16786   1.944   5.568   0.410
 5296SOL    HW116787   1.949   5.481   0.361
 5296SOL    HW216788   1.969   5.554   0.506
 5297SOL     OW16789   2.976   1.732   0.725
 5297SOL    HW116790   2.996   1.697   0.816
 5297SOL    HW216791   2.918   1.813   0.732
 5298SOL     OW16792   1.397   6.162   6.302
 5298SOL    HW116793   1.379   6.065   6.322
 5298SOL    HW216794   1.485   6.170   6.256
 5299SOL     OW16795   2.796   2.267   0.970
 5299SOL    HW116796   2.797   2.325   1.052
 5299SOL    HW216797   2.713   2.285   0.918
 5300SOL     OW16798   0.589   5.917   1.870
 5300SOL    HW116799   0.525   5.994   1.873
 5300SOL    HW216800   0.668   5.941   1.814
 5301SOL     OW16801   3.855   2.466   6.519
 5301SOL    HW116802   3.786   2.538   6.515
 5301SOL    HW216803   3.899   2.467   6.609
 5302SOL     OW16804   5.736   5.196   3.547
 5302SOL    HW116805   5.794   5.277   3.539
 5302SOL    HW216806   5.785   5.124   3.596
 5303SOL     OW16807   6.871   6.050   2.945
 5303SOL    HW116808   6.919   6.009   2.868
 5303SOL    HW216809   6.918   6.027   3.031
 5304SOL     OW16810   5.564   1.457   6.764
 5304SOL    HW116811   5.470   1.486   6.748
 5304SOL    HW216812   5.616   1.532   6.806
 5305SOL     OW16813   1.491   5.139   3.963
 5305SOL    HW116814   1.500   5.076   3.886
 5305SOL    HW216815   1.447   5.224   3.931
 5306SOL     OW16816   0.575   4.843   5.154
 5306SOL    HW116817   0.553   4.776   5.084
 5306SOL    HW216818   0.649   4.902   5.122
 5307SOL     OW16819   3.890   0.103   0.773
 5307SOL    HW116820   3.935   0.013   0.773
 5307SOL    HW216821   3.878   0.133   0.678
 5308SOL     OW16822   1.031   6.309   3.678
 5308SOL    HW116823   0.937   6.339   3.667
 5308SOL    HW216824   1.072   6.356   3.756
 5309SOL     OW16825   3.809   4.765   1.725
 5309SOL    HW116826   3.724   4.731   1.764
 5309SOL    HW216827   3.874   4.785   1.798
 5310SOL     OW16828   6.163   3.658   1.908
 5310SOL    HW116829   6.196   3.724   1.841
 5310SOL    HW216830   6.169   3.566   1.870
 5311SOL     OW16831   0.169   6.507   0.380
 5311SOL    HW116832   0.136   6.497   0.286
 5311SOL    HW216833   0.108   6.457   0.442
 5312SOL     OW16834   0.714   4.785   1.758
 5312SOL    HW116835   0.697   4.799   1.856
 5312SOL    HW216836   0.632   4.810   1.706
 5313SOL     OW16837   1.554   4.683   6.590
 5313SOL    HW116838   1.639   4.663   6.542
 5313SOL    HW216839   1.478   4.634   6.547
 5314SOL     OW16840   3.488   6.312   6.904
 5314SOL    HW116841   3.433   6.377   6.852
 5314SOL    HW216842   3.429   6.239   6.939
 5315SOL     OW16843   4.799   3.630   1.772
 5315SOL    HW116844   4.868   3.588   1.713
 5315SOL    HW216845   4.828   3.623   1.867
 5316SOL     OW16846   0.232   4.710   5.120
 5316SOL    HW116847   0.227   4.751   5.211
 5316SOL    HW216848   0.235   4.610   5.128
 5317SOL     OW16849   0.039   7.006   4.747
 5317SOL    HW116850   0.069   6.928   4.692
 5317SOL    HW216851   0.070   0.070   4.704
 5318SOL     OW16852   6.937   2.355   6.148
 5318SOL    HW116853   6.963   2.388   6.239
 5318SOL    HW216854   6.931   2.432   6.085
 5319SOL     OW16855   4.827   6.916   6.764
 5319SOL    HW116856   4.734   6.905   6.797
 5319SOL    HW216857   4.825   6.939   6.666
 5320SOL     OW16858   5.886   4.718   0.237
 5320SOL    HW116859   5.942   4.635   0.244
 5320SOL    HW216860   5.833   4.716   0.153
 5321SOL     OW16861   1.031   4.192   3.300
 5321SOL    HW116862   1.111   4.183   3.241
 5321SOL    HW216863   1.049   4.148   3.388
 5322SOL     OW16864   4.107   5.948   6.258
 5322SOL    HW116865   4.129   6.043   6.235
 5322SOL    HW216866   4.174   5.913   6.323
 5323SOL     OW16867   3.681   3.025   6.882
 5323SOL    HW116868   3.744   3.096   6.912
 5323SOL    HW216869   3.605   3.066   6.832
 5324SOL     OW16870   4.063   2.586   1.395
 5324SOL    HW116871   3.966   2.582   1.369
 5324SOL    HW216872   4.070   2.574   1.494
 5325SOL     OW16873   4.575   0.597   4.263
 5325SOL    HW116874   4.481   0.631   4.270
 5325SOL    HW216875   4.575   0.498   4.274
 5326SOL     OW16876   0.082   5.296   3.771
 5326SOL    HW116877   0.131   5.224   3.820
 5326SOL    HW216878   0.147   5.358   3.728
 5327SOL     OW16879   5.437   4.173   5.238
 5327SOL    HW116880   5.351   4.148   5.283
 5327SOL    HW216881   5.490   4.090   5.219
 5328SOL     OW16882   3.977   3.078   5.563
 5328SOL    HW116883   3.957   3.007   5.630
 5328SOL    HW216884   4.074   3.076   5.539
 5329SOL     OW16885   6.990   4.336   0.296
 5329SOL    HW116886   6.911   4.324   0.355
 5329SOL    HW216887   7.017   4.432   0.295
 5330SOL     OW16888   3.760   3.886   5.745
 5330SOL    HW116889   3.680   3.898   5.686
 5330SOL    HW216890   3.835   3.845   5.692
 5331SOL     OW16891   5.523   0.920   1.226
 5331SOL    HW116892   5.459   0.942   1.301
 5331SOL    HW216893   5.480   0.854   1.165
 5332SOL     OW16894   0.720   3.703   0.939
 5332SOL    HW116895   0.753   3.707   0.844
 5332SOL    HW216896   0.624   3.729   0.942
 5333SOL     OW16897   0.878   0.726   3.316
 5333SOL    HW116898   0.929   0.736   3.401
 5333SOL    HW216899   0.780   0.728   3.336
 5334SOL     OW16900   3.722   6.894   4.563
 5334SOL    HW116901   3.790   6.827   4.593
 5334SOL    HW216902   3.713   6.890   4.463
 5335SOL     OW16903   6.601   5.599   2.729
 5335SOL    HW116904   6.514   5.638   2.696
 5335SOL    HW216905   6.648   5.667   2.785
 5336SOL     OW16906   1.950   1.661   3.325
 5336SOL    HW116907   1.869   1.614   3.292
 5336SOL    HW216908   1.992   1.712   3.249
 5337SOL     OW16909   5.474   5.001   2.048
 5337SOL    HW116910   5.407   5.042   1.986
 5337SOL    HW216911   5.498   4.910   2.014
 5338SOL     OW16912   6.089   0.759   5.964
 5338SOL    HW116913   6.055   0.668   5.939
 5338SOL    HW216914   6.123   0.806   5.882
 5339SOL     OW16915   6.100   2.152   3.090
 5339SOL    HW116916   6.175   2.135   3.154
 5339SOL    HW216917   6.094   2.250   3.071
 5340SOL     OW16918   5.810   3.641   1.425
 5340SOL    HW116919   5.727   3.596   1.459
 5340SOL    HW216920   5.874   3.653   1.501
 5341SOL     OW16921   3.321   5.010   5.849
 5341SOL    HW116922   3.318   4.968   5.940
 5341SOL    HW216923   3.231   5.047   5.827
 5342SOL     OW16924   4.470   6.852   4.728
 5342SOL    HW116925   4.451   6.947   4.704
 5342SOL    HW216926   4.564   6.829   4.704
 5343SOL     OW16927   3.938   3.558   5.015
 5343SOL    HW116928   4.005   3.486   4.997
 5343SOL    HW216929   3.898   3.543   5.106
 5344SOL     OW16930   1.578   1.726   0.827
 5344SOL    HW116931   1.530   1.646   0.791
 5344SOL    HW216932   1.664   1.698   0.870
 5345SOL     OW16933   4.201   6.156   0.328
 5345SOL    HW116934   4.153   6.229   0.377
 5345SOL    HW216935   4.136   6.086   0.299
 5346SOL     OW16936   3.350   5.301   3.792
 5346SOL    HW116937   3.348   5.283   3.890
 5346SOL    HW216938   3.443   5.290   3.758
 5347SOL     OW16939   6.835   2.964   2.240
 5347SOL    HW116940   6.799   2.879   2.279
 5347SOL    HW216941   6.766   3.036   2.249
 5348SOL     OW16942   6.798   1.633   0.720
 5348SOL    HW116943   6.838   1.611   0.632
 5348SOL    HW216944   6.862   1.609   0.793
 5349SOL     OW16945   2.240   2.752   0.193
 5349SOL    HW116946   2.252   2.792   0.102
 5349SOL    HW216947   2.234   2.653   0.185
 5350SOL     OW16948   1.445   7.021   4.724
 5350SOL    HW116949   1.356   6.982   4.698
 5350SOL    HW216950   1.505   0.002   4.644
 5351SOL     OW16951   6.738   5.262   2.102
 5351SOL    HW116952   6.729   5.358   2.127
 5351SOL    HW216953   6.798   5.254   2.022
 5352SOL     OW16954   2.071   4.923   3.256
 5352SOL    HW116955   1.980   4.902   3.221
 5352SOL    HW216956   2.136   4.929   3.180
 5353SOL     OW16957   4.076   5.104   4.364
 5353SOL    HW116958   4.080   5.181   4.300
 5353SOL    HW216959   3.987   5.059   4.356
 5354SOL     OW16960   2.159   4.548   0.593
 5354SOL    HW116961   2.114   4.528   0.680
 5354SOL    HW216962   2.221   4.626   0.605
 5355SOL     OW16963   6.035   4.612   4.867
 5355SOL    HW116964   5.943   4.649   4.869
 5355SOL    HW216965   6.045   4.550   4.789
 5356SOL     OW16966   6.567   3.652   2.449
 5356SOL    HW116967   6.578   3.632   2.352
 5356SOL    HW216968   6.552   3.751   2.461
 5357SOL     OW16969   2.776   5.789   6.977
 5357SOL    HW116970   2.829   5.841   0.024
 5357SOL    HW216971   2.757   5.698   7.013
 5358SOL     OW16972   4.663   1.529   0.428
 5358SOL    HW116973   4.568   1.511   0.454
 5358SOL    HW216974   4.701   1.600   0.487
 5359SOL     OW16975   2.517   1.134   6.207
 5359SOL    HW116976   2.589   1.204   6.202
 5359SOL    HW216977   2.494   1.103   6.115
 5360SOL     OW16978   3.562   6.135   3.206
 5360SOL    HW116979   3.604   6.176   3.287
 5360SOL    HW216980   3.538   6.040   3.226
 5361SOL     OW16981   2.308   0.567   4.965
 5361SOL    HW116982   2.342   0.517   4.885
 5361SOL    HW216983   2.329   0.665   4.955
 5362SOL     OW16984   6.177   6.476   2.445
 5362SOL    HW116985   6.204   6.466   2.350
 5362SOL    HW216986   6.101   6.415   2.465
 5363SOL     OW16987   6.103   6.381   5.598
 5363SOL    HW116988   6.027   6.369   5.662
 5363SOL    HW216989   6.137   6.291   5.570
 5364SOL     OW16990   6.721   0.156   2.172
 5364SOL    HW116991   6.650   0.225   2.163
 5364SOL    HW216992   6.692   0.072   2.128
 5365SOL     OW16993   3.725   3.074   1.314
 5365SOL    HW116994   3.802   3.128   1.349
 5365SOL    HW216995   3.639   3.120   1.336
 5366SOL     OW16996   6.128   6.050   0.845
 5366SOL    HW116997   6.201   6.103   0.803
 5366SOL    HW216998   6.081   5.995   0.776
 5367SOL     OW16999   0.306   6.958   1.394
 5367SOL    HW117000   0.212   6.953   1.358
 5367SOL    HW217001   0.306   7.010   1.479
 5368SOL     OW17002   5.851   0.084   2.254
 5368SOL    HW117003   5.769   0.035   2.284
 5368SOL    HW217004   5.850   0.177   2.292
 5369SOL     OW17005   2.508   6.641   0.679
 5369SOL    HW117006   2.408   6.631   0.678
 5369SOL    HW217007   2.535   6.722   0.627
 5370SOL     OW17008   4.924   2.754   0.448
 5370SOL    HW117009   4.967   2.844   0.441
 5370SOL    HW217010   4.989   2.685   0.416
 5371SOL     OW17011   0.436   3.995   5.529
 5371SOL    HW117012   0.353   4.048   5.513
 5371SOL    HW217013   0.512   4.057   5.547
 5372SOL     OW17014   1.218   5.772   2.963
 5372SOL    HW117015   1.294   5.726   3.009
 5372SOL    HW217016   1.138   5.772   3.022
 5373SOL     OW17017   4.178   6.709   5.351
 5373SOL    HW117018   4.133   6.660   5.425
 5373SOL    HW217019   4.136   6.686   5.264
 5374SOL     OW17020   2.311   3.834   0.360
 5374SOL    HW117021   2.376   3.868   0.292
 5374SOL    HW217022   2.223   3.816   0.316
 5375SOL     OW17023   0.577   6.460   4.709
 5375SOL    HW117024   0.514   6.442   4.633
 5375SOL    HW217025   0.634   6.379   4.724
 5376SOL     OW17026   0.866   2.352   1.326
 5376SOL    HW117027   0.911   2.372   1.239
 5376SOL    HW217028   0.909   2.406   1.399
 5377SOL     OW17029   7.012   0.087   2.585
 5377SOL    HW117030   0.040   0.175   2.581
 5377SOL    HW217031   0.017   0.038   2.668
 5378SOL     OW17032   6.727   0.131   2.600
 5378SOL    HW117033   6.827   0.133   2.604
 5378SOL    HW217034   6.698   0.074   2.523
 5379SOL     OW17035   0.776   4.124   4.888
 5379SOL    HW117036   0.680   4.094   4.890
 5379SOL    HW217037   0.780   4.223   4.902
 5380SOL     OW17038   2.993   0.292   2.621
 5380SOL    HW117039   2.897   0.263   2.616
 5380SOL    HW217040   3.051   0.224   2.576
 5381SOL     OW17041   6.400   5.105   2.143
 5381SOL    HW117042   6.440   5.015   2.122
 5381SOL    HW217043   6.384   5.154   2.058
 5382SOL     OW17044   2.898   1.268   1.920
 5382SOL    HW117045   2.945   1.341   1.871
 5382SOL    HW217046   2.965   1.205   1.960
 5383SOL     OW17047   1.987   2.356   4.855
 5383SOL    HW117048   1.963   2.332   4.761
 5383SOL    HW217049   1.940   2.440   4.881
 5384SOL     OW17050   5.517   0.309   4.969
 5384SOL    HW117051   5.552   0.394   4.929
 5384SOL    HW217052   5.533   0.309   5.067
 5385SOL     OW17053   3.919   3.518   4.553
 5385SOL    HW117054   4.001   3.546   4.603
 5385SOL    HW217055   3.884   3.595   4.499
 5386SOL     OW17056   4.580   1.110   3.915
 5386SOL    HW117057   4.609   1.177   3.983
 5386SOL    HW217058   4.496   1.065   3.944
 5387SOL     OW17059   1.987   6.263   3.496
 5387SOL    HW117060   1.901   6.218   3.521
 5387SOL    HW217061   2.053   6.253   3.570
 5388SOL     OW17062   0.716   1.117   3.019
 5388SOL    HW117063   0.644   1.104   2.951
 5388SOL    HW217064   0.736   1.030   3.063
 5389SOL     OW17065   3.396   1.689   3.404
 5389SOL    HW117066   3.326   1.751   3.369
 5389SOL    HW217067   3.451   1.736   3.473
 5390SOL     OW17068   5.076   4.094   3.546
 5390SOL    HW117069   5.153   4.135   3.594
 5390SOL    HW217070   4.992   4.145   3.569
 5391SOL     OW17071   2.642   1.387   0.937
 5391SOL    HW117072   2.715   1.395   0.870
 5391SOL    HW217073   2.618   1.478   0.971
 5392SOL     OW17074   6.159   3.648   1.229
 5392SOL    HW117075   6.109   3.561   1.233
 5392SOL    HW217076   6.257   3.629   1.222
 5393SOL     OW17077   5.544   0.497   5.499
 5393SOL    HW117078   5.488   0.433   5.552
 5393SOL    HW217079   5.637   0.498   5.536
 5394SOL     OW17080   0.462   5.714   1.130
 5394SOL    HW117081   0.522   5.715   1.210
 5394SOL    HW217082   0.514   5.741   1.049
 5395SOL     OW17083   5.003   1.024   1.217
 5395SOL    HW117084   4.912   1.014   1.177
 5395SOL    HW217085   5.004   0.983   1.308
 5396SOL     OW17086   5.835   4.618   1.516
 5396SOL    HW117087   5.847   4.535   1.570
 5396SOL    HW217088   5.762   4.605   1.449
 5397SOL     OW17089   0.013   2.740   1.223
 5397SOL    HW117090   0.086   2.676   1.249
 5397SOL    HW217091   7.011   2.727   1.127
 5398SOL     OW17092   2.815   2.337   3.774
 5398SOL    HW117093   2.821   2.364   3.871
 5398SOL    HW217094   2.888   2.272   3.753
 5399SOL     OW17095   2.616   6.456   0.506
 5399SOL    HW117096   2.707   6.418   0.520
 5399SOL    HW217097   2.593   6.517   0.582
 5400SOL     OW17098   3.122   3.442   6.684
 5400SOL    HW117099   3.136   3.369   6.617
 5400SOL    HW217100   3.051   3.413   6.749
 5401SOL     OW17101   6.732   4.594   2.487
 5401SOL    HW117102   6.772   4.547   2.407
 5401SOL    HW217103   6.633   4.579   2.488
 5402SOL     OW17104   2.123   6.000   1.374
 5402SOL    HW117105   2.158   5.950   1.295
 5402SOL    HW217106   2.197   6.052   1.417
 5403SOL     OW17107   5.390   3.400   5.559
 5403SOL    HW117108   5.450   3.396   5.639
 5403SOL    HW217109   5.297   3.377   5.587
 5404SOL     OW17110   0.801   0.307   3.026
 5404SOL    HW117111   0.715   0.259   3.039
 5404SOL    HW217112   0.824   0.357   3.109
 5405SOL     OW17113   5.387   5.754   6.826
 5405SOL    HW117114   5.359   5.717   6.737
 5405SOL    HW217115   5.305   5.775   6.880
 5406SOL     OW17116   1.902   0.427   5.562
 5406SOL    HW117117   1.967   0.463   5.496
 5406SOL    HW217118   1.886   0.494   5.635
 5407SOL     OW17119   3.390   1.808   0.684
 5407SOL    HW117120   3.371   1.777   0.777
 5407SOL    HW217121   3.458   1.748   0.642
 5408SOL     OW17122   3.762   0.352   5.900
 5408SOL    HW117123   3.823   0.328   5.824
 5408SOL    HW217124   3.752   0.451   5.905
 5409SOL     OW17125   6.682   1.671   3.407
 5409SOL    HW117126   6.615   1.735   3.446
 5409SOL    HW217127   6.661   1.657   3.310
 5410SOL     OW17128   0.801   2.417   6.399
 5410SOL    HW117129   0.712   2.459   6.384
 5410SOL    HW217130   0.788   2.331   6.449
 5411SOL     OW17131   5.945   5.558   6.004
 5411SOL    HW117132   6.004   5.552   5.924
 5411SOL    HW217133   5.875   5.629   5.988
 5412SOL     OW17134   3.677   1.547   6.545
 5412SOL    HW117135   3.661   1.644   6.533
 5412SOL    HW217136   3.591   1.500   6.563
 5413SOL     OW17137   0.118   0.561   0.790
 5413SOL    HW117138   0.060   0.526   0.717
 5413SOL    HW217139   0.065   0.624   0.848
 5414SOL     OW17140   6.382   4.145   4.751
 5414SOL    HW117141   6.301   4.140   4.809
 5414SOL    HW217142   6.393   4.237   4.715
 5415SOL     OW17143   1.456   6.027   1.883
 5415SOL    HW117144   1.465   6.009   1.981
 5415SOL    HW217145   1.383   5.970   1.846
 5416SOL     OW17146   3.220   5.038   5.541
 5416SOL    HW117147   3.191   5.113   5.601
 5416SOL    HW217148   3.186   5.055   5.449
 5417SOL     OW17149   4.330   6.437   4.778
 5417SOL    HW117150   4.304   6.524   4.819
 5417SOL    HW217151   4.391   6.388   4.841
 5418SOL     OW17152   5.309   0.429   4.379
 5418SOL    HW117153   5.216   0.466   4.385
 5418SOL    HW217154   5.316   0.347   4.436
 5419SOL     OW17155   3.447   5.430   0.315
 5419SOL    HW117156   3.507   5.477   0.251
 5419SOL    HW217157   3.385   5.370   0.264
 5420SOL     OW17158   2.044   2.869   1.878
 5420SOL    HW117159   1.970   2.851   1.814
 5420SOL    HW217160   2.127   2.896   1.828
 5421SOL     OW17161   2.924   5.403   3.062
 5421SOL    HW117162   2.995   5.379   2.995
 5421SOL    HW217163   2.886   5.319   3.101
 5422SOL     OW17164   0.815   5.872   4.574
 5422SOL    HW117165   0.848   5.779   4.559
 5422SOL    HW217166   0.784   5.910   4.486
 5423SOL     OW17167   6.003   4.482   0.301
 5423SOL    HW117168   5.996   4.503   0.398
 5423SOL    HW217169   5.964   4.392   0.283
 5424SOL     OW17170   5.832   3.730   4.443
 5424SOL    HW117171   5.909   3.732   4.380
 5424SOL    HW217172   5.783   3.818   4.438
 5425SOL     OW17173   5.081   2.178   4.543
 5425SOL    HW117174   4.989   2.142   4.525
 5425SOL    HW217175   5.133   2.112   4.596
 5426SOL     OW17176   6.287   5.250   3.777
 5426SOL    HW117177   6.211   5.304   3.811
 5426SOL    HW217178   6.373   5.300   3.791
 5427SOL     OW17179   5.292   4.027   0.866
 5427SOL    HW117180   5.312   4.118   0.903
 5427SOL    HW217181   5.353   4.007   0.789
 5428SOL     OW17182   6.101   0.041   2.357
 5428SOL    HW117183   6.033   0.074   2.291
 5428SOL    HW217184   6.120   6.965   2.341
 5429SOL     OW17185   1.963   0.910   5.583
 5429SOL    HW117186   2.025   0.957   5.645
 5429SOL    HW217187   1.933   0.973   5.511
 5430SOL     OW17188   2.208   2.760   6.224
 5430SOL    HW117189   2.296   2.774   6.180
 5430SOL    HW217190   2.214   2.682   6.287
 5431SOL     OW17191   3.507   4.005   6.294
 5431SOL    HW117192   3.573   4.076   6.272
 5431SOL    HW217193   3.514   3.931   6.226
 5432SOL     OW17194   3.603   5.472   6.484
 5432SOL    HW117195   3.671   5.400   6.471
 5432SOL    HW217196   3.536   5.443   6.552
 5433SOL     OW17197   0.182   0.777   3.033
 5433SOL    HW117198   0.095   0.799   3.077
 5433SOL    HW217199   0.175   0.792   2.935
 5434SOL     OW17200   4.298   0.978   4.703
 5434SOL    HW117201   4.380   0.922   4.715
 5434SOL    HW217202   4.319   1.072   4.728
 5435SOL     OW17203   5.871   1.832   1.386
 5435SOL    HW117204   5.858   1.860   1.481
 5435SOL    HW217205   5.876   1.732   1.381
 5436SOL     OW17206   5.651   4.354   4.540
 5436SOL    HW117207   5.749   4.350   4.517
 5436SOL    HW217208   5.632   4.289   4.614
 5437SOL     OW17209   2.887   5.517   5.602
 5437SOL    HW117210   2.853   5.518   5.696
 5437SOL    HW217211   2.964   5.454   5.595
 5438SOL     OW17212   6.361   3.340   2.022
 5438SOL    HW117213   6.391   3.247   2.043
 5438SOL    HW217214   6.367   3.397   2.104
 5439SOL     OW17215   6.892   2.612   0.313
 5439SOL    HW117216   6.891   2.526   0.261
 5439SOL    HW217217   6.910   2.688   0.251
 5440SOL     OW17218   6.714   0.006   3.865
 5440SOL    HW117219   6.784   6.958   3.847
 5440SOL    HW217220   6.625   6.993   3.836
 5441SOL     OW17221   4.961   2.869   3.609
 5441SOL    HW117222   4.890   2.895   3.674
 5441SOL    HW217223   5.010   2.788   3.643
 5442SOL     OW17224   3.197   6.596   3.176
 5442SOL    HW117225   3.231   6.572   3.085
 5442SOL    HW217226   3.106   6.557   3.188
 5443SOL     OW17227   3.519   5.669   3.894
 5443SOL    HW117228   3.494   5.613   3.815
 5443SOL    HW217229   3.562   5.612   3.964
 5444SOL     OW17230   0.120   0.390   3.619
 5444SOL    HW117231   0.149   0.473   3.572
 5444SOL    HW217232   0.025   0.399   3.647
 5445SOL     OW17233   6.259   3.932   3.912
 5445SOL    HW117234   6.212   4.021   3.912
 5445SOL    HW217235   6.269   3.900   4.006
 5446SOL     OW17236   5.658   5.254   4.808
 5446SOL    HW117237   5.641   5.285   4.902
 5446SOL    HW217238   5.572   5.225   4.766
 5447SOL     OW17239   1.358   1.596   0.655
 5447SOL    HW117240   1.271   1.646   0.652
 5447SOL    HW217241   1.345   1.507   0.698
 5448SOL     OW17242   5.816   4.607   4.621
 5448SOL    HW117243   5.855   4.516   4.629
 5448SOL    HW217244   5.803   4.646   4.713
 5449SOL     OW17245   1.878   1.681   0.700
 5449SOL    HW117246   1.943   1.605   0.696
 5449SOL    HW217247   1.864   1.707   0.796
 5450SOL     OW17248   3.228   0.660   0.635
 5450SOL    HW117249   3.158   0.705   0.580
 5450SOL    HW217250   3.260   0.578   0.587
 5451SOL     OW17251   2.266   6.322   3.700
 5451SOL    HW117252   2.276   6.407   3.650
 5451SOL    HW217253   2.251   6.342   3.797
 5452SOL     OW17254   2.726   3.911   6.752
 5452SOL    HW117255   2.714   3.858   6.668
 5452SOL    HW217256   2.722   4.009   6.731
 5453SOL     OW17257   5.289   4.213   2.104
 5453SOL    HW117258   5.212   4.198   2.041
 5453SOL    HW217259   5.343   4.291   2.072
 5454SOL     OW17260   4.895   5.756   6.683
 5454SOL    HW117261   4.839   5.817   6.739
 5454SOL    HW217262   4.985   5.798   6.669
 5455SOL     OW17263   0.086   2.450   2.755
 5455SOL    HW117264   0.002   2.397   2.741
 5455SOL    HW217265   0.153   2.426   2.685
 5456SOL     OW17266   2.995   0.132   0.054
 5456SOL    HW117267   2.918   0.080   0.015
 5456SOL    HW217268   2.967   0.226   0.070
 5457SOL     OW17269   6.349   1.904   1.696
 5457SOL    HW117270   6.349   1.963   1.615
 5457SOL    HW217271   6.271   1.926   1.754
 5458SOL     OW17272   0.422   5.237   0.547
 5458SOL    HW117273   0.345   5.275   0.598
 5458SOL    HW217274   0.503   5.294   0.563
 5459SOL     OW17275   3.643   3.628   6.368
 5459SOL    HW117276   3.724   3.571   6.380
 5459SOL    HW217277   3.652   3.712   6.422
 5460SOL     OW17278   3.455   6.324   3.044
 5460SOL    HW117279   3.531   6.354   2.986
 5460SOL    HW217280   3.488   6.260   3.113
 5461SOL     OW17281   0.355   0.754   5.432
 5461SOL    HW117282   0.333   0.717   5.341
 5461SOL    HW217283   0.452   0.741   5.452
 5462SOL     OW17284   5.320   6.535   6.872
 5462SOL    HW117285   5.255   6.466   6.904
 5462SOL    HW217286   5.412   6.497   6.874
 5463SOL     OW17287   0.063   1.289   6.981
 5463SOL    HW117288   0.108   1.331   0.039
 5463SOL    HW217289   0.128   1.285   6.905
 5464SOL     OW17290   6.290   0.537   4.526
 5464SOL    HW117291   6.389   0.523   4.523
 5464SOL    HW217292   6.270   0.635   4.526
 5465SOL     OW17293   5.029   0.720   4.523
 5465SOL    HW117294   5.114   0.756   4.484
 5465SOL    HW217295   4.965   0.700   4.449
 5466SOL     OW17296   5.191   2.941   5.149
 5466SOL    HW117297   5.215   2.989   5.065
 5466SOL    HW217298   5.151   2.852   5.126
 5467SOL     OW17299   5.485   3.640   3.701
 5467SOL    HW117300   5.555   3.577   3.667
 5467SOL    HW217301   5.483   3.722   3.644
 5468SOL     OW17302   6.346   2.327   4.302
 5468SOL    HW117303   6.333   2.246   4.358
 5468SOL    HW217304   6.404   2.305   4.224
 5469SOL     OW17305   2.951   6.691   5.922
 5469SOL    HW117306   3.040   6.700   5.878
 5469SOL    HW217307   2.938   6.768   5.985
 5470SOL     OW17308   3.685   5.671   3.631
 5470SOL    HW117309   3.763   5.617   3.663
 5470SOL    HW217310   3.604   5.613   3.625
 5471SOL     OW17311   6.049   0.356   3.206
 5471SOL    HW117312   5.956   0.387   3.223
 5471SOL    HW217313   6.106   0.375   3.287
 5472SOL     OW17314   3.196   3.557   6.022
 5472SOL    HW117315   3.246   3.538   5.937
 5472SOL    HW217316   3.246   3.518   6.099
 5473SOL     OW17317   1.552   3.240   1.741
 5473SOL    HW117318   1.562   3.208   1.836
 5473SOL    HW217319   1.614   3.316   1.726
 5474SOL     OW17320   1.294   4.328   4.372
 5474SOL    HW117321   1.261   4.315   4.465
 5474SOL    HW217322   1.219   4.316   4.307
 5475SOL     OW17323   1.958   2.276   1.093
 5475SOL    HW117324   1.908   2.320   1.168
 5475SOL    HW217325   2.053   2.307   1.093
 5476SOL     OW17326   1.862   4.692   4.954
 5476SOL    HW117327   1.819   4.668   5.041
 5476SOL    HW217328   1.900   4.609   4.912
 5477SOL     OW17329   2.316   4.193   2.497
 5477SOL    HW117330   2.394   4.221   2.553
 5477SOL    HW217331   2.295   4.097   2.513
 5478SOL     OW17332   3.070   6.242   4.893
 5478SOL    HW117333   3.017   6.327   4.898
 5478SOL    HW217334   3.167   6.264   4.892
 5479SOL     OW17335   5.442   1.519   5.903
 5479SOL    HW117336   5.471   1.486   5.993
 5479SOL    HW217337   5.472   1.454   5.833
 5480SOL     OW17338   5.874   6.043   4.039
 5480SOL    HW117339   5.894   5.950   4.068
 5480SOL    HW217340   5.791   6.043   3.982
 5481SOL     OW17341   4.519   1.092   4.448
 5481SOL    HW117342   4.581   1.059   4.520
 5481SOL    HW217343   4.494   1.187   4.466
 5482SOL     OW17344   3.703   4.396   1.394
 5482SOL    HW117345   3.728   4.447   1.476
 5482SOL    HW217346   3.677   4.303   1.419
 5483SOL     OW17347   6.884   2.679   5.588
 5483SOL    HW117348   6.824   2.726   5.653
 5483SOL    HW217349   6.831   2.613   5.536
 5484SOL     OW17350   3.943   1.155   3.534
 5484SOL    HW117351   3.878   1.080   3.539
 5484SOL    HW217352   4.031   1.127   3.572
 5485SOL     OW17353   4.025   0.088   4.586
 5485SOL    HW117354   3.948   0.126   4.638
 5485SOL    HW217355   4.057   0.005   4.629
 5486SOL     OW17356   1.773   6.012   5.262
 5486SOL    HW117357   1.681   5.986   5.232
 5486SOL    HW217358   1.839   5.945   5.230
 5487SOL     OW17359   5.574   3.301   6.863
 5487SOL    HW117360   5.540   3.336   6.775
 5487SOL    HW217361   5.559   3.369   6.934
 5488SOL     OW17362   6.079   0.428   0.709
 5488SOL    HW117363   6.050   0.500   0.771
 5488SOL    HW217364   6.010   0.355   0.708
 5489SOL     OW17365   0.703   4.045   1.657
 5489SOL    HW117366   0.794   4.013   1.686
 5489SOL    HW217367   0.689   4.023   1.561
 5490SOL     OW17368   3.270   6.941   0.943
 5490SOL    HW117369   3.256   6.847   0.911
 5490SOL    HW217370   3.355   6.946   0.996
 5491SOL     OW17371   1.773   4.082   0.940
 5491SOL    HW117372   1.790   3.984   0.937
 5491SOL    HW217373   1.823   4.123   1.016
 5492SOL     OW17374   0.057   3.172   6.123
 5492SOL    HW117375   0.130   3.117   6.163
 5492SOL    HW217376   0.017   3.230   6.194
 5493SOL     OW17377   2.959   3.812   4.060
 5493SOL    HW117378   2.909   3.812   3.973
 5493SOL    HW217379   2.940   3.727   4.109
 5494SOL     OW17380   6.578   2.751   6.338
 5494SOL    HW117381   6.675   2.772   6.325
 5494SOL    HW217382   6.545   2.793   6.422
 5495SOL     OW17383   3.324   1.591   0.459
 5495SOL    HW117384   3.301   1.586   0.556
 5495SOL    HW217385   3.240   1.584   0.404
 5496SOL     OW17386   3.556   0.877   3.622
 5496SOL    HW117387   3.571   0.779   3.633
 5496SOL    HW217388   3.541   0.920   3.712
 5497SOL     OW17389   0.086   2.092   4.287
 5497SOL    HW117390   0.001   2.083   4.338
 5497SOL    HW217391   0.162   2.106   4.350
 5498SOL     OW17392   6.319   5.907   0.992
 5498SOL    HW117393   6.348   5.943   1.080
 5498SOL    HW217394   6.230   5.946   0.968
 5499SOL     OW17395   0.540   0.626   4.710
 5499SOL    HW117396   0.509   0.656   4.800
 5499SOL    HW217397   0.640   0.626   4.707
 5500SOL     OW17398   1.180   0.450   0.663
 5500SOL    HW117399   1.115   0.498   0.604
 5500SOL    HW217400   1.269   0.496   0.657
 5501SOL     OW17401   3.296   0.417   0.496
 5501SOL    HW117402   3.294   0.463   0.408
 5501SOL    HW217403   3.382   0.366   0.505
 5502SOL     OW17404   5.489   3.448   0.380
 5502SOL    HW117405   5.439   3.409   0.302
 5502SOL    HW217406   5.486   3.383   0.456
 5503SOL     OW17407   0.737   4.878   2.231
 5503SOL    HW117408   0.786   4.791   2.223
 5503SOL    HW217409   0.729   4.903   2.328
 5504SOL     OW17410   3.967   0.862   5.130
 5504SOL    HW117411   4.015   0.842   5.045
 5504SOL    HW217412   3.981   0.958   5.155
 5505SOL     OW17413   2.328   5.200   4.531
 5505SOL    HW117414   2.336   5.110   4.574
 5505SOL    HW217415   2.236   5.235   4.544
 5506SOL     OW17416   1.075   2.215   0.275
 5506SOL    HW117417   1.168   2.245   0.256
 5506SOL    HW217418   1.075   2.117   0.296
 5507SOL     OW17419   3.473   1.088   4.420
 5507SOL    HW117420   3.560   1.137   4.406
 5507SOL    HW217421   3.438   1.108   4.512
 5508SOL     OW17422   1.306   1.118   6.386
 5508SOL    HW117423   1.405   1.128   6.394
 5508SOL    HW217424   1.261   1.201   6.419
 5509SOL     OW17425   0.132   6.391   6.864
 5509SOL    HW117426   0.207   6.340   6.908
 5509SOL    HW217427   0.168   6.442   6.786
 5510SOL     OW17428   4.846   5.425   0.012
 5510SOL    HW117429   4.844   5.431   6.933
 5510SOL    HW217430   4.756   5.447   0.049
 5511SOL     OW17431   2.075   1.322   3.768
 5511SOL    HW117432   2.093   1.256   3.841
 5511SOL    HW217433   1.996   1.377   3.792
 5512SOL     OW17434   5.510   2.098   1.430
 5512SOL    HW117435   5.522   2.019   1.490
 5512SOL    HW217436   5.510   2.068   1.334
 5513SOL     OW17437   4.522   4.506   6.240
 5513SOL    HW117438   4.497   4.597   6.207
 5513SOL    HW217439   4.456   4.477   6.309
 5514SOL     OW17440   4.110   6.818   4.071
 5514SOL    HW117441   4.125   6.779   3.980
 5514SOL    HW217442   4.106   6.744   4.138
 5515SOL     OW17443   0.970   6.031   2.316
 5515SOL    HW117444   1.021   6.117   2.322
 5515SOL    HW217445   0.913   6.032   2.233
 5516SOL     OW17446   1.909   4.096   6.069
 5516SOL    HW117447   1.892   4.155   6.148
 5516SOL    HW217448   1.990   4.041   6.085
 5517SOL     OW17449   2.283   2.958   1.743
 5517SOL    HW117450   2.261   3.041   1.795
 5517SOL    HW217451   2.364   2.915   1.782
 5518SOL     OW17452   5.713   6.421   6.590
 5518SOL    HW117453   5.748   6.422   6.496
 5518SOL    HW217454   5.703   6.326   6.620
 5519SOL     OW17455   5.720   3.493   3.669
 5519SOL    HW117456   5.772   3.578   3.667
 5519SOL    HW217457   5.720   3.451   3.578
 5520SOL     OW17458   6.122   6.827   2.725
 5520SOL    HW117459   6.207   6.774   2.721
 5520SOL    HW217460   6.063   6.801   2.648
 5521SOL     OW17461   5.639   5.900   1.786
 5521SOL    HW117462   5.628   5.803   1.766
 5521SOL    HW217463   5.734   5.927   1.768
 5522SOL     OW17464   6.606   5.048   0.105
 5522SOL    HW117465   6.542   5.017   0.175
 5522SOL    HW217466   6.619   5.147   0.113
 5523SOL     OW17467   3.640   1.000   2.136
 5523SOL    HW117468   3.567   0.933   2.125
 5523SOL    HW217469   3.708   0.966   2.201
 5524SOL     OW17470   5.532   0.122   4.732
 5524SOL    HW117471   5.452   0.135   4.672
 5524SOL    HW217472   5.518   0.173   4.817
 5525SOL     OW17473   0.290   1.737   1.111
 5525SOL    HW117474   0.202   1.758   1.155
 5525SOL    HW217475   0.351   1.815   1.120
 5526SOL     OW17476   4.683   5.611   3.698
 5526SOL    HW117477   4.667   5.708   3.715
 5526SOL    HW217478   4.597   5.560   3.711
 5527SOL     OW17479   4.868   3.857   3.929
 5527SOL    HW117480   4.911   3.802   3.857
 5527SOL    HW217481   4.859   3.802   4.012
 5528SOL     OW17482   1.653   1.135   6.876
 5528SOL    HW117483   1.607   1.072   6.814
 5528SOL    HW217484   1.752   1.126   6.867
 5529SOL     OW17485   2.874   6.833   3.534
 5529SOL    HW117486   2.868   6.744   3.579
 5529SOL    HW217487   2.940   6.890   3.583
 5530SOL     OW17488   5.477   2.258   1.706
 5530SOL    HW117489   5.387   2.213   1.710
 5530SOL    HW217490   5.485   2.308   1.619
 5531SOL     OW17491   3.266   3.510   1.850
 5531SOL    HW117492   3.185   3.568   1.845
 5531SOL    HW217493   3.348   3.566   1.836
 5532SOL     OW17494   1.392   3.223   0.443
 5532SOL    HW117495   1.344   3.301   0.403
 5532SOL    HW217496   1.352   3.138   0.409
 5533SOL     OW17497   3.436   1.745   3.034
 5533SOL    HW117498   3.429   1.836   3.073
 5533SOL    HW217499   3.529   1.710   3.047
 5534SOL     OW17500   0.052   1.238   6.431
 5534SOL    HW117501   7.019   1.265   6.511
 5534SOL    HW217502   0.135   1.191   6.461
 5535SOL     OW17503   0.075   2.915   3.231
 5535SOL    HW117504   0.164   2.874   3.249
 5535SOL    HW217505   0.006   2.843   3.220
 5536SOL     OW17506   3.167   1.083   4.462
 5536SOL    HW117507   3.229   1.021   4.414
 5536SOL    HW217508   3.121   1.142   4.396
 5537SOL     OW17509   2.837   0.867   2.700
 5537SOL    HW117510   2.810   0.836   2.791
 5537SOL    HW217511   2.801   0.804   2.631
 5538SOL     OW17512   2.484   6.003   6.061
 5538SOL    HW117513   2.544   6.078   6.091
 5538SOL    HW217514   2.493   5.991   5.963
 5539SOL     OW17515   1.082   3.451   1.333
 5539SOL    HW117516   1.005   3.436   1.270
 5539SOL    HW217517   1.098   3.367   1.385
 5540SOL     OW17518   4.911   4.729   3.420
 5540SOL    HW117519   4.856   4.647   3.408
 5540SOL    HW217520   4.913   4.781   3.334
 5541SOL     OW17521   5.900   0.463   6.113
 5541SOL    HW117522   5.893   0.517   6.029
 5541SOL    HW217523   5.818   0.407   6.124
 5542SOL     OW17524   5.386   3.734   6.259
 5542SOL    HW117525   5.420   3.668   6.326
 5542SOL    HW217526   5.311   3.694   6.207
 5543SOL     OW17527   3.890   4.697   5.557
 5543SOL    HW117528   3.799   4.656   5.564
 5543SOL    HW217529   3.881   4.797   5.556
 5544SOL     OW17530   4.830   5.880   6.339
 5544SOL    HW117531   4.857   5.964   6.292
 5544SOL    HW217532   4.863   5.801   6.287
 5545SOL     OW17533   3.940   1.110   2.106
 5545SOL    HW117534   3.877   1.180   2.071
 5545SOL    HW217535   4.027   1.115   2.056
 5546SOL     OW17536   0.895   5.169   4.534
 5546SOL    HW117537   0.958   5.116   4.477
 5546SOL    HW217538   0.808   5.121   4.540
 5547SOL     OW17539   2.443   0.019   5.109
 5547SOL    HW117540   2.479   0.058   5.194
 5547SOL    HW217541   2.343   0.030   5.108
 5548SOL     OW17542   5.942   2.680   4.863
 5548SOL    HW117543   5.932   2.721   4.772
 5548SOL    HW217544   5.917   2.746   4.933
 5549SOL     OW17545   4.383   4.133   6.320
 5549SOL    HW117546   4.372   4.033   6.320
 5549SOL    HW217547   4.480   4.156   6.322
 5550SOL     OW17548   2.655   5.241   1.875
 5550SOL    HW117549   2.599   5.287   1.944
 5550SOL    HW217550   2.711   5.171   1.920
 5551SOL     OW17551   2.442   0.604   3.012
 5551SOL    HW117552   2.350   0.640   3.029
 5551SOL    HW217553   2.502   0.629   3.088
 5552SOL     OW17554   6.457   0.769   6.959
 5552SOL    HW117555   6.440   0.686   6.905
 5552SOL    HW217556   6.504   0.837   6.903
 5553SOL     OW17557   4.531   6.626   0.062
 5553SOL    HW117558   4.542   6.685   7.003
 5553SOL    HW217559   4.558   6.533   0.038
 5554SOL     OW17560   3.724   1.072   5.434
 5554SOL    HW117561   3.798   1.066   5.367
 5554SOL    HW217562   3.738   1.004   5.506
 5555SOL     OW17563   1.065   4.397   4.198
 5555SOL    HW117564   1.006   4.335   4.248
 5555SOL    HW217565   1.013   4.476   4.165
 5556SOL     OW17566   6.939   2.605   3.726
 5556SOL    HW117567   0.001   2.661   3.719
 5556SOL    HW217568   6.946   2.526   3.666
 5557SOL     OW17569   3.669   5.850   2.918
 5557SOL    HW117570   3.731   5.926   2.939
 5557SOL    HW217571   3.722   5.768   2.897
 5558SOL     OW17572   4.931   3.730   6.562
 5558SOL    HW117573   5.017   3.690   6.530
 5558SOL    HW217574   4.941   3.759   6.657
 5559SOL     OW17575   2.814   6.827   2.131
 5559SOL    HW117576   2.716   6.845   2.121
 5559SOL    HW217577   2.842   6.847   2.224
 5560SOL     OW17578   0.324   6.613   3.421
 5560SOL    HW117579   0.341   6.699   3.372
 5560SOL    HW217580   0.393   6.546   3.394
 5561SOL     OW17581   2.097   2.802   4.264
 5561SOL    HW117582   2.186   2.841   4.240
 5561SOL    HW217583   2.063   2.847   4.347
 5562SOL     OW17584   2.825   2.347   6.613
 5562SOL    HW117585   2.736   2.379   6.579
 5562SOL    HW217586   2.811   2.278   6.684
 5563SOL     OW17587   4.659   6.220   2.707
 5563SOL    HW117588   4.620   6.208   2.616
 5563SOL    HW217589   4.631   6.144   2.765
 5564SOL     OW17590   4.182   1.504   1.891
 5564SOL    HW117591   4.248   1.542   1.826
 5564SOL    HW217592   4.206   1.409   1.910
 5565SOL     OW17593   5.208   1.864   6.653
 5565SOL    HW117594   5.157   1.783   6.623
 5565SOL    HW217595   5.151   1.919   6.713
 5566SOL     OW17596   1.617   5.337   0.453
 5566SOL    HW117597   1.690   5.273   0.429
 5566SOL    HW217598   1.643   5.387   0.535
 5567SOL     OW17599   0.560   4.578   2.145
 5567SOL    HW117600   0.641   4.624   2.181
 5567SOL    HW217601   0.584   4.485   2.118
 5568SOL     OW17602   4.595   2.538   3.026
 5568SOL    HW117603   4.664   2.587   3.079
 5568SOL    HW217604   4.607   2.557   2.929
 5569SOL     OW17605   2.961   1.039   1.685
 5569SOL    HW117606   2.899   1.080   1.618
 5569SOL    HW217607   3.030   1.107   1.712
 5570SOL     OW17608   5.415   5.102   5.073
 5570SOL    HW117609   5.500   5.083   5.122
 5570SOL    HW217610   5.412   5.046   4.990
 5571SOL     OW17611   0.666   6.817   0.148
 5571SOL    HW117612   0.680   6.799   0.246
 5571SOL    HW217613   0.568   6.824   0.130
 5572SOL     OW17614   1.930   2.812   5.502
 5572SOL    HW117615   1.872   2.869   5.443
 5572SOL    HW217616   2.012   2.863   5.527
 5573SOL     OW17617   1.862   3.193   0.047
 5573SOL    HW117618   1.911   3.154   0.125
 5573SOL    HW217619   1.877   3.292   0.044
 5574SOL     OW17620   6.363   1.550   3.925
 5574SOL    HW117621   6.457   1.578   3.945
 5574SOL    HW217622   6.319   1.620   3.869
 5575SOL     OW17623   0.696   1.429   1.909
 5575SOL    HW117624   0.685   1.505   1.844
 5575SOL    HW217625   0.714   1.345   1.859
 5576SOL     OW17626   0.301   6.417   1.946
 5576SOL    HW117627   0.243   6.485   1.900
 5576SOL    HW217628   0.277   6.413   2.043
 5577SOL     OW17629   2.815   2.720   6.332
 5577SOL    HW117630   2.859   2.789   6.389
 5577SOL    HW217631   2.722   2.749   6.309
 5578SOL     OW17632   4.371   3.731   0.718
 5578SOL    HW117633   4.289   3.681   0.689
 5578SOL    HW217634   4.448   3.703   0.660
 5579SOL     OW17635   6.356   3.945   6.895
 5579SOL    HW117636   6.257   3.946   6.913
 5579SOL    HW217637   6.384   4.036   6.864
 5580SOL     OW17638   4.865   1.926   6.158
 5580SOL    HW117639   4.881   1.831   6.184
 5580SOL    HW217640   4.768   1.948   6.169
 5581SOL     OW17641   2.272   0.259   1.073
 5581SOL    HW117642   2.280   0.265   0.973
 5581SOL    HW217643   2.340   0.319   1.116
 5582SOL     OW17644   3.455   3.147   3.562
 5582SOL    HW117645   3.387   3.187   3.501
 5582SOL    HW217646   3.428   3.053   3.585
 5583SOL     OW17647   3.681   6.728   2.846
 5583SOL    HW117648   3.757   6.706   2.785
 5583SOL    HW217649   3.688   6.824   2.875
 5584SOL     OW17650   5.786   4.014   4.481
 5584SOL    HW117651   5.836   4.094   4.447
 5584SOL    HW217652   5.805   4.002   4.578
 5585SOL     OW17653   4.661   0.359   4.007
 5585SOL    HW117654   4.611   0.419   3.945
 5585SOL    HW217655   4.757   0.353   3.978
 5586SOL     OW17656   1.035   2.310   6.917
 5586SOL    HW117657   1.100   2.252   6.964
 5586SOL    HW217658   1.082   2.366   6.849
 5587SOL     OW17659   4.781   6.489   2.098
 5587SOL    HW117660   4.776   6.548   2.179
 5587SOL    HW217661   4.698   6.434   2.092
 5588SOL     OW17662   1.167   6.667   3.786
 5588SOL    HW117663   1.145   6.577   3.823
 5588SOL    HW217664   1.240   6.658   3.718
 5589SOL     OW17665   5.310   3.133   6.597
 5589SOL    HW117666   5.355   3.102   6.680
 5589SOL    HW217667   5.212   3.145   6.614
 5590SOL     OW17668   6.967   5.134   2.901
 5590SOL    HW117669   6.970   5.034   2.907
 5590SOL    HW217670   6.872   5.164   2.892
 5591SOL     OW17671   5.844   1.292   6.383
 5591SOL    HW117672   5.863   1.221   6.451
 5591SOL    HW217673   5.754   1.331   6.399
 5592SOL     OW17674   2.222   4.812   3.016
 5592SOL    HW117675   2.309   4.859   2.999
 5592SOL    HW217676   2.169   4.810   2.931
 5593SOL     OW17677   6.719   2.408   5.899
 5593SOL    HW117678   6.703   2.454   5.811
 5593SOL    HW217679   6.682   2.315   5.895
 5594SOL     OW17680   2.659   1.221   6.529
 5594SOL    HW117681   2.677   1.222   6.430
 5594SOL    HW217682   2.741   1.190   6.577
 5595SOL     OW17683   6.200   1.204   5.122
 5595SOL    HW117684   6.262   1.245   5.054
 5595SOL    HW217685   6.132   1.147   5.076
 5596SOL     OW17686   5.046   0.286   2.539
 5596SOL    HW117687   5.058   0.342   2.621
 5596SOL    HW217688   4.974   0.324   2.482
 5597SOL     OW17689   5.500   2.285   5.212
 5597SOL    HW117690   5.470   2.378   5.193
 5597SOL    HW217691   5.546   2.248   5.131
 5598SOL     OW17692   5.131   2.502   4.210
 5598SOL    HW117693   5.184   2.575   4.252
 5598SOL    HW217694   5.073   2.458   4.279
 5599SOL     OW17695   6.290   3.662   2.330
 5599SOL    HW117696   6.226   3.613   2.389
 5599SOL    HW217697   6.383   3.651   2.365
 5600SOL     OW17698   1.848   0.160   2.685
 5600SOL    HW117699   1.816   0.126   2.597
 5600SOL    HW217700   1.830   0.258   2.692
 5601SOL     OW17701   4.348   2.237   5.745
 5601SOL    HW117702   4.419   2.257   5.677
 5601SOL    HW217703   4.274   2.185   5.701
 5602SOL     OW17704   6.902   0.564   3.045
 5602SOL    HW117705   6.811   0.534   3.073
 5602SOL    HW217706   6.958   0.583   3.126
 5603SOL     OW17707   4.921   2.286   5.220
 5603SOL    HW117708   4.825   2.314   5.211
 5603SOL    HW217709   4.978   2.345   5.163
 5604SOL     OW17710   0.809   2.110   4.532
 5604SOL    HW117711   0.835   2.162   4.613
 5604SOL    HW217712   0.851   2.019   4.535
 5605SOL     OW17713   1.458   6.953   5.309
 5605SOL    HW117714   1.509   6.903   5.378
 5605SOL    HW217715   1.502   6.944   5.220
 5606SOL     OW17716   4.184   0.928   0.503
 5606SOL    HW117717   4.169   0.900   0.597
 5606SOL    HW217718   4.279   0.954   0.489
 5607SOL     OW17719   5.376   2.238   3.899
 5607SOL    HW117720   5.447   2.223   3.967
 5607SOL    HW217721   5.299   2.177   3.917
 5608SOL     OW17722   5.589   1.602   3.068
 5608SOL    HW117723   5.524   1.672   3.097
 5608SOL    HW217724   5.545   1.512   3.071
 5609SOL     OW17725   4.835   5.954   0.179
 5609SOL    HW117726   4.853   5.966   0.277
 5609SOL    HW217727   4.917   5.976   0.127
 5610SOL     OW17728   5.887   3.779   1.166
 5610SOL    HW117729   5.962   3.838   1.196
 5610SOL    HW217730   5.863   3.715   1.239
 5611SOL     OW17731   0.601   4.870   2.003
 5611SOL    HW117732   0.663   4.862   2.081
 5611SOL    HW217733   0.526   4.804   2.012
 5612SOL     OW17734   3.371   2.569   0.808
 5612SOL    HW117735   3.371   2.589   0.906
 5612SOL    HW217736   3.309   2.631   0.761
 5613SOL     OW17737   7.002   4.743   5.514
 5613SOL    HW117738   6.948   4.720   5.433
 5613SOL    HW217739   6.943   4.738   5.595
 5614SOL     OW17740   6.004   2.454   4.589
 5614SOL    HW117741   6.055   2.371   4.569
 5614SOL    HW217742   5.965   2.447   4.681
 5615SOL     OW17743   0.294   1.160   2.996
 5615SOL    HW117744   0.299   1.239   3.057
 5615SOL    HW217745   0.206   1.158   2.949
 5616SOL     OW17746   2.156   2.592   4.889
 5616SOL    HW117747   2.079   2.573   4.827
 5616SOL    HW217748   2.199   2.678   4.863
 5617SOL     OW17749   1.976   3.787   4.931
 5617SOL    HW117750   1.895   3.749   4.886
 5617SOL    HW217751   2.033   3.832   4.863
 5618SOL     OW17752   6.666   4.891   3.257
 5618SOL    HW117753   6.716   4.919   3.339
 5618SOL    HW217754   6.599   4.962   3.233
 5619SOL     OW17755   3.578   3.266   3.279
 5619SOL    HW117756   3.671   3.298   3.293
 5619SOL    HW217757   3.579   3.167   3.267
 5620SOL     OW17758   5.037   4.038   6.481
 5620SOL    HW117759   5.074   4.080   6.398
 5620SOL    HW217760   4.999   3.948   6.459
 5621SOL     OW17761   1.068   3.124   6.308
 5621SOL    HW117762   0.982   3.168   6.282
 5621SOL    HW217763   1.140   3.149   6.244
 5622SOL     OW17764   5.213   6.602   5.360
 5622SOL    HW117765   5.144   6.672   5.340
 5622SOL    HW217766   5.248   6.616   5.453
 5623SOL     OW17767   5.029   6.145   5.421
 5623SOL    HW117768   4.934   6.131   5.392
 5623SOL    HW217769   5.039   6.237   5.459
 5624SOL     OW17770   0.808   5.153   3.904
 5624SOL    HW117771   0.801   5.124   3.999
 5624SOL    HW217772   0.721   5.194   3.875
 5625SOL     OW17773   0.498   4.681   5.469
 5625SOL    HW117774   0.528   4.588   5.486
 5625SOL    HW217775   0.578   4.742   5.464
 5626SOL     OW17776   2.691   5.337   4.686
 5626SOL    HW117777   2.731   5.250   4.715
 5626SOL    HW217778   2.596   5.342   4.716
 5627SOL     OW17779   0.066   5.647   6.005
 5627SOL    HW117780   0.011   5.646   5.922
 5627SOL    HW217781   0.008   5.673   6.083
 5628SOL     OW17782   2.826   2.780   1.331
 5628SOL    HW117783   2.813   2.720   1.410
 5628SOL    HW217784   2.868   2.866   1.360
 5629SOL     OW17785   4.484   2.588   1.687
 5629SOL    HW117786   4.552   2.643   1.735
 5629SOL    HW217787   4.430   2.646   1.627
 5630SOL     OW17788   1.720   3.857   5.934
 5630SOL    HW117789   1.721   3.873   5.835
 5630SOL    HW217790   1.797   3.905   5.975
 5631SOL     OW17791   5.215   1.627   1.487
 5631SOL    HW117792   5.296   1.639   1.545
 5631SOL    HW217793   5.135   1.666   1.533
 5632SOL     OW17794   5.266   1.891   5.269
 5632SOL    HW117795   5.318   1.962   5.317
 5632SOL    HW217796   5.169   1.899   5.293
 5633SOL     OW17797   6.871   5.148   4.710
 5633SOL    HW117798   6.852   5.222   4.645
 5633SOL    HW217799   6.791   5.088   4.717
 5634SOL     OW17800   2.060   4.707   3.769
 5634SOL    HW117801   1.994   4.642   3.731
 5634SOL    HW217802   2.121   4.739   3.697
 5635SOL     OW17803   2.735   6.131   6.908
 5635SOL    HW117804   2.647   6.134   6.954
 5635SOL    HW217805   2.797   6.070   6.959
 5636SOL     OW17806   6.174   0.986   5.320
 5636SOL    HW117807   6.189   1.044   5.239
 5636SOL    HW217808   6.085   1.007   5.360
 5637SOL     OW17809   4.735   6.798   3.989
 5637SOL    HW117810   4.639   6.775   4.001
 5637SOL    HW217811   4.787   6.768   4.069
 5638SOL     OW17812   6.305   5.421   0.722
 5638SOL    HW117813   6.206   5.419   0.734
 5638SOL    HW217814   6.337   5.515   0.720
 5639SOL     OW17815   1.745   0.640   1.505
 5639SOL    HW117816   1.825   0.672   1.555
 5639SOL    HW217817   1.757   0.657   1.408
 5640SOL     OW17818   2.859   6.881   2.386
 5640SOL    HW117819   2.792   6.876   2.460
 5640SOL    HW217820   2.949   6.905   2.423
 5641SOL     OW17821   0.083   4.550   6.110
 5641SOL    HW117822   0.035   4.462   6.114
 5641SOL    HW217823   0.179   4.537   6.135
 5642SOL     OW17824   1.118   4.976   5.571
 5642SOL    HW117825   1.040   4.996   5.632
 5642SOL    HW217826   1.173   5.059   5.560
 5643SOL     OW17827   3.741   0.883   4.798
 5643SOL    HW117828   3.738   0.951   4.871
 5643SOL    HW217829   3.836   0.869   4.769
 5644SOL     OW17830   4.073   0.158   3.835
 5644SOL    HW117831   4.033   0.229   3.777
 5644SOL    HW217832   4.003   0.090   3.858
 5645SOL     OW17833   6.569   4.219   3.070
 5645SOL    HW117834   6.497   4.151   3.079
 5645SOL    HW217835   6.588   4.259   3.159
 5646SOL     OW17836   2.451   5.668   3.226
 5646SOL    HW117837   2.481   5.764   3.220
 5646SOL    HW217838   2.471   5.621   3.140
 5647SOL     OW17839   6.410   6.313   0.066
 5647SOL    HW117840   6.445   6.385   0.006
 5647SOL    HW217841   6.473   6.300   0.143
 5648SOL     OW17842   1.808   1.484   2.695
 5648SOL    HW117843   1.749   1.403   2.694
 5648SOL    HW217844   1.892   1.465   2.644
 5649SOL     OW17845   0.301   6.572   5.731
 5649SOL    HW117846   0.241   6.611   5.661
 5649SOL    HW217847   0.396   6.594   5.708
 5650SOL     OW17848   0.585   5.890   0.942
 5650SOL    HW117849   0.661   5.829   0.965
 5650SOL    HW217850   0.620   5.982   0.928
 5651SOL     OW17851   0.750   1.168   1.837
 5651SOL    HW117852   0.787   1.190   1.927
 5651SOL    HW217853   0.765   1.071   1.818
 5652SOL     OW17854   5.899   6.542   2.165
 5652SOL    HW117855   5.851   6.477   2.106
 5652SOL    HW217856   5.848   6.628   2.168
 5653SOL     OW17857   0.305   6.221   6.300
 5653SOL    HW117858   0.388   6.262   6.261
 5653SOL    HW217859   0.258   6.166   6.230
 5654SOL     OW17860   6.614   6.826   5.403
 5654SOL    HW117861   6.569   6.915   5.407
 5654SOL    HW217862   6.565   6.761   5.461
 5655SOL     OW17863   1.081   3.540   4.565
 5655SOL    HW117864   1.150   3.531   4.636
 5655SOL    HW217865   1.049   3.449   4.538
 5656SOL     OW17866   1.374   3.420   0.075
 5656SOL    HW117867   1.402   3.511   0.105
 5656SOL    HW217868   1.451   3.375   0.029
 5657SOL     OW17869   5.747   0.608   1.040
 5657SOL    HW117870   5.662   0.661   1.039
 5657SOL    HW217871   5.796   0.627   1.126
 5658SOL     OW17872   3.203   5.554   5.710
 5658SOL    HW117873   3.215   5.580   5.805
 5658SOL    HW217874   3.215   5.635   5.651
 5659SOL     OW17875   3.898   3.986   3.632
 5659SOL    HW117876   3.828   3.943   3.690
 5659SOL    HW217877   3.863   4.072   3.596
 5660SOL     OW17878   5.797   0.398   5.669
 5660SOL    HW117879   5.741   0.390   5.751
 5660SOL    HW217880   5.888   0.361   5.686
 5661SOL     OW17881   0.214   4.143   5.498
 5661SOL    HW117882   0.130   4.094   5.473
 5661SOL    HW217883   0.200   4.191   5.584
 5662SOL     OW17884   3.056   5.513   3.299
 5662SOL    HW117885   3.004   5.504   3.214
 5662SOL    HW217886   2.996   5.496   3.377
 5663SOL     OW17887   2.263   3.652   6.599
 5663SOL    HW117888   2.273   3.647   6.699
 5663SOL    HW217889   2.191   3.588   6.570
 5664SOL     OW17890   6.860   4.184   4.540
 5664SOL    HW117891   6.804   4.207   4.460
 5664SOL    HW217892   6.832   4.239   4.618
 5665SOL     OW17893   1.273   2.148   6.999
 5665SOL    HW117894   1.313   2.085   6.932
 5665SOL    HW217895   1.300   2.120   0.070
 5666SOL     OW17896   5.783   5.990   0.829
 5666SOL    HW117897   5.742   5.901   0.807
 5666SOL    HW217898   5.860   6.007   0.767
 5667SOL     OW17899   1.061   4.415   3.638
 5667SOL    HW117900   1.110   4.424   3.725
 5667SOL    HW217901   1.027   4.322   3.629
 5668SOL     OW17902   5.131   1.865   4.980
 5668SOL    HW117903   5.135   1.965   4.984
 5668SOL    HW217904   5.116   1.829   5.072
 5669SOL     OW17905   0.680   2.714   6.763
 5669SOL    HW117906   0.661   2.811   6.774
 5669SOL    HW217907   0.637   2.662   6.837
 5670SOL     OW17908   0.258   2.549   3.497
 5670SOL    HW117909   0.351   2.530   3.466
 5670SOL    HW217910   0.196   2.542   3.419
 5671SOL     OW17911   0.790   6.629   6.298
 5671SOL    HW117912   0.876   6.643   6.249
 5671SOL    HW217913   0.718   6.608   6.233
 5672SOL     OW17914   4.343   4.564   6.503
 5672SOL    HW117915   4.277   4.637   6.523
 5672SOL    HW217916   4.307   4.506   6.430
 5673SOL     OW17917   1.037   6.127   1.942
 5673SOL    HW117918   1.027   6.226   1.930
 5673SOL    HW217919   1.115   6.108   2.001
 5674SOL     OW17920   6.603   4.676   3.974
 5674SOL    HW117921   6.582   4.773   3.963
 5674SOL    HW217922   6.555   4.623   3.904
 5675SOL     OW17923   4.751   2.445   5.758
 5675SOL    HW117924   4.757   2.378   5.833
 5675SOL    HW217925   4.791   2.531   5.787
 5676SOL     OW17926   2.089   2.223   2.501
 5676SOL    HW117927   2.167   2.240   2.561
 5676SOL    HW217928   2.045   2.137   2.527
 5677SOL     OW17929   0.571   2.274   2.991
 5677SOL    HW117930   0.662   2.286   2.953
 5677SOL    HW217931   0.507   2.253   2.918
 5678SOL     OW17932   3.133   6.257   2.603
 5678SOL    HW117933   3.149   6.356   2.609
 5678SOL    HW217934   3.149   6.227   2.509
 5679SOL     OW17935   1.368   0.812   3.557
 5679SOL    HW117936   1.306   0.752   3.508
 5679SOL    HW217937   1.459   0.772   3.560
 5680SOL     OW17938   1.257   5.532   0.731
 5680SOL    HW117939   1.218   5.504   0.819
 5680SOL    HW217940   1.247   5.458   0.665
 5681SOL     OW17941   0.330   3.536   0.124
 5681SOL    HW117942   0.336   3.561   0.027
 5681SOL    HW217943   0.265   3.460   0.135
 5682SOL     OW17944   2.333   4.725   5.448
 5682SOL    HW117945   2.332   4.626   5.454
 5682SOL    HW217946   2.368   4.764   5.533
 5683SOL     OW17947   3.279   1.327   0.180
 5683SOL    HW117948   3.197   1.270   0.183
 5683SOL    HW217949   3.257   1.416   0.139
 5684SOL     OW17950   3.364   3.066   4.714
 5684SOL    HW117951   3.432   3.138   4.728
 5684SOL    HW217952   3.350   3.053   4.616
 5685SOL     OW17953   1.778   3.277   2.127
 5685SOL    HW117954   1.802   3.213   2.054
 5685SOL    HW217955   1.720   3.349   2.091
 5686SOL     OW17956   2.611   6.811   6.568
 5686SOL    HW117957   2.674   6.772   6.501
 5686SOL    HW217958   2.518   6.811   6.531
 5687SOL     OW17959   0.655   4.159   5.511
 5687SOL    HW117960   0.733   4.156   5.574
 5687SOL    HW217961   0.689   4.166   5.417
 5688SOL     OW17962   6.803   1.930   0.020
 5688SOL    HW117963   6.890   1.881   0.016
 5688SOL    HW217964   6.779   1.962   6.949
 5689SOL     OW17965   4.407   0.588   0.483
 5689SOL    HW117966   4.438   0.535   0.404
 5689SOL    HW217967   4.314   0.621   0.467
 5690SOL     OW17968   2.050   6.006   0.539
 5690SOL    HW117969   1.955   5.974   0.542
 5690SOL    HW217970   2.056   6.096   0.583
 5691SOL     OW17971   2.541   6.052   1.735
 5691SOL    HW117972   2.486   6.120   1.784
 5691SOL    HW217973   2.535   5.964   1.782
 5692SOL     OW17974   6.917   3.396   6.222
 5692SOL    HW117975   6.849   3.377   6.151
 5692SOL    HW217976   6.910   3.491   6.251
 5693SOL     OW17977   5.984   2.461   2.337
 5693SOL    HW117978   6.008   2.513   2.420
 5693SOL    HW217979   6.039   2.378   2.333
 5694SOL     OW17980   1.252   1.966   3.750
 5694SOL    HW117981   1.224   1.870   3.744
 5694SOL    HW217982   1.321   1.977   3.821
 5695SOL     OW17983   1.227   2.543   3.053
 5695SOL    HW117984   1.136   2.518   3.085
 5695SOL    HW217985   1.281   2.579   3.129
 5696SOL     OW17986   1.791   0.588   3.338
 5696SOL    HW117987   1.816   0.684   3.331
 5696SOL    HW217988   1.856   0.541   3.397
 5697SOL     OW17989   6.341   2.396   1.289
 5697SOL    HW117990   6.288   2.481   1.282
 5697SOL    HW217991   6.314   2.347   1.372
 5698SOL     OW17992   0.638   3.493   2.582
 5698SOL    HW117993   0.562   3.463   2.524
 5698SOL    HW217994   0.710   3.424   2.580
 5699SOL     OW17995   6.401   1.746   2.829
 5699SOL    HW117996   6.369   1.817   2.765
 5699SOL    HW217997   6.324   1.713   2.883
 5700SOL     OW17998   6.363   6.397   4.237
 5700SOL    HW117999   6.311   6.328   4.287
 5700SOL    HW218000   6.367   6.481   4.291
 5701SOL     OW18001   1.097   6.349   3.341
 5701SOL    HW118002   1.073   6.312   3.431
 5701SOL    HW218003   1.182   6.307   3.310
 5702SOL     OW18004   1.776   6.967   5.644
 5702SOL    HW118005   1.774   6.920   5.556
 5702SOL    HW218006   1.833   0.028   5.637
 5703SOL     OW18007   5.507   4.654   1.411
 5703SOL    HW118008   5.419   4.619   1.379
 5703SOL    HW218009   5.531   4.737   1.360
 5704SOL     OW18010   4.210   5.672   2.147
 5704SOL    HW118011   4.208   5.769   2.124
 5704SOL    HW218012   4.155   5.620   2.082
 5705SOL     OW18013   5.056   1.011   0.860
 5705SOL    HW118014   4.958   1.013   0.842
 5705SOL    HW218015   5.107   1.024   0.775
 5706SOL     OW18016   0.478   2.761   0.440
 5706SOL    HW118017   0.413   2.689   0.417
 5706SOL    HW218018   0.567   2.739   0.400
 5707SOL     OW18019   7.011   0.211   0.030
 5707SOL    HW118020   0.069   0.161   0.067
 5707SOL    HW218021   0.018   0.303   0.003
 5708SOL     OW18022   5.156   6.446   1.167
 5708SOL    HW118023   5.099   6.427   1.246
 5708SOL    HW218024   5.253   6.442   1.194
 5709SOL     OW18025   1.643   0.125   3.536
 5709SOL    HW118026   1.612   0.034   3.562
 5709SOL    HW218027   1.566   0.180   3.505
 5710SOL     OW18028   2.305   3.259   6.353
 5710SOL    HW118029   2.392   3.271   6.401
 5710SOL    HW218030   2.236   3.228   6.418
 5711SOL     OW18031   4.474   0.825   2.895
 5711SOL    HW118032   4.399   0.826   2.960
 5711SOL    HW218033   4.512   0.917   2.887
 5712SOL     OW18034   0.726   5.404   5.936
 5712SOL    HW118035   0.730   5.381   5.839
 5712SOL    HW218036   0.631   5.421   5.963
 5713SOL     OW18037   1.730   2.231   1.705
 5713SOL    HW118038   1.738   2.158   1.773
 5713SOL    HW218039   1.791   2.306   1.731
 5714SOL     OW18040   0.570   6.214   6.215
 5714SOL    HW118041   0.634   6.147   6.178
 5714SOL    HW218042   0.607   6.251   6.300
 5715SOL     OW18043   1.282   6.568   3.293
 5715SOL    HW118044   1.231   6.485   3.314
 5715SOL    HW218045   1.305   6.569   3.196
 5716SOL     OW18046   1.314   4.701   0.055
 5716SOL    HW118047   1.412   4.711   0.072
 5716SOL    HW218048   1.284   4.768   7.008
 5717SOL     OW18049   1.867   6.251   0.860
 5717SOL    HW118050   1.946   6.306   0.830
 5717SOL    HW218051   1.785   6.282   0.811
 5718SOL     OW18052   1.749   3.601   6.013
 5718SOL    HW118053   1.847   3.584   6.027
 5718SOL    HW218054   1.735   3.696   5.985
 5719SOL     OW18055   2.277   1.348   6.003
 5719SOL    HW118056   2.359   1.321   5.952
 5719SOL    HW218057   2.295   1.432   6.054
 5720SOL     OW18058   1.120   5.009   4.407
 5720SOL    HW118059   1.183   5.023   4.484
 5720SOL    HW218060   1.172   4.993   4.324
 5721SOL     OW18061   0.469   3.601   0.705
 5721SOL    HW118062   0.512   3.513   0.722
 5721SOL    HW218063   0.534   3.662   0.659
 5722SOL     OW18064   6.402   1.897   4.962
 5722SOL    HW118065   6.493   1.893   4.921
 5722SOL    HW218066   6.404   1.856   5.053
 5723SOL     OW18067   4.501   3.382   6.711
 5723SOL    HW118068   4.470   3.461   6.764
 5723SOL    HW218069   4.600   3.387   6.700
 5724SOL     OW18070   4.119   2.755   5.348
 5724SOL    HW118071   4.088   2.743   5.443
 5724SOL    HW218072   4.089   2.676   5.294
 5725SOL     OW18073   6.355   5.953   4.130
 5725SOL    HW118074   6.268   5.970   4.177
 5725SOL    HW218075   6.351   5.990   4.038
 5726SOL     OW18076   6.729   4.222   4.299
 5726SOL    HW118077   6.731   4.225   4.199
 5726SOL    HW218078   6.674   4.144   4.328
 5727SOL     OW18079   0.785   2.640   3.864
 5727SOL    HW118080   0.771   2.568   3.796
 5727SOL    HW218081   0.880   2.669   3.863
 5728SOL     OW18082   4.560   1.749   6.840
 5728SOL    HW118083   4.517   1.698   6.914
 5728SOL    HW218084   4.494   1.813   6.801
 5729SOL     OW18085   0.992   1.469   0.335
 5729SOL    HW118086   1.054   1.400   0.297
 5729SOL    HW218087   1.012   1.480   0.433
 5730SOL     OW18088   4.414   5.456   5.684
 5730SOL    HW118089   4.407   5.465   5.585
 5730SOL    HW218090   4.355   5.382   5.716
 5731SOL     OW18091   2.359   6.525   4.105
 5731SOL    HW118092   2.280   6.556   4.052
 5731SOL    HW218093   2.332   6.448   4.163
 5732SOL     OW18094   6.913   4.969   5.341
 5732SOL    HW118095   6.900   5.060   5.304
 5732SOL    HW218096   7.009   4.955   5.365
 5733SOL     OW18097   3.551   0.387   5.652
 5733SOL    HW118098   3.551   0.486   5.664
 5733SOL    HW218099   3.622   0.346   5.709
 5734SOL     OW18100   1.682   5.967   5.812
 5734SOL    HW118101   1.636   5.917   5.886
 5734SOL    HW218102   1.683   6.065   5.834
 5735SOL     OW18103   4.203   1.560   2.459
 5735SOL    HW118104   4.261   1.594   2.385
 5735SOL    HW218105   4.138   1.493   2.421
 5736SOL     OW18106   6.433   4.330   1.277
 5736SOL    HW118107   6.434   4.420   1.320
 5736SOL    HW218108   6.379   4.333   1.193
 5737SOL     OW18109   5.091   5.748   6.892
 5737SOL    HW118110   5.025   5.690   6.844
 5737SOL    HW218111   5.148   5.692   6.951
 5738SOL     OW18112   3.109   2.291   6.696
 5738SOL    HW118113   3.022   2.322   6.657
 5738SOL    HW218114   3.095   2.206   6.746
 5739SOL     OW18115   1.178   6.546   5.386
 5739SOL    HW118116   1.268   6.587   5.397
 5739SOL    HW218117   1.119   6.573   5.462
 5740SOL     OW18118   3.773   3.825   1.184
 5740SOL    HW118119   3.832   3.796   1.109
 5740SOL    HW218120   3.759   3.749   1.247
 5741SOL     OW18121   6.544   3.596   4.953
 5741SOL    HW118122   6.561   3.601   4.854
 5741SOL    HW218123   6.494   3.512   4.974
 5742SOL     OW18124   4.437   6.442   2.454
 5742SOL    HW118125   4.439   6.358   2.508
 5742SOL    HW218126   4.461   6.520   2.512
 5743SOL     OW18127   2.464   5.959   5.787
 5743SOL    HW118128   2.430   6.018   5.713
 5743SOL    HW218129   2.402   5.881   5.799
 5744SOL     OW18130   4.751   1.327   1.089
 5744SOL    HW118131   4.704   1.396   1.145
 5744SOL    HW218132   4.845   1.315   1.122
 5745SOL     OW18133   2.277   1.420   3.344
 5745SOL    HW118134   2.344   1.381   3.281
 5745SOL    HW218135   2.276   1.367   3.429
 5746SOL     OW18136   5.102   0.219   1.931
 5746SOL    HW118137   5.126   0.212   2.027
 5746SOL    HW218138   5.180   0.253   1.879
 5747SOL     OW18139   1.347   5.163   1.918
 5747SOL    HW118140   1.345   5.244   1.977
 5747SOL    HW218141   1.256   5.148   1.879
 5748SOL     OW18142   1.205   0.390   1.030
 5748SOL    HW118143   1.248   0.466   0.980
 5748SOL    HW218144   1.113   0.376   0.993
 5749SOL     OW18145   1.231   6.289   4.916
 5749SOL    HW118146   1.240   6.363   4.983
 5749SOL    HW218147   1.139   6.293   4.876
 5750SOL     OW18148   6.591   6.423   4.847
 5750SOL    HW118149   6.656   6.489   4.810
 5750SOL    HW218150   6.641   6.345   4.884
 5751SOL     OW18151   2.277   2.919   4.552
 5751SOL    HW118152   2.333   2.839   4.575
 5751SOL    HW218153   2.331   2.983   4.497
 5752SOL     OW18154   5.838   0.387   0.230
 5752SOL    HW118155   5.919   0.340   0.266
 5752SOL    HW218156   5.764   0.320   0.217
 5753SOL     OW18157   3.659   4.084   4.364
 5753SOL    HW118158   3.570   4.099   4.407
 5753SOL    HW218159   3.729   4.079   4.435
 5754SOL     OW18160   0.393   5.585   2.454
 5754SOL    HW118161   0.468   5.559   2.515
 5754SOL    HW218162   0.306   5.557   2.495
 5755SOL     OW18163   2.199   2.137   6.833
 5755SOL    HW118164   2.226   2.057   6.886
 5755SOL    HW218165   2.112   2.173   6.868
 5756SOL     OW18166   6.555   0.407   3.372
 5756SOL    HW118167   6.651   0.400   3.344
 5756SOL    HW218168   6.550   0.413   3.472
 5757SOL     OW18169   0.412   5.726   2.916
 5757SOL    HW118170   0.386   5.790   2.989
 5757SOL    HW218171   0.420   5.775   2.829
 5758SOL     OW18172   2.423   1.343   4.253
 5758SOL    HW118173   2.407   1.436   4.286
 5758SOL    HW218174   2.375   1.278   4.312
 5759SOL     OW18175   4.813   1.053   6.801
 5759SOL    HW118176   4.770   1.101   6.724
 5759SOL    HW218177   4.765   0.966   6.816
 5760SOL     OW18178   6.673   3.253   0.613
 5760SOL    HW118179   6.585   3.253   0.661
 5760SOL    HW218180   6.736   3.189   0.659
 5761SOL     OW18181   5.979   5.120   5.965
 5761SOL    HW118182   5.973   5.157   5.872
 5761SOL    HW218183   5.904   5.055   5.980
 5762SOL     OW18184   4.932   4.298   0.812
 5762SOL    HW118185   4.987   4.248   0.745
 5762SOL    HW218186   4.850   4.245   0.833
 5763SOL     OW18187   6.428   6.090   0.534
 5763SOL    HW118188   6.502   6.158   0.541
 5763SOL    HW218189   6.417   6.043   0.622
 5764SOL     OW18190   5.049   4.890   5.451
 5764SOL    HW118191   4.997   4.908   5.368
 5764SOL    HW218192   5.083   4.976   5.489
 5765SOL     OW18193   6.305   2.907   0.798
 5765SOL    HW118194   6.393   2.869   0.825
 5765SOL    HW218195   6.243   2.833   0.772
 5766SOL     OW18196   1.636   1.608   5.916
 5766SOL    HW118197   1.661   1.525   5.966
 5766SOL    HW218198   1.545   1.638   5.944
 5767SOL     OW18199   1.894   0.862   0.607
 5767SOL    HW118200   1.978   0.847   0.554
 5767SOL    HW218201   1.858   0.775   0.639
 5768SOL     OW18202   1.412   5.980   4.215
 5768SOL    HW118203   1.354   6.041   4.161
 5768SOL    HW218204   1.404   6.003   4.312
 5769SOL     OW18205   2.567   5.736   4.808
 5769SOL    HW118206   2.623   5.766   4.885
 5769SOL    HW218207   2.627   5.707   4.733
 5770SOL     OW18208   6.424   5.736   6.689
 5770SOL    HW118209   6.333   5.776   6.701
 5770SOL    HW218210   6.479   5.794   6.630
 5771SOL     OW18211   1.296   0.002   4.106
 5771SOL    HW118212   1.249   6.948   4.060
 5771SOL    HW218213   1.301   7.004   4.204
 5772SOL     OW18214   5.140   1.549   1.830
 5772SOL    HW118215   5.145   1.623   1.764
 5772SOL    HW218216   5.068   1.569   1.897
 5773SOL     OW18217   4.128   0.452   3.159
 5773SOL    HW118218   4.048   0.502   3.191
 5773SOL    HW218219   4.103   0.356   3.142
 5774SOL     OW18220   2.735   6.161   3.735
 5774SOL    HW118221   2.807   6.214   3.692
 5774SOL    HW218222   2.747   6.164   3.834
 5775SOL     OW18223   1.782   0.741   2.478
 5775SOL    HW118224   1.847   0.665   2.484
 5775SOL    HW218225   1.770   0.782   2.568
 5776SOL     OW18226   0.034   0.589   4.062
 5776SOL    HW118227   7.018   0.627   4.147
 5776SOL    HW218228   7.005   0.506   4.038
 5777SOL     OW18229   6.903   0.570   5.022
 5777SOL    HW118230   6.863   0.565   4.931
 5777SOL    HW218231   6.982   0.631   5.020
 5778SOL     OW18232   1.443   1.286   1.222
 5778SOL    HW118233   1.504   1.336   1.282
 5778SOL    HW218234   1.488   1.202   1.190
 5779SOL     OW18235   4.573   2.934   0.633
 5779SOL    HW118236   4.556   2.859   0.698
 5779SOL    HW218237   4.525   3.016   0.663
 5780SOL     OW18238   6.072   5.834   3.732
 5780SOL    HW118239   6.049   5.929   3.715
 5780SOL    HW218240   6.094   5.822   3.829
 5781SOL     OW18241   6.760   4.440   4.451
 5781SOL    HW118242   6.710   4.423   4.536
 5781SOL    HW218243   6.752   4.359   4.392
 5782SOL     OW18244   1.380   1.441   0.118
 5782SOL    HW118245   1.410   1.522   0.169
 5782SOL    HW218246   1.367   1.466   0.022
 5783SOL     OW18247   1.936   0.196   1.550
 5783SOL    HW118248   2.028   0.213   1.585
 5783SOL    HW218249   1.882   0.150   1.620
 5784SOL     OW18250   6.994   5.627   6.954
 5784SOL    HW118251   6.929   5.634   6.879
 5784SOL    HW218252   0.012   5.718   6.974
 5785SOL     OW18253   2.478   1.659   0.777
 5785SOL    HW118254   2.456   1.755   0.762
 5785SOL    HW218255   2.553   1.632   0.716
 5786SOL     OW18256   0.769   3.481   0.565
 5786SOL    HW118257   0.720   3.421   0.627
 5786SOL    HW218258   0.731   3.472   0.473
 5787SOL     OW18259   3.887   1.707   5.052
 5787SOL    HW118260   3.839   1.726   5.138
 5787SOL    HW218261   3.942   1.786   5.026
 5788SOL     OW18262   3.025   1.544   1.211
 5788SOL    HW118263   2.993   1.577   1.300
 5788SOL    HW218264   3.030   1.444   1.212
 5789SOL     OW18265   3.047   4.426   6.905
 5789SOL    HW118266   3.020   4.504   6.849
 5789SOL    HW218267   3.073   4.457   6.996
 5790SOL     OW18268   0.782   4.794   4.814
 5790SOL    HW118269   0.701   4.768   4.762
 5790SOL    HW218270   0.860   4.805   4.752
 5791SOL     OW18271   3.141   1.153   2.740
 5791SOL    HW118272   3.184   1.209   2.811
 5791SOL    HW218273   3.208   1.089   2.703
 5792SOL     OW18274   5.962   3.062   2.804
 5792SOL    HW118275   5.919   3.025   2.887
 5792SOL    HW218276   5.893   3.078   2.734
 5793SOL     OW18277   5.224   0.732   3.669
 5793SOL    HW118278   5.236   0.655   3.732
 5793SOL    HW218279   5.127   0.739   3.644
 5794SOL     OW18280   2.563   1.094   6.946
 5794SOL    HW118281   2.471   1.077   6.979
 5794SOL    HW218282   2.617   1.010   6.952
 5795SOL     OW18283   6.566   7.000   6.713
 5795SOL    HW118284   6.510   7.013   6.632
 5795SOL    HW218285   6.547   0.052   6.779
 5796SOL     OW18286   5.071   1.340   6.019
 5796SOL    HW118287   5.075   1.262   6.082
 5796SOL    HW218288   4.981   1.345   5.978
 5797SOL     OW18289   4.477   2.556   6.999
 5797SOL    HW118290   4.507   2.463   0.000
 5797SOL    HW218291   4.555   2.618   7.005
 5798SOL     OW18292   0.773   5.427   4.486
 5798SOL    HW118293   0.675   5.429   4.504
 5798SOL    HW218294   0.813   5.344   4.526
 5799SOL     OW18295   0.396   0.449   3.781
 5799SOL    HW118296   0.451   0.421   3.702
 5799SOL    HW218297   0.343   0.370   3.813
 5800SOL     OW18298   6.579   6.349   1.854
 5800SOL    HW118299   6.521   6.425   1.882
 5800SOL    HW218300   6.636   6.320   1.931
 5801SOL     OW18301   1.530   2.763   3.092
 5801SOL    HW118302   1.532   2.669   3.057
 5801SOL    HW218303   1.619   2.805   3.081
 5802SOL     OW18304   0.622   3.810   2.215
 5802SOL    HW118305   0.573   3.810   2.302
 5802SOL    HW218306   0.557   3.795   2.140
 5803SOL     OW18307   2.432   5.329   1.499
 5803SOL    HW118308   2.412   5.414   1.450
 5803SOL    HW218309   2.417   5.343   1.597
 5804SOL     OW18310   0.506   5.652   3.596
 5804SOL    HW118311   0.431   5.685   3.538
 5804SOL    HW218312   0.504   5.701   3.683
 5805SOL     OW18313   2.326   3.103   0.613
 5805SOL    HW118314   2.302   3.022   0.559
 5805SOL    HW218315   2.304   3.186   0.562
 5806SOL     OW18316   6.914   5.281   4.925
 5806SOL    HW118317   6.963   5.207   4.971
 5806SOL    HW218318   6.912   5.263   4.826
 5807SOL     OW18319   1.170   3.678   0.812
 5807SOL    HW118320   1.102   3.709   0.745
 5807SOL    HW218321   1.134   3.688   0.904
 5808SOL     OW18322   6.160   5.614   4.273
 5808SOL    HW118323   6.141   5.631   4.370
 5808SOL    HW218324   6.088   5.558   4.234
 5809SOL     OW18325   6.523   2.306   4.638
 5809SOL    HW118326   6.497   2.296   4.734
 5809SOL    HW218327   6.562   2.220   4.605
 5810SOL     OW18328   4.215   1.300   4.943
 5810SOL    HW118329   4.298   1.273   4.992
 5810SOL    HW218330   4.163   1.366   4.998
 5811SOL     OW18331   3.181   0.866   5.286
 5811SOL    HW118332   3.249   0.901   5.222
 5811SOL    HW218333   3.091   0.902   5.262
 5812SOL     OW18334   6.303   2.853   4.957
 5812SOL    HW118335   6.351   2.795   4.891
 5812SOL    HW218336   6.350   2.848   5.045
 5813SOL     OW18337   1.811   1.692   0.972
 5813SOL    HW118338   1.874   1.753   1.020
 5813SOL    HW218339   1.831   1.597   0.997
 5814SOL     OW18340   6.429   4.008   2.185
 5814SOL    HW118341   6.350   4.069   2.196
 5814SOL    HW218342   6.399   3.913   2.199
 5815SOL     OW18343   4.222   1.285   4.680
 5815SOL    HW118344   4.234   1.330   4.769
 5815SOL    HW218345   4.300   1.306   4.621
 5816SOL     OW18346   4.642   4.829   0.541
 5816SOL    HW118347   4.663   4.734   0.564
 5816SOL    HW218348   4.603   4.875   0.620
 5817SOL     OW18349   5.796   4.306   5.739
 5817SOL    HW118350   5.751   4.396   5.734
 5817SOL    HW218351   5.787   4.259   5.652
 5818SOL     OW18352   6.885   5.574   5.309
 5818SOL    HW118353   6.801   5.629   5.310
 5818SOL    HW218354   6.958   5.624   5.358
 5819SOL     OW18355   3.462   0.108   6.627
 5819SOL    HW118356   3.454   0.153   6.716
 5819SOL    HW218357   3.551   0.063   6.619
 5820SOL     OW18358   4.523   5.385   3.515
 5820SOL    HW118359   4.451   5.354   3.453
 5820SOL    HW218360   4.481   5.423   3.598
 5821SOL     OW18361   6.874   6.959   1.187
 5821SOL    HW118362   6.777   6.955   1.209
 5821SOL    HW218363   6.891   0.013   1.123
 5822SOL     OW18364   1.556   3.005   1.088
 5822SOL    HW118365   1.548   2.906   1.089
 5822SOL    HW218366   1.498   3.044   1.160
 5823SOL     OW18367   2.506   0.293   5.187
 5823SOL    HW118368   2.503   0.390   5.210
 5823SOL    HW218369   2.492   0.282   5.088
 5824SOL     OW18370   0.125   5.786   2.256
 5824SOL    HW118371   0.152   5.711   2.316
 5824SOL    HW218372   0.089   5.862   2.310
 5825SOL     OW18373   6.683   1.560   5.437
 5825SOL    HW118374   6.713   1.549   5.342
 5825SOL    HW218375   6.763   1.575   5.495
 5826SOL     OW18376   0.137   5.008   6.184
 5826SOL    HW118377   0.185   5.091   6.157
 5826SOL    HW218378   0.116   5.011   6.282
 5827SOL     OW18379   1.967   4.152   4.799
 5827SOL    HW118380   1.991   4.195   4.712
 5827SOL    HW218381   2.044   4.096   4.831
 5828SOL     OW18382   6.249   1.607   1.412
 5828SOL    HW118383   6.327   1.668   1.406
 5828SOL    HW218384   6.276   1.521   1.456
 5829SOL     OW18385   1.207   0.391   3.587
 5829SOL    HW118386   1.180   0.465   3.525
 5829SOL    HW218387   1.305   0.395   3.603
 5830SOL     OW18388   5.130   6.468   5.793
 5830SOL    HW118389   5.119   6.515   5.881
 5830SOL    HW218390   5.073   6.511   5.724
 5831SOL     OW18391   1.390   1.596   5.586
 5831SOL    HW118392   1.371   1.695   5.587
 5831SOL    HW218393   1.316   1.549   5.538
 5832SOL     OW18394   2.787   4.693   6.655
 5832SOL    HW118395   2.873   4.663   6.695
 5832SOL    HW218396   2.727   4.729   6.727
 5833SOL     OW18397   3.688   3.815   5.243
 5833SOL    HW118398   3.732   3.868   5.316
 5833SOL    HW218399   3.624   3.872   5.193
 5834SOL     OW18400   6.787   2.860   0.704
 5834SOL    HW118401   6.842   2.777   0.696
 5834SOL    HW218402   6.706   2.841   0.758
 5835SOL     OW18403   5.535   3.245   3.346
 5835SOL    HW118404   5.562   3.260   3.251
 5835SOL    HW218405   5.599   3.292   3.407
 5836SOL     OW18406   2.623   6.779   1.519
 5836SOL    HW118407   2.621   6.879   1.520
 5836SOL    HW218408   2.601   6.746   1.427
 5837SOL     OW18409   3.683   4.232   6.565
 5837SOL    HW118410   3.660   4.135   6.563
 5837SOL    HW218411   3.626   4.281   6.500
 5838SOL     OW18412   3.148   1.907   0.557
 5838SOL    HW118413   3.240   1.888   0.592
 5838SOL    HW218414   3.086   1.836   0.588
 5839SOL     OW18415   0.611   1.970   2.578
 5839SOL    HW118416   0.707   1.941   2.575
 5839SOL    HW218417   0.569   1.936   2.662
 5840SOL     OW18418   0.800   5.091   6.632
 5840SOL    HW118419   0.800   5.038   6.547
 5840SOL    HW218420   0.887   5.076   6.679
 5841SOL     OW18421   5.128   1.879   2.262
 5841SOL    HW118422   5.048   1.912   2.313
 5841SOL    HW218423   5.154   1.947   2.193
 5842SOL     OW18424   4.915   3.296   1.703
 5842SOL    HW118425   4.948   3.217   1.652
 5842SOL    HW218426   4.943   3.380   1.657
 5843SOL     OW18427   1.204   3.840   3.043
 5843SOL    HW118428   1.116   3.868   3.005
 5843SOL    HW218429   1.192   3.813   3.139
 5844SOL     OW18430   2.184   6.015   5.977
 5844SOL    HW118431   2.228   6.105   5.984
 5844SOL    HW218432   2.225   5.964   5.901
 5845SOL     OW18433   0.688   0.345   2.761
 5845SOL    HW118434   0.739   0.339   2.847
 5845SOL    HW218435   0.658   0.439   2.746
 5846SOL     OW18436   6.354   2.878   5.261
 5846SOL    HW118437   6.281   2.817   5.292
 5846SOL    HW218438   6.440   2.853   5.304
 5847SOL     OW18439   3.046   2.251   1.776
 5847SOL    HW118440   2.992   2.322   1.820
 5847SOL    HW218441   3.105   2.205   1.843
 5848SOL     OW18442   1.436   5.690   3.129
 5848SOL    HW118443   1.534   5.705   3.122
 5848SOL    HW218444   1.409   5.691   3.225
 5849SOL     OW18445   0.788   0.945   5.791
 5849SOL    HW118446   0.877   0.976   5.823
 5849SOL    HW218447   0.744   0.890   5.862
 5850SOL     OW18448   6.488   3.686   1.707
 5850SOL    HW118449   6.483   3.785   1.715
 5850SOL    HW218450   6.563   3.661   1.646
 5851SOL     OW18451   4.890   3.671   2.708
 5851SOL    HW118452   4.985   3.686   2.735
 5851SOL    HW218453   4.874   3.573   2.697
 5852SOL     OW18454   5.786   6.224   3.613
 5852SOL    HW118455   5.701   6.267   3.581
 5852SOL    HW218456   5.791   6.230   3.712
 5853SOL     OW18457   3.351   5.211   4.978
 5853SOL    HW118458   3.412   5.174   5.049
 5853SOL    HW218459   3.380   5.178   4.889
 5854SOL     OW18460   4.751   4.620   6.103
 5854SOL    HW118461   4.688   4.547   6.128
 5854SOL    HW218462   4.813   4.639   6.179
 5855SOL     OW18463   0.993   1.775   4.965
 5855SOL    HW118464   1.051   1.779   4.884
 5855SOL    HW218465   0.897   1.779   4.937
 5856SOL     OW18466   1.832   5.795   3.852
 5856SOL    HW118467   1.771   5.837   3.918
 5856SOL    HW218468   1.920   5.777   3.895
 5857SOL     OW18469   6.020   2.354   6.069
 5857SOL    HW118470   6.036   2.280   6.134
 5857SOL    HW218471   6.074   2.339   5.987
 5858SOL     OW18472   2.916   1.804   2.550
 5858SOL    HW118473   2.878   1.712   2.544
 5858SOL    HW218474   2.950   1.833   2.461
 5859SOL     OW18475   6.209   6.083   1.765
 5859SOL    HW118476   6.180   6.011   1.828
 5859SOL    HW218477   6.143   6.092   1.691
 5860SOL     OW18478   0.202   3.367   2.099
 5860SOL    HW118479   0.194   3.273   2.064
 5860SOL    HW218480   0.180   3.368   2.197
 5861SOL     OW18481   4.534   1.385   4.415
 5861SOL    HW118482   4.449   1.434   4.396
 5861SOL    HW218483   4.603   1.410   4.348
 5862SOL     OW18484   6.331   5.278   1.201
 5862SOL    HW118485   6.344   5.204   1.135
 5862SOL    HW218486   6.419   5.322   1.219
 5863SOL     OW18487   3.544   2.150   5.229
 5863SOL    HW118488   3.523   2.131   5.325
 5863SOL    HW218489   3.502   2.237   5.203
 5864SOL     OW18490   4.108   3.905   1.983
 5864SOL    HW118491   4.065   3.841   2.046
 5864SOL    HW218492   4.170   3.965   2.033
 5865SOL     OW18493   6.155   0.448   4.787
 5865SOL    HW118494   6.178   0.492   4.700
 5865SOL    HW218495   6.069   0.485   4.822
 5866SOL     OW18496   3.904   4.505   6.997
 5866SOL    HW118497   3.941   4.412   6.991
 5866SOL    HW218498   3.832   4.516   6.929
 5867SOL     OW18499   2.091   3.447   0.897
 5867SOL    HW118500   2.076   3.541   0.928
 5867SOL    HW218501   2.139   3.396   0.968
 5868SOL     OW18502   0.857   1.653   5.356
 5868SOL    HW118503   0.920   1.723   5.324
 5868SOL    HW218504   0.822   1.677   5.446
 5869SOL     OW18505   1.844   6.323   3.803
 5869SOL    HW118506   1.829   6.226   3.785
 5869SOL    HW218507   1.818   6.376   3.722
 5870SOL     OW18508   4.386   6.220   4.563
 5870SOL    HW118509   4.429   6.297   4.515
 5870SOL    HW218510   4.379   6.242   4.660
 5871SOL     OW18511   3.481   3.181   1.391
 5871SOL    HW118512   3.394   3.215   1.355
 5871SOL    HW218513   3.467   3.146   1.484
 5872SOL     OW18514   4.303   5.937   1.242
 5872SOL    HW118515   4.214   5.982   1.236
 5872SOL    HW218516   4.360   5.983   1.310
 5873SOL     OW18517   3.329   1.837   1.629
 5873SOL    HW118518   3.394   1.907   1.599
 5873SOL    HW218519   3.298   1.784   1.551
 5874SOL     OW18520   3.264   4.252   6.416
 5874SOL    HW118521   3.179   4.283   6.457
 5874SOL    HW218522   3.277   4.155   6.436
 5875SOL     OW18523   4.384   1.214   6.783
 5875SOL    HW118524   4.288   1.196   6.802
 5875SOL    HW218525   4.416   1.153   6.710
 5876SOL     OW18526   3.667   3.214   0.426
 5876SOL    HW118527   3.676   3.259   0.337
 5876SOL    HW218528   3.669   3.283   0.498
 5877SOL     OW18529   0.650   0.569   1.060
 5877SOL    HW118530   0.650   0.559   0.961
 5877SOL    HW218531   0.706   0.649   1.086
 5878SOL     OW18532   6.104   4.997   4.383
 5878SOL    HW118533   6.102   5.095   4.401
 5878SOL    HW218534   6.020   4.971   4.335
 5879SOL     OW18535   1.962   4.231   6.771
 5879SOL    HW118536   2.004   4.208   6.684
 5879SOL    HW218537   1.912   4.151   6.806
 5880SOL     OW18538   5.159   4.669   6.554
 5880SOL    HW118539   5.246   4.651   6.599
 5880SOL    HW218540   5.167   4.750   6.496
 5881SOL     OW18541   0.694   6.878   2.641
 5881SOL    HW118542   0.691   6.781   2.665
 5881SOL    HW218543   0.659   6.891   2.549
 5882SOL     OW18544   0.427   5.662   6.928
 5882SOL    HW118545   0.438   5.761   6.936
 5882SOL    HW218546   0.345   5.642   6.874
 5883SOL     OW18547   0.284   1.508   6.618
 5883SOL    HW118548   0.359   1.573   6.611
 5883SOL    HW218549   0.248   1.488   6.526
 5884SOL     OW18550   4.638   0.850   4.137
 5884SOL    HW118551   4.567   0.915   4.112
 5884SOL    HW218552   4.596   0.761   4.156
 5885SOL     OW18553   0.389   5.886   2.426
 5885SOL    HW118554   0.401   5.806   2.368
 5885SOL    HW218555   0.382   5.968   2.368
 5886SOL     OW18556   0.185   2.179   3.824
 5886SOL    HW118557   0.274   2.217   3.798
 5886SOL    HW218558   0.187   2.080   3.814
 5887SOL     OW18559   2.689   2.170   1.961
 5887SOL    HW118560   2.761   2.239   1.963
 5887SOL    HW218561   2.652   2.157   2.053
 5888SOL     OW18562   1.686   0.552   1.117
 5888SOL    HW118563   1.660   0.631   1.062
 5888SOL    HW218564   1.630   0.549   1.200
 5889SOL     OW18565   0.290   0.839   0.275
 5889SOL    HW118566   0.358   0.841   0.348
 5889SOL    HW218567   0.232   0.758   0.285
 5890SOL     OW18568   2.438   1.056   2.908
 5890SOL    HW118569   2.511   1.093   2.965
 5890SOL    HW218570   2.353   1.054   2.961
 5891SOL     OW18571   3.119   3.681   0.261
 5891SOL    HW118572   3.034   3.689   0.208
 5891SOL    HW218573   3.197   3.699   0.201
 5892SOL     OW18574   1.072   4.889   2.224
 5892SOL    HW118575   1.108   4.921   2.136
 5892SOL    HW218576   1.005   4.954   2.258
 5893SOL     OW18577   1.914   3.996   3.619
 5893SOL    HW118578   1.841   4.035   3.675
 5893SOL    HW218579   1.881   3.983   3.526
 5894SOL     OW18580   0.239   5.974   4.369
 5894SOL    HW118581   0.152   6.024   4.362
 5894SOL    HW218582   0.255   5.925   4.284
 5895SOL     OW18583   5.005   3.469   3.940
 5895SOL    HW118584   5.101   3.446   3.922
 5895SOL    HW218585   4.949   3.443   3.862
 5896SOL     OW18586   3.633   1.098   1.519
 5896SOL    HW118587   3.713   1.127   1.465
 5896SOL    HW218588   3.584   1.026   1.469
 5897SOL     OW18589   4.235   0.112   1.552
 5897SOL    HW118590   4.239   0.134   1.455
 5897SOL    HW218591   4.278   0.186   1.605
 5898SOL     OW18592   2.684   0.340   4.667
 5898SOL    HW118593   2.693   0.297   4.577
 5898SOL    HW218594   2.716   0.435   4.662
 5899SOL     OW18595   6.620   5.042   6.666
 5899SOL    HW118596   6.687   5.107   6.630
 5899SOL    HW218597   6.530   5.084   6.670
 5900SOL     OW18598   6.285   5.214   3.458
 5900SOL    HW118599   6.365   5.249   3.409
 5900SOL    HW218600   6.278   5.260   3.546
 5901SOL     OW18601   2.673   0.884   0.372
 5901SOL    HW118602   2.670   0.983   0.381
 5901SOL    HW218603   2.636   0.842   0.455
 5902SOL     OW18604   6.225   2.576   5.637
 5902SOL    HW118605   6.140   2.588   5.689
 5902SOL    HW218606   6.253   2.480   5.640
 5903SOL     OW18607   4.588   3.825   6.735
 5903SOL    HW118608   4.652   3.840   6.659
 5903SOL    HW218609   4.630   3.857   6.820
 5904SOL     OW18610   1.619   4.756   1.014
 5904SOL    HW118611   1.678   4.739   0.935
 5904SOL    HW218612   1.523   4.753   0.987
 5905SOL     OW18613   6.150   0.554   4.235
 5905SOL    HW118614   6.057   0.521   4.252
 5905SOL    HW218615   6.216   0.492   4.278
 5906SOL     OW18616   3.972   1.965   3.697
 5906SOL    HW118617   3.962   1.883   3.641
 5906SOL    HW218618   4.065   2.001   3.688
 5907SOL     OW18619   0.960   5.945   0.541
 5907SOL    HW118620   1.012   5.884   0.481
 5907SOL    HW218621   1.015   6.026   0.562
 5908SOL     OW18622   6.738   3.253   0.339
 5908SOL    HW118623   6.754   3.341   0.294
 5908SOL    HW218624   6.724   3.267   0.437
 5909SOL     OW18625   6.651   5.037   0.562
 5909SOL    HW118626   6.610   4.946   0.571
 5909SOL    HW218627   6.589   5.106   0.600
 5910SOL     OW18628   0.546   4.146   3.110
 5910SOL    HW118629   0.471   4.171   3.171
 5910SOL    HW218630   0.633   4.176   3.150
 5911SOL     OW18631   6.794   5.125   6.064
 5911SOL    HW118632   6.757   5.034   6.042
 5911SOL    HW218633   6.838   5.122   6.153
 5912SOL     OW18634   5.642   2.897   6.585
 5912SOL    HW118635   5.656   2.801   6.560
 5912SOL    HW218636   5.706   2.922   6.658
 5913SOL     OW18637   4.940   2.932   6.431
 5913SOL    HW118638   4.880   2.955   6.354
 5913SOL    HW218639   4.894   2.864   6.489
 5914SOL     OW18640   1.721   5.163   6.711
 5914SOL    HW118641   1.773   5.118   6.783
 5914SOL    HW218642   1.746   5.260   6.706
 5915SOL     OW18643   5.244   5.254   1.308
 5915SOL    HW118644   5.146   5.254   1.288
 5915SOL    HW218645   5.258   5.273   1.405
 5916SOL     OW18646   3.914   5.205   4.957
 5916SOL    HW118647   3.890   5.116   4.996
 5916SOL    HW218648   3.890   5.207   4.860
 5917SOL     OW18649   3.367   3.309   3.757
 5917SOL    HW118650   3.397   3.254   3.679
 5917SOL    HW218651   3.375   3.255   3.841
 5918SOL     OW18652   1.784   3.482   5.636
 5918SOL    HW118653   1.762   3.450   5.728
 5918SOL    HW218654   1.713   3.545   5.605
 5919SOL     OW18655   3.909   3.259   1.421
 5919SOL    HW118656   3.887   3.354   1.441
 5919SOL    HW218657   3.956   3.218   1.499
 5920SOL     OW18658   4.020   0.598   6.770
 5920SOL    HW118659   4.049   0.564   6.681
 5920SOL    HW218660   4.099   0.638   6.817
 5921SOL     OW18661   4.107   5.602   5.932
 5921SOL    HW118662   4.020   5.569   5.970
 5921SOL    HW218663   4.183   5.568   5.988
 5922SOL     OW18664   6.781   5.371   2.863
 5922SOL    HW118665   6.818   5.461   2.838
 5922SOL    HW218666   6.741   5.328   2.782
 5923SOL     OW18667   5.394   0.986   1.465
 5923SOL    HW118668   5.355   1.077   1.451
 5923SOL    HW218669   5.448   0.986   1.549
 5924SOL     OW18670   0.240   1.302   3.660
 5924SOL    HW118671   0.204   1.383   3.614
 5924SOL    HW218672   0.231   1.223   3.600
 5925SOL     OW18673   3.912   5.554   1.639
 5925SOL    HW118674   3.916   5.482   1.707
 5925SOL    HW218675   3.817   5.583   1.626
 5926SOL     OW18676   4.291   5.550   1.471
 5926SOL    HW118677   4.343   5.597   1.542
 5926SOL    HW218678   4.211   5.605   1.446
 5927SOL     OW18679   1.084   4.050   2.529
 5927SOL    HW118680   1.150   3.992   2.575
 5927SOL    HW218681   1.127   4.137   2.505
 5928SOL     OW18682   3.399   0.327   0.817
 5928SOL    HW118683   3.341   0.260   0.864
 5928SOL    HW218684   3.393   0.415   0.863
 5929SOL     OW18685   0.428   0.086   6.535
 5929SOL    HW118686   0.427   7.009   6.512
 5929SOL    HW218687   0.336   0.117   6.557
 5930SOL     OW18688   6.620   2.655   3.547
 5930SOL    HW118689   6.621   2.660   3.447
 5930SOL    HW218690   6.617   2.559   3.575
 5931SOL     OW18691   6.837   5.498   3.358
 5931SOL    HW118692   6.817   5.438   3.281
 5931SOL    HW218693   6.753   5.513   3.411
 5932SOL     OW18694   2.208   0.162   0.637
 5932SOL    HW118695   2.130   0.156   0.575
 5932SOL    HW218696   2.252   0.072   0.644
 5933SOL     OW18697   0.416   6.380   3.580
 5933SOL    HW118698   0.390   6.468   3.541
 5933SOL    HW218699   0.488   6.338   3.525
 5934SOL     OW18700   3.958   3.239   4.136
 5934SOL    HW118701   4.044   3.278   4.168
 5934SOL    HW218702   3.901   3.311   4.098
 5935SOL     OW18703   4.727   4.404   6.387
 5935SOL    HW118704   4.659   4.421   6.315
 5935SOL    HW218705   4.755   4.491   6.428
 5936SOL     OW18706   3.787   3.277   0.748
 5936SOL    HW118707   3.866   3.282   0.687
 5936SOL    HW218708   3.775   3.365   0.794
 5937SOL     OW18709   0.924   4.519   2.821
 5937SOL    HW118710   0.986   4.531   2.898
 5937SOL    HW218711   0.835   4.559   2.842
 5938SOL     OW18712   0.755   5.458   3.679
 5938SOL    HW118713   0.739   5.407   3.764
 5938SOL    HW218714   0.675   5.514   3.659
 5939SOL     OW18715   2.963   6.466   3.244
 5939SOL    HW118716   2.902   6.544   3.258
 5939SOL    HW218717   3.019   6.452   3.326
 5940SOL     OW18718   4.546   5.770   0.730
 5940SOL    HW118719   4.630   5.806   0.771
 5940SOL    HW218720   4.483   5.845   0.713
 5941SOL     OW18721   5.729   3.558   1.896
 5941SOL    HW118722   5.712   3.534   1.800
 5941SOL    HW218723   5.801   3.628   1.900
 5942SOL     OW18724   4.957   3.176   0.688
 5942SOL    HW118725   4.887   3.146   0.752
 5942SOL    HW218726   4.916   3.233   0.617
 5943SOL     OW18727   3.554   5.186   0.485
 5943SOL    HW118728   3.547   5.281   0.455
 5943SOL    HW218729   3.623   5.138   0.431
 5944SOL     OW18730   6.408   2.812   1.678
 5944SOL    HW118731   6.457   2.828   1.593
 5944SOL    HW218732   6.373   2.899   1.714
 5945SOL     OW18733   6.087   5.174   5.402
 5945SOL    HW118734   6.064   5.178   5.499
 5945SOL    HW218735   6.164   5.111   5.389
 5946SOL     OW18736   3.423   3.319   5.974
 5946SOL    HW118737   3.384   3.243   6.026
 5946SOL    HW218738   3.448   3.392   6.037
 5947SOL     OW18739   3.911   3.674   1.899
 5947SOL    HW118740   3.832   3.731   1.919
 5947SOL    HW218741   3.912   3.650   1.802
 5948SOL     OW18742   4.451   5.043   3.332
 5948SOL    HW118743   4.390   4.968   3.306
 5948SOL    HW218744   4.398   5.121   3.362
 5949SOL     OW18745   4.585   3.677   1.629
 5949SOL    HW118746   4.555   3.772   1.637
 5949SOL    HW218747   4.676   3.668   1.669
 5950SOL     OW18748   4.576   2.321   5.584
 5950SOL    HW118749   4.658   2.370   5.615
 5950SOL    HW218750   4.602   2.243   5.528
 5951SOL     OW18751   0.668   5.785   4.169
 5951SOL    HW118752   0.709   5.869   4.206
 5951SOL    HW218753   0.739   5.716   4.156
 5952SOL     OW18754   5.749   4.400   4.141
 5952SOL    HW118755   5.770   4.401   4.239
 5952SOL    HW218756   5.800   4.328   4.096
 5953SOL     OW18757   6.457   3.120   5.327
 5953SOL    HW118758   6.426   3.025   5.317
 5953SOL    HW218759   6.535   3.135   5.266
 5954SOL     OW18760   0.886   4.173   5.658
 5954SOL    HW118761   0.969   4.140   5.614
 5954SOL    HW218762   0.908   4.247   5.721
 5955SOL     OW18763   5.404   6.158   2.677
 5955SOL    HW118764   5.386   6.064   2.706
 5955SOL    HW218765   5.336   6.219   2.717
 5956SOL     OW18766   4.590   0.963   6.001
 5956SOL    HW118767   4.496   0.928   6.007
 5956SOL    HW218768   4.654   0.887   5.992
 5957SOL     OW18769   4.150   0.706   5.334
 5957SOL    HW118770   4.246   0.707   5.304
 5957SOL    HW218771   4.093   0.746   5.262
 5958SOL     OW18772   6.028   6.690   2.994
 5958SOL    HW118773   6.039   6.765   2.929
 5958SOL    HW218774   6.063   6.718   3.083
 5959SOL     OW18775   4.066   2.414   5.506
 5959SOL    HW118776   3.977   2.421   5.462
 5959SOL    HW218777   4.089   2.500   5.550
 5960SOL     OW18778   3.628   5.325   4.845
 5960SOL    HW118779   3.641   5.227   4.827
 5960SOL    HW218780   3.717   5.371   4.843
 5961SOL     OW18781   5.409   1.375   3.046
 5961SOL    HW118782   5.350   1.398   2.969
 5961SOL    HW218783   5.358   1.323   3.114
 5962SOL     OW18784   5.261   6.412   0.817
 5962SOL    HW118785   5.163   6.432   0.813
 5962SOL    HW218786   5.306   6.476   0.879
 5963SOL     OW18787   3.626   3.315   5.173
 5963SOL    HW118788   3.611   3.408   5.138
 5963SOL    HW218789   3.710   3.314   5.227
 5964SOL     OW18790   0.236   5.490   5.480
 5964SOL    HW118791   0.226   5.547   5.397
 5964SOL    HW218792   0.329   5.498   5.515
 5965SOL     OW18793   0.829   2.119   0.028
 5965SOL    HW118794   0.740   2.142   0.068
 5965SOL    HW218795   0.882   2.203   0.015
 5966SOL     OW18796   2.690   6.135   5.846
 5966SOL    HW118797   2.649   6.057   5.799
 5966SOL    HW218798   2.784   6.148   5.815
 5967SOL     OW18799   4.169   6.871   0.020
 5967SOL    HW118800   4.078   6.834   0.037
 5967SOL    HW218801   4.221   6.874   0.105
 5968SOL     OW18802   4.630   1.444   1.496
 5968SOL    HW118803   4.672   1.370   1.549
 5968SOL    HW218804   4.530   1.436   1.501
 5969SOL     OW18805   0.203   6.801   6.494
 5969SOL    HW118806   0.204   6.900   6.482
 5969SOL    HW218807   0.295   6.765   6.480
 5970SOL     OW18808   0.526   4.613   2.560
 5970SOL    HW118809   0.509   4.555   2.480
 5970SOL    HW218810   0.584   4.690   2.534
 5971SOL     OW18811   1.388   0.913   2.500
 5971SOL    HW118812   1.435   0.907   2.588
 5971SOL    HW218813   1.302   0.962   2.512
 5972SOL     OW18814   5.219   5.504   0.042
 5972SOL    HW118815   5.206   5.488   0.140
 5972SOL    HW218816   5.181   5.428   7.011
 5973SOL     OW18817   2.103   3.405   2.653
 5973SOL    HW118818   2.135   3.336   2.588
 5973SOL    HW218819   2.005   3.395   2.668
 5974SOL     OW18820   5.849   5.126   6.360
 5974SOL    HW118821   5.777   5.121   6.291
 5974SOL    HW218822   5.938   5.134   6.315
 5975SOL     OW18823   3.463   1.290   0.412
 5975SOL    HW118824   3.405   1.251   0.483
 5975SOL    HW218825   3.407   1.340   0.346
 5976SOL     OW18826   2.911   3.227   5.202
 5976SOL    HW118827   2.987   3.190   5.149
 5976SOL    HW218828   2.877   3.310   5.158
 5977SOL     OW18829   2.690   5.537   0.022
 5977SOL    HW118830   2.607   5.481   0.019
 5977SOL    HW218831   2.746   5.508   0.100
 5978SOL     OW18832   5.481   5.676   2.895
 5978SOL    HW118833   5.449   5.592   2.849
 5978SOL    HW218834   5.581   5.677   2.895
 5979SOL     OW18835   5.370   0.507   2.801
 5979SOL    HW118836   5.432   0.484   2.726
 5979SOL    HW218837   5.370   0.606   2.814
 5980SOL     OW18838   3.816   4.062   0.624
 5980SOL    HW118839   3.735   4.033   0.573
 5980SOL    HW218840   3.805   4.038   0.720
 5981SOL     OW18841   5.761   2.033   1.247
 5981SOL    HW118842   5.662   2.021   1.248
 5981SOL    HW218843   5.804   1.962   1.303
 5982SOL     OW18844   6.811   3.487   1.944
 5982SOL    HW118845   6.890   3.438   1.906
 5982SOL    HW218846   6.727   3.451   1.905
 5983SOL     OW18847   0.746   1.949   4.213
 5983SOL    HW118848   0.719   2.011   4.139
 5983SOL    HW218849   0.771   1.860   4.175
 5984SOL     OW18850   6.661   5.673   4.342
 5984SOL    HW118851   6.652   5.636   4.435
 5984SOL    HW218852   6.571   5.692   4.305
 5985SOL     OW18853   7.015   3.004   3.948
 5985SOL    HW118854   0.002   3.020   3.849
 5985SOL    HW218855   0.082   2.974   3.984
 5986SOL     OW18856   3.309   3.785   4.942
 5986SOL    HW118857   3.351   3.732   4.869
 5986SOL    HW218858   3.379   3.811   5.009
 5987SOL     OW18859   4.522   0.335   4.539
 5987SOL    HW118860   4.534   0.301   4.446
 5987SOL    HW218861   4.448   0.403   4.540
 5988SOL     OW18862   5.033   6.832   5.428
 5988SOL    HW118863   5.060   6.888   5.507
 5988SOL    HW218864   5.001   6.892   5.354
 5989SOL     OW18865   2.827   6.389   6.959
 5989SOL    HW118866   2.758   6.342   6.905
 5989SOL    HW218867   2.910   6.333   6.964
 5990SOL     OW18868   3.778   4.590   0.216
 5990SOL    HW118869   3.689   4.625   0.186
 5990SOL    HW218870   3.822   4.541   0.141
 5991SOL     OW18871   3.277   4.767   0.006
 5991SOL    HW118872   3.302   4.670   0.001
 5991SOL    HW218873   3.263   4.792   0.101
 5992SOL     OW18874   3.196   0.433   2.910
 5992SOL    HW118875   3.172   0.496   2.836
 5992SOL    HW218876   3.150   0.346   2.895
 5993SOL     OW18877   2.800   6.225   6.595
 5993SOL    HW118878   2.805   6.177   6.682
 5993SOL    HW218879   2.875   6.195   6.536
 5994SOL     OW18880   6.164   2.308   1.969
 5994SOL    HW118881   6.239   2.302   2.035
 5994SOL    HW218882   6.156   2.402   1.936
 5995SOL     OW18883   5.400   4.937   3.232
 5995SOL    HW118884   5.484   4.884   3.220
 5995SOL    HW218885   5.343   4.894   3.301
 5996SOL     OW18886   1.086   6.758   0.793
 5996SOL    HW118887   1.100   6.816   0.873
 5996SOL    HW218888   1.021   6.801   0.731
 5997SOL     OW18889   0.839   5.505   2.354
 5997SOL    HW118890   0.785   5.509   2.270
 5997SOL    HW218891   0.899   5.585   2.358
 5998SOL     OW18892   5.897   1.766   2.847
 5998SOL    HW118893   5.846   1.690   2.888
 5998SOL    HW218894   5.871   1.775   2.751
 5999SOL     OW18895   1.738   1.718   2.444
 5999SOL    HW118896   1.644   1.747   2.425
 5999SOL    HW218897   1.737   1.623   2.475
 6000SOL     OW18898   4.368   6.728   1.199
 6000SOL    HW118899   4.364   6.692   1.106
 6000SOL    HW218900   4.275   6.743   1.233
 6001SOL     OW18901   0.754   3.846   7.007
 6001SOL    HW118902   0.732   3.855   0.084
 6001SOL    HW218903   0.845   3.883   6.990
 6002SOL     OW18904   6.119   0.197   1.113
 6002SOL    HW118905   6.100   0.100   1.119
 6002SOL    HW218906   6.138   0.222   1.018
 6003SOL     OW18907   6.524   2.243   4.096
 6003SOL    HW118908   6.606   2.200   4.133
 6003SOL    HW218909   6.544   2.338   4.072
 6004SOL     OW18910   0.463   3.717   2.981
 6004SOL    HW118911   0.514   3.800   2.959
 6004SOL    HW218912   0.461   3.657   2.901
 6005SOL     OW18913   5.271   5.563   4.603
 6005SOL    HW118914   5.236   5.485   4.655
 6005SOL    HW218915   5.329   5.619   4.663
 6006SOL     OW18916   3.273   0.737   6.182
 6006SOL    HW118917   3.202   0.795   6.222
 6006SOL    HW218918   3.341   0.715   6.252
 6007SOL     OW18919   4.995   3.505   5.267
 6007SOL    HW118920   5.006   3.582   5.204
 6007SOL    HW218921   4.899   3.475   5.266
 6008SOL     OW18922   2.000   4.714   5.639
 6008SOL    HW118923   2.077   4.709   5.702
 6008SOL    HW218924   1.979   4.622   5.605
 6009SOL     OW18925   3.584   0.489   3.979
 6009SOL    HW118926   3.583   0.493   3.880
 6009SOL    HW218927   3.552   0.399   4.010
 6010SOL     OW18928   1.281   4.454   4.010
 6010SOL    HW118929   1.256   4.541   3.968
 6010SOL    HW218930   1.223   4.439   4.090
 6011SOL     OW18931   5.081   3.332   2.438
 6011SOL    HW118932   5.072   3.259   2.370
 6011SOL    HW218933   5.172   3.330   2.478
 6012SOL     OW18934   5.417   1.411   0.070
 6012SOL    HW118935   5.416   1.511   0.066
 6012SOL    HW218936   5.339   1.375   0.020
 6013SOL     OW18937   5.166   2.023   3.236
 6013SOL    HW118938   5.209   2.008   3.325
 6013SOL    HW218939   5.110   2.106   3.240
 6014SOL     OW18940   4.021   3.683   1.103
 6014SOL    HW118941   4.067   3.771   1.102
 6014SOL    HW218942   4.019   3.644   1.011
 6015SOL     OW18943   5.398   2.903   4.102
 6015SOL    HW118944   5.456   2.918   4.021
 6015SOL    HW218945   5.416   2.974   4.169
 6016SOL     OW18946   6.083   2.022   5.906
 6016SOL    HW118947   6.010   1.979   5.958
 6016SOL    HW218948   6.154   2.054   5.970
 6017SOL     OW18949   6.936   3.991   2.726
 6017SOL    HW118950   6.894   3.986   2.816
 6017SOL    HW218951   6.956   3.898   2.693
 6018SOL     OW18952   3.208   0.528   6.399
 6018SOL    HW118953   3.138   0.558   6.464
 6018SOL    HW218954   3.169   0.526   6.307
 6019SOL     OW18955   6.561   1.935   4.384
 6019SOL    HW118956   6.477   1.989   4.376
 6019SOL    HW218957   6.636   1.983   4.337
 6020SOL     OW18958   1.736   4.508   1.129
 6020SOL    HW118959   1.698   4.461   1.208
 6020SOL    HW218960   1.700   4.601   1.125
 6021SOL     OW18961   4.657   0.697   2.567
 6021SOL    HW118962   4.561   0.669   2.578
 6021SOL    HW218963   4.717   0.629   2.609
 6022SOL     OW18964   4.233   2.249   3.969
 6022SOL    HW118965   4.278   2.321   4.022
 6022SOL    HW218966   4.224   2.278   3.874
 6023SOL     OW18967   6.575   0.054   2.395
 6023SOL    HW118968   6.487   0.097   2.420
 6023SOL    HW218969   6.609   0.096   2.310
 6024SOL     OW18970   1.153   5.036   3.254
 6024SOL    HW118971   1.143   4.959   3.317
 6024SOL    HW218972   1.064   5.074   3.232
 6025SOL     OW18973   3.605   1.417   2.618
 6025SOL    HW118974   3.532   1.400   2.552
 6025SOL    HW218975   3.646   1.506   2.601
 6026SOL     OW18976   0.315   3.958   5.194
 6026SOL    HW118977   0.267   4.046   5.196
 6026SOL    HW218978   0.412   3.973   5.213
 6027SOL     OW18979   1.670   4.098   6.511
 6027SOL    HW118980   1.598   4.119   6.444
 6027SOL    HW218981   1.758   4.126   6.475
 6028SOL     OW18982   0.465   5.152   6.891
 6028SOL    HW118983   0.555   5.163   6.849
 6028SOL    HW218984   0.432   5.240   6.923
 6029SOL     OW18985   2.227   6.204   5.264
 6029SOL    HW118986   2.173   6.127   5.299
 6029SOL    HW218987   2.318   6.171   5.237
 6030SOL     OW18988   3.876   6.035   2.957
 6030SOL    HW118989   3.870   6.128   2.993
 6030SOL    HW218990   3.883   6.038   2.857
 6031SOL     OW18991   3.474   5.417   3.138
 6031SOL    HW118992   3.570   5.392   3.127
 6031SOL    HW218993   3.450   5.418   3.235
 6032SOL     OW18994   2.304   4.666   3.224
 6032SOL    HW118995   2.316   4.723   3.305
 6032SOL    HW218996   2.288   4.724   3.144
 6033SOL     OW18997   3.272   1.440   2.683
 6033SOL    HW118998   3.310   1.447   2.590
 6033SOL    HW218999   3.264   1.532   2.722
 6034SOL     OW19000   0.788   5.116   4.836
 6034SOL    HW119001   0.719   5.184   4.811
 6034SOL    HW219002   0.775   5.088   4.931
 6035SOL     OW19003   6.886   0.818   2.381
 6035SOL    HW119004   6.861   0.752   2.452
 6035SOL    HW219005   6.910   0.769   2.297
 6036SOL     OW19006   6.118   5.762   4.015
 6036SOL    HW119007   6.194   5.698   4.014
 6036SOL    HW219008   6.095   5.784   4.110
 6037SOL     OW19009   4.456   4.750   6.122
 6037SOL    HW119010   4.417   4.807   6.194
 6037SOL    HW219011   4.517   4.805   6.065
 6038SOL     OW19012   1.596   2.330   6.047
 6038SOL    HW119013   1.695   2.340   6.053
 6038SOL    HW219014   1.564   2.369   5.961
 6039SOL     OW19015   3.081   3.644   2.521
 6039SOL    HW119016   3.072   3.636   2.620
 6039SOL    HW219017   3.108   3.555   2.483
 6040SOL     OW19018   0.742   2.018   6.492
 6040SOL    HW119019   0.661   2.037   6.547
 6040SOL    HW219020   0.824   2.039   6.545
 6041SOL     OW19021   2.120   0.451   5.125
 6041SOL    HW119022   2.193   0.479   5.062
 6041SOL    HW219023   2.071   0.373   5.087
 6042SOL     OW19024   5.429   5.761   1.574
 6042SOL    HW119025   5.463   5.679   1.621
 6042SOL    HW219026   5.426   5.837   1.639
 6043SOL     OW19027   0.834   4.406   5.842
 6043SOL    HW119028   0.796   4.497   5.859
 6043SOL    HW219029   0.934   4.412   5.842
 6044SOL     OW19030   1.287   1.693   1.853
 6044SOL    HW119031   1.316   1.788   1.862
 6044SOL    HW219032   1.319   1.656   1.766
 6045SOL     OW19033   6.794   4.839   1.784
 6045SOL    HW119034   6.700   4.815   1.806
 6045SOL    HW219035   6.832   4.898   1.855
 6046SOL     OW19036   4.334   1.976   0.384
 6046SOL    HW119037   4.321   1.984   0.285
 6046SOL    HW219038   4.311   2.062   0.428
 6047SOL     OW19039   5.325   2.312   2.042
 6047SOL    HW119040   5.277   2.336   1.958
 6047SOL    HW219041   5.346   2.395   2.093
 6048SOL     OW19042   5.187   5.818   4.513
 6048SOL    HW119043   5.248   5.742   4.537
 6048SOL    HW219044   5.095   5.798   4.547
 6049SOL     OW19045   5.755   3.678   5.956
 6049SOL    HW119046   5.815   3.664   6.035
 6049SOL    HW219047   5.700   3.761   5.970
 6050SOL     OW19048   3.181   5.685   4.586
 6050SOL    HW119049   3.178   5.765   4.527
 6050SOL    HW219050   3.091   5.671   4.627
 6051SOL     OW19051   2.574   1.006   4.311
 6051SOL    HW119052   2.499   1.046   4.363
 6051SOL    HW219053   2.566   1.035   4.215
 6052SOL     OW19054   6.095   0.093   0.539
 6052SOL    HW119055   6.013   0.122   0.588
 6052SOL    HW219056   6.151   0.035   0.598
 6053SOL     OW19057   4.133   1.326   6.281
 6053SOL    HW119058   4.151   1.401   6.218
 6053SOL    HW219059   4.218   1.276   6.300
 6054SOL     OW19060   3.103   3.405   0.654
 6054SOL    HW119061   3.128   3.315   0.690
 6054SOL    HW219062   3.074   3.396   0.559
 6055SOL     OW19063   4.817   0.863   5.687
 6055SOL    HW119064   4.727   0.902   5.667
 6055SOL    HW219065   4.880   0.882   5.612
 6056SOL     OW19066   4.850   2.619   4.597
 6056SOL    HW119067   4.826   2.679   4.521
 6056SOL    HW219068   4.949   2.615   4.607
 6057SOL     OW19069   5.135   2.573   3.966
 6057SOL    HW119070   5.138   2.525   4.053
 6057SOL    HW219071   5.133   2.671   3.981
 6058SOL     OW19072   4.911   3.011   1.202
 6058SOL    HW119073   4.819   3.042   1.222
 6058SOL    HW219074   4.921   2.993   1.104
 6059SOL     OW19075   5.194   5.143   5.224
 6059SOL    HW119076   5.150   5.233   5.227
 6059SOL    HW219077   5.272   5.145   5.162
 6060SOL     OW19078   2.752   3.840   6.493
 6060SOL    HW119079   2.807   3.921   6.476
 6060SOL    HW219080   2.681   3.832   6.423
 6061SOL     OW19081   3.584   2.394   1.213
 6061SOL    HW119082   3.622   2.301   1.217
 6061SOL    HW219083   3.485   2.390   1.223
 6062SOL     OW19084   2.352   1.606   4.874
 6062SOL    HW119085   2.269   1.654   4.902
 6062SOL    HW219086   2.334   1.508   4.871
 6063SOL     OW19087   3.881   1.508   6.352
 6063SOL    HW119088   3.814   1.505   6.426
 6063SOL    HW219089   3.878   1.423   6.300
 6064SOL     OW19090   1.569   5.775   1.200
 6064SOL    HW119091   1.492   5.810   1.254
 6064SOL    HW219092   1.535   5.718   1.125
 6065SOL     OW19093   6.280   0.083   1.852
 6065SOL    HW119094   6.248   0.153   1.915
 6065SOL    HW219095   6.251   7.014   1.884
 6066SOL     OW19096   4.980   2.142   6.051
 6066SOL    HW119097   4.912   2.069   6.061
 6066SOL    HW219098   5.044   2.138   6.127
 6067SOL     OW19099   5.283   1.697   6.281
 6067SOL    HW119100   5.227   1.729   6.203
 6067SOL    HW219101   5.372   1.742   6.278
 6068SOL     OW19102   5.778   2.831   4.670
 6068SOL    HW119103   5.713   2.755   4.663
 6068SOL    HW219104   5.812   2.854   4.579
 6069SOL     OW19105   6.716   3.242   4.863
 6069SOL    HW119106   6.802   3.285   4.835
 6069SOL    HW219107   6.703   3.156   4.813
 6070SOL     OW19108   2.212   2.478   0.582
 6070SOL    HW119109   2.192   2.394   0.532
 6070SOL    HW219110   2.263   2.456   0.665
 6071SOL     OW19111   6.367   5.441   4.480
 6071SOL    HW119112   6.431   5.482   4.544
 6071SOL    HW219113   6.273   5.455   4.512
 6072SOL     OW19114   0.477   0.148   1.802
 6072SOL    HW119115   0.568   0.159   1.760
 6072SOL    HW219116   0.427   0.234   1.794
 6073SOL     OW19117   6.537   4.136   0.257
 6073SOL    HW119118   6.530   4.040   0.231
 6073SOL    HW219119   6.621   4.175   0.218
 6074SOL     OW19120   1.093   5.959   4.337
 6074SOL    HW119121   1.116   6.031   4.271
 6074SOL    HW219122   0.996   5.938   4.331
 6075SOL     OW19123   6.590   1.220   6.523
 6075SOL    HW119124   6.560   1.143   6.579
 6075SOL    HW219125   6.580   1.305   6.574
 6076SOL     OW19126   2.167   5.599   4.433
 6076SOL    HW119127   2.214   5.578   4.519
 6076SOL    HW219128   2.078   5.554   4.431
 6077SOL     OW19129   5.847   5.983   1.637
 6077SOL    HW119130   5.911   6.060   1.644
 6077SOL    HW219131   5.833   5.960   1.540
 6078SOL     OW19132   3.677   5.277   1.219
 6078SOL    HW119133   3.737   5.304   1.294
 6078SOL    HW219134   3.705   5.186   1.186
 6079SOL     OW19135   3.929   3.023   6.472
 6079SOL    HW119136   3.899   2.970   6.552
 6079SOL    HW219137   3.851   3.041   6.412
 6080SOL     OW19138   0.269   1.236   1.700
 6080SOL    HW119139   0.291   1.329   1.673
 6080SOL    HW219140   0.229   1.187   1.623
 6081SOL     OW19141   6.580   3.358   5.450
 6081SOL    HW119142   6.544   3.271   5.417
 6081SOL    HW219143   6.576   3.425   5.376
 6082SOL     OW19144   2.219   1.880   3.531
 6082SOL    HW119145   2.290   1.940   3.568
 6082SOL    HW219146   2.187   1.818   3.603
 6083SOL     OW19147   0.318   4.555   0.001
 6083SOL    HW119148   0.335   4.562   0.099
 6083SOL    HW219149   0.255   4.626   6.993
 6084SOL     OW19150   0.424   6.125   3.234
 6084SOL    HW119151   0.344   6.180   3.212
 6084SOL    HW219152   0.469   6.162   3.315
 6085SOL     OW19153   0.882   4.264   0.368
 6085SOL    HW119154   0.783   4.262   0.355
 6085SOL    HW219155   0.910   4.183   0.420
 6086SOL     OW19156   3.586   1.179   5.884
 6086SOL    HW119157   3.651   1.124   5.831
 6086SOL    HW219158   3.635   1.248   5.936
 6087SOL     OW19159   3.844   5.785   0.963
 6087SOL    HW119160   3.793   5.730   0.897
 6087SOL    HW219161   3.941   5.783   0.939
 6088SOL     OW19162   5.777   6.013   4.386
 6088SOL    HW119163   5.818   6.090   4.336
 6088SOL    HW219164   5.768   5.935   4.326
 6089SOL     OW19165   6.261   3.444   0.977
 6089SOL    HW119166   6.243   3.347   0.961
 6089SOL    HW219167   6.245   3.495   0.892
 6090SOL     OW19168   2.695   6.280   5.321
 6090SOL    HW119169   2.725   6.284   5.417
 6090SOL    HW219170   2.627   6.351   5.305
 6091SOL     OW19171   1.679   1.673   1.614
 6091SOL    HW119172   1.678   1.742   1.686
 6091SOL    HW219173   1.584   1.647   1.593
 6092SOL     OW19174   3.432   6.825   2.703
 6092SOL    HW119175   3.502   6.815   2.773
 6092SOL    HW219176   3.357   6.881   2.739
 6093SOL     OW19177   1.719   2.996   3.048
 6093SOL    HW119178   1.692   3.091   3.033
 6093SOL    HW219179   1.764   2.961   2.966
 6094SOL     OW19180   3.963   1.011   1.467
 6094SOL    HW119181   3.996   0.988   1.376
 6094SOL    HW219182   3.991   1.104   1.492
 6095SOL     OW19183   4.808   3.397   7.004
 6095SOL    HW119184   4.826   3.433   0.075
 6095SOL    HW219185   4.826   3.468   6.936
 6096SOL     OW19186   5.985   0.615   3.515
 6096SOL    HW119187   6.069   0.663   3.542
 6096SOL    HW219188   5.918   0.682   3.482
 6097SOL     OW19189   1.850   6.890   2.180
 6097SOL    HW119190   1.779   6.942   2.132
 6097SOL    HW219191   1.928   6.876   2.120
 6098SOL     OW19192   1.519   2.767   6.151
 6098SOL    HW119193   1.470   2.739   6.234
 6098SOL    HW219194   1.459   2.825   6.095
 6099SOL     OW19195   6.707   5.850   0.708
 6099SOL    HW119196   6.725   5.842   0.610
 6099SOL    HW219197   6.772   5.794   0.759
 6100SOL     OW19198   4.543   3.650   0.508
 6100SOL    HW119199   4.509   3.587   0.439
 6100SOL    HW219200   4.640   3.670   0.489
 6101SOL     OW19201   5.972   1.992   4.179
 6101SOL    HW119202   6.058   2.012   4.132
 6101SOL    HW219203   5.899   1.981   4.112
 6102SOL     OW19204   3.336   6.558   3.496
 6102SOL    HW119205   3.399   6.482   3.513
 6102SOL    HW219206   3.369   6.612   3.419
 6103SOL     OW19207   6.970   2.471   2.446
 6103SOL    HW119208   6.889   2.527   2.461
 6103SOL    HW219209   6.980   2.405   2.521
 6104SOL     OW19210   6.020   1.411   5.610
 6104SOL    HW119211   5.985   1.474   5.679
 6104SOL    HW219212   5.978   1.431   5.522
 6105SOL     OW19213   1.806   0.201   5.859
 6105SOL    HW119214   1.866   0.187   5.780
 6105SOL    HW219215   1.716   0.229   5.828
 6106SOL     OW19216   2.227   3.962   5.336
 6106SOL    HW119217   2.311   3.974   5.284
 6106SOL    HW219218   2.163   3.906   5.283
 6107SOL     OW19219   2.393   4.430   4.744
 6107SOL    HW119220   2.310   4.389   4.781
 6107SOL    HW219221   2.379   4.452   4.647
 6108SOL     OW19222   0.356   2.590   2.062
 6108SOL    HW119223   0.292   2.520   2.030
 6108SOL    HW219224   0.394   2.639   1.984
 6109SOL     OW19225   5.332   3.003   6.113
 6109SOL    HW119226   5.312   3.089   6.160
 6109SOL    HW219227   5.252   2.975   6.059
 6110SOL     OW19228   4.092   3.236   0.069
 6110SOL    HW119229   4.039   3.198   0.144
 6110SOL    HW219230   4.076   3.334   0.062
 6111SOL     OW19231   2.292   4.086   2.198
 6111SOL    HW119232   2.232   4.008   2.212
 6111SOL    HW219233   2.312   4.095   2.100
 6112SOL     OW19234   3.237   6.965   2.866
 6112SOL    HW119235   3.239   6.929   2.959
 6112SOL    HW219236   3.183   0.028   2.863
 6113SOL     OW19237   1.499   1.486   6.295
 6113SOL    HW119238   1.563   1.427   6.345
 6113SOL    HW219239   1.536   1.578   6.288
 6114SOL     OW19240   4.942   5.274   0.966
 6114SOL    HW119241   4.867   5.320   0.917
 6114SOL    HW219242   4.938   5.297   1.063
 6115SOL     OW19243   4.672   7.019   3.861
 6115SOL    HW119244   4.752   0.047   3.825
 6115SOL    HW219245   4.702   6.935   3.906
 6116SOL     OW19246   2.705   7.014   0.675
 6116SOL    HW119247   2.800   6.984   0.683
 6116SOL    HW219248   2.659   7.001   0.762
 6117SOL     OW19249   0.499   0.693   5.797
 6117SOL    HW119250   0.516   0.701   5.699
 6117SOL    HW219251   0.530   0.604   5.829
 6118SOL     OW19252   6.062   0.458   1.938
 6118SOL    HW119253   6.061   0.412   1.849
 6118SOL    HW219254   6.123   0.538   1.933
 6119SOL     OW19255   1.455   3.772   5.703
 6119SOL    HW119256   1.357   3.782   5.690
 6119SOL    HW219257   1.501   3.859   5.684
 6120SOL     OW19258   3.831   6.861   4.309
 6120SOL    HW119259   3.912   6.804   4.294
 6120SOL    HW219260   3.758   6.831   4.247
 6121SOL     OW19261   0.713   3.051   5.310
 6121SOL    HW119262   0.682   3.036   5.216
 6121SOL    HW219263   0.636   3.038   5.372
 6122SOL     OW19264   4.051   6.909   1.505
 6122SOL    HW119265   4.130   6.967   1.525
 6122SOL    HW219266   4.025   6.857   1.587
 6123SOL     OW19267   6.320   0.060   6.519
 6123SOL    HW119268   6.257   0.127   6.479
 6123SOL    HW219269   6.331   7.004   6.456
 6124SOL     OW19270   2.157   1.112   6.605
 6124SOL    HW119271   2.228   1.181   6.617
 6124SOL    HW219272   2.102   1.106   6.688
 6125SOL     OW19273   1.122   5.831   0.356
 6125SOL    HW119274   1.160   5.759   0.298
 6125SOL    HW219275   1.195   5.895   0.381
 6126SOL     OW19276   0.246   6.646   4.323
 6126SOL    HW119277   0.156   6.604   4.309
 6126SOL    HW219278   0.259   6.720   4.258
 6127SOL     OW19279   3.830   0.249   2.020
 6127SOL    HW119280   3.867   0.209   2.105
 6127SOL    HW219281   3.732   0.232   2.016
 6128SOL     OW19282   6.690   3.224   6.929
 6128SOL    HW119283   6.625   3.221   7.005
 6128SOL    HW219284   6.693   3.316   6.891
 6129SOL     OW19285   6.825   3.761   2.916
 6129SOL    HW119286   6.746   3.799   2.868
 6129SOL    HW219287   6.815   3.775   3.014
 6130SOL     OW19288   6.244   2.270   3.537
 6130SOL    HW119289   6.205   2.279   3.445
 6130SOL    HW219290   6.271   2.175   3.552
 6131SOL     OW19291   6.621   1.201   5.370
 6131SOL    HW119292   6.655   1.117   5.412
 6131SOL    HW219293   6.686   1.233   5.301
 6132SOL     OW19294   4.789   1.419   0.732
 6132SOL    HW119295   4.702   1.445   0.689
 6132SOL    HW219296   4.771   1.370   0.817
 6133SOL     OW19297   0.971   2.327   2.380
 6133SOL    HW119298   1.019   2.265   2.318
 6133SOL    HW219299   1.004   2.314   2.473
 6134SOL     OW19300   3.807   4.423   6.247
 6134SOL    HW119301   3.821   4.503   6.189
 6134SOL    HW219302   3.872   4.425   6.323
 6135SOL     OW19303   0.302   0.101   2.118
 6135SOL    HW119304   0.330   0.190   2.083
 6135SOL    HW219305   0.256   0.049   2.045
 6136SOL     OW19306   0.804   2.265   2.800
 6136SOL    HW119307   0.877   2.269   2.732
 6136SOL    HW219308   0.822   2.190   2.864
 6137SOL     OW19309   5.801   2.631   3.727
 6137SOL    HW119310   5.783   2.701   3.796
 6137SOL    HW219311   5.743   2.648   3.646
 6138SOL     OW19312   5.033   6.207   2.567
 6138SOL    HW119313   5.019   6.182   2.663
 6138SOL    HW219314   4.961   6.271   2.539
 6139SOL     OW19315   1.588   1.838   5.746
 6139SOL    HW119316   1.623   1.772   5.813
 6139SOL    HW219317   1.514   1.891   5.787
 6140SOL     OW19318   0.513   6.611   1.616
 6140SOL    HW119319   0.488   6.530   1.562
 6140SOL    HW219320   0.431   6.666   1.632
 6141SOL     OW19321   6.583   5.559   6.303
 6141SOL    HW119322   6.522   5.507   6.364
 6141SOL    HW219323   6.668   5.578   6.351
 6142SOL     OW19324   0.595   5.582   0.878
 6142SOL    HW119325   0.693   5.563   0.885
 6142SOL    HW219326   0.570   5.588   0.781
 6143SOL     OW19327   0.038   4.124   0.915
 6143SOL    HW119328   6.979   4.073   0.883
 6143SOL    HW219329   0.009   4.213   0.950
 6144SOL     OW19330   6.531   4.501   3.424
 6144SOL    HW119331   6.437   4.467   3.431
 6144SOL    HW219332   6.553   4.520   3.328
 6145SOL     OW19333   4.432   5.469   3.755
 6145SOL    HW119334   4.360   5.539   3.756
 6145SOL    HW219335   4.392   5.380   3.775
 6146SOL     OW19336   3.148   6.862   3.930
 6146SOL    HW119337   3.060   6.841   3.972
 6146SOL    HW219338   3.173   6.788   3.868
 6147SOL     OW19339   1.300   3.536   4.710
 6147SOL    HW119340   1.332   3.571   4.621
 6147SOL    HW219341   1.379   3.518   4.769
 6148SOL     OW19342   6.823   0.639   4.465
 6148SOL    HW119343   6.908   0.630   4.518
 6148SOL    HW219344   6.845   0.654   4.369
 6149SOL     OW19345   3.387   5.340   1.388
 6149SOL    HW119346   3.310   5.339   1.324
 6149SOL    HW219347   3.372   5.411   1.457
 6150SOL     OW19348   4.396   4.963   6.649
 6150SOL    HW119349   4.360   4.891   6.590
 6150SOL    HW219350   4.420   5.043   6.593
 6151SOL     OW19351   5.890   4.586   5.481
 6151SOL    HW119352   5.915   4.504   5.429
 6151SOL    HW219353   5.794   4.609   5.464
 6152SOL     OW19354   6.395   5.874   4.845
 6152SOL    HW119355   6.314   5.851   4.898
 6152SOL    HW219356   6.389   5.969   4.815
 6153SOL     OW19357   5.300   3.981   1.630
 6153SOL    HW119358   5.249   4.060   1.664
 6153SOL    HW219359   5.348   3.937   1.707
 6154SOL     OW19360   5.932   1.990   2.561
 6154SOL    HW119361   5.837   2.009   2.585
 6154SOL    HW219362   5.936   1.927   2.484
 6155SOL     OW19363   1.930   2.351   4.348
 6155SOL    HW119364   1.978   2.322   4.264
 6155SOL    HW219365   1.835   2.373   4.326
 6156SOL     OW19366   4.327   4.742   1.681
 6156SOL    HW119367   4.349   4.661   1.735
 6156SOL    HW219368   4.344   4.724   1.584
 6157SOL     OW19369   1.038   1.196   4.597
 6157SOL    HW119370   1.072   1.264   4.532
 6157SOL    HW219371   1.108   1.126   4.612
 6158SOL     OW19372   4.285   0.912   5.974
 6158SOL    HW119373   4.190   0.903   6.005
 6158SOL    HW219374   4.289   0.969   5.892
 6159SOL     OW19375   4.965   2.220   1.623
 6159SOL    HW119376   4.955   2.148   1.692
 6159SOL    HW219377   4.921   2.304   1.656
 6160SOL     OW19378   5.100   0.256   6.261
 6160SOL    HW119379   5.156   0.191   6.209
 6160SOL    HW219380   5.065   0.212   6.343
 6161SOL     OW19381   5.040   1.486   4.353
 6161SOL    HW119382   4.994   1.519   4.436
 6161SOL    HW219383   5.137   1.508   4.358
 6162SOL     OW19384   1.535   6.487   3.716
 6162SOL    HW119385   1.606   6.477   3.647
 6162SOL    HW219386   1.460   6.542   3.680
 6163SOL     OW19387   6.331   5.974   1.264
 6163SOL    HW119388   6.382   6.049   1.307
 6163SOL    HW219389   6.325   5.898   1.328
 6164SOL     OW19390   3.316   2.841   1.811
 6164SOL    HW119391   3.397   2.900   1.817
 6164SOL    HW219392   3.326   2.763   1.873
 6165SOL     OW19393   4.779   0.749   6.560
 6165SOL    HW119394   4.835   0.731   6.641
 6165SOL    HW219395   4.756   0.846   6.556
 6166SOL     OW19396   4.503   1.233   5.958
 6166SOL    HW119397   4.554   1.288   6.024
 6166SOL    HW219398   4.537   1.139   5.961
 6167SOL     OW19399   0.512   3.895   3.618
 6167SOL    HW119400   0.412   3.898   3.617
 6167SOL    HW219401   0.543   3.800   3.616
 6168SOL     OW19402   0.630   3.363   0.758
 6168SOL    HW119403   0.594   3.271   0.776
 6168SOL    HW219404   0.682   3.394   0.838
 6169SOL     OW19405   1.793   2.733   1.294
 6169SOL    HW119406   1.717   2.794   1.319
 6169SOL    HW219407   1.829   2.758   1.205
 6170SOL     OW19408   1.104   3.511   5.053
 6170SOL    HW119409   1.186   3.454   5.052
 6170SOL    HW219410   1.127   3.602   5.019
 6171SOL     OW19411   0.533   3.000   0.575
 6171SOL    HW119412   0.510   2.935   0.647
 6171SOL    HW219413   0.501   2.965   0.487
 6172SOL     OW19414   2.247   2.815   2.325
 6172SOL    HW119415   2.191   2.887   2.283
 6172SOL    HW219416   2.299   2.768   2.255
 6173SOL     OW19417   0.487   5.491   2.685
 6173SOL    HW119418   0.392   5.518   2.699
 6173SOL    HW219419   0.543   5.527   2.759
 6174SOL     OW19420   4.977   5.793   4.037
 6174SOL    HW119421   4.955   5.696   4.027
 6174SOL    HW219422   4.893   5.847   4.035
 6175SOL     OW19423   3.750   0.285   3.454
 6175SOL    HW119424   3.659   0.251   3.432
 6175SOL    HW219425   3.781   0.348   3.382
 6176SOL     OW19426   5.082   4.581   5.401
 6176SOL    HW119427   5.012   4.565   5.332
 6176SOL    HW219428   5.092   4.680   5.416
 6177SOL     OW19429   6.029   1.311   1.551
 6177SOL    HW119430   5.932   1.301   1.530
 6177SOL    HW219431   6.073   1.222   1.555
 6178SOL     OW19432   5.220   4.666   2.098
 6178SOL    HW119433   5.252   4.743   2.043
 6178SOL    HW219434   5.278   4.587   2.080
 6179SOL     OW19435   6.428   4.580   3.782
 6179SOL    HW119436   6.336   4.620   3.776
 6179SOL    HW219437   6.487   4.622   3.713
 6180SOL     OW19438   2.410   4.789   0.168
 6180SOL    HW119439   2.439   4.733   0.090
 6180SOL    HW219440   2.314   4.770   0.189
 6181SOL     OW19441   4.710   6.607   6.018
 6181SOL    HW119442   4.783   6.539   6.028
 6181SOL    HW219443   4.621   6.562   6.026
 6182SOL     OW19444   4.720   2.825   5.378
 6182SOL    HW119445   4.763   2.836   5.289
 6182SOL    HW219446   4.773   2.760   5.433
 6183SOL     OW19447   1.201   2.209   3.616
 6183SOL    HW119448   1.280   2.251   3.572
 6183SOL    HW219449   1.231   2.132   3.672
 6184SOL     OW19450   3.004   5.983   6.772
 6184SOL    HW119451   3.045   6.023   6.690
 6184SOL    HW219452   2.940   5.911   6.745
 6185SOL     OW19453   6.984   4.129   6.402
 6185SOL    HW119454   6.909   4.067   6.426
 6185SOL    HW219455   6.951   4.223   6.399
 6186SOL     OW19456   6.459   0.855   0.390
 6186SOL    HW119457   6.509   0.904   0.461
 6186SOL    HW219458   6.476   0.897   0.301
 6187SOL     OW19459   5.402   4.167   4.256
 6187SOL    HW119460   5.496   4.172   4.292
 6187SOL    HW219461   5.355   4.088   4.296
 6188SOL     OW19462   1.531   1.334   6.063
 6188SOL    HW119463   1.452   1.288   6.023
 6188SOL    HW219464   1.502   1.388   6.142
 6189SOL     OW19465   4.380   5.020   2.295
 6189SOL    HW119466   4.346   4.981   2.210
 6189SOL    HW219467   4.401   4.947   2.360
 6190SOL     OW19468   0.479   3.808   5.736
 6190SOL    HW119469   0.558   3.747   5.744
 6190SOL    HW219470   0.481   3.855   5.648
 6191SOL     OW19471   2.744   2.626   6.887
 6191SOL    HW119472   2.752   2.611   6.789
 6191SOL    HW219473   2.793   2.709   6.912
 6192SOL     OW19474   2.924   2.058   6.043
 6192SOL    HW119475   3.017   2.068   6.007
 6192SOL    HW219476   2.859   2.102   5.981
 6193SOL     OW19477   4.992   6.074   1.400
 6193SOL    HW119478   5.034   5.984   1.384
 6193SOL    HW219479   4.942   6.102   1.318
 6194SOL     OW19480   0.421   0.791   6.522
 6194SOL    HW119481   0.501   0.733   6.540
 6194SOL    HW219482   0.341   0.733   6.508
 6195SOL     OW19483   4.552   5.538   4.380
 6195SOL    HW119484   4.647   5.549   4.352
 6195SOL    HW219485   4.501   5.622   4.359
 6196SOL     OW19486   5.685   4.141   1.465
 6196SOL    HW119487   5.755   4.088   1.512
 6196SOL    HW219488   5.721   4.232   1.443
 6197SOL     OW19489   2.771   5.773   1.375
 6197SOL    HW119490   2.812   5.804   1.290
 6197SOL    HW219491   2.769   5.848   1.441
 6198SOL     OW19492   4.060   6.853   0.798
 6198SOL    HW119493   4.040   6.758   0.821
 6198SOL    HW219494   4.156   6.860   0.768
 6199SOL     OW19495   0.751   0.995   0.310
 6199SOL    HW119496   0.732   1.089   0.339
 6199SOL    HW219497   0.668   0.956   0.270
 6200SOL     OW19498   1.189   1.321   5.726
 6200SOL    HW119499   1.268   1.349   5.671
 6200SOL    HW219500   1.107   1.365   5.690
 6201SOL     OW19501   1.048   3.626   5.861
 6201SOL    HW119502   0.988   3.705   5.852
 6201SOL    HW219503   1.142   3.657   5.878
 6202SOL     OW19504   4.823   1.608   1.602
 6202SOL    HW119505   4.742   1.591   1.546
 6202SOL    HW219506   4.897   1.546   1.575
 6203SOL     OW19507   6.159   5.686   2.141
 6203SOL    HW119508   6.203   5.712   2.227
 6203SOL    HW219509   6.204   5.605   2.104
 6204SOL     OW19510   0.841   6.064   4.780
 6204SOL    HW119511   0.931   6.021   4.775
 6204SOL    HW219512   0.775   5.999   4.820
 6205SOL     OW19513   6.126   5.527   1.449
 6205SOL    HW119514   6.064   5.583   1.504
 6205SOL    HW219515   6.220   5.538   1.483
 6206SOL     OW19516   6.645   1.545   2.396
 6206SOL    HW119517   6.737   1.516   2.368
 6206SOL    HW219518   6.589   1.562   2.315
 6207SOL     OW19519   1.759   5.450   5.201
 6207SOL    HW119520   1.717   5.398   5.126
 6207SOL    HW219521   1.852   5.417   5.216
 6208SOL     OW19522   3.866   2.469   5.330
 6208SOL    HW119523   3.942   2.488   5.268
 6208SOL    HW219524   3.796   2.539   5.319
 6209SOL     OW19525   3.150   5.476   6.747
 6209SOL    HW119526   3.137   5.555   6.808
 6209SOL    HW219527   3.135   5.505   6.652
 6210SOL     OW19528   4.946   3.931   3.099
 6210SOL    HW119529   4.870   3.914   3.037
 6210SOL    HW219530   5.000   4.008   3.066
 6211SOL     OW19531   2.696   6.469   6.241
 6211SOL    HW119532   2.685   6.372   6.217
 6211SOL    HW219533   2.790   6.498   6.222
 6212SOL     OW19534   3.076   5.109   4.722
 6212SOL    HW119535   3.045   5.175   4.791
 6212SOL    HW219536   3.123   5.033   4.768
 6213SOL     OW19537   5.047   0.105   0.166
 6213SOL    HW119538   4.979   0.056   0.220
 6213SOL    HW219539   5.134   0.055   0.169
 6214SOL     OW19540   5.750   5.689   5.411
 6214SOL    HW119541   5.717   5.705   5.318
 6214SOL    HW219542   5.677   5.645   5.465
 6215SOL     OW19543   3.932   2.537   0.043
 6215SOL    HW119544   4.029   2.515   0.045
 6215SOL    HW219545   3.911   2.601   0.117
 6216SOL     OW19546   5.778   2.594   2.695
 6216SOL    HW119547   5.772   2.532   2.773
 6216SOL    HW219548   5.702   2.659   2.697
 6217SOL     OW19549   0.611   3.512   2.259
 6217SOL    HW119550   0.554   3.483   2.336
 6217SOL    HW219551   0.666   3.592   2.287
 6218SOL     OW19552   3.717   0.033   6.644
 6218SOL    HW119553   3.791   7.020   6.586
 6218SOL    HW219554   3.744   0.024   6.740
 6219SOL     OW19555   1.113   1.788   4.719
 6219SOL    HW119556   1.059   1.823   4.643
 6219SOL    HW219557   1.188   1.851   4.738
 6220SOL     OW19558   2.827   1.838   5.254
 6220SOL    HW119559   2.802   1.934   5.261
 6220SOL    HW219560   2.772   1.795   5.183
 6221SOL     OW19561   5.431   0.193   0.014
 6221SOL    HW119562   5.346   0.228   6.996
 6221SOL    HW219563   5.491   0.270   0.036
 6222SOL     OW19564   1.033   0.284   2.117
 6222SOL    HW119565   0.988   0.369   2.145
 6222SOL    HW219566   1.092   0.302   2.039
 6223SOL     OW19567   1.426   5.056   3.346
 6223SOL    HW119568   1.410   5.110   3.428
 6223SOL    HW219569   1.344   5.059   3.288
 6224SOL     OW19570   4.414   1.857   5.728
 6224SOL    HW119571   4.464   1.904   5.801
 6224SOL    HW219572   4.327   1.823   5.763
 6225SOL     OW19573   3.544   2.190   6.290
 6225SOL    HW119574   3.522   2.230   6.379
 6225SOL    HW219575   3.614   2.246   6.245
 6226SOL     OW19576   0.800   1.689   4.113
 6226SOL    HW119577   0.802   1.690   4.013
 6226SOL    HW219578   0.807   1.595   4.145
 6227SOL     OW19579   3.789   5.102   5.365
 6227SOL    HW119580   3.824   5.040   5.436
 6227SOL    HW219581   3.740   5.049   5.296
 6228SOL     OW19582   0.171   2.952   2.357
 6228SOL    HW119583   0.115   3.004   2.292
 6228SOL    HW219584   0.205   3.013   2.428
 6229SOL     OW19585   0.960   2.103   5.252
 6229SOL    HW119586   1.006   2.014   5.250
 6229SOL    HW219587   0.869   2.094   5.213
 6230SOL     OW19588   0.618   2.323   4.094
 6230SOL    HW119589   0.587   2.233   4.125
 6230SOL    HW219590   0.717   2.320   4.077
 6231SOL     OW19591   5.742   5.386   0.122
 6231SOL    HW119592   5.736   5.401   0.220
 6231SOL    HW219593   5.772   5.292   0.104
 6232SOL     OW19594   6.593   1.424   0.631
 6232SOL    HW119595   6.578   1.361   0.708
 6232SOL    HW219596   6.683   1.468   0.641
 6233SOL     OW19597   6.139   2.987   1.804
 6233SOL    HW119598   6.068   3.039   1.851
 6233SOL    HW219599   6.221   3.044   1.795
 6234SOL     OW19600   6.858   6.968   5.426
 6234SOL    HW119601   6.927   6.972   5.354
 6234SOL    HW219602   6.784   6.907   5.398
 6235SOL     OW19603   0.465   0.482   1.253
 6235SOL    HW119604   0.401   0.407   1.239
 6235SOL    HW219605   0.542   0.474   1.189
 6236SOL     OW19606   0.625   4.270   0.806
 6236SOL    HW119607   0.588   4.198   0.747
 6236SOL    HW219608   0.668   4.229   0.886
 6237SOL     OW19609   3.258   0.168   6.876
 6237SOL    HW119610   3.295   0.076   6.888
 6237SOL    HW219611   3.176   0.179   6.931
 6238SOL     OW19612   5.018   6.120   2.828
 6238SOL    HW119613   5.004   6.113   2.927
 6238SOL    HW219614   5.007   6.029   2.787
 6239SOL     OW19615   3.320   1.488   1.157
 6239SOL    HW119616   3.238   1.541   1.177
 6239SOL    HW219617   3.335   1.421   1.230
 6240SOL     OW19618   2.961   3.894   4.833
 6240SOL    HW119619   2.974   3.799   4.804
 6240SOL    HW219620   2.988   3.956   4.759
 6241SOL     OW19621   3.184   0.652   3.052
 6241SOL    HW119622   3.193   0.567   2.999
 6241SOL    HW219623   3.221   0.728   2.999
 6242SOL     OW19624   3.651   6.699   3.174
 6242SOL    HW119625   3.588   6.774   3.196
 6242SOL    HW219626   3.603   6.631   3.117
 6243SOL     OW19627   0.167   6.609   5.471
 6243SOL    HW119628   0.085   6.625   5.415
 6243SOL    HW219629   0.205   6.519   5.449
 6244SOL     OW19630   5.199   3.387   3.400
 6244SOL    HW119631   5.105   3.417   3.419
 6244SOL    HW219632   5.216   3.301   3.447
 6245SOL     OW19633   1.307   4.000   1.861
 6245SOL    HW119634   1.279   3.920   1.914
 6245SOL    HW219635   1.406   3.996   1.844
 6246SOL     OW19636   1.201   1.383   5.014
 6246SOL    HW119637   1.192   1.463   5.073
 6246SOL    HW219638   1.111   1.358   4.978
 6247SOL     OW19639   1.512   6.014   3.542
 6247SOL    HW119640   1.428   6.061   3.515
 6247SOL    HW219641   1.493   5.958   3.623
 6248SOL     OW19642   3.649   3.842   0.045
 6248SOL    HW119643   3.713   3.829   0.121
 6248SOL    HW219644   3.672   3.927   7.018
 6249SOL     OW19645   7.001   3.314   0.796
 6249SOL    HW119646   6.973   3.241   0.734
 6249SOL    HW219647   0.021   3.388   0.744
 6250SOL     OW19648   6.472   6.542   1.252
 6250SOL    HW119649   6.466   6.564   1.350
 6250SOL    HW219650   6.555   6.582   1.214
 6251SOL     OW19651   4.273   6.070   5.224
 6251SOL    HW119652   4.199   6.138   5.219
 6251SOL    HW219653   4.234   5.978   5.219
 6252SOL     OW19654   2.696   4.373   6.227
 6252SOL    HW119655   2.753   4.432   6.170
 6252SOL    HW219656   2.607   4.415   6.240
 6253SOL     OW19657   2.492   4.818   4.306
 6253SOL    HW119658   2.546   4.736   4.287
 6253SOL    HW219659   2.423   4.830   4.234
 6254SOL     OW19660   5.865   0.639   1.317
 6254SOL    HW119661   5.809   0.592   1.386
 6254SOL    HW219662   5.951   0.589   1.305
 6255SOL     OW19663   2.669   1.793   1.407
 6255SOL    HW119664   2.735   1.720   1.422
 6255SOL    HW219665   2.581   1.767   1.448
 6256SOL     OW19666   4.013   5.546   1.991
 6256SOL    HW119667   3.968   5.483   1.928
 6256SOL    HW219668   3.982   5.527   2.084
 6257SOL     OW19669   4.046   2.961   6.991
 6257SOL    HW119670   4.092   3.047   7.013
 6257SOL    HW219671   3.986   2.975   6.912
 6258SOL     OW19672   3.166   6.555   4.400
 6258SOL    HW119673   3.160   6.591   4.307
 6258SOL    HW219674   3.224   6.473   4.400
 6259SOL     OW19675   2.042   0.390   6.443
 6259SOL    HW119676   1.993   0.453   6.504
 6259SOL    HW219677   2.046   0.430   6.352
 6260SOL     OW19678   3.339   6.075   0.084
 6260SOL    HW119679   3.369   6.135   0.157
 6260SOL    HW219680   3.249   6.104   0.051
 6261SOL     OW19681   5.365   0.355   0.443
 6261SOL    HW119682   5.328   0.267   0.411
 6261SOL    HW219683   5.418   0.341   0.526
 6262SOL     OW19684   1.824   5.733   2.092
 6262SOL    HW119685   1.831   5.831   2.111
 6262SOL    HW219686   1.840   5.718   1.994
 6263SOL     OW19687   1.135   6.586   4.651
 6263SOL    HW119688   1.213   6.563   4.593
 6263SOL    HW219689   1.054   6.537   4.620
 6264SOL     OW19690   2.073   0.283   1.904
 6264SOL    HW119691   2.016   0.346   1.851
 6264SOL    HW219692   2.156   0.330   1.934
 6265SOL     OW19693   3.946   3.610   0.838
 6265SOL    HW119694   3.869   3.596   0.776
 6265SOL    HW219695   4.031   3.608   0.785
 6266SOL     OW19696   4.625   0.189   3.308
 6266SOL    HW119697   4.567   0.109   3.292
 6266SOL    HW219698   4.568   0.269   3.326
 6267SOL     OW19699   2.128   7.001   5.017
 6267SOL    HW119700   2.028   7.002   5.016
 6267SOL    HW219701   2.160   6.906   5.016
 6268SOL     OW19702   2.480   0.347   1.780
 6268SOL    HW119703   2.539   0.426   1.767
 6268SOL    HW219704   2.535   0.270   1.814
 6269SOL     OW19705   6.727   0.493   2.475
 6269SOL    HW119706   6.645   0.452   2.514
 6269SOL    HW219707   6.804   0.481   2.538
 6270SOL     OW19708   0.209   0.147   6.701
 6270SOL    HW119709   0.130   0.087   6.711
 6270SOL    HW219710   0.272   0.132   6.778
 6271SOL     OW19711   6.120   2.864   5.597
 6271SOL    HW119712   6.188   2.921   5.642
 6271SOL    HW219713   6.079   2.915   5.521
 6272SOL     OW19714   0.450   2.112   0.586
 6272SOL    HW119715   0.457   2.044   0.512
 6272SOL    HW219716   0.353   2.130   0.605
 6273SOL     OW19717   0.540   6.355   2.899
 6273SOL    HW119718   0.550   6.363   2.800
 6273SOL    HW219719   0.589   6.273   2.930
 6274SOL     OW19720   3.304   0.113   4.336
 6274SOL    HW119721   3.219   0.154   4.368
 6274SOL    HW219722   3.381   0.156   4.382
 6275SOL     OW19723   1.722   6.226   0.184
 6275SOL    HW119724   1.704   6.324   0.176
 6275SOL    HW219725   1.741   6.188   0.093
 6276SOL     OW19726   2.828   5.651   3.025
 6276SOL    HW119727   2.828   5.703   3.110
 6276SOL    HW219728   2.837   5.553   3.044
 6277SOL     OW19729   4.798   3.008   0.846
 6277SOL    HW119730   4.726   2.983   0.781
 6277SOL    HW219731   4.787   2.956   0.930
 6278SOL     OW19732   3.949   0.562   4.555
 6278SOL    HW119733   3.914   0.654   4.574
 6278SOL    HW219734   3.885   0.513   4.497
 6279SOL     OW19735   3.425   6.095   0.430
 6279SOL    HW119736   3.407   6.023   0.497
 6279SOL    HW219737   3.473   6.171   0.475
 6280SOL     OW19738   0.524   1.019   6.645
 6280SOL    HW119739   0.493   0.948   6.583
 6280SOL    HW219740   0.535   0.981   6.737
 6281SOL     OW19741   6.548   4.880   4.331
 6281SOL    HW119742   6.642   4.852   4.351
 6281SOL    HW219743   6.485   4.809   4.362
 6282SOL     OW19744   6.409   4.248   5.558
 6282SOL    HW119745   6.479   4.319   5.550
 6282SOL    HW219746   6.451   4.162   5.588
 6283SOL     OW19747   0.096   4.092   4.026
 6283SOL    HW119748   0.078   4.044   4.112
 6283SOL    HW219749   0.189   4.071   3.996
 6284SOL     OW19750   1.523   5.153   6.315
 6284SOL    HW119751   1.435   5.192   6.286
 6284SOL    HW219752   1.532   5.164   6.414
 6285SOL     OW19753   1.254   3.321   3.038
 6285SOL    HW119754   1.189   3.386   3.077
 6285SOL    HW219755   1.208   3.266   2.969
 6286SOL     OW19756   0.237   3.382   4.774
 6286SOL    HW119757   0.331   3.372   4.804
 6286SOL    HW219758   0.230   3.362   4.676
 6287SOL     OW19759   3.305   4.761   5.294
 6287SOL    HW119760   3.233   4.698   5.322
 6287SOL    HW219761   3.274   4.814   5.215
 6288SOL     OW19762   5.974   4.862   1.495
 6288SOL    HW119763   6.053   4.850   1.556
 6288SOL    HW219764   5.914   4.783   1.504
 6289SOL     OW19765   2.175   4.819   6.896
 6289SOL    HW119766   2.204   4.840   6.989
 6289SOL    HW219767   2.217   4.884   6.832
 6290SOL     OW19768   5.586   5.502   6.312
 6290SOL    HW119769   5.588   5.418   6.366
 6290SOL    HW219770   5.680   5.526   6.286
 6291SOL     OW19771   3.491   4.110   3.964
 6291SOL    HW119772   3.431   4.030   3.961
 6291SOL    HW219773   3.534   4.123   3.875
 6292SOL     OW19774   2.556   2.369   5.395
 6292SOL    HW119775   2.541   2.289   5.454
 6292SOL    HW219776   2.604   2.341   5.312
 6293SOL     OW19777   4.960   1.639   0.795
 6293SOL    HW119778   4.939   1.710   0.862
 6293SOL    HW219779   4.879   1.582   0.782
 6294SOL     OW19780   4.143   0.309   3.467
 6294SOL    HW119781   4.228   0.356   3.445
 6294SOL    HW219782   4.101   0.275   3.383
 6295SOL     OW19783   5.589   4.077   4.667
 6295SOL    HW119784   5.529   4.007   4.708
 6295SOL    HW219785   5.602   4.056   4.571
 6296SOL     OW19786   7.003   4.643   5.860
 6296SOL    HW119787   7.020   4.563   5.917
 6296SOL    HW219788   0.064   4.700   5.858
 6297SOL     OW19789   6.154   0.761   4.975
 6297SOL    HW119790   6.110   0.671   4.984
 6297SOL    HW219791   6.105   0.815   4.907
 6298SOL     OW19792   0.628   3.398   6.499
 6298SOL    HW119793   0.549   3.454   6.476
 6298SOL    HW219794   0.693   3.452   6.554
 6299SOL     OW19795   6.069   3.325   2.281
 6299SOL    HW119796   6.004   3.333   2.205
 6299SOL    HW219797   6.120   3.240   2.272
 6300SOL     OW19798   6.235   0.914   0.091
 6300SOL    HW119799   6.269   0.870   0.009
 6300SOL    HW219800   6.309   0.966   0.135
 6301SOL     OW19801   2.557   6.520   0.200
 6301SOL    HW119802   2.535   6.512   0.297
 6301SOL    HW219803   2.657   6.518   0.188
 6302SOL     OW19804   1.807   2.157   4.933
 6302SOL    HW119805   1.863   2.236   4.907
 6302SOL    HW219806   1.847   2.112   5.012
 6303SOL     OW19807   0.238   0.113   5.652
 6303SOL    HW119808   0.166   0.181   5.638
 6303SOL    HW219809   0.204   0.041   5.712
 6304SOL     OW19810   3.528   1.487   2.000
 6304SOL    HW119811   3.491   1.508   1.909
 6304SOL    HW219812   3.582   1.403   1.995
 6305SOL     OW19813   6.103   6.001   0.025
 6305SOL    HW119814   6.151   6.080   0.064
 6305SOL    HW219815   6.006   6.005   0.051
 6306SOL     OW19816   0.059   3.901   4.225
 6306SOL    HW119817   0.045   3.881   4.322
 6306SOL    HW219818   0.035   3.821   4.170
 6307SOL     OW19819   3.130   3.679   3.565
 6307SOL    HW119820   3.149   3.602   3.504
 6307SOL    HW219821   3.171   3.762   3.528
 6308SOL     OW19822   1.428   2.558   4.925
 6308SOL    HW119823   1.410   2.644   4.878
 6308SOL    HW219824   1.524   2.553   4.951
 6309SOL     OW19825   6.986   6.607   4.284
 6309SOL    HW119826   6.975   6.603   4.185
 6309SOL    HW219827   6.936   6.687   4.319
 6310SOL     OW19828   1.191   6.572   2.693
 6310SOL    HW119829   1.147   6.631   2.760
 6310SOL    HW219830   1.207   6.623   2.609
 6311SOL     OW19831   5.101   1.983   5.651
 6311SOL    HW119832   5.034   2.051   5.681
 6311SOL    HW219833   5.191   2.025   5.645
 6312SOL     OW19834   0.932   6.856   5.322
 6312SOL    HW119835   0.866   6.802   5.271
 6312SOL    HW219836   0.990   6.795   5.376
 6313SOL     OW19837   6.425   6.354   3.708
 6313SOL    HW119838   6.328   6.360   3.686
 6313SOL    HW219839   6.437   6.349   3.808
 6314SOL     OW19840   3.657   6.889   2.380
 6314SOL    HW119841   3.585   6.840   2.332
 6314SOL    HW219842   3.718   6.823   2.424
 6315SOL     OW19843   3.462   1.857   5.681
 6315SOL    HW119844   3.382   1.914   5.661
 6315SOL    HW219845   3.431   1.767   5.710
 6316SOL     OW19846   5.185   2.345   5.415
 6316SOL    HW119847   5.232   2.257   5.424
 6316SOL    HW219848   5.138   2.348   5.327
 6317SOL     OW19849   4.985   4.361   2.078
 6317SOL    HW119850   5.043   4.393   2.003
 6317SOL    HW219851   4.929   4.436   2.112
 6318SOL     OW19852   4.629   0.642   6.251
 6318SOL    HW119853   4.670   0.568   6.198
 6318SOL    HW219854   4.698   0.683   6.311
 6319SOL     OW19855   6.778   2.449   5.423
 6319SOL    HW119856   6.764   2.382   5.496
 6319SOL    HW219857   6.693   2.463   5.373
 6320SOL     OW19858   0.071   6.491   5.074
 6320SOL    HW119859   0.061   6.479   5.173
 6320SOL    HW219860   0.115   6.410   5.035
 6321SOL     OW19861   4.390   3.128   0.678
 6321SOL    HW119862   4.426   3.222   0.684
 6321SOL    HW219863   4.328   3.122   0.600
 6322SOL     OW19864   2.978   2.711   0.866
 6322SOL    HW119865   2.988   2.710   0.965
 6322SOL    HW219866   2.915   2.639   0.838
 6323SOL     OW19867   1.333   1.959   1.888
 6323SOL    HW119868   1.336   2.059   1.884
 6323SOL    HW219869   1.423   1.924   1.910
 6324SOL     OW19870   3.914   1.024   0.516
 6324SOL    HW119871   3.890   1.014   0.612
 6324SOL    HW219872   4.008   0.992   0.501
 6325SOL     OW19873   1.841   3.026   2.531
 6325SOL    HW119874   1.763   3.069   2.577
 6325SOL    HW219875   1.910   3.095   2.510
 6326SOL     OW19876   5.319   4.836   0.234
 6326SOL    HW119877   5.317   4.934   0.216
 6326SOL    HW219878   5.243   4.792   0.185
 6327SOL     OW19879   7.013   2.246   4.024
 6327SOL    HW119880   0.073   2.240   3.964
 6327SOL    HW219881   0.016   2.211   4.114
 6328SOL     OW19882   4.446   3.596   6.858
 6328SOL    HW119883   4.483   3.578   6.949
 6328SOL    HW219884   4.493   3.673   6.816
 6329SOL     OW19885   1.331   2.802   4.839
 6329SOL    HW119886   1.406   2.855   4.800
 6329SOL    HW219887   1.289   2.854   4.914
 6330SOL     OW19888   5.744   6.741   2.094
 6330SOL    HW119889   5.780   6.824   2.050
 6330SOL    HW219890   5.657   6.762   2.137
 6331SOL     OW19891   0.075   4.066   4.817
 6331SOL    HW119892   0.151   4.017   4.857
 6331SOL    HW219893   0.076   4.055   4.717
 6332SOL     OW19894   0.612   2.557   1.037
 6332SOL    HW119895   0.582   2.477   1.088
 6332SOL    HW219896   0.708   2.577   1.058
 6333SOL     OW19897   5.085   0.394   5.585
 6333SOL    HW119898   5.094   0.350   5.674
 6333SOL    HW219899   5.176   0.405   5.544
 6334SOL     OW19900   2.951   0.468   2.412
 6334SOL    HW119901   2.876   0.415   2.372
 6334SOL    HW219902   2.972   0.432   2.503
 6335SOL     OW19903   4.088   0.615   0.417
 6335SOL    HW119904   4.054   0.671   0.492
 6335SOL    HW219905   4.069   0.519   0.436
 6336SOL     OW19906   0.512   2.002   6.649
 6336SOL    HW119907   0.459   2.044   6.575
 6336SOL    HW219908   0.450   1.960   6.715
 6337SOL     OW19909   3.916   5.290   4.661
 6337SOL    HW119910   3.954   5.243   4.581
 6337SOL    HW219911   3.846   5.355   4.631
 6338SOL     OW19912   2.539   2.533   3.959
 6338SOL    HW119913   2.567   2.449   4.005
 6338SOL    HW219914   2.544   2.610   4.023
 6339SOL     OW19915   0.575   3.374   4.242
 6339SOL    HW119916   0.609   3.468   4.244
 6339SOL    HW219917   0.632   3.316   4.300
 6340SOL     OW19918   2.673   4.291   1.265
 6340SOL    HW119919   2.696   4.263   1.172
 6340SOL    HW219920   2.587   4.249   1.293
 6341SOL     OW19921   6.439   3.202   4.938
 6341SOL    HW119922   6.427   3.122   4.879
 6341SOL    HW219923   6.534   3.231   4.937
 6342SOL     OW19924   3.146   1.354   0.899
 6342SOL    HW119925   3.220   1.420   0.904
 6342SOL    HW219926   3.079   1.383   0.831
 6343SOL     OW19927   3.640   0.500   0.014
 6343SOL    HW119928   3.694   0.578   0.043
 6343SOL    HW219929   3.551   0.531   7.002
 6344SOL     OW19930   4.631   2.385   3.954
 6344SOL    HW119931   4.575   2.417   3.877
 6344SOL    HW219932   4.695   2.316   3.922
 6345SOL     OW19933   5.137   2.738   2.164
 6345SOL    HW119934   5.125   2.747   2.065
 6345SOL    HW219935   5.062   2.685   2.203
 6346SOL     OW19936   0.238   5.416   4.971
 6346SOL    HW119937   0.270   5.500   5.014
 6346SOL    HW219938   0.139   5.420   4.956
 6347SOL     OW19939   1.764   1.606   0.457
 6347SOL    HW119940   1.792   1.666   0.532
 6347SOL    HW219941   1.670   1.575   0.472
 6348SOL     OW19942   1.288   3.026   6.951
 6348SOL    HW119943   1.342   2.998   6.872
 6348SOL    HW219944   1.226   3.100   6.925
 6349SOL     OW19945   2.121   1.374   0.953
 6349SOL    HW119946   2.117   1.347   0.856
 6349SOL    HW219947   2.207   1.342   0.993
 6350SOL     OW19948   0.888   5.357   4.237
 6350SOL    HW119949   0.854   5.385   4.327
 6350SOL    HW219950   0.842   5.273   4.209
 6351SOL     OW19951   6.011   3.346   3.583
 6351SOL    HW119952   6.022   3.443   3.602
 6351SOL    HW219953   6.019   3.294   3.668
 6352SOL     OW19954   2.696   0.473   4.988
 6352SOL    HW119955   2.610   0.425   4.973
 6352SOL    HW219956   2.768   0.408   5.008
 6353SOL     OW19957   1.300   5.999   5.960
 6353SOL    HW119958   1.272   5.961   5.872
 6353SOL    HW219959   1.301   6.099   5.954
 6354SOL     OW19960   3.476   5.883   2.720
 6354SOL    HW119961   3.526   5.894   2.806
 6354SOL    HW219962   3.402   5.950   2.715
 6355SOL     OW19963   3.112   5.218   6.902
 6355SOL    HW119964   3.122   5.288   6.831
 6355SOL    HW219965   3.179   5.145   6.886
 6356SOL     OW19966   5.754   4.663   0.706
 6356SOL    HW119967   5.748   4.706   0.797
 6356SOL    HW219968   5.836   4.606   0.702
 6357SOL     OW19969   5.704   4.140   2.339
 6357SOL    HW119970   5.749   4.079   2.405
 6357SOL    HW219971   5.611   4.107   2.322
 6358SOL     OW19972   0.355   1.837   6.316
 6358SOL    HW119973   0.296   1.756   6.323
 6358SOL    HW219974   0.332   1.901   6.390
 6359SOL     OW19975   6.010   6.491   0.225
 6359SOL    HW119976   5.960   6.576   0.209
 6359SOL    HW219977   6.029   6.482   0.323
 6360SOL     OW19978   1.081   3.759   4.739
 6360SOL    HW119979   1.104   3.743   4.835
 6360SOL    HW219980   1.076   3.672   4.690
 6361SOL     OW19981   0.902   1.098   0.587
 6361SOL    HW119982   0.986   1.046   0.572
 6361SOL    HW219983   0.879   1.097   0.685
 6362SOL     OW19984   0.810   5.778   6.230
 6362SOL    HW119985   0.794   5.781   6.131
 6362SOL    HW219986   0.758   5.702   6.270
 6363SOL     OW19987   2.579   5.641   3.657
 6363SOL    HW119988   2.568   5.733   3.693
 6363SOL    HW219989   2.632   5.644   3.572
 6364SOL     OW19990   2.849   2.369   5.598
 6364SOL    HW119991   2.829   2.459   5.559
 6364SOL    HW219992   2.772   2.341   5.656
 6365SOL     OW19993   5.025   6.125   4.068
 6365SOL    HW119994   5.099   6.190   4.053
 6365SOL    HW219995   5.052   6.059   4.138
 6366SOL     OW19996   0.781   5.841   5.378
 6366SOL    HW119997   0.773   5.789   5.463
 6366SOL    HW219998   0.693   5.881   5.354
 6367SOL     OW19999   3.632   2.062   3.093
 6367SOL    HW120000   3.636   2.074   2.994
 6367SOL    HW220001   3.536   2.061   3.122
 6368SOL     OW20002   3.902   4.852   4.294
 6368SOL    HW120003   3.981   4.818   4.345
 6368SOL    HW220004   3.921   4.848   4.196
 6369SOL     OW20005   1.375   0.801   4.458
 6369SOL    HW120006   1.287   0.768   4.426
 6369SOL    HW220007   1.384   0.782   4.556
 6370SOL     OW20008   5.366   3.830   3.478
 6370SOL    HW120009   5.273   3.833   3.513
 6370SOL    HW220010   5.368   3.774   3.394
 6371SOL     OW20011   5.655   4.793   3.147
 6371SOL    HW120012   5.731   4.753   3.198
 6371SOL    HW220013   5.688   4.870   3.092
 6372SOL     OW20014   1.031   0.916   2.090
 6372SOL    HW120015   1.095   0.904   2.166
 6372SOL    HW220016   0.989   1.007   2.097
 6373SOL     OW20017   5.356   4.545   3.045
 6373SOL    HW120018   5.370   4.522   2.948
 6373SOL    HW220019   5.444   4.539   3.093
 6374SOL     OW20020   4.273   3.455   1.356
 6374SOL    HW120021   4.241   3.384   1.293
 6374SOL    HW220022   4.331   3.413   1.425
 6375SOL     OW20023   6.958   2.845   2.034
 6375SOL    HW120024   0.024   2.802   2.056
 6375SOL    HW220025   6.923   2.893   2.115
 6376SOL     OW20026   4.514   2.548   6.311
 6376SOL    HW120027   4.504   2.642   6.344
 6376SOL    HW220028   4.424   2.507   6.299
 6377SOL     OW20029   6.328   1.308   5.356
 6377SOL    HW120030   6.258   1.281   5.290
 6377SOL    HW220031   6.408   1.249   5.346
 6378SOL     OW20032   5.726   4.817   3.674
 6378SOL    HW120033   5.794   4.891   3.674
 6378SOL    HW220034   5.742   4.758   3.754
 6379SOL     OW20035   0.711   4.328   5.088
 6379SOL    HW120036   0.738   4.422   5.110
 6379SOL    HW220037   0.636   4.330   5.021
 6380SOL     OW20038   0.345   2.106   4.931
 6380SOL    HW120039   0.336   2.074   4.837
 6380SOL    HW220040   0.274   2.064   4.987
 6381SOL     OW20041   4.295   3.049   0.939
 6381SOL    HW120042   4.349   3.090   0.865
 6381SOL    HW220043   4.315   2.952   0.945
 6382SOL     OW20044   3.210   1.624   0.180
 6382SOL    HW120045   3.141   1.649   0.111
 6382SOL    HW220046   3.298   1.662   0.154
 6383SOL     OW20047   2.472   2.481   2.319
 6383SOL    HW120048   2.513   2.517   2.236
 6383SOL    HW220049   2.418   2.400   2.298
 6384SOL     OW20050   5.762   3.673   2.863
 6384SOL    HW120051   5.774   3.634   2.772
 6384SOL    HW220052   5.679   3.727   2.866
 6385SOL     OW20053   6.688   3.559   3.460
 6385SOL    HW120054   6.640   3.476   3.431
 6385SOL    HW220055   6.786   3.542   3.460
 6386SOL     OW20056   2.543   3.301   6.499
 6386SOL    HW120057   2.534   3.399   6.481
 6386SOL    HW220058   2.639   3.274   6.487
 6387SOL     OW20059   6.297   1.753   6.842
 6387SOL    HW120060   6.289   1.839   6.791
 6387SOL    HW220061   6.394   1.727   6.846
 6388SOL     OW20062   5.229   5.668   1.076
 6388SOL    HW120063   5.239   5.737   1.004
 6388SOL    HW220064   5.228   5.713   1.165
 6389SOL     OW20065   0.630   0.021   0.716
 6389SOL    HW120066   0.568   0.099   0.729
 6389SOL    HW220067   0.720   0.043   0.753
 6390SOL     OW20068   6.170   0.516   5.230
 6390SOL    HW120069   6.096   0.546   5.170
 6390SOL    HW220070   6.183   0.418   5.222
 6391SOL     OW20071   1.623   0.869   6.472
 6391SOL    HW120072   1.640   0.825   6.560
 6391SOL    HW220073   1.617   0.798   6.401
 6392SOL     OW20074   2.772   4.778   2.941
 6392SOL    HW120075   2.725   4.718   3.007
 6392SOL    HW220076   2.834   4.839   2.990
 6393SOL     OW20077   6.959   5.976   2.385
 6393SOL    HW120078   7.009   6.044   2.332
 6393SOL    HW220079   6.876   5.949   2.336
 6394SOL     OW20080   1.568   5.465   0.725
 6394SOL    HW120081   1.590   5.434   0.817
 6394SOL    HW220082   1.481   5.424   0.696
 6395SOL     OW20083   6.538   3.422   1.812
 6395SOL    HW120084   6.462   3.387   1.866
 6395SOL    HW220085   6.520   3.516   1.786
 6396SOL     OW20086   6.615   3.671   6.189
 6396SOL    HW120087   6.621   3.604   6.114
 6396SOL    HW220088   6.531   3.724   6.179
 6397SOL     OW20089   5.764   0.848   1.532
 6397SOL    HW120090   5.681   0.800   1.560
 6397SOL    HW220091   5.839   0.824   1.593
 6398SOL     OW20092   2.962   6.897   1.894
 6398SOL    HW120093   3.035   6.963   1.912
 6398SOL    HW220094   2.927   6.863   1.981
 6399SOL     OW20095   1.436   0.295   6.696
 6399SOL    HW120096   1.372   0.228   6.660
 6399SOL    HW220097   1.501   0.249   6.757
 6400SOL     OW20098   2.009   4.927   2.526
 6400SOL    HW120099   2.064   4.909   2.607
 6400SOL    HW220100   2.059   4.900   2.444
 6401SOL     OW20101   5.380   5.450   2.782
 6401SOL    HW120102   5.295   5.450   2.833
 6401SOL    HW220103   5.382   5.371   2.720
 6402SOL     OW20104   2.138   3.213   3.474
 6402SOL    HW120105   2.201   3.261   3.413
 6402SOL    HW220106   2.051   3.261   3.477
 6403SOL     OW20107   5.869   6.326   5.757
 6403SOL    HW120108   5.805   6.391   5.716
 6403SOL    HW220109   5.818   6.254   5.805
 6404SOL     OW20110   4.762   1.275   2.722
 6404SOL    HW120111   4.686   1.213   2.704
 6404SOL    HW220112   4.840   1.249   2.664
 6405SOL     OW20113   4.023   0.585   4.249
 6405SOL    HW120114   4.078   0.660   4.286
 6405SOL    HW220115   4.061   0.554   4.162
 6406SOL     OW20116   0.463   2.943   2.558
 6406SOL    HW120117   0.394   2.948   2.630
 6406SOL    HW220118   0.554   2.939   2.600
 6407SOL     OW20119   2.284   0.260   4.505
 6407SOL    HW120120   2.326   0.177   4.540
 6407SOL    HW220121   2.205   0.284   4.561
 6408SOL     OW20122   5.001   1.453   1.478
 6408SOL    HW120123   5.058   1.525   1.439
 6408SOL    HW220124   4.970   1.392   1.406
 6409SOL     OW20125   6.844   4.487   3.482
 6409SOL    HW120126   6.755   4.532   3.478
 6409SOL    HW220127   6.879   4.475   3.389
 6410SOL     OW20128   2.071   1.023   6.385
 6410SOL    HW120129   2.085   1.068   6.473
 6410SOL    HW220130   2.117   1.075   6.313
 6411SOL     OW20131   0.431   2.568   2.664
 6411SOL    HW120132   0.391   2.476   2.670
 6411SOL    HW220133   0.530   2.562   2.675
 6412SOL     OW20134   1.739   1.141   6.120
 6412SOL    HW120135   1.695   1.212   6.065
 6412SOL    HW220136   1.721   1.156   6.217
 6413SOL     OW20137   3.612   4.930   3.884
 6413SOL    HW120138   3.521   4.968   3.866
 6413SOL    HW220139   3.638   4.950   3.979
 6414SOL     OW20140   5.117   0.980   6.593
 6414SOL    HW120141   5.028   0.973   6.548
 6414SOL    HW220142   5.115   0.928   6.679
 6415SOL     OW20143   1.456   2.985   4.225
 6415SOL    HW120144   1.457   2.976   4.324
 6415SOL    HW220145   1.433   3.079   4.200
 6416SOL     OW20146   2.305   6.666   6.249
 6416SOL    HW120147   2.282   6.582   6.200
 6416SOL    HW220148   2.231   6.732   6.238
 6417SOL     OW20149   5.858   3.853   0.739
 6417SOL    HW120150   5.821   3.929   0.791
 6417SOL    HW220151   5.872   3.881   0.644
 6418SOL     OW20152   4.946   4.407   3.196
 6418SOL    HW120153   4.932   4.452   3.108
 6418SOL    HW220154   5.041   4.377   3.204
 6419SOL     OW20155   1.415   5.351   2.938
 6419SOL    HW120156   1.376   5.371   2.848
 6419SOL    HW220157   1.509   5.319   2.928
 6420SOL     OW20158   2.402   0.771   4.214
 6420SOL    HW120159   2.464   0.814   4.279
 6420SOL    HW220160   2.455   0.731   4.139
 6421SOL     OW20161   4.610   0.169   1.504
 6421SOL    HW120162   4.571   0.097   1.561
 6421SOL    HW220163   4.560   0.173   1.417
 6422SOL     OW20164   6.714   1.825   5.106
 6422SOL    HW120165   6.676   1.889   5.173
 6422SOL    HW220166   6.766   1.754   5.154
 6423SOL     OW20167   5.127   4.933   4.884
 6423SOL    HW120168   5.136   4.886   4.797
 6423SOL    HW220169   5.030   4.942   4.907
 6424SOL     OW20170   0.792   3.853   4.748
 6424SOL    HW120171   0.890   3.838   4.752
 6424SOL    HW220172   0.771   3.944   4.782
 6425SOL     OW20173   6.591   5.934   3.045
 6425SOL    HW120174   6.676   5.936   2.993
 6425SOL    HW220175   6.558   6.027   3.060
 6426SOL     OW20176   6.775   5.317   3.149
 6426SOL    HW120177   6.770   5.348   3.054
 6426SOL    HW220178   6.836   5.238   3.156
 6427SOL     OW20179   3.641   4.153   3.443
 6427SOL    HW120180   3.548   4.184   3.426
 6427SOL    HW220181   3.684   4.127   3.357
 6428SOL     OW20182   6.177   3.721   0.073
 6428SOL    HW120183   6.140   3.634   0.042
 6428SOL    HW220184   6.102   3.786   0.086
 6429SOL     OW20185   6.727   0.960   5.447
 6429SOL    HW120186   6.810   0.942   5.499
 6429SOL    HW220187   6.665   0.881   5.454
 6430SOL     OW20188   6.370   1.301   3.985
 6430SOL    HW120189   6.416   1.320   4.072
 6430SOL    HW220190   6.358   1.386   3.934
 6431SOL     OW20191   4.149   5.956   3.805
 6431SOL    HW120192   4.248   5.945   3.804
 6431SOL    HW220193   4.112   5.921   3.891
 6432SOL     OW20194   4.309   4.897   5.658
 6432SOL    HW120195   4.403   4.864   5.656
 6432SOL    HW220196   4.249   4.832   5.612
 6433SOL     OW20197   2.666   4.911   6.846
 6433SOL    HW120198   2.645   4.934   6.751
 6433SOL    HW220199   2.754   4.952   6.872
 6434SOL     OW20200   3.099   0.260   6.405
 6434SOL    HW120201   3.138   0.342   6.446
 6434SOL    HW220202   3.056   0.204   6.475
 6435SOL     OW20203   6.036   6.541   0.532
 6435SOL    HW120204   6.055   6.637   0.551
 6435SOL    HW220205   5.960   6.510   0.590
 6436SOL     OW20206   1.453   3.185   2.667
 6436SOL    HW120207   1.364   3.228   2.685
 6436SOL    HW220208   1.478   3.199   2.572
 6437SOL     OW20209   1.397   2.185   0.867
 6437SOL    HW120210   1.461   2.112   0.887
 6437SOL    HW220211   1.319   2.149   0.815
 6438SOL     OW20212   0.644   4.627   5.793
 6438SOL    HW120213   0.635   4.695   5.867
 6438SOL    HW220214   0.553   4.599   5.763
 6439SOL     OW20215   5.130   0.607   2.068
 6439SOL    HW120216   5.137   0.587   1.970
 6439SOL    HW220217   5.036   0.637   2.089
 6440SOL     OW20218   2.730   1.592   5.730
 6440SOL    HW120219   2.689   1.647   5.803
 6440SOL    HW220220   2.743   1.648   5.649
 6441SOL     OW20221   0.468   0.576   1.710
 6441SOL    HW120222   0.462   0.673   1.733
 6441SOL    HW220223   0.532   0.563   1.634
 6442SOL     OW20224   3.096   1.924   5.296
 6442SOL    HW120225   3.003   1.888   5.285
 6442SOL    HW220226   3.096   2.022   5.276
 6443SOL     OW20227   3.401   3.005   5.193
 6443SOL    HW120228   3.478   2.990   5.255
 6443SOL    HW220229   3.371   2.918   5.154
 6444SOL     OW20230   5.670   2.492   4.947
 6444SOL    HW120231   5.760   2.451   4.957
 6444SOL    HW220232   5.666   2.546   4.862
 6445SOL     OW20233   3.865   3.316   3.345
 6445SOL    HW120234   3.887   3.412   3.359
 6445SOL    HW220235   3.938   3.259   3.385
 6446SOL     OW20236   0.498   1.843   0.263
 6446SOL    HW120237   0.558   1.913   0.226
 6446SOL    HW220238   0.432   1.815   0.193
 6447SOL     OW20239   0.002   4.427   2.954
 6447SOL    HW120240   0.036   4.338   2.983
 6447SOL    HW220241   0.002   4.433   2.854
 6448SOL     OW20242   5.297   4.989   1.285
 6448SOL    HW120243   5.227   4.949   1.344
 6448SOL    HW220244   5.287   5.088   1.283
 6449SOL     OW20245   3.417   5.494   1.834
 6449SOL    HW120246   3.425   5.556   1.912
 6449SOL    HW220247   3.425   5.399   1.866
 6450SOL     OW20248   1.756   2.745   0.841
 6450SOL    HW120249   1.777   2.773   0.934
 6450SOL    HW220250   1.841   2.737   0.788
 6451SOL     OW20251   2.261   0.671   6.176
 6451SOL    HW120252   2.189   0.603   6.187
 6451SOL    HW220253   2.219   0.759   6.153
 6452SOL     OW20254   4.727   4.138   2.684
 6452SOL    HW120255   4.811   4.145   2.631
 6452SOL    HW220256   4.732   4.059   2.746
 6453SOL     OW20257   2.226   6.935   1.528
 6453SOL    HW120258   2.143   6.881   1.511
 6453SOL    HW220259   2.233   7.007   1.459
 6454SOL     OW20260   1.148   1.314   3.069
 6454SOL    HW120261   1.068   1.343   3.122
 6454SOL    HW220262   1.224   1.295   3.131
 6455SOL     OW20263   6.762   3.213   3.583
 6455SOL    HW120264   6.702   3.176   3.653
 6455SOL    HW220265   6.834   3.268   3.627
 6456SOL     OW20266   1.408   1.339   3.733
 6456SOL    HW120267   1.474   1.374   3.666
 6456SOL    HW220268   1.447   1.258   3.777
 6457SOL     OW20269   5.579   0.369   1.592
 6457SOL    HW120270   5.487   0.403   1.575
 6457SOL    HW220271   5.593   0.358   1.690
 6458SOL     OW20272   1.259   5.077   4.093
 6458SOL    HW120273   1.339   5.090   4.034
 6458SOL    HW220274   1.210   5.164   4.101
 6459SOL     OW20275   6.181   3.079   2.220
 6459SOL    HW120276   6.134   3.015   2.159
 6459SOL    HW220277   6.269   3.106   2.179
 6460SOL     OW20278   5.878   6.198   6.226
 6460SOL    HW120279   5.831   6.285   6.242
 6460SOL    HW220280   5.814   6.123   6.239
 6461SOL     OW20281   2.632   4.459   7.007
 6461SOL    HW120282   2.709   4.398   0.004
 6461SOL    HW220283   2.557   4.407   6.966
 6462SOL     OW20284   1.784   2.833   4.612
 6462SOL    HW120285   1.858   2.832   4.544
 6462SOL    HW220286   1.696   2.820   4.566
 6463SOL     OW20287   5.471   0.786   0.598
 6463SOL    HW120288   5.543   0.845   0.561
 6463SOL    HW220289   5.450   0.813   0.692
 6464SOL     OW20290   1.983   5.258   5.254
 6464SOL    HW120291   1.977   5.233   5.351
 6464SOL    HW220292   2.045   5.195   5.207
 6465SOL     OW20293   6.728   2.756   2.371
 6465SOL    HW120294   6.822   2.773   2.402
 6465SOL    HW220295   6.694   2.672   2.413
 6466SOL     OW20296   5.789   1.636   6.257
 6466SOL    HW120297   5.838   1.625   6.170
 6466SOL    HW220298   5.854   1.628   6.333
 6467SOL     OW20299   4.181   0.529   1.141
 6467SOL    HW120300   4.257   0.591   1.119
 6467SOL    HW220301   4.217   0.436   1.155
 6468SOL     OW20302   3.008   6.344   1.373
 6468SOL    HW120303   3.025   6.245   1.376
 6468SOL    HW220304   2.952   6.370   1.452
 6469SOL     OW20305   4.049   2.129   3.456
 6469SOL    HW120306   3.957   2.145   3.420
 6469SOL    HW220307   4.104   2.212   3.444
 6470SOL     OW20308   6.052   3.089   1.102
 6470SOL    HW120309   6.023   2.996   1.125
 6470SOL    HW220310   5.974   3.139   1.065
 6471SOL     OW20311   0.293   6.374   5.411
 6471SOL    HW120312   0.300   6.308   5.485
 6471SOL    HW220313   0.299   6.326   5.323
 6472SOL     OW20314   6.682   5.930   2.310
 6472SOL    HW120315   6.631   5.969   2.386
 6472SOL    HW220316   6.628   5.858   2.266
 6473SOL     OW20317   2.871   1.932   4.886
 6473SOL    HW120318   2.822   2.004   4.837
 6473SOL    HW220319   2.807   1.861   4.914
 6474SOL     OW20320   4.397   6.061   5.479
 6474SOL    HW120321   4.350   6.093   5.396
 6474SOL    HW220322   4.366   5.969   5.502
 6475SOL     OW20323   5.885   4.498   3.802
 6475SOL    HW120324   5.804   4.450   3.767
 6475SOL    HW220325   5.859   4.588   3.837
 6476SOL     OW20326   5.295   3.028   0.440
 6476SOL    HW120327   5.372   3.055   0.497
 6476SOL    HW220328   5.321   2.949   0.384
 6477SOL     OW20329   6.502   5.495   0.073
 6477SOL    HW120330   6.520   5.532   7.003
 6477SOL    HW220331   6.441   5.416   0.064
 6478SOL     OW20332   3.374   6.488   2.258
 6478SOL    HW120333   3.440   6.450   2.322
 6478SOL    HW220334   3.281   6.473   2.292
 6479SOL     OW20335   4.357   5.698   4.206
 6479SOL    HW120336   4.340   5.666   4.112
 6479SOL    HW220337   4.316   5.633   4.271
 6480SOL     OW20338   2.752   1.298   6.849
 6480SOL    HW120339   2.734   1.256   6.938
 6480SOL    HW220340   2.666   1.328   6.808
 6481SOL     OW20341   3.558   1.983   1.866
 6481SOL    HW120342   3.458   1.987   1.855
 6481SOL    HW220343   3.590   2.066   1.912
 6482SOL     OW20344   6.310   2.056   6.528
 6482SOL    HW120345   6.229   2.103   6.564
 6482SOL    HW220346   6.285   1.963   6.502
 6483SOL     OW20347   6.857   0.007   3.428
 6483SOL    HW120348   6.807   7.015   3.343
 6483SOL    HW220349   6.811   0.076   3.484
 6484SOL     OW20350   3.212   0.870   2.664
 6484SOL    HW120351   3.300   0.883   2.619
 6484SOL    HW220352   3.140   0.917   2.612
 6485SOL     OW20353   2.215   5.024   3.844
 6485SOL    HW120354   2.229   5.109   3.895
 6485SOL    HW220355   2.139   5.035   3.780
 6486SOL     OW20356   0.829   4.630   2.246
 6486SOL    HW120357   0.888   4.635   2.165
 6486SOL    HW220358   0.854   4.550   2.301
 6487SOL     OW20359   1.442   6.654   5.506
 6487SOL    HW120360   1.472   6.567   5.547
 6487SOL    HW220361   1.440   6.725   5.576
 6488SOL     OW20362   3.925   5.995   4.337
 6488SOL    HW120363   3.960   6.087   4.317
 6488SOL    HW220364   4.001   5.931   4.343
 6489SOL     OW20365   3.824   3.302   6.187
 6489SOL    HW120366   3.834   3.231   6.118
 6489SOL    HW220367   3.746   3.281   6.246
 6490SOL     OW20368   4.095   1.231   5.969
 6490SOL    HW120369   4.032   1.195   6.039
 6490SOL    HW220370   4.186   1.243   6.009
 6491SOL     OW20371   2.788   0.668   0.870
 6491SOL    HW120372   2.808   0.582   0.823
 6491SOL    HW220373   2.869   0.701   0.917
 6492SOL     OW20374   3.548   4.029   5.630
 6492SOL    HW120375   3.492   4.088   5.689
 6492SOL    HW220376   3.588   4.084   5.556
 6493SOL     OW20377   1.447   4.190   6.388
 6493SOL    HW120378   1.491   4.202   6.299
 6493SOL    HW220379   1.348   4.201   6.379
 6494SOL     OW20380   0.076   7.010   2.855
 6494SOL    HW120381   0.001   6.967   2.905
 6494SOL    HW220382   0.085   0.085   2.883
 6495SOL     OW20383   6.928   0.752   4.243
 6495SOL    HW120384   6.928   0.827   4.309
 6495SOL    HW220385   6.883   0.781   4.159
 6496SOL     OW20386   5.891   1.271   2.794
 6496SOL    HW120387   5.851   1.327   2.722
 6496SOL    HW220388   5.974   1.228   2.760
 6497SOL     OW20389   1.161   0.519   1.647
 6497SOL    HW120390   1.216   0.457   1.592
 6497SOL    HW220391   1.184   0.614   1.624
 6498SOL     OW20392   0.899   3.036   4.798
 6498SOL    HW120393   0.886   3.131   4.824
 6498SOL    HW220394   0.997   3.015   4.795
 6499SOL     OW20395   5.396   4.094   5.540
 6499SOL    HW120396   5.439   4.140   5.463
 6499SOL    HW220397   5.309   4.055   5.511
 6500SOL     OW20398   6.548   4.080   3.676
 6500SOL    HW120399   6.568   4.003   3.736
 6500SOL    HW220400   6.522   4.159   3.731
 6501SOL     OW20401   6.591   0.972   0.588
 6501SOL    HW120402   6.681   1.012   0.575
 6501SOL    HW220403   6.555   0.999   0.678
 6502SOL     OW20404   6.832   3.549   2.466
 6502SOL    HW120405   6.855   3.453   2.482
 6502SOL    HW220406   6.734   3.562   2.481
 6503SOL     OW20407   5.364   0.936   3.788
 6503SOL    HW120408   5.314   0.875   3.726
 6503SOL    HW220409   5.305   1.011   3.816
 6504SOL     OW20410   3.725   6.440   6.156
 6504SOL    HW120411   3.770   6.506   6.217
 6504SOL    HW220412   3.666   6.380   6.209
 6505SOL     OW20413   5.495   5.988   6.094
 6505SOL    HW120414   5.490   6.088   6.084
 6505SOL    HW220415   5.574   5.964   6.151
 6506SOL     OW20416   0.089   2.712   2.892
 6506SOL    HW120417   0.186   2.729   2.908
 6506SOL    HW220418   0.078   2.633   2.832
 6507SOL     OW20419   2.686   5.524   6.771
 6507SOL    HW120420   2.698   5.513   6.870
 6507SOL    HW220421   2.774   5.541   6.728
 6508SOL     OW20422   1.779   0.442   3.105
 6508SOL    HW120423   1.775   0.501   3.186
 6508SOL    HW220424   1.697   0.384   3.103
 6509SOL     OW20425   4.329   1.987   4.390
 6509SOL    HW120426   4.340   1.942   4.301
 6509SOL    HW220427   4.374   1.933   4.461
 6510SOL     OW20428   6.179   4.949   6.858
 6510SOL    HW120429   6.155   4.853   6.842
 6510SOL    HW220430   6.277   4.961   6.849
 6511SOL     OW20431   4.152   0.360   4.566
 6511SOL    HW120432   4.072   0.416   4.589
 6511SOL    HW220433   4.128   0.297   4.492
 6512SOL     OW20434   3.669   6.488   2.022
 6512SOL    HW120435   3.750   6.515   1.971
 6512SOL    HW220436   3.600   6.450   1.960
 6513SOL     OW20437   2.817   5.409   3.401
 6513SOL    HW120438   2.834   5.317   3.435
 6513SOL    HW220439   2.720   5.429   3.405
 6514SOL     OW20440   5.700   1.477   4.870
 6514SOL    HW120441   5.613   1.501   4.912
 6514SOL    HW220442   5.766   1.552   4.885
 6515SOL     OW20443   1.199   3.826   3.335
 6515SOL    HW120444   1.176   3.911   3.382
 6515SOL    HW220445   1.116   3.772   3.321
 6516SOL     OW20446   0.290   3.028   1.412
 6516SOL    HW120447   0.234   3.103   1.446
 6516SOL    HW220448   0.287   3.027   1.312
 6517SOL     OW20449   0.049   1.924   1.560
 6517SOL    HW120450   7.006   2.001   1.569
 6517SOL    HW220451   0.114   1.942   1.486
 6518SOL     OW20452   0.685   0.231   1.001
 6518SOL    HW120453   0.651   0.140   1.028
 6518SOL    HW220454   0.709   0.283   1.083
 6519SOL     OW20455   1.061   1.644   2.767
 6519SOL    HW120456   1.118   1.698   2.707
 6519SOL    HW220457   0.972   1.628   2.724
 6520SOL     OW20458   0.115   5.444   0.124
 6520SOL    HW120459   0.174   5.379   0.075
 6520SOL    HW220460   0.090   5.519   0.062
 6521SOL     OW20461   1.819   2.761   4.349
 6521SOL    HW120462   1.912   2.728   4.361
 6521SOL    HW220463   1.763   2.689   4.308
 6522SOL     OW20464   3.450   4.809   5.694
 6522SOL    HW120465   3.392   4.883   5.725
 6522SOL    HW220466   3.394   4.735   5.656
 6523SOL     OW20467   3.779   1.511   6.946
 6523SOL    HW120468   3.688   1.542   6.921
 6523SOL    HW220469   3.774   1.419   6.986
 6524SOL     OW20470   2.504   3.758   1.331
 6524SOL    HW120471   2.488   3.787   1.425
 6524SOL    HW220472   2.559   3.827   1.284
 6525SOL     OW20473   2.139   4.800   2.726
 6525SOL    HW120474   2.193   4.746   2.661
 6525SOL    HW220475   2.079   4.739   2.777
 6526SOL     OW20476   1.578   0.420   1.751
 6526SOL    HW120477   1.554   0.358   1.676
 6526SOL    HW220478   1.547   0.512   1.729
 6527SOL     OW20479   6.902   2.177   6.492
 6527SOL    HW120480   6.880   2.182   6.395
 6527SOL    HW220481   6.856   2.251   6.541
 6528SOL     OW20482   5.680   1.531   5.496
 6528SOL    HW120483   5.580   1.540   5.490
 6528SOL    HW220484   5.718   1.523   5.404
 6529SOL     OW20485   1.848   0.471   2.812
 6529SOL    HW120486   1.924   0.468   2.877
 6529SOL    HW220487   1.763   0.447   2.858
 6530SOL     OW20488   6.464   1.681   1.191
 6530SOL    HW120489   6.496   1.694   1.285
 6530SOL    HW220490   6.364   1.686   1.189
 6531SOL     OW20491   5.056   3.246   4.772
 6531SOL    HW120492   5.006   3.325   4.807
 6531SOL    HW220493   5.035   3.166   4.828
 6532SOL     OW20494   0.989   1.265   1.141
 6532SOL    HW120495   0.914   1.199   1.136
 6532SOL    HW220496   0.953   1.357   1.127
 6533SOL     OW20497   4.403   6.499   0.283
 6533SOL    HW120498   4.458   6.560   0.226
 6533SOL    HW220499   4.310   6.534   0.290
 6534SOL     OW20500   4.899   4.997   1.856
 6534SOL    HW120501   4.944   5.060   1.792
 6534SOL    HW220502   4.872   5.046   1.938
 6535SOL     OW20503   6.899   4.600   4.017
 6535SOL    HW120504   6.919   4.577   4.112
 6535SOL    HW220505   6.808   4.642   4.011
 6536SOL     OW20506   0.389   1.757   5.213
 6536SOL    HW120507   0.348   1.706   5.289
 6536SOL    HW220508   0.488   1.766   5.229
 6537SOL     OW20509   0.049   4.594   6.678
 6537SOL    HW120510   0.052   4.601   6.578
 6537SOL    HW220511   0.015   4.504   6.705
 6538SOL     OW20512   2.018   3.689   5.320
 6538SOL    HW120513   2.062   3.713   5.233
 6538SOL    HW220514   1.953   3.615   5.304
 6539SOL     OW20515   4.934   0.672   6.759
 6539SOL    HW120516   4.994   0.596   6.734
 6539SOL    HW220517   4.871   0.642   6.831
 6540SOL     OW20518   4.032   2.433   6.322
 6540SOL    HW120519   4.090   2.399   6.396
 6540SOL    HW220520   3.944   2.461   6.359
 6541SOL     OW20521   4.908   1.444   5.246
 6541SOL    HW120522   4.939   1.350   5.260
 6541SOL    HW220523   4.921   1.470   5.150
 6542SOL     OW20524   0.184   2.704   3.712
 6542SOL    HW120525   0.218   2.647   3.637
 6542SOL    HW220526   0.240   2.690   3.793
 6543SOL     OW20527   4.216   3.179   5.297
 6543SOL    HW120528   4.244   3.115   5.369
 6543SOL    HW220529   4.144   3.138   5.242
 6544SOL     OW20530   1.737   6.173   3.591
 6544SOL    HW120531   1.683   6.089   3.593
 6544SOL    HW220532   1.679   6.249   3.563
 6545SOL     OW20533   4.183   0.284   0.669
 6545SOL    HW120534   4.101   0.310   0.720
 6545SOL    HW220535   4.164   0.289   0.571
 6546SOL     OW20536   2.411   4.006   6.038
 6546SOL    HW120537   2.430   3.946   5.960
 6546SOL    HW220538   2.477   3.990   6.111
 6547SOL     OW20539   4.572   1.094   6.974
 6547SOL    HW120540   4.662   1.074   6.936
 6547SOL    HW220541   4.523   1.156   6.913
 6548SOL     OW20542   1.098   3.991   1.455
 6548SOL    HW120543   1.111   4.080   1.499
 6548SOL    HW220544   1.170   3.977   1.388
 6549SOL     OW20545   4.479   0.931   1.872
 6549SOL    HW120546   4.517   0.924   1.964
 6549SOL    HW220547   4.391   0.883   1.869
 6550SOL     OW20548   0.047   6.719   4.645
 6550SOL    HW120549   0.068   6.634   4.596
 6550SOL    HW220550   0.098   6.721   4.732
 6551SOL     OW20551   2.115   3.712   1.943
 6551SOL    HW120552   2.015   3.711   1.945
 6551SOL    HW220553   2.151   3.627   1.983
 6552SOL     OW20554   1.475   0.347   0.322
 6552SOL    HW120555   1.409   0.405   0.370
 6552SOL    HW220556   1.551   0.325   0.384
 6553SOL     OW20557   6.523   1.852   3.556
 6553SOL    HW120558   6.464   1.771   3.560
 6553SOL    HW220559   6.541   1.884   3.650
 6554SOL     OW20560   1.317   0.372   4.348
 6554SOL    HW120561   1.312   0.376   4.448
 6554SOL    HW220562   1.252   0.305   4.314
 6555SOL     OW20563   4.742   2.283   3.089
 6555SOL    HW120564   4.708   2.377   3.088
 6555SOL    HW220565   4.818   2.275   3.024
 6556SOL     OW20566   5.503   4.754   3.515
 6556SOL    HW120567   5.468   4.670   3.557
 6556SOL    HW220568   5.580   4.788   3.568
 6557SOL     OW20569   2.745   0.180   2.621
 6557SOL    HW120570   2.711   0.139   2.706
 6557SOL    HW220571   2.692   0.262   2.600
 6558SOL     OW20572   6.932   4.741   0.460
 6558SOL    HW120573   6.976   4.678   0.397
 6558SOL    HW220574   7.001   4.788   0.515
 6559SOL     OW20575   1.085   4.159   0.136
 6559SOL    HW120576   1.048   4.234   0.191
 6559SOL    HW220577   1.101   4.192   0.043
 6560SOL     OW20578   4.430   5.117   1.564
 6560SOL    HW120579   4.387   5.181   1.500
 6560SOL    HW220580   4.445   5.163   1.652
 6561SOL     OW20581   3.353   4.401   1.297
 6561SOL    HW120582   3.296   4.392   1.378
 6561SOL    HW220583   3.363   4.311   1.253
 6562SOL     OW20584   6.221   2.515   0.948
 6562SOL    HW120585   6.208   2.525   1.047
 6562SOL    HW220586   6.157   2.574   0.899
 6563SOL     OW20587   5.170   5.462   5.803
 6563SOL    HW120588   5.106   5.420   5.868
 6563SOL    HW220589   5.238   5.394   5.775
 6564SOL     OW20590   6.792   3.407   2.932
 6564SOL    HW120591   6.737   3.470   2.987
 6564SOL    HW220592   6.732   3.356   2.870
 6565SOL     OW20593   5.535   1.162   2.215
 6565SOL    HW120594   5.485   1.141   2.299
 6565SOL    HW220595   5.625   1.118   2.217
 6566SOL     OW20596   3.935   6.316   1.830
 6566SOL    HW120597   3.943   6.407   1.871
 6566SOL    HW220598   3.848   6.308   1.782
 6567SOL     OW20599   4.576   0.651   2.243
 6567SOL    HW120600   4.562   0.749   2.227
 6567SOL    HW220601   4.645   0.638   2.314
 6568SOL     OW20602   3.447   1.562   4.258
 6568SOL    HW120603   3.543   1.572   4.286
 6568SOL    HW220604   3.438   1.478   4.204
 6569SOL     OW20605   2.556   3.106   0.365
 6569SOL    HW120606   2.613   3.023   0.359
 6569SOL    HW220607   2.534   3.138   0.273
 6570SOL     OW20608   2.760   0.350   2.281
 6570SOL    HW120609   2.671   0.391   2.302
 6570SOL    HW220610   2.748   0.252   2.263
 6571SOL     OW20611   3.074   5.122   2.189
 6571SOL    HW120612   3.068   5.029   2.226
 6571SOL    HW220613   3.105   5.119   2.094
 6572SOL     OW20614   6.660   4.358   4.695
 6572SOL    HW120615   6.627   4.431   4.755
 6572SOL    HW220616   6.642   4.269   4.737
 6573SOL     OW20617   0.702   1.591   2.363
 6573SOL    HW120618   0.720   1.677   2.316
 6573SOL    HW220619   0.673   1.521   2.297
 6574SOL     OW20620   2.297   5.708   2.718
 6574SOL    HW120621   2.268   5.802   2.736
 6574SOL    HW220622   2.354   5.705   2.636
 6575SOL     OW20623   0.381   6.513   3.835
 6575SOL    HW120624   0.420   6.443   3.775
 6575SOL    HW220625   0.326   6.577   3.780
 6576SOL     OW20626   2.103   5.982   0.001
 6576SOL    HW120627   2.037   5.908   7.013
 6576SOL    HW220628   2.178   5.953   0.060
 6577SOL     OW20629   1.216   1.954   3.450
 6577SOL    HW120630   1.215   1.911   3.540
 6577SOL    HW220631   1.135   2.012   3.440
 6578SOL     OW20632   0.729   6.073   2.688
 6578SOL    HW120633   0.801   6.137   2.660
 6578SOL    HW220634   0.726   5.996   2.625
 6579SOL     OW20635   0.755   3.094   3.396
 6579SOL    HW120636   0.758   3.100   3.296
 6579SOL    HW220637   0.700   3.015   3.423
 6580SOL     OW20638   0.127   1.928   0.442
 6580SOL    HW120639   0.049   1.937   0.503
 6580SOL    HW220640   0.167   1.836   0.452
 6581SOL     OW20641   2.164   0.373   0.075
 6581SOL    HW120642   2.201   0.362   0.167
 6581SOL    HW220643   2.238   0.371   0.008
 6582SOL     OW20644   6.978   1.301   2.851
 6582SOL    HW120645   0.001   1.320   2.763
 6582SOL    HW220646   6.881   1.284   2.837
 6583SOL     OW20647   4.834   0.388   6.231
 6583SOL    HW120648   4.770   0.352   6.162
 6583SOL    HW220649   4.925   0.351   6.213
 6584SOL     OW20650   4.503   2.336   0.439
 6584SOL    HW120651   4.494   2.287   0.352
 6584SOL    HW220652   4.599   2.335   0.468
 6585SOL     OW20653   6.607   6.066   0.094
 6585SOL    HW120654   6.546   6.126   0.043
 6585SOL    HW220655   6.576   5.971   0.087
 6586SOL     OW20656   5.475   1.162   6.027
 6586SOL    HW120657   5.511   1.245   6.070
 6586SOL    HW220658   5.418   1.187   5.949
 6587SOL     OW20659   2.109   5.033   5.693
 6587SOL    HW120660   2.070   5.046   5.602
 6587SOL    HW220661   2.124   4.936   5.710
 6588SOL     OW20662   6.845   2.856   1.793
 6588SOL    HW120663   6.912   2.846   1.866
 6588SOL    HW220664   6.851   2.776   1.732
 6589SOL     OW20665   5.039   0.142   1.613
 6589SOL    HW120666   5.040   0.044   1.633
 6589SOL    HW220667   5.035   0.157   1.514
 6590SOL     OW20668   6.851   1.198   0.054
 6590SOL    HW120669   6.925   1.226   7.013
 6590SOL    HW220670   6.871   1.108   0.092
 6591SOL     OW20671   6.196   5.731   3.220
 6591SOL    HW120672   6.219   5.824   3.250
 6591SOL    HW220673   6.243   5.711   3.134
 6592SOL     OW20674   5.345   6.846   2.952
 6592SOL    HW120675   5.336   6.873   2.856
 6592SOL    HW220676   5.414   6.904   2.996
 6593SOL     OW20677   2.274   2.145   2.908
 6593SOL    HW120678   2.178   2.167   2.889
 6593SOL    HW220679   2.327   2.230   2.910
 6594SOL     OW20680   3.761   1.386   5.999
 6594SOL    HW120681   3.833   1.343   6.054
 6594SOL    HW220682   3.759   1.484   6.018
 6595SOL     OW20683   1.188   4.516   6.871
 6595SOL    HW120684   1.272   4.502   6.818
 6595SOL    HW220685   1.210   4.560   6.958
 6596SOL     OW20686   3.006   6.890   4.286
 6596SOL    HW120687   2.907   6.874   4.295
 6596SOL    HW220688   3.026   6.986   4.305
 6597SOL     OW20689   0.746   5.338   1.169
 6597SOL    HW120690   0.801   5.259   1.195
 6597SOL    HW220691   0.737   5.341   1.069
 6598SOL     OW20692   1.667   4.914   3.761
 6598SOL    HW120693   1.621   4.826   3.750
 6598SOL    HW220694   1.717   4.915   3.848
 6599SOL     OW20695   4.196   6.204   6.229
 6599SOL    HW120696   4.259   6.261   6.177
 6599SOL    HW220697   4.147   6.260   6.296
 6600SOL     OW20698   3.783   6.056   5.429
 6600SOL    HW120699   3.711   6.076   5.495
 6600SOL    HW220700   3.869   6.042   5.477
 6601SOL     OW20701   1.605   1.934   5.080
 6601SOL    HW120702   1.575   1.972   4.992
 6601SOL    HW220703   1.691   1.977   5.107
 6602SOL     OW20704   1.907   1.205   1.867
 6602SOL    HW120705   1.895   1.303   1.857
 6602SOL    HW220706   1.883   1.178   1.961
 6603SOL     OW20707   0.577   2.850   3.475
 6603SOL    HW120708   0.655   2.829   3.533
 6603SOL    HW220709   0.492   2.829   3.524
 6604SOL     OW20710   1.107   6.913   1.298
 6604SOL    HW120711   1.201   6.944   1.310
 6604SOL    HW220712   1.077   6.932   1.205
 6605SOL     OW20713   5.549   5.509   1.351
 6605SOL    HW120714   5.629   5.477   1.402
 6605SOL    HW220715   5.482   5.435   1.343
 6606SOL     OW20716   0.608   5.803   2.148
 6606SOL    HW120717   0.514   5.826   2.121
 6606SOL    HW220718   0.645   5.877   2.204
 6607SOL     OW20719   1.800   4.384   2.717
 6607SOL    HW120720   1.716   4.339   2.688
 6607SOL    HW220721   1.848   4.421   2.637
 6608SOL     OW20722   6.919   6.651   0.146
 6608SOL    HW120723   6.893   6.588   0.220
 6608SOL    HW220724   6.937   6.742   0.184
 6609SOL     OW20725   5.495   1.119   0.191
 6609SOL    HW120726   5.520   1.191   0.126
 6609SOL    HW220727   5.546   1.131   0.276
 6610SOL     OW20728   2.245   6.217   0.020
 6610SOL    HW120729   2.171   6.231   0.085
 6610SOL    HW220730   2.231   6.132   6.991
 6611SOL     OW20731   4.947   3.319   3.069
 6611SOL    HW120732   4.926   3.287   2.976
 6611SOL    HW220733   5.024   3.267   3.104
 6612SOL     OW20734   6.297   2.039   6.805
 6612SOL    HW120735   6.306   2.105   6.879
 6612SOL    HW220736   6.364   2.059   6.734
 6613SOL     OW20737   6.709   6.303   5.192
 6613SOL    HW120738   6.745   6.364   5.121
 6613SOL    HW220739   6.705   6.209   5.156
 6614SOL     OW20740   4.272   5.182   6.904
 6614SOL    HW120741   4.218   5.101   6.926
 6614SOL    HW220742   4.363   5.155   6.872
 6615SOL     OW20743   1.115   5.692   1.314
 6615SOL    HW120744   1.209   5.659   1.310
 6615SOL    HW220745   1.072   5.659   1.398
 6616SOL     OW20746   4.794   0.423   6.505
 6616SOL    HW120747   4.887   0.419   6.541
 6616SOL    HW220748   4.796   0.427   6.405
 6617SOL     OW20749   4.273   5.293   3.346
 6617SOL    HW120750   4.283   5.277   3.248
 6617SOL    HW220751   4.224   5.379   3.360
 6618SOL     OW20752   1.799   2.292   2.784
 6618SOL    HW120753   1.751   2.205   2.778
 6618SOL    HW220754   1.734   2.367   2.766
 6619SOL     OW20755   5.305   0.428   3.541
 6619SOL    HW120756   5.237   0.360   3.515
 6619SOL    HW220757   5.329   0.415   3.638
 6620SOL     OW20758   1.629   2.761   5.269
 6620SOL    HW120759   1.593   2.670   5.290
 6620SOL    HW220760   1.711   2.752   5.213
 6621SOL     OW20761   3.348   3.103   6.091
 6621SOL    HW120762   3.279   3.031   6.083
 6621SOL    HW220763   3.403   3.087   6.173
 6622SOL     OW20764   5.851   6.050   1.970
 6622SOL    HW120765   5.885   6.131   1.922
 6622SOL    HW220766   5.782   6.078   2.037
 6623SOL     OW20767   3.550   3.268   4.750
 6623SOL    HW120768   3.618   3.339   4.729
 6623SOL    HW220769   3.566   3.234   4.843
 6624SOL     OW20770   6.972   4.290   5.709
 6624SOL    HW120771   7.005   4.199   5.734
 6624SOL    HW220772   0.029   4.348   5.683
 6625SOL     OW20773   4.913   2.000   5.152
 6625SOL    HW120774   4.908   1.945   5.235
 6625SOL    HW220775   4.924   2.097   5.177
 6626SOL     OW20776   3.511   6.299   5.348
 6626SOL    HW120777   3.485   6.248   5.430
 6626SOL    HW220778   3.606   6.330   5.357
 6627SOL     OW20779   1.882   6.259   5.334
 6627SOL    HW120780   1.850   6.168   5.309
 6627SOL    HW220781   1.915   6.259   5.428
 6628SOL     OW20782   6.637   4.976   4.772
 6628SOL    HW120783   6.604   4.885   4.747
 6628SOL    HW220784   6.618   4.993   4.869
 6629SOL     OW20785   4.864   6.811   6.379
 6629SOL    HW120786   4.912   6.739   6.329
 6629SOL    HW220787   4.818   6.771   6.459
 6630SOL     OW20788   3.643   1.727   1.378
 6630SOL    HW120789   3.667   1.631   1.362
 6630SOL    HW220790   3.625   1.740   1.476
 6631SOL     OW20791   2.620   5.714   4.147
 6631SOL    HW120792   2.633   5.629   4.097
 6631SOL    HW220793   2.563   5.697   4.228
 6632SOL     OW20794   0.985   0.141   1.138
 6632SOL    HW120795   0.961   0.214   1.075
 6632SOL    HW220796   1.007   0.179   1.228
 6633SOL     OW20797   2.000   4.852   6.550
 6633SOL    HW120798   1.901   4.862   6.560
 6633SOL    HW220799   2.046   4.886   6.632
 6634SOL     OW20800   4.997   1.501   4.983
 6634SOL    HW120801   4.980   1.548   4.897
 6634SOL    HW220802   5.092   1.468   4.985
 6635SOL     OW20803   4.685   4.430   2.784
 6635SOL    HW120804   4.684   4.331   2.802
 6635SOL    HW220805   4.677   4.446   2.686
 6636SOL     OW20806   4.781   1.682   6.532
 6636SOL    HW120807   4.714   1.619   6.493
 6636SOL    HW220808   4.873   1.645   6.520
 6637SOL     OW20809   0.701   0.108   6.404
 6637SOL    HW120810   0.694   0.169   6.325
 6637SOL    HW220811   0.611   0.098   6.447
 6638SOL     OW20812   3.288   3.754   3.197
 6638SOL    HW120813   3.325   3.784   3.109
 6638SOL    HW220814   3.242   3.665   3.185
 6639SOL     OW20815   4.807   4.535   6.763
 6639SOL    HW120816   4.838   4.452   6.810
 6639SOL    HW220817   4.708   4.530   6.749
 6640SOL     OW20818   0.049   1.791   4.769
 6640SOL    HW120819   7.015   1.707   4.767
 6640SOL    HW220820   0.025   1.843   4.851
 6641SOL     OW20821   2.908   1.403   6.661
 6641SOL    HW120822   2.857   1.351   6.729
 6641SOL    HW220823   2.907   1.500   6.686
 6642SOL     OW20824   2.256   6.126   6.725
 6642SOL    HW120825   2.187   6.198   6.719
 6642SOL    HW220826   2.243   6.074   6.810
 6643SOL     OW20827   5.355   6.250   0.232
 6643SOL    HW120828   5.430   6.302   0.273
 6643SOL    HW220829   5.371   6.240   0.133
 6644SOL     OW20830   2.798   5.046   1.188
 6644SOL    HW120831   2.707   5.013   1.211
 6644SOL    HW220832   2.792   5.117   1.118
 6645SOL     OW20833   5.689   4.155   0.611
 6645SOL    HW120834   5.786   4.152   0.633
 6645SOL    HW220835   5.671   4.232   0.550
 6646SOL     OW20836   4.612   0.882   5.190
 6646SOL    HW120837   4.623   0.787   5.220
 6646SOL    HW220838   4.532   0.889   5.130
 6647SOL     OW20839   5.240   0.302   1.695
 6647SOL    HW120840   5.270   0.366   1.624
 6647SOL    HW220841   5.152   0.264   1.670
 6648SOL     OW20842   3.196   6.472   3.915
 6648SOL    HW120843   3.128   6.460   3.988
 6648SOL    HW220844   3.287   6.450   3.951
 6649SOL     OW20845   5.725   1.805   6.677
 6649SOL    HW120846   5.628   1.799   6.652
 6649SOL    HW220847   5.746   1.736   6.747
 6650SOL     OW20848   3.843   1.300   5.661
 6650SOL    HW120849   3.767   1.288   5.597
 6650SOL    HW220850   3.823   1.377   5.721
 6651SOL     OW20851   2.531   0.631   6.133
 6651SOL    HW120852   2.584   0.708   6.168
 6651SOL    HW220853   2.440   0.632   6.173
 6652SOL     OW20854   0.416   4.189   6.807
 6652SOL    HW120855   0.429   4.128   6.885
 6652SOL    HW220856   0.320   4.217   6.802
 6653SOL     OW20857   4.076   4.312   1.402
 6653SOL    HW120858   4.012   4.235   1.410
 6653SOL    HW220859   4.137   4.297   1.324
 6654SOL     OW20860   1.868   5.236   1.049
 6654SOL    HW120861   1.864   5.137   1.038
 6654SOL    HW220862   1.933   5.260   1.121
 6655SOL     OW20863   1.128   6.412   3.906
 6655SOL    HW120864   1.057   6.357   3.950
 6655SOL    HW220865   1.217   6.367   3.918
 6656SOL     OW20866   5.288   2.070   3.491
 6656SOL    HW120867   5.213   2.036   3.548
 6656SOL    HW220868   5.374   2.063   3.543
 6657SOL     OW20869   5.494   4.899   6.152
 6657SOL    HW120870   5.421   4.958   6.118
 6657SOL    HW220871   5.497   4.815   6.097
 6658SOL     OW20872   5.301   1.054   4.458
 6658SOL    HW120873   5.224   1.107   4.494
 6658SOL    HW220874   5.375   1.054   4.524
 6659SOL     OW20875   2.525   2.680   0.269
 6659SOL    HW120876   2.464   2.741   0.320
 6659SOL    HW220877   2.487   2.587   0.271
 6660SOL     OW20878   1.480   4.475   1.260
 6660SOL    HW120879   1.489   4.480   1.359
 6660SOL    HW220880   1.418   4.401   1.235
 6661SOL     OW20881   1.746   0.245   5.409
 6661SOL    HW120882   1.778   0.322   5.465
 6661SOL    HW220883   1.652   0.222   5.435
 6662SOL     OW20884   0.982   0.257   0.597
 6662SOL    HW120885   1.055   0.319   0.625
 6662SOL    HW220886   0.968   0.188   0.668
 6663SOL     OW20887   6.404   6.248   4.533
 6663SOL    HW120888   6.458   6.207   4.460
 6663SOL    HW220889   6.425   6.346   4.539
 6664SOL     OW20890   2.349   6.917   0.518
 6664SOL    HW120891   2.295   6.847   0.472
 6664SOL    HW220892   2.445   6.888   0.522
 6665SOL     OW20893   1.685   6.190   4.497
 6665SOL    HW120894   1.731   6.116   4.546
 6665SOL    HW220895   1.620   6.235   4.558
 6666SOL     OW20896   5.933   6.202   6.532
 6666SOL    HW120897   5.881   6.226   6.450
 6666SOL    HW220898   5.974   6.284   6.572
 6667SOL     OW20899   6.172   0.060   6.038
 6667SOL    HW120900   6.142   7.019   6.111
 6667SOL    HW220901   6.230   0.009   5.975
 6668SOL     OW20902   6.874   5.693   0.868
 6668SOL    HW120903   6.841   5.602   0.844
 6668SOL    HW220904   6.971   5.700   0.846
 6669SOL     OW20905   2.535   2.131   2.223
 6669SOL    HW120906   2.595   2.064   2.268
 6669SOL    HW220907   2.445   2.130   2.267
 6670SOL     OW20908   3.213   1.695   5.427
 6670SOL    HW120909   3.140   1.628   5.439
 6670SOL    HW220910   3.173   1.787   5.428
 6671SOL     OW20911   4.300   6.817   0.653
 6671SOL    HW120912   4.220   6.833   0.594
 6671SOL    HW220913   4.334   6.724   0.639
 6672SOL     OW20914   6.482   2.857   6.565
 6672SOL    HW120915   6.522   2.910   6.640
 6672SOL    HW220916   6.424   2.917   6.510
 6673SOL     OW20917   4.889   4.520   3.948
 6673SOL    HW120918   4.967   4.479   3.901
 6673SOL    HW220919   4.828   4.448   3.981
 6674SOL     OW20920   0.791   3.528   6.964
 6674SOL    HW120921   0.699   3.497   6.942
 6674SOL    HW220922   0.787   3.620   7.004
 6675SOL     OW20923   5.879   3.911   0.471
 6675SOL    HW120924   5.977   3.900   0.488
 6675SOL    HW220925   5.859   4.007   0.450
 6676SOL     OW20926   0.811   3.776   5.534
 6676SOL    HW120927   0.862   3.705   5.487
 6676SOL    HW220928   0.736   3.808   5.476
 6677SOL     OW20929   1.024   2.093   6.007
 6677SOL    HW120930   1.043   2.077   6.104
 6677SOL    HW220931   0.926   2.081   5.991
 6678SOL     OW20932   3.296   3.722   0.052
 6678SOL    HW120933   3.389   3.740   0.085
 6678SOL    HW220934   3.271   3.790   7.004
 6679SOL     OW20935   3.229   0.790   4.257
 6679SOL    HW120936   3.265   0.705   4.219
 6679SOL    HW220937   3.158   0.769   4.325
 6680SOL     OW20938   4.671   6.715   6.580
 6680SOL    HW120939   4.639   6.649   6.512
 6680SOL    HW220940   4.592   6.759   6.623
 6681SOL     OW20941   4.054   5.565   1.131
 6681SOL    HW120942   4.099   5.627   1.068
 6681SOL    HW220943   4.092   5.577   1.223
 6682SOL     OW20944   1.579   4.378   0.937
 6682SOL    HW120945   1.563   4.282   0.961
 6682SOL    HW220946   1.626   4.424   1.013
 6683SOL     OW20947   5.733   3.194   5.324
 6683SOL    HW120948   5.782   3.198   5.237
 6683SOL    HW220949   5.748   3.278   5.376
 6684SOL     OW20950   3.288   5.960   2.148
 6684SOL    HW120951   3.254   5.866   2.149
 6684SOL    HW220952   3.291   5.994   2.054
 6685SOL     OW20953   5.627   2.851   5.890
 6685SOL    HW120954   5.704   2.914   5.896
 6685SOL    HW220955   5.597   2.825   5.981
 6686SOL     OW20956   4.927   5.279   4.194
 6686SOL    HW120957   4.953   5.216   4.266
 6686SOL    HW220958   4.961   5.371   4.216
 6687SOL     OW20959   0.873   3.322   1.185
 6687SOL    HW120960   0.890   3.243   1.128
 6687SOL    HW220961   0.802   3.301   1.252
 6688SOL     OW20962   6.366   4.540   1.536
 6688SOL    HW120963   6.292   4.525   1.603
 6688SOL    HW220964   6.332   4.596   1.461
 6689SOL     OW20965   3.837   3.473   6.434
 6689SOL    HW120966   3.931   3.474   6.398
 6689SOL    HW220967   3.789   3.393   6.398
 6690SOL     OW20968   0.424   0.675   0.825
 6690SOL    HW120969   0.468   0.710   0.908
 6690SOL    HW220970   0.401   0.579   0.838
 6691SOL     OW20971   2.448   6.925   1.967
 6691SOL    HW120972   2.359   6.966   1.988
 6691SOL    HW220973   2.449   6.895   1.872
 6692SOL     OW20974   4.101   3.283   3.622
 6692SOL    HW120975   4.197   3.303   3.603
 6692SOL    HW220976   4.048   3.368   3.622
 6693SOL     OW20977   3.825   2.217   5.198
 6693SOL    HW120978   3.850   2.296   5.254
 6693SOL    HW220979   3.732   2.189   5.220
 6694SOL     OW20980   4.385   5.648   1.245
 6694SOL    HW120981   4.365   5.615   1.337
 6694SOL    HW220982   4.337   5.734   1.229
 6695SOL     OW20983   2.787   2.170   6.813
 6695SOL    HW120984   2.866   2.109   6.819
 6695SOL    HW220985   2.739   2.171   6.901
 6696SOL     OW20986   3.012   3.221   4.838
 6696SOL    HW120987   3.102   3.262   4.853
 6696SOL    HW220988   2.999   3.143   4.900
 6697SOL     OW20989   4.485   2.174   3.129
 6697SOL    HW120990   4.442   2.208   3.045
 6697SOL    HW220991   4.584   2.173   3.118
 6698SOL     OW20992   2.832   2.178   0.662
 6698SOL    HW120993   2.857   2.119   0.739
 6698SOL    HW220994   2.882   2.264   0.669
 6699SOL     OW20995   2.869   5.975   5.487
 6699SOL    HW120996   2.930   5.900   5.464
 6699SOL    HW220997   2.774   5.942   5.484
 6700SOL     OW20998   0.789   0.778   1.114
 6700SOL    HW120999   0.842   0.771   1.198
 6700SOL    HW221000   0.815   0.860   1.064
 6701SOL     OW21001   5.936   5.015   2.092
 6701SOL    HW121002   5.975   4.975   2.174
 6701SOL    HW221003   5.837   5.003   2.093
 6702SOL     OW21004   2.925   2.111   1.574
 6702SOL    HW121005   2.844   2.156   1.535
 6702SOL    HW221006   2.962   2.167   1.648
 6703SOL     OW21007   5.974   0.857   0.476
 6703SOL    HW121008   6.001   0.771   0.433
 6703SOL    HW221009   5.976   0.930   0.408
 6704SOL     OW21010   3.842   1.792   3.371
 6704SOL    HW121011   3.914   1.756   3.430
 6704SOL    HW221012   3.757   1.742   3.388
 6705SOL     OW21013   6.239   4.040   1.589
 6705SOL    HW121014   6.334   4.041   1.620
 6705SOL    HW221015   6.230   4.095   1.507
 6706SOL     OW21016   1.786   4.721   1.512
 6706SOL    HW121017   1.806   4.711   1.610
 6706SOL    HW221018   1.688   4.706   1.497
 6707SOL     OW21019   6.158   6.373   3.661
 6707SOL    HW121020   6.183   6.445   3.725
 6707SOL    HW221021   6.099   6.410   3.589
 6708SOL     OW21022   7.000   4.523   0.682
 6708SOL    HW121023   6.941   4.578   0.623
 6708SOL    HW221024   6.948   4.495   0.763
 6709SOL     OW21025   2.173   6.495   2.381
 6709SOL    HW121026   2.088   6.542   2.405
 6709SOL    HW221027   2.187   6.500   2.283
 6710SOL     OW21028   4.045   1.755   6.346
 6710SOL    HW121029   4.020   1.659   6.362
 6710SOL    HW221030   4.045   1.773   6.248
 6711SOL     OW21031   4.908   6.426   6.086
 6711SOL    HW121032   4.875   6.333   6.100
 6711SOL    HW221033   5.007   6.426   6.074
 6712SOL     OW21034   5.289   4.196   0.443
 6712SOL    HW121035   5.307   4.134   0.367
 6712SOL    HW221036   5.375   4.241   0.470
 6713SOL     OW21037   2.239   0.270   2.428
 6713SOL    HW121038   2.174   0.197   2.406
 6713SOL    HW221039   2.251   0.328   2.348
 6714SOL     OW21040   6.711   0.929   5.851
 6714SOL    HW121041   6.677   0.970   5.766
 6714SOL    HW221042   6.741   1.001   5.913
 6715SOL     OW21043   0.458   0.315   0.491
 6715SOL    HW121044   0.401   0.397   0.497
 6715SOL    HW221045   0.531   0.320   0.560
 6716SOL     OW21046   0.395   5.642   1.913
 6716SOL    HW121047   0.384   5.728   1.963
 6716SOL    HW221048   0.481   5.643   1.864
 6717SOL     OW21049   3.588   2.529   6.776
 6717SOL    HW121050   3.537   2.465   6.834
 6717SOL    HW221051   3.682   2.535   6.809
 6718SOL     OW21052   5.377   0.900   0.810
 6718SOL    HW121053   5.340   0.966   0.744
 6718SOL    HW221054   5.370   0.937   0.903
 6719SOL     OW21055   2.891   6.606   6.707
 6719SOL    HW121056   2.816   6.554   6.666
 6719SOL    HW221057   2.869   6.625   6.803
 6720SOL     OW21058   1.630   0.562   4.469
 6720SOL    HW121059   1.677   0.629   4.526
 6720SOL    HW221060   1.583   0.495   4.527
 6721SOL     OW21061   6.814   6.459   0.331
 6721SOL    HW121062   6.717   6.437   0.325
 6721SOL    HW221063   6.868   6.387   0.287
 6722SOL     OW21064   6.798   3.098   1.660
 6722SOL    HW121065   6.834   3.076   1.570
 6722SOL    HW221066   6.796   3.016   1.717
 6723SOL     OW21067   1.980   6.262   4.350
 6723SOL    HW121068   1.885   6.233   4.337
 6723SOL    HW221069   1.984   6.331   4.422
 6724SOL     OW21070   2.182   3.641   5.812
 6724SOL    HW121071   2.146   3.549   5.795
 6724SOL    HW221072   2.239   3.669   5.735
 6725SOL     OW21073   0.212   3.669   1.744
 6725SOL    HW121074   0.307   3.655   1.716
 6725SOL    HW221075   0.206   3.665   1.844
 6726SOL     OW21076   1.036   2.518   4.967
 6726SOL    HW121077   1.077   2.432   4.998
 6726SOL    HW221078   1.052   2.589   5.036
 6727SOL     OW21079   0.709   4.840   5.397
 6727SOL    HW121080   0.651   4.857   5.317
 6727SOL    HW221081   0.804   4.861   5.374
 6728SOL     OW21082   3.396   2.088   2.145
 6728SOL    HW121083   3.389   2.079   2.244
 6728SOL    HW221084   3.488   2.120   2.121
 6729SOL     OW21085   6.366   0.889   2.450
 6729SOL    HW121086   6.418   0.852   2.374
 6729SOL    HW221087   6.356   0.819   2.521
 6730SOL     OW21088   1.648   6.738   1.352
 6730SOL    HW121089   1.653   6.641   1.375
 6730SOL    HW221090   1.639   6.749   1.253
 6731SOL     OW21091   1.286   6.252   1.043
 6731SOL    HW121092   1.211   6.237   0.978
 6731SOL    HW221093   1.350   6.175   1.037
 6732SOL     OW21094   5.429   4.400   4.993
 6732SOL    HW121095   5.376   4.326   4.950
 6732SOL    HW221096   5.480   4.364   5.070
 6733SOL     OW21097   3.810   5.282   6.166
 6733SOL    HW121098   3.881   5.284   6.095
 6733SOL    HW221099   3.720   5.292   6.124
 6734SOL     OW21100   5.819   2.556   4.384
 6734SOL    HW121101   5.825   2.479   4.321
 6734SOL    HW221102   5.867   2.532   4.469
 6735SOL     OW21103   0.066   4.330   4.717
 6735SOL    HW121104   0.035   4.385   4.795
 6735SOL    HW221105   0.048   4.233   4.736
 6736SOL     OW21106   3.425   3.871   0.250
 6736SOL    HW121107   3.337   3.908   0.218
 6736SOL    HW221108   3.500   3.923   0.209
 6737SOL     OW21109   1.421   2.465   0.875
 6737SOL    HW121110   1.512   2.502   0.894
 6737SOL    HW221111   1.424   2.365   0.882
 6738SOL     OW21112   1.298   5.946   3.199
 6738SOL    HW121113   1.251   5.872   3.247
 6738SOL    HW221114   1.361   5.907   3.132
 6739SOL     OW21115   4.399   5.941   4.569
 6739SOL    HW121116   4.479   5.909   4.518
 6739SOL    HW221117   4.402   6.040   4.578
 6740SOL     OW21118   1.018   0.463   5.115
 6740SOL    HW121119   1.019   0.396   5.040
 6740SOL    HW221120   1.087   0.438   5.182
 6741SOL     OW21121   4.333   1.911   5.184
 6741SOL    HW121122   4.402   1.880   5.119
 6741SOL    HW221123   4.377   1.935   5.270
 6742SOL     OW21124   5.651   6.115   2.597
 6742SOL    HW121125   5.562   6.148   2.630
 6742SOL    HW221126   5.714   6.107   2.674
 6743SOL     OW21127   4.157   4.778   6.549
 6743SOL    HW121128   4.168   4.846   6.621
 6743SOL    HW221129   4.070   4.730   6.563
 6744SOL     OW21130   6.069   4.300   5.932
 6744SOL    HW121131   6.046   4.388   5.974
 6744SOL    HW221132   6.051   4.226   5.998
 6745SOL     OW21133   6.919   6.796   3.544
 6745SOL    HW121134   6.991   6.744   3.497
 6745SOL    HW221135   6.902   6.881   3.494
 6746SOL     OW21136   1.070   1.046   3.542
 6746SOL    HW121137   1.016   1.126   3.571
 6746SOL    HW221138   1.161   1.051   3.583
 6747SOL     OW21139   5.437   1.562   4.762
 6747SOL    HW121140   5.404   1.504   4.837
 6747SOL    HW221141   5.403   1.655   4.773
 6748SOL     OW21142   3.319   1.795   4.177
 6748SOL    HW121143   3.352   1.704   4.200
 6748SOL    HW221144   3.291   1.843   4.260
 6749SOL     OW21145   3.772   4.984   0.407
 6749SOL    HW121146   3.867   4.986   0.377
 6749SOL    HW221147   3.769   4.981   0.507
 6750SOL     OW21148   3.476   1.794   4.854
 6750SOL    HW121149   3.406   1.850   4.898
 6750SOL    HW221150   3.458   1.697   4.875
 6751SOL     OW21151   5.070   6.851   3.283
 6751SOL    HW121152   4.987   6.883   3.329
 6751SOL    HW221153   5.086   6.906   3.201
 6752SOL     OW21154   1.458   1.080   3.330
 6752SOL    HW121155   1.499   1.088   3.420
 6752SOL    HW221156   1.530   1.067   3.261
 6753SOL     OW21157   3.042   0.702   6.565
 6753SOL    HW121158   2.992   0.788   6.567
 6753SOL    HW221159   3.028   0.653   6.651
 6754SOL     OW21160   6.951   1.820   1.026
 6754SOL    HW121161   6.982   1.857   1.114
 6754SOL    HW221162   6.869   1.764   1.040
 6755SOL     OW21163   4.183   1.126   2.646
 6755SOL    HW121164   4.214   1.039   2.608
 6755SOL    HW221165   4.122   1.110   2.723
 6756SOL     OW21166   3.871   5.891   5.200
 6756SOL    HW121167   3.831   5.944   5.125
 6756SOL    HW221168   3.825   5.913   5.285
 6757SOL     OW21169   3.971   2.008   0.758
 6757SOL    HW121170   3.885   2.012   0.707
 6757SOL    HW221171   3.991   2.099   0.795
 6758SOL     OW21172   6.163   1.791   2.398
 6758SOL    HW121173   6.221   1.856   2.448
 6758SOL    HW221174   6.185   1.796   2.301
 6759SOL     OW21175   1.241   4.249   4.632
 6759SOL    HW121176   1.329   4.252   4.679
 6759SOL    HW221177   1.210   4.154   4.626
 6760SOL     OW21178   6.629   4.037   2.729
 6760SOL    HW121179   6.643   4.126   2.685
 6760SOL    HW221180   6.691   4.029   2.807
 6761SOL     OW21181   6.596   2.790   5.442
 6761SOL    HW121182   6.600   2.691   5.424
 6761SOL    HW221183   6.586   2.806   5.540
 6762SOL     OW21184   1.007   5.163   5.305
 6762SOL    HW121185   1.100   5.175   5.271
 6762SOL    HW221186   0.987   5.066   5.314
 6763SOL     OW21187   0.577   5.188   3.557
 6763SOL    HW121188   0.612   5.119   3.620
 6763SOL    HW221189   0.608   5.278   3.586
 6764SOL     OW21190   1.242   5.238   0.992
 6764SOL    HW121191   1.148   5.260   1.021
 6764SOL    HW221192   1.307   5.276   1.058
 6765SOL     OW21193   5.474   4.422   4.035
 6765SOL    HW121194   5.554   4.363   4.040
 6765SOL    HW221195   5.392   4.369   4.056
 6766SOL     OW21196   5.151   6.693   5.963
 6766SOL    HW121197   5.165   6.709   6.061
 6766SOL    HW221198   5.061   6.727   5.936
 6767SOL     OW21199   2.269   1.686   1.249
 6767SOL    HW121200   2.346   1.734   1.290
 6767SOL    HW221201   2.302   1.609   1.196
 6768SOL     OW21202   1.568   6.627   4.560
 6768SOL    HW121203   1.625   6.668   4.490
 6768SOL    HW221204   1.621   6.617   4.645
 6769SOL     OW21205   3.039   0.465   6.147
 6769SOL    HW121206   3.005   0.376   6.175
 6769SOL    HW221207   3.114   0.454   6.082
 6770SOL     OW21208   5.390   1.672   3.508
 6770SOL    HW121209   5.385   1.742   3.579
 6770SOL    HW221210   5.371   1.713   3.419
 6771SOL     OW21211   4.028   1.717   2.613
 6771SOL    HW121212   4.052   1.810   2.587
 6771SOL    HW221213   4.094   1.653   2.572
 6772SOL     OW21214   4.504   2.502   2.467
 6772SOL    HW121215   4.472   2.408   2.475
 6772SOL    HW221216   4.450   2.549   2.397
 6773SOL     OW21217   0.213   5.992   1.851
 6773SOL    HW121218   0.191   6.083   1.814
 6773SOL    HW221219   0.182   5.922   1.787
 6774SOL     OW21220   1.320   3.849   5.286
 6774SOL    HW121221   1.387   3.915   5.319
 6774SOL    HW221222   1.362   3.792   5.215
 6775SOL     OW21223   2.612   2.251   2.504
 6775SOL    HW121224   2.656   2.294   2.426
 6775SOL    HW221225   2.643   2.294   2.588
 6776SOL     OW21226   4.375   3.300   0.029
 6776SOL    HW121227   4.286   3.256   0.017
 6776SOL    HW221228   4.447   3.233   0.010
 6777SOL     OW21229   5.032   4.757   0.698
 6777SOL    HW121230   5.112   4.706   0.665
 6777SOL    HW221231   4.975   4.783   0.620
 6778SOL     OW21232   6.740   5.564   2.032
 6778SOL    HW121233   6.817   5.567   2.095
 6778SOL    HW221234   6.752   5.634   1.961
 6779SOL     OW21235   5.553   5.870   5.679
 6779SOL    HW121236   5.456   5.890   5.691
 6779SOL    HW221237   5.562   5.795   5.612
 6780SOL     OW21238   1.682   2.446   2.305
 6780SOL    HW121239   1.659   2.506   2.228
 6780SOL    HW221240   1.687   2.500   2.389
 6781SOL     OW21241   6.294   2.047   4.409
 6781SOL    HW121242   6.258   2.093   4.490
 6781SOL    HW221243   6.219   2.022   4.349
 6782SOL     OW21244   1.134   0.930   3.077
 6782SOL    HW121245   1.043   0.941   3.116
 6782SOL    HW221246   1.129   0.942   2.978
 6783SOL     OW21247   6.500   1.330   5.976
 6783SOL    HW121248   6.475   1.403   5.913
 6783SOL    HW221249   6.497   1.242   5.929
 6784SOL     OW21250   1.778   3.458   0.865
 6784SOL    HW121251   1.750   3.382   0.924
 6784SOL    HW221252   1.843   3.424   0.797
 6785SOL     OW21253   6.104   5.677   4.775
 6785SOL    HW121254   6.089   5.754   4.713
 6785SOL    HW221255   6.141   5.711   4.862
 6786SOL     OW21256   1.849   1.989   0.692
 6786SOL    HW121257   1.917   1.936   0.643
 6786SOL    HW221258   1.861   1.975   0.791
 6787SOL     OW21259   2.731   2.543   0.154
 6787SOL    HW121260   2.670   2.609   0.200
 6787SOL    HW221261   2.731   2.561   0.056
 6788SOL     OW21262   1.251   4.278   1.236
 6788SOL    HW121263   1.301   4.219   1.300
 6788SOL    HW221264   1.170   4.315   1.281
 6789SOL     OW21265   1.069   5.405   3.238
 6789SOL    HW121266   1.117   5.373   3.156
 6789SOL    HW221267   1.054   5.504   3.231
 6790SOL     OW21268   0.950   3.717   0.644
 6790SOL    HW121269   0.911   3.624   0.643
 6790SOL    HW221270   0.969   3.746   0.550
 6791SOL     OW21271   3.767   1.998   2.240
 6791SOL    HW121272   3.701   2.064   2.203
 6791SOL    HW221273   3.752   1.909   2.197
 6792SOL     OW21274   5.670   6.897   4.618
 6792SOL    HW121275   5.768   6.874   4.618
 6792SOL    HW221276   5.659   6.995   4.635
 6793SOL     OW21277   1.777   1.370   0.149
 6793SOL    HW121278   1.682   1.397   0.135
 6793SOL    HW221279   1.780   1.276   0.183
 6794SOL     OW21280   4.971   1.432   5.643
 6794SOL    HW121281   5.010   1.355   5.692
 6794SOL    HW221282   4.872   1.436   5.660
 6795SOL     OW21283   1.501   6.441   1.163
 6795SOL    HW121284   1.425   6.505   1.162
 6795SOL    HW221285   1.471   6.353   1.125
 6796SOL     OW21286   5.558   1.151   3.133
 6796SOL    HW121287   5.515   1.232   3.093
 6796SOL    HW221288   5.503   1.117   3.209
 6797SOL     OW21289   6.659   2.063   1.734
 6797SOL    HW121290   6.645   2.064   1.635
 6797SOL    HW221291   6.691   1.973   1.762
 6798SOL     OW21292   6.402   6.224   1.669
 6798SOL    HW121293   6.468   6.261   1.734
 6798SOL    HW221294   6.338   6.164   1.716
 6799SOL     OW21295   0.065   0.692   2.193
 6799SOL    HW121296   7.020   0.631   2.150
 6799SOL    HW221297   0.127   0.728   2.124
 6800SOL     OW21298   2.119   2.480   2.353
 6800SOL    HW121299   2.139   2.574   2.325
 6800SOL    HW221300   2.205   2.433   2.374
 6801SOL     OW21301   1.100   0.275   3.290
 6801SOL    HW121302   1.041   0.247   3.366
 6801SOL    HW221303   1.047   0.328   3.225
 6802SOL     OW21304   3.780   5.986   1.547
 6802SOL    HW121305   3.696   5.932   1.551
 6802SOL    HW221306   3.799   6.012   1.452
 6803SOL     OW21307   4.203   3.841   5.799
 6803SOL    HW121308   4.134   3.790   5.851
 6803SOL    HW221309   4.292   3.798   5.809
 6804SOL     OW21310   3.606   5.272   3.708
 6804SOL    HW121311   3.669   5.218   3.764
 6804SOL    HW221312   3.656   5.313   3.632
 6805SOL     OW21313   0.053   4.947   6.750
 6805SOL    HW121314   0.129   5.010   6.766
 6805SOL    HW221315   0.081   4.854   6.774
 6806SOL     OW21316   6.520   1.304   3.129
 6806SOL    HW121317   6.466   1.381   3.165
 6806SOL    HW221318   6.616   1.317   3.152
 6807SOL     OW21319   2.961   3.002   1.394
 6807SOL    HW121320   3.009   3.039   1.473
 6807SOL    HW221321   3.022   2.940   1.344
 6808SOL     OW21322   6.659   1.807   6.494
 6808SOL    HW121323   6.691   1.824   6.400
 6808SOL    HW221324   6.593   1.733   6.493
 6809SOL     OW21325   0.582   3.095   1.135
 6809SOL    HW121326   0.607   3.120   1.229
 6809SOL    HW221327   0.604   2.999   1.119
 6810SOL     OW21328   2.109   1.176   2.179
 6810SOL    HW121329   2.164   1.220   2.250
 6810SOL    HW221330   2.168   1.146   2.104
 6811SOL     OW21331   5.438   4.315   1.539
 6811SOL    HW121332   5.531   4.279   1.531
 6811SOL    HW221333   5.422   4.344   1.633
 6812SOL     OW21334   3.127   3.557   4.268
 6812SOL    HW121335   3.171   3.528   4.183
 6812SOL    HW221336   3.187   3.621   4.316
 6813SOL     OW21337   5.534   4.069   2.867
 6813SOL    HW121338   5.602   4.139   2.848
 6813SOL    HW221339   5.579   3.986   2.900
 6814SOL     OW21340   3.950   2.412   6.077
 6814SOL    HW121341   4.014   2.348   6.034
 6814SOL    HW221342   3.969   2.418   6.175
 6815SOL     OW21343   3.153   6.091   0.348
 6815SOL    HW121344   3.251   6.092   0.367
 6815SOL    HW221345   3.116   6.000   0.370
 6816SOL     OW21346   6.633   0.787   6.476
 6816SOL    HW121347   6.646   0.802   6.378
 6816SOL    HW221348   6.592   0.869   6.516
 6817SOL     OW21349   2.461   2.608   2.788
 6817SOL    HW121350   2.454   2.681   2.856
 6817SOL    HW221351   2.451   2.647   2.696
 6818SOL     OW21352   2.213   6.282   0.847
 6818SOL    HW121353   2.227   6.230   0.931
 6818SOL    HW221354   2.170   6.223   0.779
 6819SOL     OW21355   3.748   1.525   3.279
 6819SOL    HW121356   3.720   1.442   3.232
 6819SOL    HW221357   3.812   1.502   3.352
 6820SOL     OW21358   2.052   6.263   1.258
 6820SOL    HW121359   2.090   6.270   1.350
 6820SOL    HW221360   2.036   6.167   1.236
 6821SOL     OW21361   4.084   2.148   5.276
 6821SOL    HW121362   4.004   2.176   5.223
 6821SOL    HW221363   4.098   2.050   5.266
 6822SOL     OW21364   5.756   2.164   5.788
 6822SOL    HW121365   5.828   2.164   5.719
 6822SOL    HW221366   5.796   2.148   5.878
 6823SOL     OW21367   5.406   3.912   5.778
 6823SOL    HW121368   5.364   3.830   5.817
 6823SOL    HW221369   5.361   3.935   5.692
 6824SOL     OW21370   1.456   1.750   0.208
 6824SOL    HW121371   1.523   1.745   0.133
 6824SOL    HW221372   1.373   1.793   0.175
 6825SOL     OW21373   5.757   0.501   0.503
 6825SOL    HW121374   5.818   0.580   0.500
 6825SOL    HW221375   5.752   0.458   0.413
 6826SOL     OW21376   1.879   3.286   3.438
 6826SOL    HW121377   1.848   3.378   3.414
 6826SOL    HW221378   1.821   3.218   3.393
 6827SOL     OW21379   4.709   5.201   5.798
 6827SOL    HW121380   4.778   5.148   5.847
 6827SOL    HW221381   4.652   5.250   5.864
 6828SOL     OW21382   3.416   1.197   1.883
 6828SOL    HW121383   3.370   1.217   1.970
 6828SOL    HW221384   3.515   1.196   1.896
 6829SOL     OW21385   4.781   5.919   4.843
 6829SOL    HW121386   4.803   6.004   4.893
 6829SOL    HW221387   4.683   5.915   4.825
 6830SOL     OW21388   4.887   0.663   3.324
 6830SOL    HW121389   4.823   0.637   3.252
 6830SOL    HW221390   4.940   0.583   3.352
 6831SOL     OW21391   1.146   0.713   6.865
 6831SOL    HW121392   1.196   0.785   6.816
 6831SOL    HW221393   1.065   0.686   6.812
 6832SOL     OW21394   2.387   4.247   0.734
 6832SOL    HW121395   2.324   4.228   0.659
 6832SOL    HW221396   2.394   4.345   0.749
 6833SOL     OW21397   3.253   4.921   6.092
 6833SOL    HW121398   3.215   4.831   6.070
 6833SOL    HW221399   3.264   4.928   6.191
 6834SOL     OW21400   5.419   0.035   0.746
 6834SOL    HW121401   5.406   0.134   0.756
 6834SOL    HW221402   5.405   7.011   0.834
 6835SOL     OW21403   4.675   0.616   4.969
 6835SOL    HW121404   4.761   0.660   4.996
 6835SOL    HW221405   4.662   0.532   5.021
 6836SOL     OW21406   3.105   4.375   0.594
 6836SOL    HW121407   3.069   4.323   0.516
 6836SOL    HW221408   3.123   4.312   0.670
 6837SOL     OW21409   0.838   2.012   2.904
 6837SOL    HW121410   0.764   2.000   2.969
 6837SOL    HW221411   0.918   1.960   2.935
 6838SOL     OW21412   3.685   6.436   0.264
 6838SOL    HW121413   3.657   6.348   0.225
 6838SOL    HW221414   3.659   6.439   0.360
 6839SOL     OW21415   5.587   1.396   6.100
 6839SOL    HW121416   5.685   1.415   6.112
 6839SOL    HW221417   5.540   1.404   6.188
 6840SOL     OW21418   3.303   0.559   4.150
 6840SOL    HW121419   3.384   0.510   4.182
 6840SOL    HW221420   3.323   0.604   4.063
 6841SOL     OW21421   3.945   4.545   0.534
 6841SOL    HW121422   3.888   4.621   0.502
 6841SOL    HW221423   3.891   4.488   0.596
 6842SOL     OW21424   2.452   3.383   0.923
 6842SOL    HW121425   2.522   3.405   0.856
 6842SOL    HW221426   2.436   3.284   0.925
 6843SOL     OW21427   6.162   6.555   2.117
 6843SOL    HW121428   6.167   6.654   2.129
 6843SOL    HW221429   6.068   6.525   2.129
 6844SOL     OW21430   4.487   0.367   3.627
 6844SOL    HW121431   4.485   0.445   3.689
 6844SOL    HW221432   4.487   0.282   3.679
 6845SOL     OW21433   6.357   4.993   3.783
 6845SOL    HW121434   6.440   5.012   3.835
 6845SOL    HW221435   6.300   5.076   3.779
 6846SOL     OW21436   4.070   2.766   0.433
 6846SOL    HW121437   4.023   2.778   0.346
 6846SOL    HW221438   4.169   2.770   0.418
 6847SOL     OW21439   0.158   4.332   3.320
 6847SOL    HW121440   0.184   4.409   3.378
 6847SOL    HW221441   0.059   4.334   3.303
 6848SOL     OW21442   4.233   6.837   3.566
 6848SOL    HW121443   4.235   6.739   3.548
 6848SOL    HW221444   4.326   6.874   3.559
 6849SOL     OW21445   4.104   4.947   4.649
 6849SOL    HW121446   4.147   4.936   4.559
 6849SOL    HW221447   4.004   4.947   4.638
 6850SOL     OW21448   6.242   4.303   1.836
 6850SOL    HW121449   6.246   4.306   1.935
 6850SOL    HW221450   6.332   4.281   1.799
 6851SOL     OW21451   0.821   2.535   2.902
 6851SOL    HW121452   0.823   2.442   2.866
 6851SOL    HW221453   0.871   2.539   2.989
 6852SOL     OW21454   2.682   4.852   0.660
 6852SOL    HW121455   2.627   4.840   0.578
 6852SOL    HW221456   2.624   4.841   0.741
 6853SOL     OW21457   6.596   3.846   0.167
 6853SOL    HW121458   6.682   3.824   0.214
 6853SOL    HW221459   6.564   3.766   0.117
 6854SOL     OW21460   4.683   2.273   6.294
 6854SOL    HW121461   4.742   2.246   6.370
 6854SOL    HW221462   4.611   2.334   6.327
 6855SOL     OW21463   3.695   5.660   3.360
 6855SOL    HW121464   3.626   5.721   3.320
 6855SOL    HW221465   3.709   5.685   3.456
 6856SOL     OW21466   5.497   3.512   5.251
 6856SOL    HW121467   5.492   3.431   5.310
 6856SOL    HW221468   5.420   3.512   5.188
 6857SOL     OW21469   3.069   2.298   0.103
 6857SOL    HW121470   3.166   2.288   0.125
 6857SOL    HW221471   3.057   2.376   0.042
 6858SOL     OW21472   3.717   3.852   3.787
 6858SOL    HW121473   3.672   3.763   3.777
 6858SOL    HW221474   3.779   3.850   3.865
 6859SOL     OW21475   0.280   0.898   0.725
 6859SOL    HW121476   0.254   0.910   0.629
 6859SOL    HW221477   0.290   0.800   0.745
 6860SOL     OW21478   6.896   4.848   1.197
 6860SOL    HW121479   6.879   4.892   1.109
 6860SOL    HW221480   6.887   4.916   1.271
 6861SOL     OW21481   4.342   4.942   0.113
 6861SOL    HW121482   4.265   4.985   0.161
 6861SOL    HW221483   4.423   4.946   0.172
 6862SOL     OW21484   1.755   4.850   5.682
 6862SOL    HW121485   1.851   4.824   5.693
 6862SOL    HW221486   1.716   4.802   5.604
 6863SOL     OW21487   5.632   0.295   6.170
 6863SOL    HW121488   5.624   0.347   6.255
 6863SOL    HW221489   5.593   0.203   6.183
 6864SOL     OW21490   2.646   5.412   4.431
 6864SOL    HW121491   2.702   5.405   4.514
 6864SOL    HW221492   2.612   5.321   4.406
 6865SOL     OW21493   1.321   6.234   3.233
 6865SOL    HW121494   1.324   6.139   3.264
 6865SOL    HW221495   1.380   6.245   3.153
 6866SOL     OW21496   6.262   4.918   3.446
 6866SOL    HW121497   6.263   4.917   3.346
 6866SOL    HW221498   6.345   4.963   3.479
 6867SOL     OW21499   2.534   3.926   1.612
 6867SOL    HW121500   2.618   3.871   1.617
 6867SOL    HW221501   2.473   3.899   1.686
 6868SOL     OW21502   1.176   5.330   5.967
 6868SOL    HW121503   1.188   5.255   5.902
 6868SOL    HW221504   1.193   5.417   5.921
 6869SOL     OW21505   6.111   1.153   5.724
 6869SOL    HW121506   6.074   1.245   5.711
 6869SOL    HW221507   6.145   1.144   5.818
 6870SOL     OW21508   0.509   5.149   1.796
 6870SOL    HW121509   0.508   5.050   1.784
 6870SOL    HW221510   0.512   5.193   1.707
 6871SOL     OW21511   6.167   4.515   3.203
 6871SOL    HW121512   6.246   4.526   3.142
 6871SOL    HW221513   6.186   4.563   3.289
 6872SOL     OW21514   0.317   2.695   1.160
 6872SOL    HW121515   0.316   2.789   1.196
 6872SOL    HW221516   0.324   2.698   1.060
 6873SOL     OW21517   6.651   3.830   5.423
 6873SOL    HW121518   6.620   3.817   5.329
 6873SOL    HW221519   6.718   3.759   5.447
 6874SOL     OW21520   0.233   5.835   2.636
 6874SOL    HW121521   0.262   5.865   2.726
 6874SOL    HW221522   0.294   5.873   2.566
 6875SOL     OW21523   2.450   2.493   3.195
 6875SOL    HW121524   2.358   2.460   3.217
 6875SOL    HW221525   2.458   2.506   3.096
 6876SOL     OW21526   3.339   6.940   3.712
 6876SOL    HW121527   3.251   6.982   3.689
 6876SOL    HW221528   3.331   6.841   3.706
 6877SOL     OW21529   2.677   3.964   1.260
 6877SOL    HW121530   2.722   3.878   1.235
 6877SOL    HW221531   2.708   4.036   1.198
 6878SOL     OW21532   3.171   1.396   5.398
 6878SOL    HW121533   3.171   1.407   5.298
 6878SOL    HW221534   3.226   1.316   5.422
 6879SOL     OW21535   0.735   2.257   0.905
 6879SOL    HW121536   0.674   2.261   0.826
 6879SOL    HW221537   0.764   2.163   0.919
 6880SOL     OW21538   1.620   4.857   4.569
 6880SOL    HW121539   1.547   4.803   4.611
 6880SOL    HW221540   1.655   4.923   4.636
 6881SOL     OW21541   1.749   4.047   0.641
 6881SOL    HW121542   1.765   4.130   0.694
 6881SOL    HW221543   1.652   4.041   0.616
 6882SOL     OW21544   2.795   0.504   6.980
 6882SOL    HW121545   2.730   0.494   6.905
 6882SOL    HW221546   2.754   0.559   0.032
 6883SOL     OW21547   4.735   1.100   0.275
 6883SOL    HW121548   4.746   1.072   0.370
 6883SOL    HW221549   4.646   1.069   0.241
 6884SOL     OW21550   2.580   4.535   4.288
 6884SOL    HW121551   2.661   4.576   4.245
 6884SOL    HW221552   2.534   4.475   4.223
 6885SOL     OW21553   3.880   5.188   3.855
 6885SOL    HW121554   3.962   5.227   3.812
 6885SOL    HW221555   3.897   5.093   3.879
 6886SOL     OW21556   6.882   0.959   4.401
 6886SOL    HW121557   6.853   1.052   4.378
 6886SOL    HW221558   6.818   0.919   4.466
 6887SOL     OW21559   5.123   5.653   6.153
 6887SOL    HW121560   5.117   5.591   6.074
 6887SOL    HW221561   5.051   5.630   6.219
 6888SOL     OW21562   5.393   6.201   6.997
 6888SOL    HW121563   5.302   6.240   6.984
 6888SOL    HW221564   5.427   6.163   6.911
 6889SOL     OW21565   2.170   2.251   5.084
 6889SOL    HW121566   2.102   2.276   5.015
 6889SOL    HW221567   2.188   2.330   5.142
 6890SOL     OW21568   4.548   6.365   1.775
 6890SOL    HW121569   4.537   6.448   1.719
 6890SOL    HW221570   4.485   6.294   1.742
 6891SOL     OW21571   1.895   4.381   3.187
 6891SOL    HW121572   1.835   4.405   3.263
 6891SOL    HW221573   1.975   4.441   3.187
 6892SOL     OW21574   3.129   2.036   3.214
 6892SOL    HW121575   3.068   2.112   3.188
 6892SOL    HW221576   3.077   1.970   3.268
 6893SOL     OW21577   4.101   4.249   6.966
 6893SOL    HW121578   4.124   4.263   6.870
 6893SOL    HW221579   4.178   4.276   0.003
 6894SOL     OW21580   6.644   4.445   1.116
 6894SOL    HW121581   6.563   4.391   1.138
 6894SOL    HW221582   6.683   4.412   1.029
 6895SOL     OW21583   3.275   4.847   0.263
 6895SOL    HW121584   3.234   4.905   0.333
 6895SOL    HW221585   3.373   4.836   0.281
 6896SOL     OW21586   2.317   6.920   3.760
 6896SOL    HW121587   2.241   6.855   3.755
 6896SOL    HW221588   2.392   6.880   3.813
 6897SOL     OW21589   4.775   4.148   6.117
 6897SOL    HW121590   4.737   4.179   6.030
 6897SOL    HW221591   4.840   4.216   6.152
 6898SOL     OW21592   3.363   1.376   1.452
 6898SOL    HW121593   3.297   1.301   1.448
 6898SOL    HW221594   3.445   1.345   1.501
 6899SOL     OW21595   5.422   6.445   1.273
 6899SOL    HW121596   5.518   6.415   1.276
 6899SOL    HW221597   5.391   6.467   1.365
 6900SOL     OW21598   6.388   6.594   5.530
 6900SOL    HW121599   6.350   6.552   5.447
 6900SOL    HW221600   6.410   6.522   5.596
 6901SOL     OW21601   0.096   6.050   6.165
 6901SOL    HW121602   0.037   6.123   6.131
 6901SOL    HW221603   0.073   6.029   6.260
 6902SOL     OW21604   5.427   6.024   6.789
 6902SOL    HW121605   5.396   5.937   6.828
 6902SOL    HW221606   5.381   6.040   6.702
 6903SOL     OW21607   2.784   5.483   4.891
 6903SOL    HW121608   2.692   5.502   4.927
 6903SOL    HW221609   2.777   5.424   4.811
 6904SOL     OW21610   5.615   0.397   4.483
 6904SOL    HW121611   5.515   0.404   4.481
 6904SOL    HW221612   5.654   0.489   4.477
 6905SOL     OW21613   5.734   6.696   6.204
 6905SOL    HW121614   5.750   6.746   6.119
 6905SOL    HW221615   5.778   6.745   6.279
 6906SOL     OW21616   4.598   1.210   3.662
 6906SOL    HW121617   4.584   1.182   3.757
 6906SOL    HW221618   4.692   1.240   3.649
 6907SOL     OW21619   5.404   2.789   1.683
 6907SOL    HW121620   5.452   2.785   1.771
 6907SOL    HW221621   5.391   2.885   1.657
 6908SOL     OW21622   1.018   5.453   6.268
 6908SOL    HW121623   1.088   5.480   6.202
 6908SOL    HW221624   1.041   5.364   6.307
 6909SOL     OW21625   5.269   4.457   1.360
 6909SOL    HW121626   5.265   4.402   1.277
 6909SOL    HW221627   5.310   4.403   1.434
 6910SOL     OW21628   6.732   2.027   3.508
 6910SOL    HW121629   6.660   1.960   3.490
 6910SOL    HW221630   6.717   2.068   3.598
 6911SOL     OW21631   4.324   6.155   4.020
 6911SOL    HW121632   4.420   6.150   3.994
 6911SOL    HW221633   4.314   6.136   4.118
 6912SOL     OW21634   3.974   4.189   6.578
 6912SOL    HW121635   3.997   4.104   6.624
 6912SOL    HW221636   3.875   4.203   6.580
 6913SOL     OW21637   4.893   5.548   4.380
 6913SOL    HW121638   4.874   5.508   4.470
 6913SOL    HW221639   4.990   5.536   4.358
 6914SOL     OW21640   5.829   3.502   4.717
 6914SOL    HW121641   5.874   3.591   4.715
 6914SOL    HW221642   5.895   3.431   4.694
 6915SOL     OW21643   5.966   2.790   1.842
 6915SOL    HW121644   6.036   2.844   1.796
 6915SOL    HW221645   5.882   2.845   1.851
 6916SOL     OW21646   6.284   2.525   0.191
 6916SOL    HW121647   6.382   2.528   0.211
 6916SOL    HW221648   6.258   2.432   0.166
 6917SOL     OW21649   3.208   6.135   1.054
 6917SOL    HW121650   3.140   6.172   0.990
 6917SOL    HW221651   3.270   6.074   1.005
 6918SOL     OW21652   0.278   2.951   4.048
 6918SOL    HW121653   0.288   2.999   4.135
 6918SOL    HW221654   0.346   2.987   3.983
 6919SOL     OW21655   7.000   5.990   3.158
 6919SOL    HW121656   0.048   5.923   3.185
 6919SOL    HW221657   6.982   6.052   3.234
 6920SOL     OW21658   4.551   6.019   5.165
 6920SOL    HW121659   4.608   6.049   5.089
 6920SOL    HW221660   4.467   6.074   5.167
 6921SOL     OW21661   5.547   5.415   3.840
 6921SOL    HW121662   5.491   5.351   3.789
 6921SOL    HW221663   5.569   5.494   3.783
 6922SOL     OW21664   2.088   5.999   5.362
 6922SOL    HW121665   2.019   5.954   5.306
 6922SOL    HW221666   2.114   5.939   5.437
 6923SOL     OW21667   4.541   5.601   3.130
 6923SOL    HW121668   4.442   5.602   3.124
 6923SOL    HW221669   4.573   5.507   3.145
 6924SOL     OW21670   2.739   3.464   6.699
 6924SOL    HW121671   2.671   3.515   6.648
 6924SOL    HW221672   2.747   3.372   6.661
 6925SOL     OW21673   4.889   6.054   4.548
 6925SOL    HW121674   4.904   5.955   4.541
 6925SOL    HW221675   4.794   6.075   4.523
 6926SOL     OW21676   3.620   2.813   1.012
 6926SOL    HW121677   3.702   2.803   0.957
 6926SOL    HW221678   3.570   2.726   1.013
 6927SOL     OW21679   4.313   3.026   6.216
 6927SOL    HW121680   4.383   3.089   6.249
 6927SOL    HW221681   4.244   3.076   6.164
 6928SOL     OW21682   6.038   5.450   0.573
 6928SOL    HW121683   5.961   5.453   0.636
 6928SOL    HW221684   6.107   5.518   0.600
 6929SOL     OW21685   5.867   5.350   1.176
 6929SOL    HW121686   5.836   5.265   1.133
 6929SOL    HW221687   5.954   5.335   1.222
 6930SOL     OW21688   0.173   0.336   2.581
 6930SOL    HW121689   0.271   0.315   2.577
 6930SOL    HW221690   0.149   0.394   2.504
 6931SOL     OW21691   2.241   0.812   2.473
 6931SOL    HW121692   2.231   0.759   2.388
 6931SOL    HW221693   2.199   0.763   2.549
 6932SOL     OW21694   4.314   6.540   0.611
 6932SOL    HW121695   4.394   6.480   0.614
 6932SOL    HW221696   4.237   6.491   0.568
 6933SOL     OW21697   3.287   6.110   4.546
 6933SOL    HW121698   3.312   6.089   4.640
 6933SOL    HW221699   3.309   6.032   4.487
 6934SOL     OW21700   5.186   3.638   6.109
 6934SOL    HW121701   5.086   3.647   6.103
 6934SOL    HW221702   5.215   3.558   6.056
 6935SOL     OW21703   4.804   5.279   2.629
 6935SOL    HW121704   4.749   5.312   2.705
 6935SOL    HW221705   4.790   5.338   2.549
 6936SOL     OW21706   5.820   1.571   3.219
 6936SOL    HW121707   5.746   1.585   3.153
 6936SOL    HW221708   5.901   1.536   3.172
 6937SOL     OW21709   6.816   6.213   0.001
 6937SOL    HW121710   6.821   6.302   6.975
 6937SOL    HW221711   6.722   6.198   0.031
 6938SOL     OW21712   5.225   3.340   5.193
 6938SOL    HW121713   5.165   3.398   5.247
 6938SOL    HW221714   5.295   3.300   5.252
 6939SOL     OW21715   1.440   4.920   2.064
 6939SOL    HW121716   1.376   4.952   1.994
 6939SOL    HW221717   1.468   4.996   2.122
 6940SOL     OW21718   4.324   0.555   6.694
 6940SOL    HW121719   4.323   0.572   6.792
 6940SOL    HW221720   4.418   0.561   6.660
 6941SOL     OW21721   3.775   3.961   1.684
 6941SOL    HW121722   3.874   3.945   1.692
 6941SOL    HW221723   3.743   4.009   1.765
 6942SOL     OW21724   5.474   0.228   1.333
 6942SOL    HW121725   5.428   0.139   1.332
 6942SOL    HW221726   5.507   0.248   1.425
 6943SOL     OW21727   4.000   5.879   0.251
 6943SOL    HW121728   3.910   5.865   0.292
 6943SOL    HW221729   4.059   5.802   0.272
 6944SOL     OW21730   0.685   4.177   6.738
 6944SOL    HW121731   0.585   4.167   6.742
 6944SOL    HW221732   0.726   4.093   6.702
 6945SOL     OW21733   6.222   1.045   6.743
 6945SOL    HW121734   6.166   1.056   6.661
 6945SOL    HW221735   6.170   1.074   6.823
 6946SOL     OW21736   5.621   6.661   0.817
 6946SOL    HW121737   5.560   6.727   0.774
 6946SOL    HW221738   5.611   6.667   0.917
 6947SOL     OW21739   3.119   6.244   6.537
 6947SOL    HW121740   3.198   6.201   6.581
 6947SOL    HW221741   3.131   6.244   6.438
 6948SOL     OW21742   0.245   0.143   0.753
 6948SOL    HW121743   0.287   0.229   0.781
 6948SOL    HW221744   0.260   0.129   0.655
 6949SOL     OW21745   3.932   6.980   2.698
 6949SOL    HW121746   3.989   0.040   2.709
 6949SOL    HW221747   3.859   6.980   2.767
 6950SOL     OW21748   1.889   1.944   4.746
 6950SOL    HW121749   1.922   1.992   4.664
 6950SOL    HW221750   1.850   2.010   4.810
 6951SOL     OW21751   6.435   5.684   6.015
 6951SOL    HW121752   6.422   5.658   5.920
 6951SOL    HW221753   6.406   5.610   6.075
 6952SOL     OW21754   1.078   6.091   3.091
 6952SOL    HW121755   1.171   6.071   3.122
 6952SOL    HW221756   1.074   6.185   3.058
 6953SOL     OW21757   4.426   6.358   0.844
 6953SOL    HW121758   4.415   6.284   0.778
 6953SOL    HW221759   4.520   6.392   0.840
 6954SOL     OW21760   6.628   3.524   3.158
 6954SOL    HW121761   6.541   3.536   3.206
 6954SOL    HW221762   6.678   3.610   3.158
 6955SOL     OW21763   6.126   0.064   2.625
 6955SOL    HW121764   6.144   6.993   2.662
 6955SOL    HW221765   6.110   0.059   2.527
 6956SOL     OW21766   5.822   5.494   3.807
 6956SOL    HW121767   5.835   5.454   3.716
 6956SOL    HW221768   5.730   5.473   3.839
 6957SOL     OW21769   6.409   4.859   0.564
 6957SOL    HW121770   6.383   4.918   0.488
 6957SOL    HW221771   6.481   4.796   0.535
 6958SOL     OW21772   3.374   2.977   4.454
 6958SOL    HW121773   3.451   2.938   4.403
 6958SOL    HW221774   3.322   3.038   4.394
 6959SOL     OW21775   1.729   2.355   4.148
 6959SOL    HW121776   1.766   2.360   4.055
 6959SOL    HW221777   1.694   2.263   4.165
 6960SOL     OW21778   2.670   4.535   1.400
 6960SOL    HW121779   2.578   4.573   1.403
 6960SOL    HW221780   2.670   4.451   1.346
 6961SOL     OW21781   5.987   1.778   3.295
 6961SOL    HW121782   5.994   1.819   3.204
 6961SOL    HW221783   5.901   1.727   3.302
 6962SOL     OW21784   4.979   6.081   1.702
 6962SOL    HW121785   4.978   6.180   1.715
 6962SOL    HW221786   4.945   6.058   1.611
 6963SOL     OW21787   5.308   5.926   0.913
 6963SOL    HW121788   5.253   6.005   0.940
 6963SOL    HW221789   5.301   5.913   0.815
 6964SOL     OW21790   3.306   0.723   4.952
 6964SOL    HW121791   3.355   0.745   4.867
 6964SOL    HW221792   3.352   0.766   5.029
 6965SOL     OW21793   0.743   1.645   0.594
 6965SOL    HW121794   0.821   1.585   0.613
 6965SOL    HW221795   0.677   1.597   0.537
 6966SOL     OW21796   0.337   2.133   3.347
 6966SOL    HW121797   0.345   2.094   3.255
 6966SOL    HW221798   0.253   2.187   3.353
 6967SOL     OW21799   2.505   0.648   5.607
 6967SOL    HW121800   2.495   0.725   5.544
 6967SOL    HW221801   2.569   0.581   5.568
 6968SOL     OW21802   4.036   6.822   2.932
 6968SOL    HW121803   4.081   6.912   2.939
 6968SOL    HW221804   3.969   6.824   2.858
 6969SOL     OW21805   3.604   2.513   0.935
 6969SOL    HW121806   3.591   2.487   1.030
 6969SOL    HW221807   3.515   2.528   0.892
 6970SOL     OW21808   4.238   4.092   5.701
 6970SOL    HW121809   4.214   3.998   5.727
 6970SOL    HW221810   4.156   4.139   5.669
 6971SOL     OW21811   6.859   4.373   2.360
 6971SOL    HW121812   6.824   4.397   2.270
 6971SOL    HW221813   6.802   4.301   2.400
 6972SOL     OW21814   5.207   4.333   3.170
 6972SOL    HW121815   5.251   4.402   3.114
 6972SOL    HW221816   5.237   4.242   3.140
 6973SOL     OW21817   0.724   2.956   4.283
 6973SOL    HW121818   0.682   2.914   4.203
 6973SOL    HW221819   0.806   2.904   4.309
 6974SOL     OW21820   3.024   3.840   2.987
 6974SOL    HW121821   3.010   3.788   3.072
 6974SOL    HW221822   2.995   3.784   2.909
 6975SOL     OW21823   1.772   6.393   6.344
 6975SOL    HW121824   1.826   6.366   6.264
 6975SOL    HW221825   1.829   6.447   6.406
 6976SOL     OW21826   4.935   5.529   4.925
 6976SOL    HW121827   4.870   5.503   4.996
 6976SOL    HW221828   4.960   5.626   4.937
 6977SOL     OW21829   4.063   2.979   1.831
 6977SOL    HW121830   4.083   2.891   1.789
 6977SOL    HW221831   4.001   2.966   1.908
 6978SOL     OW21832   5.834   1.453   1.950
 6978SOL    HW121833   5.869   1.504   2.028
 6978SOL    HW221834   5.752   1.401   1.978
 6979SOL     OW21835   0.566   4.268   1.138
 6979SOL    HW121836   0.569   4.262   1.237
 6979SOL    HW221837   0.582   4.178   1.098
 6980SOL     OW21838   2.034   0.670   4.062
 6980SOL    HW121839   1.944   0.630   4.047
 6980SOL    HW221840   2.043   0.753   4.008
 6981SOL     OW21841   3.639   2.811   5.556
 6981SOL    HW121842   3.717   2.751   5.535
 6981SOL    HW221843   3.619   2.868   5.477
 6982SOL     OW21844   1.221   0.330   5.313
 6982SOL    HW121845   1.268   0.268   5.251
 6982SOL    HW221846   1.262   0.325   5.404
 6983SOL     OW21847   3.413   2.124   3.862
 6983SOL    HW121848   3.314   2.140   3.855
 6983SOL    HW221849   3.438   2.046   3.805
 6984SOL     OW21850   2.213   2.088   3.204
 6984SOL    HW121851   2.293   2.072   3.262
 6984SOL    HW221852   2.243   2.112   3.112
 6985SOL     OW21853   5.921   5.250   1.508
 6985SOL    HW121854   5.963   5.185   1.444
 6985SOL    HW221855   5.872   5.200   1.579
 6986SOL     OW21856   2.193   0.089   5.536
 6986SOL    HW121857   2.173   0.088   5.438
 6986SOL    HW221858   2.269   0.151   5.554
 6987SOL     OW21859   5.998   1.321   5.995
 6987SOL    HW121860   5.924   1.258   5.972
 6987SOL    HW221861   6.056   1.280   6.065
 6988SOL     OW21862   0.600   0.663   5.522
 6988SOL    HW121863   0.577   0.570   5.553
 6988SOL    HW221864   0.696   0.682   5.543
 6989SOL     OW21865   0.961   3.744   3.207
 6989SOL    HW121866   0.957   3.768   3.110
 6989SOL    HW221867   0.870   3.717   3.238
 6990SOL     OW21868   4.750   2.539   0.994
 6990SOL    HW121869   4.743   2.468   1.064
 6990SOL    HW221870   4.733   2.499   0.904
 6991SOL     OW21871   4.114   4.983   2.795
 6991SOL    HW121872   4.114   5.078   2.764
 6991SOL    HW221873   4.026   4.941   2.775
 6992SOL     OW21874   5.197   6.429   6.246
 6992SOL    HW121875   5.190   6.353   6.311
 6992SOL    HW221876   5.236   6.509   6.293
 6993SOL     OW21877   5.099   0.427   2.771
 6993SOL    HW121878   5.063   0.377   2.849
 6993SOL    HW221879   5.193   0.456   2.790
 6994SOL     OW21880   0.126   2.436   4.409
 6994SOL    HW121881   0.200   2.372   4.388
 6994SOL    HW221882   0.041   2.403   4.365
 6995SOL     OW21883   6.963   4.781   6.119
 6995SOL    HW121884   0.003   4.701   6.116
 6995SOL    HW221885   7.017   4.863   6.101
 6996SOL     OW21886   1.250   6.948   6.879
 6996SOL    HW121887   1.168   6.979   6.927
 6996SOL    HW221888   1.231   6.861   6.833
 6997SOL     OW21889   6.974   5.938   5.105
 6997SOL    HW121890   7.007   5.880   5.180
 6997SOL    HW221891   0.007   5.919   5.023
 6998SOL     OW21892   2.050   0.912   1.844
 6998SOL    HW121893   2.106   0.977   1.896
 6998SOL    HW221894   1.956   0.916   1.878
 6999SOL     OW21895   2.602   1.750   6.826
 6999SOL    HW121896   2.583   1.775   6.731
 6999SOL    HW221897   2.518   1.718   6.870
 7000SOL     OW21898   4.794   6.909   0.895
 7000SOL    HW121899   4.745   6.987   0.857
 7000SOL    HW221900   4.890   6.933   0.909
 7001SOL     OW21901   1.322   3.132   5.831
 7001SOL    HW121902   1.281   3.056   5.782
 7001SOL    HW221903   1.418   3.142   5.804
 7002SOL     OW21904   1.635   5.472   4.085
 7002SOL    HW121905   1.601   5.411   4.157
 7002SOL    HW221906   1.614   5.433   3.996
 7003SOL     OW21907   4.004   5.337   0.443
 7003SOL    HW121908   4.038   5.269   0.509
 7003SOL    HW221909   3.937   5.294   0.383
 7004SOL     OW21910   1.514   5.106   2.264
 7004SOL    HW121911   1.430   5.160   2.276
 7004SOL    HW221912   1.508   5.023   2.318
 7005SOL     OW21913   1.381   0.227   0.904
 7005SOL    HW121914   1.312   0.274   0.960
 7005SOL    HW221915   1.378   0.129   0.922
 7006SOL     OW21916   5.238   4.750   4.082
 7006SOL    HW121917   5.262   4.674   4.142
 7006SOL    HW221918   5.140   4.749   4.064
 7007SOL     OW21919   4.298   0.685   3.790
 7007SOL    HW121920   4.259   0.661   3.879
 7007SOL    HW221921   4.257   0.626   3.720
 7008SOL     OW21922   0.325   3.676   4.795
 7008SOL    HW121923   0.317   3.728   4.710
 7008SOL    HW221924   0.290   3.583   4.781
 7009SOL     OW21925   5.527   5.976   2.058
 7009SOL    HW121926   5.544   5.911   2.132
 7009SOL    HW221927   5.562   5.938   1.972
 7010SOL     OW21928   5.457   3.986   3.892
 7010SOL    HW121929   5.446   3.939   3.980
 7010SOL    HW221930   5.372   3.978   3.839
 7011SOL     OW21931   2.982   0.042   6.586
 7011SOL    HW121932   2.907   0.075   6.643
 7011SOL    HW221933   2.945   7.004   6.514
 7012SOL     OW21934   0.314   2.255   1.809
 7012SOL    HW121935   0.270   2.308   1.881
 7012SOL    HW221936   0.334   2.314   1.731
 7013SOL     OW21937   0.196   0.400   0.139
 7013SOL    HW121938   0.190   0.430   0.044
 7013SOL    HW221939   0.230   0.306   0.143
 7014SOL     OW21940   4.183   3.545   0.663
 7014SOL    HW121941   4.196   3.498   0.750
 7014SOL    HW221942   4.205   3.483   0.587
 7015SOL     OW21943   6.447   4.370   2.061
 7015SOL    HW121944   6.465   4.347   2.157
 7015SOL    HW221945   6.532   4.395   2.016
 7016SOL     OW21946   3.302   4.912   1.564
 7016SOL    HW121947   3.326   4.837   1.502
 7016SOL    HW221948   3.376   4.925   1.630
 7017SOL     OW21949   2.334   5.006   2.743
 7017SOL    HW121950   2.244   4.963   2.753
 7017SOL    HW221951   2.336   5.060   2.659
 7018SOL     OW21952   5.578   3.484   4.246
 7018SOL    HW121953   5.512   3.550   4.281
 7018SOL    HW221954   5.654   3.476   4.309
 7019SOL     OW21955   3.721   4.171   0.252
 7019SOL    HW121956   3.704   4.131   0.342
 7019SOL    HW221957   3.820   4.173   0.235
 7020SOL     OW21958   6.624   4.803   6.515
 7020SOL    HW121959   6.621   4.889   6.566
 7020SOL    HW221960   6.695   4.809   6.445
 7021SOL     OW21961   1.279   1.921   5.575
 7021SOL    HW121962   1.292   1.959   5.666
 7021SOL    HW221963   1.324   1.979   5.507
 7022SOL     OW21964   4.976   6.666   5.630
 7022SOL    HW121965   4.978   6.722   5.547
 7022SOL    HW221966   4.967   6.725   5.710
 7023SOL     OW21967   6.591   2.517   4.093
 7023SOL    HW121968   6.623   2.546   4.003
 7023SOL    HW221969   6.656   2.548   4.163
 7024SOL     OW21970   2.664   3.893   5.296
 7024SOL    HW121971   2.585   3.919   5.240
 7024SOL    HW221972   2.746   3.891   5.239
 7025SOL     OW21973   3.062   0.813   0.503
 7025SOL    HW121974   3.026   0.774   0.419
 7025SOL    HW221975   3.135   0.879   0.482
 7026SOL     OW21976   3.285   1.839   2.154
 7026SOL    HW121977   3.368   1.782   2.158
 7026SOL    HW221978   3.310   1.932   2.130
 7027SOL     OW21979   2.918   5.551   4.311
 7027SOL    HW121980   2.847   5.617   4.333
 7027SOL    HW221981   2.889   5.496   4.232
 7028SOL     OW21982   3.246   1.971   4.426
 7028SOL    HW121983   3.156   1.939   4.456
 7028SOL    HW221984   3.234   2.035   4.350
 7029SOL     OW21985   4.979   4.979   5.213
 7029SOL    HW121986   5.061   5.035   5.223
 7029SOL    HW221987   4.911   5.030   5.160
 7030SOL     OW21988   1.232   0.635   4.995
 7030SOL    HW121989   1.280   0.633   5.083
 7030SOL    HW221990   1.134   0.617   5.011
 7031SOL     OW21991   3.575   5.889   5.661
 7031SOL    HW121992   3.558   5.874   5.564
 7031SOL    HW221993   3.654   5.836   5.690
 7032SOL     OW21994   3.756   1.320   3.672
 7032SOL    HW121995   3.821   1.272   3.612
 7032SOL    HW221996   3.803   1.394   3.719
 7033SOL     OW21997   1.633   2.201   3.510
 7033SOL    HW121998   1.553   2.246   3.471
 7033SOL    HW221999   1.654   2.242   3.599
 7034SOL     OW22000   6.375   0.516   3.784
 7034SOL    HW122001   6.308   0.510   3.858
 7034SOL    HW222002   6.345   0.585   3.718
 7035SOL     OW22003   1.370   6.685   0.769
 7035SOL    HW122004   1.271   6.680   0.786
 7035SOL    HW222005   1.410   6.758   0.824
 7036SOL     OW22006   6.907   0.280   3.020
 7036SOL    HW122007   6.983   0.280   2.955
 7036SOL    HW222008   6.942   0.299   3.112
 7037SOL     OW22009   1.573   1.153   6.381
 7037SOL    HW122010   1.612   1.073   6.428
 7037SOL    HW222011   1.614   1.236   6.418
 7038SOL     OW22012   2.281   3.171   5.403
 7038SOL    HW122013   2.337   3.113   5.343
 7038SOL    HW222014   2.188   3.176   5.367
 7039SOL     OW22015   1.981   5.086   2.128
 7039SOL    HW122016   1.998   5.028   2.048
 7039SOL    HW222017   2.068   5.126   2.158
 7040SOL     OW22018   5.791   2.024   6.006
 7040SOL    HW122019   5.749   2.098   6.059
 7040SOL    HW222020   5.723   1.951   5.992
 7041SOL     OW22021   6.125   0.927   1.693
 7041SOL    HW122022   6.214   0.883   1.705
 7041SOL    HW222023   6.112   0.951   1.597
 7042SOL     OW22024   4.559   4.801   5.151
 7042SOL    HW122025   4.510   4.755   5.077
 7042SOL    HW222026   4.658   4.791   5.137
 7043SOL     OW22027   2.389   4.555   2.862
 7043SOL    HW122028   2.403   4.641   2.911
 7043SOL    HW222029   2.403   4.478   2.924
 7044SOL     OW22030   5.497   4.727   4.338
 7044SOL    HW122031   5.523   4.704   4.432
 7044SOL    HW222032   5.436   4.656   4.302
 7045SOL     OW22033   4.831   5.737   3.273
 7045SOL    HW122034   4.900   5.726   3.202
 7045SOL    HW222035   4.821   5.651   3.323
 7046SOL     OW22036   3.003   1.127   3.189
 7046SOL    HW122037   2.979   1.030   3.177
 7046SOL    HW222038   2.949   1.165   3.264
 7047SOL     OW22039   6.247   1.443   2.458
 7047SOL    HW122040   6.209   1.535   2.447
 7047SOL    HW222041   6.299   1.439   2.544
 7048SOL     OW22042   5.324   7.007   3.317
 7048SOL    HW122043   5.392   6.992   3.245
 7048SOL    HW222044   5.285   6.919   3.344
 7049SOL     OW22045   3.560   1.881   0.439
 7049SOL    HW122046   3.476   1.906   0.488
 7049SOL    HW222047   3.565   1.931   0.353
 7050SOL     OW22048   4.187   3.460   1.708
 7050SOL    HW122049   4.199   3.420   1.799
 7050SOL    HW222050   4.273   3.452   1.657
 7051SOL     OW22051   6.296   6.504   1.035
 7051SOL    HW122052   6.377   6.473   1.084
 7051SOL    HW222053   6.239   6.560   1.095
 7052SOL     OW22054   5.487   1.933   3.261
 7052SOL    HW122055   5.394   1.897   3.253
 7052SOL    HW222056   5.498   2.009   3.197
 7053SOL     OW22057   1.476   3.204   5.220
 7053SOL    HW122058   1.436   3.176   5.308
 7053SOL    HW222059   1.576   3.211   5.230
 7054SOL     OW22060   6.918   0.072   0.451
 7054SOL    HW122061   6.938   0.168   0.434
 7054SOL    HW222062   6.975   0.038   0.526
 7055SOL     OW22063   2.940   6.863   6.131
 7055SOL    HW122064   2.895   6.811   6.203
 7055SOL    HW222065   2.924   6.961   6.146
 7056SOL     OW22066   0.429   4.280   1.647
 7056SOL    HW122067   0.497   4.339   1.690
 7056SOL    HW222068   0.344   4.283   1.699
 7057SOL     OW22069   2.714   4.936   4.439
 7057SOL    HW122070   2.648   4.875   4.394
 7057SOL    HW222071   2.776   4.882   4.495
 7058SOL     OW22072   5.337   4.460   5.370
 7058SOL    HW122073   5.243   4.494   5.368
 7058SOL    HW222074   5.351   4.397   5.294
 7059SOL     OW22075   0.401   1.539   3.734
 7059SOL    HW122076   0.307   1.553   3.764
 7059SOL    HW222077   0.464   1.569   3.806
 7060SOL     OW22078   3.853   0.075   1.512
 7060SOL    HW122079   3.850   0.128   1.597
 7060SOL    HW222080   3.944   0.034   1.502
 7061SOL     OW22081   0.227   3.581   3.974
 7061SOL    HW122082   0.144   3.632   3.998
 7061SOL    HW222083   0.206   3.518   3.899
 7062SOL     OW22084   3.925   1.372   5.289
 7062SOL    HW122085   3.879   1.403   5.205
 7062SOL    HW222086   3.898   1.430   5.365
 7063SOL     OW22087   1.282   6.973   2.363
 7063SOL    HW122088   1.202   6.944   2.312
 7063SOL    HW222089   1.323   0.032   2.318
 7064SOL     OW22090   3.868   1.838   0.145
 7064SOL    HW122091   3.937   1.911   0.147
 7064SOL    HW222092   3.777   1.879   0.145
 7065SOL     OW22093   5.160   3.903   6.045
 7065SOL    HW122094   5.189   3.808   6.052
 7065SOL    HW222095   5.060   3.908   6.055
 7066SOL     OW22096   4.578   0.019   6.902
 7066SOL    HW122097   4.647   0.060   6.962
 7066SOL    HW222098   4.556   0.084   6.829
 7067SOL     OW22099   1.616   2.900   5.753
 7067SOL    HW122100   1.545   2.832   5.732
 7067SOL    HW222101   1.607   2.978   5.691
 7068SOL     OW22102   6.818   4.699   4.793
 7068SOL    HW122103   6.860   4.790   4.801
 7068SOL    HW222104   6.747   4.701   4.723
 7069SOL     OW22105   5.396   2.005   4.323
 7069SOL    HW122106   5.319   2.021   4.262
 7069SOL    HW222107   5.407   2.083   4.385
 7070SOL     OW22108   0.238   6.966   5.017
 7070SOL    HW122109   0.324   6.955   5.068
 7070SOL    HW222110   0.225   0.042   4.996
 7071SOL     OW22111   3.425   5.906   5.374
 7071SOL    HW122112   3.474   5.873   5.293
 7071SOL    HW222113   3.350   5.965   5.346
 7072SOL     OW22114   1.477   6.428   7.001
 7072SOL    HW122115   1.430   6.425   6.913
 7072SOL    HW222116   1.409   6.426   0.054
 7073SOL     OW22117   5.249   6.944   3.850
 7073SOL    HW122118   5.226   6.871   3.785
 7073SOL    HW222119   5.348   6.951   3.858
 7074SOL     OW22120   5.495   2.727   1.963
 7074SOL    HW122121   5.522   2.636   1.934
 7074SOL    HW222122   5.573   2.773   2.007
 7075SOL     OW22123   1.857   4.337   5.229
 7075SOL    HW122124   1.946   4.296   5.208
 7075SOL    HW222125   1.785   4.287   5.180
 7076SOL     OW22126   5.748   2.637   6.628
 7076SOL    HW122127   5.678   2.570   6.653
 7076SOL    HW222128   5.836   2.607   6.664
 7077SOL     OW22129   2.107   4.603   4.002
 7077SOL    HW122130   2.086   4.622   3.906
 7077SOL    HW222131   2.187   4.543   4.007
 7078SOL     OW22132   6.456   6.594   1.952
 7078SOL    HW122133   6.441   6.684   1.912
 7078SOL    HW222134   6.478   6.604   2.049
 7079SOL     OW22135   7.007   6.105   4.369
 7079SOL    HW122136   6.962   6.193   4.372
 7079SOL    HW222137   6.943   6.033   4.398
 7080SOL     OW22138   3.398   0.959   5.137
 7080SOL    HW122139   3.496   0.941   5.122
 7080SOL    HW222140   3.384   1.057   5.150
 7081SOL     OW22141   1.809   6.075   7.002
 7081SOL    HW122142   1.908   6.081   6.987
 7081SOL    HW222143   1.785   5.981   0.003
 7082SOL     OW22144   6.800   4.157   0.043
 7082SOL    HW122145   6.881   4.163   0.102
 7082SOL    HW222146   6.811   4.218   6.986
 7083SOL     OW22147   1.608   6.986   1.458
 7083SOL    HW122148   1.641   6.895   1.433
 7083SOL    HW222149   1.662   0.034   1.410
 7084SOL     OW22150   0.534   5.071   4.963
 7084SOL    HW122151   0.520   4.989   4.908
 7084SOL    HW222152   0.504   5.054   5.057
 7085SOL     OW22153   0.819   1.294   2.351
 7085SOL    HW122154   0.733   1.328   2.314
 7085SOL    HW222155   0.854   1.360   2.419
 7086SOL     OW22156   6.095   0.316   5.976
 7086SOL    HW122157   6.024   0.350   6.038
 7086SOL    HW222158   6.100   0.217   5.981
 7087SOL     OW22159   6.344   3.804   4.214
 7087SOL    HW122160   6.399   3.773   4.292
 7087SOL    HW222161   6.373   3.896   4.188
 7088SOL     OW22162   5.144   2.853   3.988
 7088SOL    HW122163   5.233   2.863   4.033
 7088SOL    HW222164   5.130   2.928   3.924
 7089SOL     OW22165   2.678   2.210   4.463
 7089SOL    HW122166   2.615   2.277   4.422
 7089SOL    HW222167   2.646   2.118   4.443
 7090SOL     OW22168   1.871   0.624   6.865
 7090SOL    HW122169   1.922   0.539   6.857
 7090SOL    HW222170   1.837   0.634   6.958
 7091SOL     OW22171   0.372   2.115   1.038
 7091SOL    HW122172   0.358   2.073   0.949
 7091SOL    HW222173   0.389   2.212   1.027
 7092SOL     OW22174   3.965   3.372   5.869
 7092SOL    HW122175   3.914   3.443   5.917
 7092SOL    HW222176   3.948   3.284   5.913
 7093SOL     OW22177   3.577   3.922   2.103
 7093SOL    HW122178   3.490   3.928   2.053
 7093SOL    HW222179   3.647   3.975   2.055
 7094SOL     OW22180   0.160   5.800   5.606
 7094SOL    HW122181   0.215   5.860   5.548
 7094SOL    HW222182   0.195   5.804   5.700
 7095SOL     OW22183   3.632   4.632   5.608
 7095SOL    HW122184   3.578   4.702   5.657
 7095SOL    HW222185   3.581   4.603   5.527
 7096SOL     OW22186   6.800   1.267   3.195
 7096SOL    HW122187   6.857   1.332   3.145
 7096SOL    HW222188   6.834   1.258   3.289
 7097SOL     OW22189   4.683   1.234   1.686
 7097SOL    HW122190   4.778   1.205   1.685
 7097SOL    HW222191   4.673   1.314   1.745
 7098SOL     OW22192   2.338   5.449   5.819
 7098SOL    HW122193   2.261   5.475   5.878
 7098SOL    HW222194   2.345   5.350   5.816
 7099SOL     OW22195   3.645   1.338   5.473
 7099SOL    HW122196   3.581   1.368   5.403
 7099SOL    HW222197   3.658   1.239   5.467
 7100SOL     OW22198   0.207   3.871   0.159
 7100SOL    HW122199   0.151   3.792   0.133
 7100SOL    HW222200   0.158   3.925   0.227
 7101SOL     OW22201   2.477   1.807   5.524
 7101SOL    HW122202   2.419   1.725   5.524
 7101SOL    HW222203   2.461   1.859   5.440
 7102SOL     OW22204   5.091   6.984   0.868
 7102SOL    HW122205   5.131   6.918   0.805
 7102SOL    HW222206   5.091   0.054   0.826
 7103SOL     OW22207   5.700   4.963   2.197
 7103SOL    HW122208   5.619   4.978   2.140
 7103SOL    HW222209   5.689   5.013   2.284
 7104SOL     OW22210   6.920   3.865   3.243
 7104SOL    HW122211   6.834   3.868   3.295
 7104SOL    HW222212   6.948   3.958   3.220
 7105SOL     OW22213   2.660   3.452   5.359
 7105SOL    HW122214   2.727   3.489   5.294
 7105SOL    HW222215   2.706   3.389   5.421
 7106SOL     OW22216   3.628   3.558   1.896
 7106SOL    HW122217   3.657   3.532   1.988
 7106SOL    HW222218   3.670   3.497   1.829
 7107SOL     OW22219   4.761   1.036   0.578
 7107SOL    HW122220   4.835   0.973   0.552
 7107SOL    HW222221   4.751   1.035   0.677
 7108SOL     OW22222   2.894   6.198   2.696
 7108SOL    HW122223   2.993   6.212   2.694
 7108SOL    HW222224   2.854   6.235   2.612
 7109SOL     OW22225   2.159   6.921   5.875
 7109SOL    HW122226   2.224   6.993   5.895
 7109SOL    HW222227   2.202   6.832   5.891
 7110SOL     OW22228   2.728   5.690   4.589
 7110SOL    HW122229   2.754   5.779   4.551
 7110SOL    HW222230   2.703   5.628   4.514
 7111SOL     OW22231   1.157   2.712   5.165
 7111SOL    HW122232   1.182   2.794   5.114
 7111SOL    HW222233   1.219   2.700   5.243
 7112SOL     OW22234   2.007   4.879   4.784
 7112SOL    HW122235   1.958   4.809   4.835
 7112SOL    HW222236   2.104   4.858   4.783
 7113SOL     OW22237   3.374   4.119   4.478
 7113SOL    HW122238   3.344   4.047   4.540
 7113SOL    HW222239   3.323   4.112   4.392
 7114SOL     OW22240   5.222   5.425   0.636
 7114SOL    HW122241   5.268   5.378   0.712
 7114SOL    HW222242   5.275   5.505   0.610
 7115SOL     OW22243   5.331   2.949   0.095
 7115SOL    HW122244   5.306   3.032   0.045
 7115SOL    HW222245   5.417   2.914   0.060
 7116SOL     OW22246   5.937   4.619   2.922
 7116SOL    HW122247   6.036   4.614   2.910
 7116SOL    HW222248   5.916   4.663   3.010
 7117SOL     OW22249   0.754   6.683   4.691
 7117SOL    HW122250   0.710   6.726   4.612
 7117SOL    HW222251   0.690   6.620   4.735
 7118SOL     OW22252   3.207   4.825   6.544
 7118SOL    HW122253   3.168   4.917   6.539
 7118SOL    HW222254   3.306   4.831   6.531
 7119SOL     OW22255   4.703   1.662   4.081
 7119SOL    HW122256   4.640   1.602   4.031
 7119SOL    HW222257   4.759   1.713   4.016
 7120SOL     OW22258   3.307   2.094   1.890
 7120SOL    HW122259   3.227   2.035   1.902
 7120SOL    HW222260   3.343   2.120   1.980
 7121SOL     OW22261   0.462   6.930   3.792
 7121SOL    HW122262   0.368   6.919   3.762
 7121SOL    HW222263   0.472   7.017   3.841
 7122SOL     OW22264   1.543   0.806   6.118
 7122SOL    HW122265   1.458   0.851   6.146
 7122SOL    HW222266   1.557   0.724   6.174
 7123SOL     OW22267   1.306   4.626   3.369
 7123SOL    HW122268   1.378   4.694   3.361
 7123SOL    HW222269   1.333   4.542   3.321
 7124SOL     OW22270   6.783   1.695   1.368
 7124SOL    HW122271   6.833   1.779   1.392
 7124SOL    HW222272   6.768   1.692   1.269
 7125SOL     OW22273   0.592   0.311   0.759
 7125SOL    HW122274   0.642   0.275   0.837
 7125SOL    HW222275   0.501   0.342   0.788
 7126SOL     OW22276   3.558   5.176   0.080
 7126SOL    HW122277   3.595   5.163   0.171
 7126SOL    HW222278   3.463   5.209   0.087
 7127SOL     OW22279   1.998   5.370   6.401
 7127SOL    HW122280   1.955   5.282   6.420
 7127SOL    HW222281   1.941   5.422   6.338
 7128SOL     OW22282   3.349   4.455   6.781
 7128SOL    HW122283   3.413   4.505   6.722
 7128SOL    HW222284   3.291   4.397   6.724
 7129SOL     OW22285   2.334   1.205   0.420
 7129SOL    HW122286   2.380   1.155   0.347
 7129SOL    HW222287   2.336   1.303   0.400
 7130SOL     OW22288   3.657   5.925   4.301
 7130SOL    HW122289   3.748   5.958   4.328
 7130SOL    HW222290   3.624   5.977   4.223
 7131SOL     OW22291   2.405   0.840   1.486
 7131SOL    HW122292   2.502   0.864   1.485
 7131SOL    HW222293   2.355   0.903   1.545
 7132SOL     OW22294   3.559   3.886   0.711
 7132SOL    HW122295   3.512   3.815   0.658
 7132SOL    HW222296   3.526   3.883   0.806
 7133SOL     OW22297   4.451   5.038   5.258
 7133SOL    HW122298   4.488   5.025   5.351
 7133SOL    HW222299   4.481   4.962   5.200
 7134SOL     OW22300   4.777   7.007   1.344
 7134SOL    HW122301   4.744   7.002   1.438
 7134SOL    HW222302   4.712   6.962   1.283
 7135SOL     OW22303   1.317   2.690   3.262
 7135SOL    HW122304   1.346   2.711   3.356
 7135SOL    HW222305   1.388   2.721   3.198
 7136SOL     OW22306   2.481   1.403   0.282
 7136SOL    HW122307   2.562   1.441   0.237
 7136SOL    HW222308   2.400   1.423   0.227
 7137SOL     OW22309   3.023   0.924   6.877
 7137SOL    HW122310   3.069   0.989   6.938
 7137SOL    HW222311   3.090   0.860   6.839
 7138SOL     OW22312   2.518   2.068   0.380
 7138SOL    HW122313   2.608   2.042   0.345
 7138SOL    HW222314   2.526   2.154   0.430
 7139SOL     OW22315   6.145   4.512   1.713
 7139SOL    HW122316   6.198   4.446   1.766
 7139SOL    HW222317   6.069   4.466   1.669
 7140SOL     OW22318   6.902   4.298   1.829
 7140SOL    HW122319   6.939   4.390   1.827
 7140SOL    HW222320   6.924   4.251   1.744
 7141SOL     OW22321   3.585   6.276   0.538
 7141SOL    HW122322   3.621   6.368   0.554
 7141SOL    HW222323   3.656   6.218   0.498
 7142SOL     OW22324   3.819   6.441   3.257
 7142SOL    HW122325   3.773   6.530   3.258
 7142SOL    HW222326   3.845   6.415   3.350
 7143SOL     OW22327   1.854   2.999   6.616
 7143SOL    HW122328   1.834   3.057   6.537
 7143SOL    HW222329   1.789   2.923   6.620
 7144SOL     OW22330   1.795   2.017   2.864
 7144SOL    HW122331   1.770   1.927   2.900
 7144SOL    HW222332   1.821   2.077   2.940
 7145SOL     OW22333   3.997   0.199   6.607
 7145SOL    HW122334   4.093   0.228   6.599
 7145SOL    HW222335   3.985   0.113   6.559
 7146SOL     OW22336   1.595   6.759   6.340
 7146SOL    HW122337   1.637   6.699   6.271
 7146SOL    HW222338   1.614   6.723   6.431
 7147SOL     OW22339   6.674   6.557   3.292
 7147SOL    HW122340   6.648   6.578   3.386
 7147SOL    HW222341   6.686   6.458   3.282
 7148SOL     OW22342   6.720   6.671   1.140
 7148SOL    HW122343   6.751   6.700   1.231
 7148SOL    HW222344   6.762   6.583   1.117
 7149SOL     OW22345   0.203   6.644   3.672
 7149SOL    HW122346   0.128   6.579   3.683
 7149SOL    HW222347   0.236   6.642   3.578
 7150SOL     OW22348   3.694   2.969   0.623
 7150SOL    HW122349   3.612   2.947   0.571
 7150SOL    HW222350   3.762   2.897   0.608
 7151SOL     OW22351   3.155   6.678   0.913
 7151SOL    HW122352   3.193   6.639   0.829
 7151SOL    HW222353   3.056   6.675   0.910
 7152SOL     OW22354   6.672   0.543   5.174
 7152SOL    HW122355   6.757   0.570   5.128
 7152SOL    HW222356   6.596   0.597   5.138
 7153SOL     OW22357   4.302   5.281   1.385
 7153SOL    HW122358   4.233   5.264   1.315
 7153SOL    HW222359   4.295   5.375   1.417
 7154SOL     OW22360   4.789   6.725   3.149
 7154SOL    HW122361   4.851   6.653   3.183
 7154SOL    HW222362   4.778   6.795   3.220
 7155SOL     OW22363   2.335   2.852   1.030
 7155SOL    HW122364   2.342   2.928   0.966
 7155SOL    HW222365   2.419   2.844   1.083
 7156SOL     OW22366   0.053   3.172   3.320
 7156SOL    HW122367   7.008   3.223   3.264
 7156SOL    HW222368   0.051   3.075   3.293
 7157SOL     OW22369   0.164   3.780   1.177
 7157SOL    HW122370   0.071   3.748   1.196
 7157SOL    HW222371   0.226   3.701   1.175
 7158SOL     OW22372   1.012   0.514   4.639
 7158SOL    HW122373   0.980   0.431   4.593
 7158SOL    HW222374   1.048   0.490   4.729
 7159SOL     OW22375   0.746   4.948   3.686
 7159SOL    HW122376   0.662   4.952   3.739
 7159SOL    HW222377   0.809   5.018   3.717
 7160SOL     OW22378   5.871   0.244   2.620
 7160SOL    HW122379   5.829   0.266   2.532
 7160SOL    HW222380   5.942   0.175   2.606
 7161SOL     OW22381   3.299   3.916   2.966
 7161SOL    HW122382   3.203   3.890   2.974
 7161SOL    HW222383   3.315   3.957   2.876
 7162SOL     OW22384   1.280   5.223   6.221
 7162SOL    HW122385   1.279   5.126   6.198
 7162SOL    HW222386   1.245   5.276   6.143
 7163SOL     OW22387   2.503   6.893   2.444
 7163SOL    HW122388   2.410   6.861   2.462
 7163SOL    HW222389   2.502   6.956   2.366
 7164SOL     OW22390   2.947   0.234   4.567
 7164SOL    HW122391   2.967   0.148   4.614
 7164SOL    HW222392   2.957   0.221   4.468
 7165SOL     OW22393   6.458   6.815   2.407
 7165SOL    HW122394   6.483   6.762   2.326
 7165SOL    HW222395   6.508   6.901   2.406
 7166SOL     OW22396   4.698   1.568   1.251
 7166SOL    HW122397   4.697   1.528   1.342
 7166SOL    HW222398   4.786   1.613   1.235
 7167SOL     OW22399   5.220   3.065   4.526
 7167SOL    HW122400   5.269   2.995   4.576
 7167SOL    HW222401   5.272   3.150   4.528
 7168SOL     OW22402   1.838   2.614   3.049
 7168SOL    HW122403   1.895   2.665   2.984
 7168SOL    HW222404   1.745   2.608   3.013
 7169SOL     OW22405   0.086   3.732   5.761
 7169SOL    HW122406   0.114   3.749   5.667
 7169SOL    HW222407   0.051   3.639   5.770
 7170SOL     OW22408   4.611   6.825   2.495
 7170SOL    HW122409   4.532   6.813   2.556
 7170SOL    HW222410   4.693   6.842   2.549
 7171SOL     OW22411   6.440   4.185   6.755
 7171SOL    HW122412   6.370   4.239   6.709
 7171SOL    HW222413   6.482   4.239   6.828
 7172SOL     OW22414   1.984   0.329   4.916
 7172SOL    HW122415   1.913   0.374   4.862
 7172SOL    HW222416   1.943   0.288   4.998
 7173SOL     OW22417   6.566   4.380   6.915
 7173SOL    HW122418   6.647   4.359   6.970
 7173SOL    HW222419   6.593   4.392   6.819
 7174SOL     OW22420   1.410   3.625   0.531
 7174SOL    HW122421   1.486   3.689   0.546
 7174SOL    HW222422   1.376   3.593   0.619
 7175SOL     OW22423   5.576   2.968   5.252
 7175SOL    HW122424   5.542   2.965   5.158
 7175SOL    HW222425   5.625   3.054   5.266
 7176SOL     OW22426   6.827   1.499   3.533
 7176SOL    HW122427   6.798   1.568   3.467
 7176SOL    HW222428   6.865   1.543   3.614
 7177SOL     OW22429   1.001   4.434   5.065
 7177SOL    HW122430   0.926   4.489   5.102
 7177SOL    HW222431   0.973   4.391   4.980
 7178SOL     OW22432   6.631   1.337   5.612
 7178SOL    HW122433   6.640   1.315   5.515
 7178SOL    HW222434   6.660   1.432   5.627
 7179SOL     OW22435   2.065   3.400   4.181
 7179SOL    HW122436   2.093   3.485   4.136
 7179SOL    HW222437   2.006   3.347   4.119
 7180SOL     OW22438   2.184   5.198   6.996
 7180SOL    HW122439   2.215   5.286   6.962
 7180SOL    HW222440   2.263   5.140   7.017
 7181SOL     OW22441   1.793   0.491   0.306
 7181SOL    HW122442   1.787   0.414   0.370
 7181SOL    HW222443   1.716   0.486   0.242
 7182SOL     OW22444   0.226   3.518   4.239
 7182SOL    HW122445   0.134   3.523   4.277
 7182SOL    HW222446   0.224   3.544   4.142
 7183SOL     OW22447   1.411   5.457   1.080
 7183SOL    HW122448   1.509   5.458   1.064
 7183SOL    HW222449   1.393   5.481   1.176
 7184SOL     OW22450   6.485   0.869   4.016
 7184SOL    HW122451   6.400   0.916   3.992
 7184SOL    HW222452   6.556   0.893   3.950
 7185SOL     OW22453   5.945   1.221   4.925
 7185SOL    HW122454   5.859   1.236   4.876
 7185SOL    HW222455   6.006   1.299   4.907
 7186SOL     OW22456   6.505   1.714   1.803
 7186SOL    HW122457   6.440   1.660   1.856
 7186SOL    HW222458   6.461   1.799   1.773
 7187SOL     OW22459   2.936   4.081   5.320
 7187SOL    HW122460   2.856   4.122   5.364
 7187SOL    HW222461   2.908   4.030   5.238
 7188SOL     OW22462   4.934   6.623   0.013
 7188SOL    HW122463   4.884   6.616   6.948
 7188SOL    HW222464   5.019   6.674   7.019
 7189SOL     OW22465   6.101   1.583   5.240
 7189SOL    HW122466   6.063   1.512   5.299
 7189SOL    HW222467   6.061   1.575   5.149
 7190SOL     OW22468   6.756   5.195   1.734
 7190SOL    HW122469   6.726   5.107   1.773
 7190SOL    HW222470   6.840   5.225   1.780
 7191SOL     OW22471   1.369   4.667   2.639
 7191SOL    HW122472   1.379   4.764   2.660
 7191SOL    HW222473   1.373   4.613   2.723
 7192SOL     OW22474   2.260   4.188   5.792
 7192SOL    HW122475   2.339   4.163   5.848
 7192SOL    HW222476   2.271   4.151   5.699
 7193SOL     OW22477   1.513   2.560   2.091
 7193SOL    HW122478   1.460   2.631   2.138
 7193SOL    HW222479   1.471   2.541   2.002
 7194SOL     OW22480   1.944   2.353   0.825
 7194SOL    HW122481   2.043   2.341   0.816
 7194SOL    HW222482   1.919   2.352   0.922
 7195SOL     OW22483   0.820   4.150   6.997
 7195SOL    HW122484   0.788   4.125   6.906
 7195SOL    HW222485   0.919   4.134   7.002
 7196SOL     OW22486   2.423   3.612   1.617
 7196SOL    HW122487   2.436   3.540   1.549
 7196SOL    HW222488   2.424   3.572   1.709
 7197SOL     OW22489   0.665   2.585   5.623
 7197SOL    HW122490   0.657   2.625   5.532
 7197SOL    HW222491   0.735   2.514   5.622
 7198SOL     OW22492   0.639   0.606   0.411
 7198SOL    HW122493   0.716   0.657   0.372
 7198SOL    HW222494   0.673   0.533   0.470
 7199SOL     OW22495   1.421   0.073   2.074
 7199SOL    HW122496   1.353   0.049   2.004
 7199SOL    HW222497   1.386   0.148   2.129
 7200SOL     OW22498   2.263   2.779   6.932
 7200SOL    HW122499   2.191   2.795   6.865
 7200SOL    HW222500   2.289   2.682   6.931
 7201SOL     OW22501   1.034   6.244   4.162
 7201SOL    HW122502   1.068   6.306   4.233
 7201SOL    HW222503   0.936   6.259   4.149
 7202SOL     OW22504   5.441   6.679   0.182
 7202SOL    HW122505   5.378   6.754   0.164
 7202SOL    HW222506   5.514   6.680   0.112
 7203SOL     OW22507   0.049   1.216   0.687
 7203SOL    HW122508   0.128   1.173   0.644
 7203SOL    HW222509   0.071   1.311   0.709
 7204SOL     OW22510   0.148   0.525   5.960
 7204SOL    HW122511   0.135   0.430   5.930
 7204SOL    HW222512   0.062   0.559   5.999
 7205SOL     OW22513   1.850   3.943   4.558
 7205SOL    HW122514   1.882   4.026   4.604
 7205SOL    HW222515   1.833   3.871   4.626
 7206SOL     OW22516   1.291   0.222   2.252
 7206SOL    HW122517   1.319   0.293   2.317
 7206SOL    HW222518   1.207   0.252   2.205
 7207SOL     OW22519   3.013   0.475   3.391
 7207SOL    HW122520   3.023   0.575   3.394
 7207SOL    HW222521   3.102   0.432   3.410
 7208SOL     OW22522   4.004   6.977   3.507
 7208SOL    HW122523   4.082   6.920   3.534
 7208SOL    HW222524   4.033   0.052   3.503
 7209SOL     OW22525   2.660   3.081   1.679
 7209SOL    HW122526   2.749   3.098   1.720
 7209SOL    HW222527   2.608   3.167   1.675
 7210SOL     OW22528   4.230   0.966   3.055
 7210SOL    HW122529   4.291   1.041   3.029
 7210SOL    HW222530   4.138   0.985   3.022
 7211SOL     OW22531   1.848   7.018   4.723
 7211SOL    HW122532   1.780   0.058   4.683
 7211SOL    HW222533   1.912   6.989   4.652
 7212SOL     OW22534   0.247   6.318   4.919
 7212SOL    HW122535   0.233   6.228   4.961
 7212SOL    HW222536   0.211   6.317   4.826
 7213SOL     OW22537   3.891   6.101   6.565
 7213SOL    HW122538   3.900   6.058   6.475
 7213SOL    HW222539   3.860   6.033   6.632
 7214SOL     OW22540   0.095   0.219   4.554
 7214SOL    HW122541   0.152   0.206   4.473
 7214SOL    HW222542   0.004   0.182   4.538
 7215SOL     OW22543   0.174   3.466   3.724
 7215SOL    HW122544   0.119   3.385   3.738
 7215SOL    HW222545   0.243   3.448   3.654
 7216SOL     OW22546   2.985   0.367   0.383
 7216SOL    HW122547   3.042   0.379   0.301
 7216SOL    HW222548   3.044   0.361   0.463
 7217SOL     OW22549   2.128   3.847   3.547
 7217SOL    HW122550   2.158   3.835   3.452
 7217SOL    HW222551   2.050   3.909   3.550
 7218SOL     OW22552   6.455   2.553   4.535
 7218SOL    HW122553   6.377   2.555   4.471
 7218SOL    HW222554   6.466   2.461   4.571
 7219SOL     OW22555   4.120   0.081   2.984
 7219SOL    HW122556   4.092   0.133   3.065
 7219SOL    HW222557   4.117   0.141   2.904
 7220SOL     OW22558   0.505   4.065   4.785
 7220SOL    HW122559   0.551   4.025   4.705
 7220SOL    HW222560   0.416   4.022   4.797
 7221SOL     OW22561   3.208   5.834   4.302
 7221SOL    HW122562   3.245   5.788   4.221
 7221SOL    HW222563   3.108   5.837   4.296
 7222SOL     OW22564   6.193   6.677   3.257
 7222SOL    HW122565   6.257   6.697   3.183
 7222SOL    HW222566   6.127   6.751   3.265
 7223SOL     OW22567   3.427   1.458   0.901
 7223SOL    HW122568   3.449   1.364   0.876
 7223SOL    HW222569   3.403   1.462   0.998
 7224SOL     OW22570   5.108   1.904   4.164
 7224SOL    HW122571   5.150   1.818   4.134
 7224SOL    HW222572   5.041   1.885   4.235
 7225SOL     OW22573   1.288   6.107   0.727
 7225SOL    HW122574   1.376   6.151   0.746
 7225SOL    HW222575   1.296   6.008   0.740
 7226SOL     OW22576   6.181   0.719   1.994
 7226SOL    HW122577   6.120   0.798   1.988
 7226SOL    HW222578   6.197   0.698   2.090
 7227SOL     OW22579   2.947   2.060   0.863
 7227SOL    HW122580   3.042   2.054   0.892
 7227SOL    HW222581   2.903   2.139   0.908
 7228SOL     OW22582   1.056   2.381   2.700
 7228SOL    HW122583   1.113   2.420   2.628
 7228SOL    HW222584   1.093   2.405   2.789
 7229SOL     OW22585   1.076   5.987   5.393
 7229SOL    HW122586   1.103   6.081   5.412
 7229SOL    HW222587   0.979   5.975   5.414
 7230SOL     OW22588   3.083   5.187   5.366
 7230SOL    HW122589   3.113   5.273   5.407
 7230SOL    HW222590   3.100   5.190   5.267
 7231SOL     OW22591   4.264   0.761   6.490
 7231SOL    HW122592   4.292   0.694   6.559
 7231SOL    HW222593   4.204   0.829   6.532
 7232SOL     OW22594   4.974   6.035   3.080
 7232SOL    HW122595   4.965   6.086   3.165
 7232SOL    HW222596   4.986   5.938   3.102
 7233SOL     OW22597   1.032   1.566   3.545
 7233SOL    HW122598   1.037   1.467   3.535
 7233SOL    HW222599   0.945   1.591   3.588
 7234SOL     OW22600   5.380   2.542   3.843
 7234SOL    HW122601   5.291   2.530   3.887
 7234SOL    HW222602   5.418   2.452   3.819
 7235SOL     OW22603   6.936   4.868   2.843
 7235SOL    HW122604   6.941   4.789   2.782
 7235SOL    HW222605   6.854   4.921   2.821
 7236SOL     OW22606   2.782   1.921   1.873
 7236SOL    HW122607   2.737   2.005   1.902
 7236SOL    HW222608   2.845   1.891   1.944
 7237SOL     OW22609   4.091   6.968   4.832
 7237SOL    HW122610   4.154   0.023   4.811
 7237SOL    HW222611   4.128   6.914   4.908
 7238SOL     OW22612   4.150   1.511   6.901
 7238SOL    HW122613   4.096   1.544   6.979
 7238SOL    HW222614   4.106   1.541   6.816
 7239SOL     OW22615   1.125   2.095   2.284
 7239SOL    HW122616   1.199   2.149   2.244
 7239SOL    HW222617   1.149   2.067   2.377
 7240SOL     OW22618   1.278   0.622   6.278
 7240SOL    HW122619   1.243   0.554   6.213
 7240SOL    HW222620   1.369   0.594   6.309
 7241SOL     OW22621   1.647   0.742   0.881
 7241SOL    HW122622   1.607   0.786   0.800
 7241SOL    HW222623   1.731   0.695   0.855
 7242SOL     OW22624   0.032   5.899   0.029
 7242SOL    HW122625   6.968   5.883   0.080
 7242SOL    HW222626   0.013   5.960   6.973
 7243SOL     OW22627   6.210   4.574   6.272
 7243SOL    HW122628   6.251   4.483   6.276
 7243SOL    HW222629   6.144   4.578   6.197
 7244SOL     OW22630   6.738   0.908   1.841
 7244SOL    HW122631   6.742   0.992   1.895
 7244SOL    HW222632   6.721   0.831   1.902
 7245SOL     OW22633   1.408   2.826   5.508
 7245SOL    HW122634   1.404   2.743   5.452
 7245SOL    HW222635   1.485   2.883   5.478
 7246SOL     OW22636   0.550   0.094   3.971
 7246SOL    HW122637   0.622   0.048   4.022
 7246SOL    HW222638   0.502   0.158   4.030
 7247SOL     OW22639   2.479   1.092   4.068
 7247SOL    HW122640   2.430   1.037   4.001
 7247SOL    HW222641   2.536   1.159   4.021
 7248SOL     OW22642   2.501   1.410   2.871
 7248SOL    HW122643   2.513   1.459   2.785
 7248SOL    HW222644   2.587   1.367   2.898
 7249SOL     OW22645   6.834   5.189   2.443
 7249SOL    HW122646   6.818   5.276   2.398
 7249SOL    HW222647   6.844   5.117   2.375
 7250SOL     OW22648   5.302   7.006   6.391
 7250SOL    HW122649   5.229   0.016   6.453
 7250SOL    HW222650   5.379   6.973   6.445
 7251SOL     OW22651   0.764   6.491   5.544
 7251SOL    HW122652   0.698   6.497   5.468
 7251SOL    HW222653   0.821   6.410   5.532
 7252SOL     OW22654   4.030   3.151   2.134
 7252SOL    HW122655   3.989   3.233   2.093
 7252SOL    HW222656   3.981   3.070   2.102
 7253SOL     OW22657   1.274   6.057   6.572
 7253SOL    HW122658   1.298   5.997   6.495
 7253SOL    HW222659   1.354   6.071   6.629
 7254SOL     OW22660   4.720   4.965   4.002
 7254SOL    HW122661   4.800   5.001   4.049
 7254SOL    HW222662   4.729   4.982   3.903
 7255SOL     OW22663   3.091   4.056   1.186
 7255SOL    HW122664   3.063   3.967   1.221
 7255SOL    HW222665   3.190   4.056   1.169
 7256SOL     OW22666   2.942   5.685   4.736
 7256SOL    HW122667   2.851   5.694   4.695
 7256SOL    HW222668   2.933   5.644   4.827
 7257SOL     OW22669   5.798   2.265   3.313
 7257SOL    HW122670   5.834   2.189   3.368
 7257SOL    HW222671   5.701   2.278   3.334
 7258SOL     OW22672   4.831   1.444   3.157
 7258SOL    HW122673   4.811   1.402   3.245
 7258SOL    HW222674   4.907   1.396   3.113
 7259SOL     OW22675   2.035   3.908   0.678
 7259SOL    HW122676   2.090   3.992   0.681
 7259SOL    HW222677   1.939   3.932   0.687
 7260SOL     OW22678   4.138   2.018   1.397
 7260SOL    HW122679   4.166   2.041   1.303
 7260SOL    HW222680   4.067   1.948   1.394
 7261SOL     OW22681   1.450   2.501   1.345
 7261SOL    HW122682   1.498   2.440   1.283
 7261SOL    HW222683   1.462   2.469   1.439
 7262SOL     OW22684   5.160   2.247   6.249
 7262SOL    HW122685   5.138   2.186   6.326
 7262SOL    HW222686   5.258   2.267   6.250
 7263SOL     OW22687   0.985   0.740   0.097
 7263SOL    HW122688   0.966   0.761   0.001
 7263SOL    HW222689   1.083   0.741   0.112
 7264SOL     OW22690   5.480   2.107   6.823
 7264SOL    HW122691   5.394   2.090   6.775
 7264SOL    HW222692   5.551   2.134   6.757
 7265SOL     OW22693   5.997   5.642   5.523
 7265SOL    HW122694   6.030   5.568   5.465
 7265SOL    HW222695   5.912   5.679   5.487
 7266SOL     OW22696   5.460   6.041   1.660
 7266SOL    HW122697   5.543   6.012   1.707
 7266SOL    HW222698   5.396   6.081   1.727
 7267SOL     OW22699   6.460   6.492   5.131
 7267SOL    HW122700   6.553   6.467   5.158
 7267SOL    HW222701   6.418   6.417   5.080
 7268SOL     OW22702   6.084   5.181   3.208
 7268SOL    HW122703   6.164   5.191   3.267
 7268SOL    HW222704   6.089   5.247   3.133
 7269SOL     OW22705   6.980   6.692   6.751
 7269SOL    HW122706   6.957   6.776   6.800
 7269SOL    HW222707   7.004   6.714   6.657
 7270SOL     OW22708   1.631   3.689   5.485
 7270SOL    HW122709   1.556   3.636   5.446
 7270SOL    HW222710   1.594   3.766   5.538
 7271SOL     OW22711   0.681   6.150   3.384
 7271SOL    HW122712   0.699   6.057   3.417
 7271SOL    HW222713   0.708   6.158   3.288
 7272SOL     OW22714   5.840   5.779   2.138
 7272SOL    HW122715   5.745   5.751   2.122
 7272SOL    HW222716   5.851   5.875   2.111
 7273SOL     OW22717   6.067   4.670   2.090
 7273SOL    HW122718   6.013   4.645   2.010
 7273SOL    HW222719   6.008   4.708   2.160
 7274SOL     OW22720   0.757   5.615   6.877
 7274SOL    HW122721   0.703   5.613   6.793
 7274SOL    HW222722   0.845   5.660   6.859
 7275SOL     OW22723   6.966   6.494   2.427
 7275SOL    HW122724   7.012   6.512   2.514
 7275SOL    HW222725   6.868   6.509   2.437
 7276SOL     OW22726   3.747   0.938   2.846
 7276SOL    HW122727   3.751   0.850   2.893
 7276SOL    HW222728   3.651   0.962   2.830
 7277SOL     OW22729   4.130   0.551   3.582
 7277SOL    HW122730   4.115   0.467   3.530
 7277SOL    HW222731   4.080   0.626   3.539
 7278SOL     OW22732   3.169   2.811   1.334
 7278SOL    HW122733   3.187   2.750   1.412
 7278SOL    HW222734   3.256   2.849   1.301
 7279SOL     OW22735   3.964   4.029   5.880
 7279SOL    HW122736   3.984   3.975   5.961
 7279SOL    HW222737   3.900   3.980   5.821
 7280SOL     OW22738   0.167   1.511   3.511
 7280SOL    HW122739   0.121   1.472   3.431
 7280SOL    HW222740   0.136   1.605   3.525
 7281SOL     OW22741   1.994   1.034   0.789
 7281SOL    HW122742   2.088   1.027   0.821
 7281SOL    HW222743   1.982   0.979   0.706
 7282SOL     OW22744   6.481   6.179   1.403
 7282SOL    HW122745   6.444   6.203   1.493
 7282SOL    HW222746   6.574   6.142   1.414
 7283SOL     OW22747   4.862   0.417   2.360
 7283SOL    HW122748   4.881   0.515   2.365
 7283SOL    HW222749   4.778   0.397   2.411
 7284SOL     OW22750   6.964   2.195   5.738
 7284SOL    HW122751   6.991   2.292   5.733
 7284SOL    HW222752   6.871   2.184   5.705
 7285SOL     OW22753   5.458   3.007   2.219
 7285SOL    HW122754   5.364   3.010   2.252
 7285SOL    HW222755   5.459   2.993   2.120
 7286SOL     OW22756   1.386   1.191   0.857
 7286SOL    HW122757   1.481   1.222   0.853
 7286SOL    HW222758   1.344   1.221   0.943
 7287SOL     OW22759   0.377   2.393   5.524
 7287SOL    HW122760   0.413   2.448   5.599
 7287SOL    HW222761   0.449   2.331   5.491
 7288SOL     OW22762   1.705   1.849   1.817
 7288SOL    HW122763   1.668   1.799   1.895
 7288SOL    HW222764   1.743   1.936   1.848
 7289SOL     OW22765   5.657   1.855   3.458
 7289SOL    HW122766   5.612   1.901   3.381
 7289SOL    HW222767   5.612   1.880   3.543
 7290SOL     OW22768   3.018   1.912   5.742
 7290SOL    HW122769   2.929   1.921   5.698
 7290SOL    HW222770   3.048   1.817   5.737
 7291SOL     OW22771   1.113   0.116   0.229
 7291SOL    HW122772   1.211   0.095   0.237
 7291SOL    HW222773   1.083   0.101   0.135
 7292SOL     OW22774   3.295   6.820   3.269
 7292SOL    HW122775   3.247   6.743   3.227
 7292SOL    HW222776   3.230   6.893   3.289
 7293SOL     OW22777   1.434   1.406   4.667
 7293SOL    HW122778   1.385   1.476   4.615
 7293SOL    HW222779   1.442   1.434   4.763
 7294SOL     OW22780   2.774   4.240   0.255
 7294SOL    HW122781   2.798   4.222   0.160
 7294SOL    HW222782   2.755   4.338   0.267
 7295SOL     OW22783   6.384   4.117   0.929
 7295SOL    HW122784   6.438   4.078   1.004
 7295SOL    HW222785   6.429   4.200   0.895
 7296SOL     OW22786   2.715   6.024   1.539
 7296SOL    HW122787   2.649   6.039   1.613
 7296SOL    HW222788   2.807   6.043   1.572
 7297SOL     OW22789   3.731   6.783   1.493
 7297SOL    HW122790   3.767   6.876   1.481
 7297SOL    HW222791   3.746   6.731   1.409
 7298SOL     OW22792   5.053   5.395   6.051
 7298SOL    HW122793   4.959   5.402   6.016
 7298SOL    HW222794   5.051   5.383   6.150
 7299SOL     OW22795   0.742   2.113   1.345
 7299SOL    HW122796   0.765   2.096   1.441
 7299SOL    HW222797   0.731   2.211   1.331
 7300SOL     OW22798   0.121   6.871   2.292
 7300SOL    HW122799   0.187   6.892   2.364
 7300SOL    HW222800   0.041   6.930   2.302
 7301SOL     OW22801   6.341   2.123   4.812
 7301SOL    HW122802   6.374   2.101   4.720
 7301SOL    HW222803   6.360   2.045   4.872
 7302SOL     OW22804   0.263   2.797   5.654
 7302SOL    HW122805   0.295   2.823   5.562
 7302SOL    HW222806   0.300   2.707   5.677
 7303SOL     OW22807   3.858   1.156   6.790
 7303SOL    HW122808   3.950   1.166   6.828
 7303SOL    HW222809   3.832   1.240   6.743
 7304SOL     OW22810   2.950   5.332   1.357
 7304SOL    HW122811   2.987   5.317   1.449
 7304SOL    HW222812   2.853   5.306   1.356
 7305SOL     OW22813   4.983   1.960   1.344
 7305SOL    HW122814   5.073   1.997   1.366
 7305SOL    HW222815   4.916   1.994   1.411
 7306SOL     OW22816   3.971   1.545   1.475
 7306SOL    HW122817   3.942   1.622   1.532
 7306SOL    HW222818   4.058   1.568   1.431
 7307SOL     OW22819   2.650   6.411   2.442
 7307SOL    HW122820   2.749   6.403   2.447
 7307SOL    HW222821   2.611   6.322   2.416
 7308SOL     OW22822   6.793   2.409   4.928
 7308SOL    HW122823   6.701   2.414   4.967
 7308SOL    HW222824   6.844   2.336   4.974
 7309SOL     OW22825   3.629   5.182   0.782
 7309SOL    HW122826   3.564   5.169   0.857
 7309SOL    HW222827   3.582   5.223   0.703
 7310SOL     OW22828   2.194   3.984   6.942
 7310SOL    HW122829   2.224   4.021   0.009
 7310SOL    HW222830   2.178   4.060   6.878
 7311SOL     OW22831   1.985   1.849   1.133
 7311SOL    HW122832   2.002   1.913   1.208
 7311SOL    HW222833   2.072   1.815   1.098
 7312SOL     OW22834   0.621   3.089   4.684
 7312SOL    HW122835   0.714   3.096   4.722
 7312SOL    HW222836   0.605   2.996   4.653
 7313SOL     OW22837   2.202   0.861   1.154
 7313SOL    HW122838   2.125   0.849   1.092
 7313SOL    HW222839   2.184   0.813   1.240
 7314SOL     OW22840   0.052   4.988   6.443
 7314SOL    HW122841   0.105   4.905   6.461
 7314SOL    HW222842   7.015   5.009   6.522
 7315SOL     OW22843   5.640   5.571   1.741
 7315SOL    HW122844   5.695   5.556   1.824
 7315SOL    HW222845   5.697   5.553   1.660
 7316SOL     OW22846   3.571   3.367   6.658
 7316SOL    HW122847   3.650   3.411   6.702
 7316SOL    HW222848   3.526   3.306   6.724
 7317SOL     OW22849   4.521   1.797   1.575
 7317SOL    HW122850   4.465   1.879   1.582
 7317SOL    HW222851   4.466   1.717   1.596
 7318SOL     OW22852   2.863   0.143   2.020
 7318SOL    HW122853   2.931   0.071   2.035
 7318SOL    HW222854   2.809   0.155   2.103
 7319SOL     OW22855   6.953   3.827   6.895
 7319SOL    HW122856   6.945   3.776   6.809
 7319SOL    HW222857   6.866   3.870   6.917
 7320SOL     OW22858   1.179   3.490   2.288
 7320SOL    HW122859   1.130   3.542   2.217
 7320SOL    HW222860   1.266   3.458   2.252
 7321SOL     OW22861   1.306   6.275   5.974
 7321SOL    HW122862   1.270   6.296   6.065
 7321SOL    HW222863   1.321   6.360   5.924
 7322SOL     OW22864   6.635   2.786   2.861
 7322SOL    HW122865   6.658   2.855   2.793
 7322SOL    HW222866   6.570   2.824   2.927
 7323SOL     OW22867   1.928   2.676   1.520
 7323SOL    HW122868   1.893   2.740   1.589
 7323SOL    HW222869   1.888   2.698   1.431
 7324SOL     OW22870   5.756   5.986   1.108
 7324SOL    HW122871   5.802   6.023   1.028
 7324SOL    HW222872   5.671   5.942   1.080
 7325SOL     OW22873   2.403   0.315   6.215
 7325SOL    HW122874   2.397   0.246   6.286
 7325SOL    HW222875   2.468   0.386   6.243
 7326SOL     OW22876   2.711   6.497   6.560
 7326SOL    HW122877   2.632   6.519   6.503
 7326SOL    HW222878   2.737   6.402   6.545
 7327SOL     OW22879   6.388   2.385   5.743
 7327SOL    HW122880   6.458   2.397   5.814
 7327SOL    HW222881   6.408   2.303   5.690
 7328SOL     OW22882   4.274   0.022   6.703
 7328SOL    HW122883   4.292   0.101   6.643
 7328SOL    HW222884   4.295   6.958   6.654
 7329SOL     OW22885   1.252   3.956   0.701
 7329SOL    HW122886   1.254   3.859   0.725
 7329SOL    HW222887   1.162   3.994   0.722
 7330SOL     OW22888   1.647   2.798   6.939
 7330SOL    HW122889   1.648   2.767   0.013
 7330SOL    HW222890   1.723   2.756   6.889
 7331SOL     OW22891   5.784   6.629   1.293
 7331SOL    HW122892   5.753   6.534   1.290
 7331SOL    HW222893   5.770   6.671   1.203
 7332SOL     OW22894   3.338   5.821   6.935
 7332SOL    HW122895   3.323   5.878   7.016
 7332SOL    HW222896   3.257   5.765   6.918
 7333SOL     OW22897   6.564   3.306   3.419
 7333SOL    HW122898   6.647   3.264   3.456
 7333SOL    HW222899   6.516   3.241   3.360
 7334SOL     OW22900   1.940   6.031   6.385
 7334SOL    HW122901   2.015   6.050   6.322
 7334SOL    HW222902   1.928   5.933   6.395
 7335SOL     OW22903   0.525   2.535   3.412
 7335SOL    HW122904   0.523   2.551   3.313
 7335SOL    HW222905   0.620   2.534   3.443
 7336SOL     OW22906   1.780   6.772   2.605
 7336SOL    HW122907   1.813   6.745   2.695
 7336SOL    HW222908   1.685   6.746   2.594
 7337SOL     OW22909   1.215   2.660   1.406
 7337SOL    HW122910   1.211   2.740   1.347
 7337SOL    HW222911   1.296   2.605   1.383
 7338SOL     OW22912   4.688   1.530   1.843
 7338SOL    HW122913   4.670   1.618   1.887
 7338SOL    HW222914   4.736   1.545   1.757
 7339SOL     OW22915   5.818   0.950   4.886
 7339SOL    HW122916   5.886   0.896   4.836
 7339SOL    HW222917   5.854   1.043   4.900
 7340SOL     OW22918   3.002   1.419   0.470
 7340SOL    HW122919   2.987   1.483   0.394
 7340SOL    HW222920   2.954   1.333   0.451
 7341SOL     OW22921   0.528   4.420   5.507
 7341SOL    HW122922   0.569   4.329   5.507
 7341SOL    HW222923   0.498   4.444   5.599
 7342SOL     OW22924   0.563   0.269   6.663
 7342SOL    HW122925   0.519   0.193   6.617
 7342SOL    HW222926   0.524   0.281   6.754
 7343SOL     OW22927   5.837   4.421   1.723
 7343SOL    HW122928   5.848   4.509   1.770
 7343SOL    HW222929   5.849   4.347   1.789
 7344SOL     OW22930   0.692   1.188   5.951
 7344SOL    HW122931   0.757   1.246   6.000
 7344SOL    HW222932   0.739   1.107   5.916
 7345SOL     OW22933   4.757   5.497   5.127
 7345SOL    HW122934   4.686   5.568   5.120
 7345SOL    HW222935   4.753   5.455   5.218
 7346SOL     OW22936   4.674   4.836   1.283
 7346SOL    HW122937   4.669   4.900   1.359
 7346SOL    HW222938   4.587   4.837   1.233
 7347SOL     OW22939   0.268   2.638   0.883
 7347SOL    HW122940   0.172   2.651   0.860
 7347SOL    HW222941   0.289   2.540   0.887
 7348SOL     OW22942   1.268   3.762   3.827
 7348SOL    HW122943   1.356   3.762   3.876
 7348SOL    HW222944   1.275   3.701   3.748
 7349SOL     OW22945   4.936   2.054   1.110
 7349SOL    HW122946   4.961   2.149   1.091
 7349SOL    HW222947   4.951   2.034   1.206
 7350SOL     OW22948   1.524   3.176   5.643
 7350SOL    HW122949   1.492   3.270   5.632
 7350SOL    HW222950   1.623   3.173   5.629
 7351SOL     OW22951   5.178   6.813   4.990
 7351SOL    HW122952   5.264   6.859   4.969
 7351SOL    HW222953   5.115   6.877   5.033
 7352SOL     OW22954   1.900   2.669   3.315
 7352SOL    HW122955   1.873   2.667   3.219
 7352SOL    HW222956   1.870   2.584   3.360
 7353SOL     OW22957   0.827   0.761   6.032
 7353SOL    HW122958   0.927   0.767   6.034
 7353SOL    HW222959   0.800   0.666   6.017
 7354SOL     OW22960   0.014   1.498   5.815
 7354SOL    HW122961   0.033   1.411   5.860
 7354SOL    HW222962   0.082   1.566   5.842
 7355SOL     OW22963   2.262   0.967   0.741
 7355SOL    HW122964   2.234   0.984   0.647
 7355SOL    HW222965   2.344   1.022   0.762
 7356SOL     OW22966   3.815   3.548   6.038
 7356SOL    HW122967   3.746   3.590   5.979
 7356SOL    HW222968   3.771   3.495   6.110
 7357SOL     OW22969   4.683   6.558   1.545
 7357SOL    HW122970   4.659   6.544   1.449
 7357SOL    HW222971   4.611   6.611   1.590
 7358SOL     OW22972   6.158   3.570   3.071
 7358SOL    HW122973   6.225   3.554   3.144
 7358SOL    HW222974   6.189   3.646   3.014
 7359SOL     OW22975   2.196   1.979   6.180
 7359SOL    HW122976   2.208   1.984   6.081
 7359SOL    HW222977   2.284   1.962   6.224
 7360SOL     OW22978   3.102   3.710   5.126
 7360SOL    HW122979   3.132   3.746   5.213
 7360SOL    HW222980   3.179   3.709   5.062
 7361SOL     OW22981   4.513   6.977   1.659
 7361SOL    HW122982   4.419   6.976   1.693
 7361SOL    HW222983   4.546   6.884   1.650
 7362SOL     OW22984   1.299   4.941   4.934
 7362SOL    HW122985   1.399   4.942   4.946
 7362SOL    HW222986   1.258   4.892   5.011
 7363SOL     OW22987   4.488   2.041   1.410
 7363SOL    HW122988   4.435   2.045   1.325
 7363SOL    HW222989   4.428   2.064   1.488
 7364SOL     OW22990   4.507   0.747   1.434
 7364SOL    HW122991   4.415   0.787   1.437
 7364SOL    HW222992   4.503   0.657   1.391
 7365SOL     OW22993   1.212   5.824   1.608
 7365SOL    HW122994   1.195   5.819   1.706
 7365SOL    HW222995   1.268   5.747   1.579
 7366SOL     OW22996   2.178   5.293   6.628
 7366SOL    HW122997   2.116   5.310   6.551
 7366SOL    HW222998   2.273   5.303   6.597
 7367SOL     OW22999   5.168   2.839   0.960
 7367SOL    HW123000   5.113   2.772   1.009
 7367SOL    HW223001   5.162   2.823   0.862
 7368SOL     OW23002   3.705   2.987   2.699
 7368SOL    HW123003   3.667   2.925   2.630
 7368SOL    HW223004   3.667   2.963   2.789
 7369SOL     OW23005   3.842   2.875   6.716
 7369SOL    HW123006   3.758   2.900   6.763
 7369SOL    HW223007   3.858   2.777   6.725
 7370SOL     OW23008   2.154   0.684   4.320
 7370SOL    HW123009   2.120   0.625   4.246
 7370SOL    HW223010   2.245   0.717   4.297
 7371SOL     OW23011   1.739   6.376   4.069
 7371SOL    HW123012   1.707   6.306   4.132
 7371SOL    HW223013   1.797   6.335   3.999
 7372SOL     OW23014   4.433   1.194   5.048
 7372SOL    HW123015   4.519   1.235   5.078
 7372SOL    HW223016   4.449   1.099   5.021
 7373SOL     OW23017   5.972   2.357   4.012
 7373SOL    HW123018   6.036   2.299   3.962
 7373SOL    HW223019   6.013   2.447   4.027
 7374SOL     OW23020   2.405   1.555   5.786
 7374SOL    HW123021   2.417   1.574   5.688
 7374SOL    HW223022   2.439   1.632   5.839
 7375SOL     OW23023   2.164   3.246   3.138
 7375SOL    HW123024   2.066   3.249   3.119
 7375SOL    HW223025   2.189   3.152   3.163
 7376SOL     OW23026   2.864   1.394   0.768
 7376SOL    HW123027   2.817   1.435   0.690
 7376SOL    HW223028   2.854   1.295   0.764
 7377SOL     OW23029   5.542   4.379   0.470
 7377SOL    HW123030   5.535   4.397   0.372
 7377SOL    HW223031   5.527   4.464   0.521
 7378SOL     OW23032   6.805   1.159   5.976
 7378SOL    HW123033   6.845   1.191   5.890
 7378SOL    HW223034   6.850   1.206   6.053
 7379SOL     OW23035   3.527   1.499   3.105
 7379SOL    HW123036   3.473   1.583   3.105
 7379SOL    HW223037   3.494   1.439   3.178
 7380SOL     OW23038   6.988   4.530   4.929
 7380SOL    HW123039   6.920   4.565   4.864
 7380SOL    HW223040   0.032   4.602   4.952
 7381SOL     OW23041   4.500   3.830   1.226
 7381SOL    HW123042   4.434   3.811   1.298
 7381SOL    HW223043   4.561   3.903   1.255
 7382SOL     OW23044   6.723   6.404   6.070
 7382SOL    HW123045   6.636   6.434   6.109
 7382SOL    HW223046   6.769   6.342   6.135
 7383SOL     OW23047   1.369   7.014   1.316
 7383SOL    HW123048   1.447   6.969   1.360
 7383SOL    HW223049   1.351   0.080   1.362
 7384SOL     OW23050   5.618   0.296   2.913
 7384SOL    HW123051   5.678   0.217   2.924
 7384SOL    HW223052   5.587   0.302   2.818
 7385SOL     OW23053   4.231   6.162   2.207
 7385SOL    HW123054   4.150   6.178   2.151
 7385SOL    HW223055   4.203   6.136   2.299
 7386SOL     OW23056   0.477   1.922   5.586
 7386SOL    HW123057   0.535   1.986   5.635
 7386SOL    HW223058   0.412   1.972   5.529
 7387SOL     OW23059   5.374   6.092   4.247
 7387SOL    HW123060   5.401   6.116   4.340
 7387SOL    HW223061   5.298   6.026   4.250
 7388SOL     OW23062   0.382   5.014   2.331
 7388SOL    HW123063   0.384   5.032   2.233
 7388SOL    HW223064   0.370   4.917   2.347
 7389SOL     OW23065   6.902   3.695   6.656
 7389SOL    HW123066   6.942   3.607   6.681
 7389SOL    HW223067   6.914   3.710   6.557
 7390SOL     OW23068   1.348   1.674   6.825
 7390SOL    HW123069   1.332   1.577   6.806
 7390SOL    HW223070   1.280   1.729   6.778
 7391SOL     OW23071   4.117   3.618   4.305
 7391SOL    HW123072   4.175   3.663   4.237
 7391SOL    HW223073   4.085   3.685   4.371
 7392SOL     OW23074   2.599   5.924   0.272
 7392SOL    HW123075   2.527   5.993   0.284
 7392SOL    HW223076   2.682   5.968   0.238
 7393SOL     OW23077   5.994   5.038   2.855
 7393SOL    HW123078   5.995   4.980   2.937
 7393SOL    HW223079   5.915   5.015   2.799
 7394SOL     OW23080   2.558   2.677   5.687
 7394SOL    HW123081   2.464   2.649   5.703
 7394SOL    HW223082   2.573   2.692   5.589
 7395SOL     OW23083   1.367   2.267   0.217
 7395SOL    HW123084   1.377   2.340   0.149
 7395SOL    HW223085   1.386   2.305   0.308
 7396SOL     OW23086   0.922   0.047   0.750
 7396SOL    HW123087   0.940   6.987   0.693
 7396SOL    HW223088   0.964   0.035   0.840
 7397SOL     OW23089   4.485   5.469   4.642
 7397SOL    HW123090   4.504   5.374   4.667
 7397SOL    HW223091   4.504   5.482   4.545
 7398SOL     OW23092   2.300   4.918   4.508
 7398SOL    HW123093   2.347   4.853   4.448
 7398SOL    HW223094   2.228   4.965   4.457
 7399SOL     OW23095   1.345   2.284   5.329
 7399SOL    HW123096   1.326   2.337   5.412
 7399SOL    HW223097   1.380   2.194   5.354
 7400SOL     OW23098   3.799   2.288   5.619
 7400SOL    HW123099   3.699   2.289   5.617
 7400SOL    HW223100   3.832   2.213   5.562
 7401SOL     OW23101   1.449   1.503   4.917
 7401SOL    HW123102   1.510   1.444   4.970
 7401SOL    HW223103   1.356   1.495   4.952
 7402SOL     OW23104   2.628   5.832   6.391
 7402SOL    HW123105   2.582   5.777   6.460
 7402SOL    HW223106   2.613   5.929   6.409
 7403SOL     OW23107   2.120   3.857   2.195
 7403SOL    HW123108   2.122   3.827   2.100
 7403SOL    HW223109   2.113   3.777   2.255
 7404SOL     OW23110   2.407   5.365   1.776
 7404SOL    HW123111   2.482   5.304   1.801
 7404SOL    HW223112   2.382   5.422   1.854
 7405SOL     OW23113   3.823   4.944   4.552
 7405SOL    HW123114   3.764   4.999   4.493
 7405SOL    HW223115   3.794   4.849   4.549
 7406SOL     OW23116   0.218   2.544   3.193
 7406SOL    HW123117   0.278   2.623   3.201
 7406SOL    HW223118   0.234   2.498   3.106
 7407SOL     OW23119   1.236   0.209   4.751
 7407SOL    HW123120   1.285   0.281   4.800
 7407SOL    HW223121   1.299   0.134   4.731
 7408SOL     OW23122   3.219   3.925   6.911
 7408SOL    HW123123   3.146   3.940   6.844
 7408SOL    HW223124   3.296   3.985   6.890
 7409SOL     OW23125   6.430   2.376   6.840
 7409SOL    HW123126   6.397   2.468   6.817
 7409SOL    HW223127   6.447   2.325   6.756
 7410SOL     OW23128   0.076   0.295   0.412
 7410SOL    HW123129   0.141   0.339   0.351
 7410SOL    HW223130   0.118   0.213   0.451
 7411SOL     OW23131   2.381   0.061   5.963
 7411SOL    HW123132   2.358   0.151   6.001
 7411SOL    HW223133   2.462   0.025   6.011
 7412SOL     OW23134   4.638   0.391   1.825
 7412SOL    HW123135   4.685   0.312   1.865
 7412SOL    HW223136   4.704   0.463   1.806
 7413SOL     OW23137   5.313   5.579   3.988
 7413SOL    HW123138   5.368   5.508   3.944
 7413SOL    HW223139   5.305   5.559   4.086
 7414SOL     OW23140   0.550   0.619   3.969
 7414SOL    HW123141   0.648   0.636   3.978
 7414SOL    HW223142   0.535   0.530   3.927
 7415SOL     OW23143   2.249   4.888   4.094
 7415SOL    HW123144   2.269   4.904   3.998
 7415SOL    HW223145   2.175   4.949   4.123
 7416SOL     OW23146   1.788   1.154   2.871
 7416SOL    HW123147   1.878   1.172   2.830
 7416SOL    HW223148   1.716   1.180   2.806
 7417SOL     OW23149   1.725   0.711   0.076
 7417SOL    HW123150   1.706   0.781   0.145
 7417SOL    HW223151   1.646   0.702   0.015
 7418SOL     OW23152   2.633   5.649   0.321
 7418SOL    HW123153   2.630   5.743   0.286
 7418SOL    HW223154   2.681   5.648   0.409
 7419SOL     OW23155   6.593   2.645   5.124
 7419SOL    HW123156   6.678   2.655   5.074
 7419SOL    HW223157   6.528   2.590   5.071
 7420SOL     OW23158   0.428   6.922   1.720
 7420SOL    HW123159   0.503   6.882   1.666
 7420SOL    HW223160   0.455   7.013   1.750
 7421SOL     OW23161   3.755   4.332   0.658
 7421SOL    HW123162   3.715   4.356   0.569
 7421SOL    HW223163   3.780   4.235   0.658
 7422SOL     OW23164   6.803   3.259   2.515
 7422SOL    HW123165   6.749   3.191   2.565
 7422SOL    HW223166   6.901   3.244   2.534
 7423SOL     OW23167   5.772   3.395   5.489
 7423SOL    HW123168   5.852   3.442   5.452
 7423SOL    HW223169   5.737   3.446   5.568
 7424SOL     OW23170   6.659   6.511   5.604
 7424SOL    HW123171   6.677   6.443   5.675
 7424SOL    HW223172   6.593   6.579   5.639
 7425SOL     OW23173   4.241   5.692   6.687
 7425SOL    HW123174   4.148   5.726   6.675
 7425SOL    HW223175   4.249   5.648   6.776
 7426SOL     OW23176   3.100   1.620   5.731
 7426SOL    HW123177   3.071   1.532   5.695
 7426SOL    HW223178   3.197   1.616   5.756
 7427SOL     OW23179   4.492   6.959   3.610
 7427SOL    HW123180   4.545   6.979   3.693
 7427SOL    HW223181   4.461   0.024   3.569
 7428SOL     OW23182   4.374   1.617   5.559
 7428SOL    HW123183   4.376   1.523   5.594
 7428SOL    HW223184   4.393   1.680   5.634
 7429SOL     OW23185   0.602   6.476   4.128
 7429SOL    HW123186   0.517   6.426   4.116
 7429SOL    HW223187   0.608   6.550   4.061
 7430SOL     OW23188   1.210   2.895   0.442
 7430SOL    HW123189   1.151   2.832   0.392
 7430SOL    HW223190   1.283   2.844   0.487
 7431SOL     OW23191   1.398   2.888   3.508
 7431SOL    HW123192   1.347   2.965   3.469
 7431SOL    HW223193   1.490   2.919   3.534
 7432SOL     OW23194   1.128   0.945   2.802
 7432SOL    HW123195   1.053   1.004   2.773
 7432SOL    HW223196   1.104   0.850   2.786
 7433SOL     OW23197   4.702   6.498   5.702
 7433SOL    HW123198   4.718   6.592   5.734
 7433SOL    HW223199   4.788   6.459   5.669
 7434SOL     OW23200   5.264   5.922   5.767
 7434SOL    HW123201   5.243   6.020   5.763
 7434SOL    HW223202   5.245   5.889   5.860
 7435SOL     OW23203   3.380   5.928   0.656
 7435SOL    HW123204   3.387   5.842   0.707
 7435SOL    HW223205   3.296   5.929   0.603
 7436SOL     OW23206   5.151   4.101   6.239
 7436SOL    HW123207   5.190   4.041   6.168
 7436SOL    HW223208   5.124   4.188   6.198
 7437SOL     OW23209   1.219   6.117   7.001
 7437SOL    HW123210   1.305   6.167   7.006
 7437SOL    HW223211   1.184   6.100   0.072
 7438SOL     OW23212   1.088   6.034   6.743
 7438SOL    HW123213   1.131   6.088   6.816
 7438SOL    HW223214   1.143   6.039   6.661
 7439SOL     OW23215   2.312   6.243   5.862
 7439SOL    HW123216   2.329   6.213   5.768
 7439SOL    HW223217   2.398   6.274   5.903
 7440SOL     OW23218   6.774   2.879   3.924
 7440SOL    HW123219   6.868   2.904   3.947
 7440SOL    HW223220   6.728   2.957   3.881
 7441SOL     OW23221   5.463   6.681   3.944
 7441SOL    HW123222   5.426   6.611   4.005
 7441SOL    HW223223   5.562   6.669   3.937
 7442SOL     OW23224   6.454   1.315   6.239
 7442SOL    HW123225   6.536   1.315   6.296
 7442SOL    HW223226   6.480   1.331   6.144
 7443SOL     OW23227   0.145   6.246   1.740
 7443SOL    HW123228   0.169   6.318   1.806
 7443SOL    HW223229   0.125   6.288   1.651
 7444SOL     OW23230   5.557   2.479   5.600
 7444SOL    HW123231   5.594   2.560   5.647
 7444SOL    HW223232   5.461   2.468   5.625
 7445SOL     OW23233   4.039   0.947   0.961
 7445SOL    HW123234   4.022   0.914   1.053
 7445SOL    HW223235   4.008   1.042   0.953
 7446SOL     OW23236   5.912   3.216   0.235
 7446SOL    HW123237   6.007   3.187   0.236
 7446SOL    HW223238   5.889   3.260   0.322
 7447SOL     OW23239   0.336   3.306   6.599
 7447SOL    HW123240   0.333   3.362   6.517
 7447SOL    HW223241   0.387   3.222   6.580
 7448SOL     OW23242   6.442   6.761   5.161
 7448SOL    HW123243   6.449   6.662   5.164
 7448SOL    HW223244   6.491   6.800   5.239
 7449SOL     OW23245   0.872   3.794   2.051
 7449SOL    HW123246   0.818   3.747   2.121
 7449SOL    HW223247   0.817   3.867   2.010
 7450SOL     OW23248   5.158   2.417   4.723
 7450SOL    HW123249   5.189   2.362   4.645
 7450SOL    HW223250   5.073   2.379   4.759
 7451SOL     OW23251   6.734   0.023   3.172
 7451SOL    HW123252   6.639   0.003   3.197
 7451SOL    HW223253   6.743   0.121   3.155
 7452SOL     OW23254   6.822   6.578   4.765
 7452SOL    HW123255   6.854   6.659   4.815
 7452SOL    HW223256   6.790   6.605   4.675
 7453SOL     OW23257   5.062   0.275   5.830
 7453SOL    HW123258   5.059   0.196   5.892
 7453SOL    HW223259   5.084   0.357   5.883
 7454SOL     OW23260   0.567   2.631   2.228
 7454SOL    HW123261   0.573   2.565   2.302
 7454SOL    HW223262   0.478   2.622   2.182
 7455SOL     OW23263   7.009   2.460   2.160
 7455SOL    HW123264   6.915   2.478   2.131
 7455SOL    HW223265   0.005   2.500   2.250
 7456SOL     OW23266   0.888   1.549   3.847
 7456SOL    HW123267   0.850   1.569   3.757
 7456SOL    HW223268   0.842   1.469   3.886
 7457SOL     OW23269   3.735   0.198   6.352
 7457SOL    HW123270   3.687   0.256   6.418
 7457SOL    HW223271   3.830   0.185   6.380
 7458SOL     OW23272   1.540   6.396   5.541
 7458SOL    HW123273   1.628   6.421   5.582
 7458SOL    HW223274   1.536   6.297   5.528
 7459SOL     OW23275   4.459   0.526   2.014
 7459SOL    HW123276   4.514   0.474   1.948
 7459SOL    HW223277   4.519   0.575   2.077
 7460SOL     OW23278   1.367   5.097   0.773
 7460SOL    HW123279   1.369   5.166   0.846
 7460SOL    HW223280   1.460   5.069   0.751
 7461SOL     OW23281   5.642   1.013   6.483
 7461SOL    HW123282   5.630   1.110   6.505
 7461SOL    HW223283   5.555   0.974   6.454
 7462SOL     OW23284   1.787   4.111   2.504
 7462SOL    HW123285   1.804   4.091   2.408
 7462SOL    HW223286   1.691   4.134   2.517
 7463SOL     OW23287   2.323   4.747   0.638
 7463SOL    HW123288   2.271   4.830   0.656
 7463SOL    HW223289   2.386   4.763   0.561
 7464SOL     OW23290   5.071   0.116   6.479
 7464SOL    HW123291   4.979   0.077   6.477
 7464SOL    HW223292   5.092   0.145   6.573
 7465SOL     OW23293   1.439   5.750   6.759
 7465SOL    HW123294   1.517   5.706   6.714
 7465SOL    HW223295   1.366   5.682   6.771
 7466SOL     OW23296   0.053   0.694   5.253
 7466SOL    HW123297   0.025   0.783   5.218
 7466SOL    HW223298   7.011   0.666   5.326
 7467SOL     OW23299   0.718   1.435   1.430
 7467SOL    HW123300   0.781   1.391   1.493
 7467SOL    HW223301   0.624   1.415   1.457
 7468SOL     OW23302   5.581   3.033   3.571
 7468SOL    HW123303   5.573   3.014   3.668
 7468SOL    HW223304   5.633   3.117   3.558
 7469SOL     OW23305   6.899   0.808   0.609
 7469SOL    HW123306   6.835   0.746   0.564
 7469SOL    HW223307   6.972   0.832   0.545
 7470SOL     OW23308   6.688   3.824   3.396
 7470SOL    HW123309   6.679   3.736   3.444
 7470SOL    HW223310   6.615   3.831   3.328
 7471SOL     OW23311   5.467   6.673   6.293
 7471SOL    HW123312   5.545   6.658   6.233
 7471SOL    HW223313   5.496   6.723   6.374
 7472SOL     OW23314   6.411   6.938   4.596
 7472SOL    HW123315   6.362   7.002   4.655
 7472SOL    HW223316   6.348   6.868   4.563
 7473SOL     OW23317   5.915   5.230   3.909
 7473SOL    HW123318   5.837   5.236   3.971
 7473SOL    HW223319   5.936   5.321   3.873
 7474SOL     OW23320   1.008   1.507   5.621
 7474SOL    HW123321   1.040   1.591   5.577
 7474SOL    HW223322   0.945   1.459   5.560
 7475SOL     OW23323   5.094   2.377   2.295
 7475SOL    HW123324   5.175   2.324   2.316
 7475SOL    HW223325   5.104   2.470   2.332
 7476SOL     OW23326   3.371   0.675   3.890
 7476SOL    HW123327   3.303   0.723   3.834
 7476SOL    HW223328   3.456   0.727   3.892
 7477SOL     OW23329   0.329   1.089   5.465
 7477SOL    HW123330   0.417   1.058   5.500
 7477SOL    HW223331   0.267   1.108   5.541
 7478SOL     OW23332   4.912   4.571   5.625
 7478SOL    HW123333   4.988   4.556   5.561
 7478SOL    HW223334   4.941   4.547   5.718
 7479SOL     OW23335   4.159   2.281   2.413
 7479SOL    HW123336   4.179   2.267   2.510
 7479SOL    HW223337   4.110   2.367   2.401
 7480SOL     OW23338   1.114   3.906   2.229
 7480SOL    HW123339   1.034   3.929   2.285
 7480SOL    HW223340   1.088   3.843   2.157
 7481SOL     OW23341   6.464   5.697   1.174
 7481SOL    HW123342   6.555   5.736   1.162
 7481SOL    HW223343   6.402   5.735   1.105
 7482SOL     OW23344   4.813   2.715   3.105
 7482SOL    HW123345   4.815   2.719   3.205
 7482SOL    HW223346   4.899   2.677   3.071
 7483SOL     OW23347   4.801   2.782   4.402
 7483SOL    HW123348   4.712   2.758   4.364
 7483SOL    HW223349   4.861   2.815   4.328
 7484SOL     OW23350   1.755   6.723   4.395
 7484SOL    HW123351   1.827   6.734   4.464
 7484SOL    HW223352   1.797   6.712   4.305
 7485SOL     OW23353   3.554   0.121   4.523
 7485SOL    HW123354   3.626   0.054   4.540
 7485SOL    HW223355   3.485   0.114   4.594
 7486SOL     OW23356   1.831   6.612   0.589
 7486SOL    HW123357   1.880   6.571   0.512
 7486SOL    HW223358   1.733   6.612   0.570
 7487SOL     OW23359   1.757   6.475   3.553
 7487SOL    HW123360   1.754   6.568   3.517
 7487SOL    HW223361   1.831   6.424   3.508
 7488SOL     OW23362   2.652   6.460   3.733
 7488SOL    HW123363   2.591   6.532   3.698
 7488SOL    HW223364   2.637   6.376   3.681
 7489SOL     OW23365   5.161   2.637   5.129
 7489SOL    HW123366   5.177   2.631   5.228
 7489SOL    HW223367   5.246   2.662   5.083
 7490SOL     OW23368   1.217   0.306   2.638
 7490SOL    HW123369   1.149   0.234   2.631
 7490SOL    HW223370   1.254   0.308   2.731
 7491SOL     OW23371   5.402   2.775   6.753
 7491SOL    HW123372   5.454   2.859   6.771
 7491SOL    HW223373   5.463   2.706   6.716
 7492SOL     OW23374   2.152   0.759   3.101
 7492SOL    HW123375   2.127   0.813   3.020
 7492SOL    HW223376   2.100   0.674   3.101
 7493SOL     OW23377   0.341   3.574   6.879
 7493SOL    HW123378   0.368   3.670   6.885
 7493SOL    HW223379   0.267   3.564   6.812
 7494SOL     OW23380   5.427   1.113   2.695
 7494SOL    HW123381   5.467   1.184   2.754
 7494SOL    HW223382   5.337   1.087   2.730
 7495SOL     OW23383   1.491   2.044   6.547
 7495SOL    HW123384   1.412   2.038   6.486
 7495SOL    HW223385   1.549   2.120   6.519
 7496SOL     OW23386   6.030   3.482   4.953
 7496SOL    HW123387   5.976   3.404   4.921
 7496SOL    HW223388   6.030   3.553   4.883
 7497SOL     OW23389   2.349   4.339   6.239
 7497SOL    HW123390   2.379   4.434   6.227
 7497SOL    HW223391   2.275   4.319   6.175
 7498SOL     OW23392   3.212   0.315   5.199
 7498SOL    HW123393   3.224   0.270   5.111
 7498SOL    HW223394   3.172   0.405   5.186
 7499SOL     OW23395   3.291   1.275   2.926
 7499SOL    HW123396   3.360   1.272   2.999
 7499SOL    HW223397   3.326   1.328   2.849
 7500SOL     OW23398   3.322   5.521   2.937
 7500SOL    HW123399   3.262   5.587   2.984
 7500SOL    HW223400   3.390   5.487   3.001
 7501SOL     OW23401   5.177   3.697   4.765
 7501SOL    HW123402   5.101   3.761   4.771
 7501SOL    HW223403   5.163   3.622   4.830
 7502SOL     OW23404   3.021   0.498   4.569
 7502SOL    HW123405   2.974   0.555   4.636
 7502SOL    HW223406   2.989   0.403   4.577
 7503SOL     OW23407   1.522   0.537   1.343
 7503SOL    HW123408   1.563   0.604   1.405
 7503SOL    HW223409   1.433   0.570   1.313
 7504SOL     OW23410   0.900   6.885   3.332
 7504SOL    HW123411   0.996   6.877   3.358
 7504SOL    HW223412   0.874   6.981   3.331
 7505SOL     OW23413   1.469   2.598   5.922
 7505SOL    HW123414   1.534   2.649   5.978
 7505SOL    HW223415   1.377   2.637   5.934
 7506SOL     OW23416   4.872   1.212   3.324
 7506SOL    HW123417   4.881   1.161   3.408
 7506SOL    HW223418   4.828   1.155   3.254
 7507SOL     OW23419   0.336   1.336   2.730
 7507SOL    HW123420   0.431   1.349   2.757
 7507SOL    HW223421   0.282   1.416   2.758
 7508SOL     OW23422   1.341   0.175   1.795
 7508SOL    HW123423   1.273   0.117   1.838
 7508SOL    HW223424   1.427   0.125   1.784
 7509SOL     OW23425   5.978   4.459   0.622
 7509SOL    HW123426   6.070   4.499   0.627
 7509SOL    HW223427   5.985   4.359   0.626
 7510SOL     OW23428   3.746   3.557   5.498
 7510SOL    HW123429   3.655   3.597   5.498
 7510SOL    HW223430   3.745   3.470   5.546
 7511SOL     OW23431   2.451   6.097   3.908
 7511SOL    HW123432   2.507   6.026   3.866
 7511SOL    HW223433   2.439   6.173   3.845
 7512SOL     OW23434   2.754   6.721   6.935
 7512SOL    HW123435   2.791   6.679   7.018
 7512SOL    HW223436   2.786   6.816   6.929
 7513SOL     OW23437   1.936   0.925   1.461
 7513SOL    HW123438   1.944   0.879   1.373
 7513SOL    HW223439   1.941   0.858   1.535
 7514SOL     OW23440   2.581   5.669   1.749
 7514SOL    HW123441   2.584   5.576   1.714
 7514SOL    HW223442   2.499   5.716   1.714
 7515SOL     OW23443   6.754   5.286   4.201
 7515SOL    HW123444   6.843   5.307   4.160
 7515SOL    HW223445   6.728   5.192   4.177
 7516SOL     OW23446   6.851   5.991   5.428
 7516SOL    HW123447   6.788   5.948   5.363
 7516SOL    HW223448   6.945   5.967   5.404
 7517SOL     OW23449   0.087   2.748   0.450
 7517SOL    HW123450   0.010   2.691   0.421
 7517SOL    HW223451   0.173   2.700   0.430
 7518SOL     OW23452   4.281   4.746   3.747
 7518SOL    HW123453   4.351   4.679   3.721
 7518SOL    HW223454   4.317   4.838   3.733
 7519SOL     OW23455   0.523   6.447   3.300
 7519SOL    HW123456   0.613   6.409   3.279
 7519SOL    HW223457   0.464   6.442   3.219
 7520SOL     OW23458   1.749   6.995   2.429
 7520SOL    HW123459   1.756   6.964   2.334
 7520SOL    HW223460   1.790   6.926   2.489
 7521SOL     OW23461   4.699   4.021   5.589
 7521SOL    HW123462   4.632   4.090   5.618
 7521SOL    HW223463   4.781   4.030   5.646
 7522SOL     OW23464   1.624   1.516   5.643
 7522SOL    HW123465   1.647   1.538   5.738
 7522SOL    HW223466   1.531   1.546   5.624
 7523SOL     OW23467   5.978   0.455   6.528
 7523SOL    HW123468   5.975   0.504   6.615
 7523SOL    HW223469   5.973   0.357   6.545
 7524SOL     OW23470   1.398   2.591   5.348
 7524SOL    HW123471   1.360   2.543   5.427
 7524SOL    HW223472   1.386   2.534   5.266
 7525SOL     OW23473   3.826   0.664   6.092
 7525SOL    HW123474   3.794   0.757   6.111
 7525SOL    HW223475   3.800   0.603   6.167
 7526SOL     OW23476   3.043   3.595   1.626
 7526SOL    HW123477   2.975   3.550   1.568
 7526SOL    HW223478   3.126   3.539   1.629
 7527SOL     OW23479   2.988   6.153   3.255
 7527SOL    HW123480   2.907   6.106   3.292
 7527SOL    HW223481   2.973   6.252   3.258
 7528SOL     OW23482   5.890   2.511   0.951
 7528SOL    HW123483   5.925   2.532   0.859
 7528SOL    HW223484   5.897   2.413   0.967
 7529SOL     OW23485   4.880   1.575   4.552
 7529SOL    HW123486   4.842   1.666   4.569
 7529SOL    HW223487   4.811   1.506   4.572
 7530SOL     OW23488   0.020   3.143   2.166
 7530SOL    HW123489   6.947   3.112   2.182
 7530SOL    HW223490   0.043   3.132   2.070
 7531SOL     OW23491   5.642   3.238   4.657
 7531SOL    HW123492   5.557   3.221   4.606
 7531SOL    HW223493   5.635   3.325   4.705
 7532SOL     OW23494   4.457   5.849   6.768
 7532SOL    HW123495   4.397   5.786   6.719
 7532SOL    HW223496   4.531   5.878   6.708
 7533SOL     OW23497   3.416   0.747   1.558
 7533SOL    HW123498   3.318   0.750   1.541
 7533SOL    HW223499   3.446   0.651   1.560
 7534SOL     OW23500   4.610   6.644   5.461
 7534SOL    HW123501   4.686   6.640   5.396
 7534SOL    HW223502   4.544   6.573   5.438
 7535SOL     OW23503   1.884   0.819   4.940
 7535SOL    HW123504   1.808   0.756   4.957
 7535SOL    HW223505   1.956   0.772   4.888
 7536SOL     OW23506   4.977   4.768   4.025
 7536SOL    HW123507   4.945   4.677   3.999
 7536SOL    HW223508   4.985   4.825   3.944
 7537SOL     OW23509   2.502   5.581   1.394
 7537SOL    HW123510   2.454   5.667   1.413
 7537SOL    HW223511   2.601   5.597   1.397
 7538SOL     OW23512   1.609   2.379   1.175
 7538SOL    HW123513   1.683   2.432   1.217
 7538SOL    HW223514   1.615   2.387   1.075
 7539SOL     OW23515   1.783   3.758   3.803
 7539SOL    HW123516   1.724   3.742   3.724
 7539SOL    HW223517   1.862   3.811   3.775
 7540SOL     OW23518   4.340   0.559   4.546
 7540SOL    HW123519   4.278   0.481   4.553
 7540SOL    HW223520   4.367   0.588   4.638
 7541SOL     OW23521   0.769   4.606   5.072
 7541SOL    HW123522   0.786   4.686   5.130
 7541SOL    HW223523   0.679   4.616   5.030
 7542SOL     OW23524   1.353   4.987   6.781
 7542SOL    HW123525   1.442   4.942   6.792
 7542SOL    HW223526   1.280   4.921   6.797
 7543SOL     OW23527   4.442   1.944   6.208
 7543SOL    HW123528   4.454   2.038   6.238
 7543SOL    HW223529   4.486   1.931   6.119
 7544SOL     OW23530   6.932   2.275   2.649
 7544SOL    HW123531   6.850   2.266   2.706
 7544SOL    HW223532   6.932   2.202   2.580
 7545SOL     OW23533   0.075   5.145   0.423
 7545SOL    HW123534   0.137   5.164   0.346
 7545SOL    HW223535   7.003   5.130   0.388
 7546SOL     OW23536   3.410   2.474   1.575
 7546SOL    HW123537   3.493   2.528   1.591
 7546SOL    HW223538   3.418   2.386   1.621
 7547SOL     OW23539   5.113   1.808   0.287
 7547SOL    HW123540   5.134   1.875   0.359
 7547SOL    HW223541   5.027   1.834   0.243
 7548SOL     OW23542   4.911   1.440   6.800
 7548SOL    HW123543   4.881   1.504   6.871
 7548SOL    HW223544   4.956   1.362   6.843
 7549SOL     OW23545   3.523   2.751   6.631
 7549SOL    HW123546   3.543   2.676   6.694
 7549SOL    HW223547   3.596   2.760   6.564
 7550SOL     OW23548   2.742   5.136   3.444
 7550SOL    HW123549   2.711   5.046   3.474
 7550SOL    HW223550   2.734   5.201   3.520
 7551SOL     OW23551   5.495   3.501   6.389
 7551SOL    HW123552   5.500   3.439   6.311
 7551SOL    HW223553   5.586   3.537   6.409
 7552SOL     OW23554   1.388   5.991   2.826
 7552SOL    HW123555   1.328   5.917   2.855
 7552SOL    HW223556   1.483   5.958   2.825
 7553SOL     OW23557   4.430   6.424   5.674
 7553SOL    HW123558   4.519   6.469   5.684
 7553SOL    HW223559   4.366   6.462   5.741
 7554SOL     OW23560   4.994   1.076   0.184
 7554SOL    HW123561   4.901   1.089   0.216
 7554SOL    HW223562   5.035   0.996   0.229
 7555SOL     OW23563   2.187   4.584   6.225
 7555SOL    HW123564   2.100   4.631   6.211
 7555SOL    HW223565   2.173   4.502   6.281
 7556SOL     OW23566   2.222   2.900   0.424
 7556SOL    HW123567   2.229   2.854   0.336
 7556SOL    HW223568   2.143   2.960   0.424
 7557SOL     OW23569   5.324   1.311   5.603
 7557SOL    HW123570   5.246   1.278   5.657
 7557SOL    HW223571   5.347   1.243   5.533
 7558SOL     OW23572   1.637   2.577   4.255
 7558SOL    HW123573   1.666   2.491   4.214
 7558SOL    HW223574   1.570   2.622   4.197
 7559SOL     OW23575   4.788   3.878   0.727
 7559SOL    HW123576   4.883   3.904   0.711
 7559SOL    HW223577   4.735   3.894   0.644
 7560SOL     OW23578   5.334   6.611   0.985
 7560SOL    HW123579   5.399   6.593   1.058
 7560SOL    HW223580   5.246   6.640   1.023
 7561SOL     OW23581   0.958   2.993   6.761
 7561SOL    HW123582   1.044   3.038   6.736
 7561SOL    HW223583   0.882   3.039   6.716
 7562SOL     OW23584   0.347   5.744   4.564
 7562SOL    HW123585   0.412   5.769   4.635
 7562SOL    HW223586   0.303   5.826   4.528
 7563SOL     OW23587   3.244   0.120   1.439
 7563SOL    HW123588   3.304   0.059   1.389
 7563SOL    HW223589   3.172   0.067   1.484
 7564SOL     OW23590   3.935   6.687   3.437
 7564SOL    HW123591   3.908   6.683   3.341
 7564SOL    HW223592   3.944   6.782   3.466
 7565SOL     OW23593   5.615   3.142   0.255
 7565SOL    HW123594   5.624   3.050   0.218
 7565SOL    HW223595   5.705   3.186   0.256
 7566SOL     OW23596   6.658   4.606   3.196
 7566SOL    HW123597   6.674   4.704   3.210
 7566SOL    HW223598   6.745   4.561   3.177
 7567SOL     OW23599   1.818   2.042   5.209
 7567SOL    HW123600   1.828   2.116   5.275
 7567SOL    HW223601   1.835   1.955   5.255
 7568SOL     OW23602   5.011   6.102   3.343
 7568SOL    HW123603   4.961   6.183   3.372
 7568SOL    HW223604   5.104   6.105   3.379
 7569SOL     OW23605   3.873   4.961   5.617
 7569SOL    HW123606   3.779   4.992   5.633
 7569SOL    HW223607   3.932   4.996   5.690
 7570SOL     OW23608   5.229   3.488   4.961
 7570SOL    HW123609   5.249   3.411   5.023
 7570SOL    HW223610   5.266   3.572   5.000
 7571SOL     OW23611   4.302   4.802   3.175
 7571SOL    HW123612   4.373   4.734   3.160
 7571SOL    HW223613   4.299   4.865   3.097
 7572SOL     OW23614   4.258   1.189   1.531
 7572SOL    HW123615   4.278   1.153   1.440
 7572SOL    HW223616   4.331   1.164   1.594
 7573SOL     OW23617   0.264   0.397   5.420
 7573SOL    HW123618   0.336   0.404   5.490
 7573SOL    HW223619   0.305   0.380   5.331
 7574SOL     OW23620   5.449   0.605   5.258
 7574SOL    HW123621   5.373   0.548   5.227
 7574SOL    HW223622   5.471   0.582   5.353
 7575SOL     OW23623   5.358   0.987   6.182
 7575SOL    HW123624   5.392   0.894   6.170
 7575SOL    HW223625   5.415   1.051   6.131
 7576SOL     OW23626   4.744   3.306   0.570
 7576SOL    HW123627   4.728   3.238   0.499
 7576SOL    HW223628   4.655   3.340   0.603
 7577SOL     OW23629   1.008   6.984   7.014
 7577SOL    HW123630   0.992   6.885   7.014
 7577SOL    HW223631   0.945   0.008   6.950
 7578SOL     OW23632   2.671   5.275   1.369
 7578SOL    HW123633   2.678   5.176   1.386
 7578SOL    HW223634   2.595   5.312   1.423
 7579SOL     OW23635   0.694   1.155   2.688
 7579SOL    HW123636   0.614   1.118   2.736
 7579SOL    HW223637   0.674   1.162   2.590
 7580SOL     OW23638   0.872   3.942   4.434
 7580SOL    HW123639   0.972   3.934   4.440
 7580SOL    HW223640   0.830   3.856   4.459
 7581SOL     OW23641   0.042   1.538   2.064
 7581SOL    HW123642   0.114   1.469   2.073
 7581SOL    HW223643   0.082   1.624   2.030
 7582SOL     OW23644   3.918   1.169   1.820
 7582SOL    HW123645   3.919   1.188   1.722
 7582SOL    HW223646   3.991   1.106   1.844
 7583SOL     OW23647   6.016   2.923   2.084
 7583SOL    HW123648   5.925   2.957   2.110
 7583SOL    HW223649   6.008   2.866   2.003
 7584SOL     OW23650   3.524   0.325   2.286
 7584SOL    HW123651   3.549   0.400   2.347
 7584SOL    HW223652   3.435   0.344   2.245
 7585SOL     OW23653   1.859   2.657   6.743
 7585SOL    HW123654   1.937   2.719   6.754
 7585SOL    HW223655   1.803   2.687   6.666
 7586SOL     OW23656   2.911   0.749   3.661
 7586SOL    HW123657   2.912   0.663   3.610
 7586SOL    HW223658   2.879   0.823   3.601
 7587SOL     OW23659   2.272   1.913   6.957
 7587SOL    HW123660   2.314   1.962   0.014
 7587SOL    HW223661   2.322   1.828   6.941
 7588SOL     OW23662   1.348   2.708   3.732
 7588SOL    HW123663   1.380   2.710   3.637
 7588SOL    HW223664   1.360   2.798   3.773
 7589SOL     OW23665   0.223   0.484   2.333
 7589SOL    HW123666   0.220   0.460   2.236
 7589SOL    HW223667   0.192   0.578   2.345
 7590SOL     OW23668   3.435   2.504   6.314
 7590SOL    HW123669   3.473   2.454   6.392
 7590SOL    HW223670   3.510   2.538   6.257
 7591SOL     OW23671   6.750   3.595   1.007
 7591SOL    HW123672   6.745   3.630   1.101
 7591SOL    HW223673   6.834   3.626   0.964
 7592SOL     OW23674   6.963   5.523   5.037
 7592SOL    HW123675   6.941   5.514   5.134
 7592SOL    HW223676   6.925   5.445   4.987
 7593SOL     OW23677   6.212   3.107   0.191
 7593SOL    HW123678   6.179   3.051   0.115
 7593SOL    HW223679   6.264   3.049   0.254
 7594SOL     OW23680   1.402   4.587   2.373
 7594SOL    HW123681   1.316   4.589   2.320
 7594SOL    HW223682   1.384   4.617   2.466
 7595SOL     OW23683   5.953   2.819   6.015
 7595SOL    HW123684   5.943   2.775   5.925
 7595SOL    HW223685   5.953   2.918   6.004
 7596SOL     OW23686   3.977   6.232   3.384
 7596SOL    HW123687   4.017   6.212   3.294
 7596SOL    HW223688   4.043   6.210   3.455
 7597SOL     OW23689   2.132   6.743   2.924
 7597SOL    HW123690   2.166   6.836   2.910
 7597SOL    HW223691   2.158   6.685   2.847
 7598SOL     OW23692   6.958   0.880   3.150
 7598SOL    HW123693   6.884   0.902   3.086
 7598SOL    HW223694   6.920   0.859   3.240
 7599SOL     OW23695   5.832   1.866   2.318
 7599SOL    HW123696   5.744   1.914   2.321
 7599SOL    HW223697   5.894   1.914   2.256
 7600SOL     OW23698   1.501   1.585   3.320
 7600SOL    HW123699   1.527   1.615   3.411
 7600SOL    HW223700   1.451   1.499   3.326
 7601SOL     OW23701   1.874   4.521   2.457
 7601SOL    HW123702   1.861   4.614   2.493
 7601SOL    HW223703   1.789   4.487   2.419
 7602SOL     OW23704   2.521   3.567   6.505
 7602SOL    HW123705   2.444   3.593   6.563
 7602SOL    HW223706   2.557   3.648   6.460
 7603SOL     OW23707   1.538   5.553   6.044
 7603SOL    HW123708   1.561   5.644   6.010
 7603SOL    HW223709   1.516   5.558   6.141
 7604SOL     OW23710   1.971   3.477   4.706
 7604SOL    HW123711   2.015   3.564   4.683
 7604SOL    HW223712   2.017   3.403   4.657
 7605SOL     OW23713   1.323   1.147   1.821
 7605SOL    HW123714   1.361   1.054   1.824
 7605SOL    HW223715   1.319   1.184   1.914
 7606SOL     OW23716   6.243   4.149   5.006
 7606SOL    HW123717   6.284   4.136   5.097
 7606SOL    HW223718   6.205   4.241   5.000
 7607SOL     OW23719   3.315   5.271   0.132
 7607SOL    HW123720   3.238   5.237   0.185
 7607SOL    HW223721   3.281   5.327   0.056
 7608SOL     OW23722   3.752   4.317   1.127
 7608SOL    HW123723   3.762   4.347   1.222
 7608SOL    HW223724   3.744   4.217   1.125
 7609SOL     OW23725   1.530   2.757   4.495
 7609SOL    HW123726   1.436   2.729   4.515
 7609SOL    HW223727   1.573   2.691   4.435
 7610SOL     OW23728   4.202   4.425   6.042
 7610SOL    HW123729   4.253   4.441   5.958
 7610SOL    HW223730   4.109   4.394   6.018
 7611SOL     OW23731   5.749   3.865   1.714
 7611SOL    HW123732   5.681   3.814   1.662
 7611SOL    HW223733   5.788   3.807   1.785
 7612SOL     OW23734   4.902   3.172   2.188
 7612SOL    HW123735   4.857   3.120   2.116
 7612SOL    HW223736   4.910   3.115   2.270
 7613SOL     OW23737   6.958   2.573   1.015
 7613SOL    HW123738   0.023   2.527   1.038
 7613SOL    HW223739   6.941   2.564   0.917
 7614SOL     OW23740   5.176   3.472   1.006
 7614SOL    HW123741   5.189   3.376   1.031
 7614SOL    HW223742   5.190   3.530   1.087
 7615SOL     OW23743   3.660   4.940   6.998
 7615SOL    HW123744   3.623   5.024   0.017
 7615SOL    HW223745   3.710   4.962   6.914
 7616SOL     OW23746   6.139   6.159   4.483
 7616SOL    HW123747   6.050   6.200   4.499
 7616SOL    HW223748   6.211   6.224   4.507
 7617SOL     OW23749   4.235   6.354   2.933
 7617SOL    HW123750   4.325   6.316   2.953
 7617SOL    HW223751   4.183   6.364   3.018
 7618SOL     OW23752   0.037   1.982   5.942
 7618SOL    HW123753   0.137   1.981   5.942
 7618SOL    HW223754   0.004   2.060   5.888
 7619SOL     OW23755   6.618   2.925   4.996
 7619SOL    HW123756   6.663   2.836   4.992
 7619SOL    HW223757   6.554   2.934   4.920
 7620SOL     OW23758   4.040   5.648   1.420
 7620SOL    HW123759   3.993   5.603   1.496
 7620SOL    HW223760   3.973   5.688   1.358
 7621SOL     OW23761   6.700   0.794   1.270
 7621SOL    HW123762   6.675   0.860   1.340
 7621SOL    HW223763   6.620   0.770   1.216
 7622SOL     OW23764   3.956   5.001   6.662
 7622SOL    HW123765   3.970   5.057   6.744
 7622SOL    HW223766   3.990   5.050   6.582
 7623SOL     OW23767   4.766   3.467   6.643
 7623SOL    HW123768   4.720   3.537   6.588
 7623SOL    HW223769   4.813   3.511   6.720
 7624SOL     OW23770   0.001   3.765   4.973
 7624SOL    HW123771   6.979   3.699   4.911
 7624SOL    HW223772   0.049   3.835   4.920
 7625SOL     OW23773   5.194   0.667   1.029
 7625SOL    HW123774   5.095   0.662   1.044
 7625SOL    HW223775   5.225   0.761   1.043
 7626SOL     OW23776   6.418   0.382   4.272
 7626SOL    HW123777   6.390   0.338   4.187
 7626SOL    HW223778   6.504   0.342   4.303
 7627SOL     OW23779   5.051   3.132   0.291
 7627SOL    HW123780   5.060   3.057   0.226
 7627SOL    HW223781   5.110   3.114   0.370
 7628SOL     OW23782   3.465   2.254   1.724
 7628SOL    HW123783   3.554   2.260   1.769
 7628SOL    HW223784   3.406   2.192   1.776
 7629SOL     OW23785   0.120   5.016   3.433
 7629SOL    HW123786   0.159   4.992   3.344
 7629SOL    HW223787   0.085   5.109   3.430
 7630SOL     OW23788   0.662   0.213   1.409
 7630SOL    HW123789   0.724   0.144   1.447
 7630SOL    HW223790   0.715   0.278   1.354
 7631SOL     OW23791   0.666   1.504   6.060
 7631SOL    HW123792   0.670   1.603   6.071
 7631SOL    HW223793   0.726   1.461   6.128
 7632SOL     OW23794   4.685   4.383   1.575
 7632SOL    HW123795   4.684   4.338   1.664
 7632SOL    HW223796   4.724   4.321   1.506
 7633SOL     OW23797   5.432   0.121   2.136
 7633SOL    HW123798   5.482   0.081   2.213
 7633SOL    HW223799   5.334   0.119   2.155
 7634SOL     OW23800   1.923   1.741   2.255
 7634SOL    HW123801   1.924   1.653   2.209
 7634SOL    HW223802   1.855   1.740   2.329
 7635SOL     OW23803   3.590   4.879   5.371
 7635SOL    HW123804   3.671   4.827   5.345
 7635SOL    HW223805   3.510   4.818   5.371
 7636SOL     OW23806   1.858   3.112   3.849
 7636SOL    HW123807   1.890   3.132   3.756
 7636SOL    HW223808   1.935   3.118   3.912
 7637SOL     OW23809   2.795   6.132   2.131
 7637SOL    HW123810   2.837   6.171   2.048
 7637SOL    HW223811   2.806   6.033   2.130
 7638SOL     OW23812   2.218   5.902   1.128
 7638SOL    HW123813   2.287   5.960   1.084
 7638SOL    HW223814   2.144   5.883   1.063
 7639SOL     OW23815   0.487   1.893   1.176
 7639SOL    HW123816   0.585   1.878   1.161
 7639SOL    HW223817   0.458   1.975   1.126
 7640SOL     OW23818   3.058   1.483   6.073
 7640SOL    HW123819   3.109   1.446   5.994
 7640SOL    HW223820   3.037   1.408   6.136
 7641SOL     OW23821   1.697   3.764   2.299
 7641SOL    HW123822   1.789   3.776   2.335
 7641SOL    HW223823   1.681   3.828   2.224
 7642SOL     OW23824   3.626   2.095   2.576
 7642SOL    HW123825   3.719   2.119   2.605
 7642SOL    HW223826   3.585   2.032   2.642
 7643SOL     OW23827   4.494   2.491   3.487
 7643SOL    HW123828   4.511   2.400   3.450
 7643SOL    HW223829   4.449   2.548   3.418
 7644SOL     OW23830   4.421   2.339   1.720
 7644SOL    HW123831   4.439   2.437   1.713
 7644SOL    HW223832   4.505   2.288   1.704
 7645SOL     OW23833   5.194   3.680   5.341
 7645SOL    HW123834   5.250   3.697   5.422
 7645SOL    HW223835   5.139   3.598   5.356
 7646SOL     OW23836   1.511   3.342   3.380
 7646SOL    HW123837   1.601   3.387   3.379
 7646SOL    HW223838   1.510   3.269   3.312
 7647SOL     OW23839   6.726   2.367   3.527
 7647SOL    HW123840   6.823   2.381   3.506
 7647SOL    HW223841   6.717   2.310   3.608
 7648SOL     OW23842   2.734   1.544   3.168
 7648SOL    HW123843   2.710   1.632   3.129
 7648SOL    HW223844   2.743   1.476   3.095
 7649SOL     OW23845   1.033   0.751   3.580
 7649SOL    HW123846   1.110   0.723   3.636
 7649SOL    HW223847   1.019   0.850   3.588
 7650SOL     OW23848   5.446   1.364   0.619
 7650SOL    HW123849   5.461   1.324   0.710
 7650SOL    HW223850   5.373   1.432   0.624
 7651SOL     OW23851   2.217   0.546   3.484
 7651SOL    HW123852   2.273   0.521   3.405
 7651SOL    HW223853   2.276   0.564   3.562
 7652SOL     OW23854   5.932   3.245   4.846
 7652SOL    HW123855   5.993   3.183   4.796
 7652SOL    HW223856   5.848   3.258   4.794
 7653SOL     OW23857   0.210   2.207   0.010
 7653SOL    HW123858   0.155   2.144   6.976
 7653SOL    HW223859   0.305   2.174   0.011
 7654SOL     OW23860   4.934   2.881   4.636
 7654SOL    HW123861   4.967   2.972   4.610
 7654SOL    HW223862   4.874   2.846   4.565
 7655SOL     OW23863   4.577   6.515   3.342
 7655SOL    HW123864   4.674   6.518   3.318
 7655SOL    HW223865   4.532   6.442   3.291
 7656SOL     OW23866   3.612   3.966   6.615
 7656SOL    HW123867   3.681   3.916   6.563
 7656SOL    HW223868   3.542   3.903   6.647
 7657SOL     OW23869   1.002   2.133   3.429
 7657SOL    HW123870   1.069   2.173   3.493
 7657SOL    HW223871   0.910   2.142   3.468
 7658SOL     OW23872   3.204   0.416   6.693
 7658SOL    HW123873   3.114   0.448   6.722
 7658SOL    HW223874   3.228   0.334   6.744
 7659SOL     OW23875   5.634   4.885   6.385
 7659SOL    HW123876   5.556   4.876   6.323
 7659SOL    HW223877   5.719   4.889   6.332
 7660SOL     OW23878   0.379   5.882   3.140
 7660SOL    HW123879   0.381   5.980   3.161
 7660SOL    HW223880   0.299   5.840   3.185
 7661SOL     OW23881   5.304   2.165   4.916
 7661SOL    HW123882   5.249   2.230   4.969
 7661SOL    HW223883   5.398   2.198   4.909
 7662SOL     OW23884   1.731   2.924   4.112
 7662SOL    HW123885   1.718   2.872   4.197
 7662SOL    HW223886   1.653   2.985   4.099
 7663SOL     OW23887   6.680   5.764   5.843
 7663SOL    HW123888   6.669   5.680   5.896
 7663SOL    HW223889   6.766   5.808   5.867
 7664SOL     OW23890   3.824   0.613   1.581
 7664SOL    HW123891   3.783   0.699   1.609
 7664SOL    HW223892   3.909   0.598   1.632
 7665SOL     OW23893   5.872   0.865   4.384
 7665SOL    HW123894   5.967   0.865   4.353
 7665SOL    HW223895   5.812   0.863   4.304
 7666SOL     OW23896   0.752   5.105   1.975
 7666SOL    HW123897   0.693   5.185   1.964
 7666SOL    HW223898   0.695   5.023   1.980
 7667SOL     OW23899   4.255   0.231   2.160
 7667SOL    HW123900   4.187   0.247   2.231
 7667SOL    HW223901   4.323   0.305   2.162
 7668SOL     OW23902   3.183   5.103   0.803
 7668SOL    HW123903   3.238   5.035   0.755
 7668SOL    HW223904   3.136   5.060   0.880
 7669SOL     OW23905   4.882   0.920   5.210
 7669SOL    HW123906   4.923   1.001   5.168
 7669SOL    HW223907   4.783   0.932   5.215
 7670SOL     OW23908   0.814   4.687   0.486
 7670SOL    HW123909   0.878   4.757   0.518
 7670SOL    HW223910   0.747   4.668   0.558
 7671SOL     OW23911   3.579   1.354   1.639
 7671SOL    HW123912   3.606   1.258   1.624
 7671SOL    HW223913   3.652   1.402   1.687
 7672SOL     OW23914   0.338   6.157   2.563
 7672SOL    HW123915   0.239   6.160   2.572
 7672SOL    HW223916   0.377   6.104   2.639
 7673SOL     OW23917   1.295   6.498   1.415
 7673SOL    HW123918   1.304   6.534   1.322
 7673SOL    HW223919   1.334   6.406   1.419
 7674SOL     OW23920   4.647   0.879   3.296
 7674SOL    HW123921   4.696   0.816   3.235
 7674SOL    HW223922   4.676   0.863   3.390
 7675SOL     OW23923   6.310   6.611   2.674
 7675SOL    HW123924   6.409   6.596   2.678
 7675SOL    HW223925   6.268   6.542   2.614
 7676SOL     OW23926   2.405   1.879   0.553
 7676SOL    HW123927   2.435   1.947   0.486
 7676SOL    HW223928   2.452   1.793   0.536
 7677SOL     OW23929   1.136   4.602   1.241
 7677SOL    HW123930   1.209   4.660   1.207
 7677SOL    HW223931   1.048   4.632   1.204
 7678SOL     OW23932   2.370   2.826   5.290
 7678SOL    HW123933   2.387   2.917   5.253
 7678SOL    HW223934   2.322   2.771   5.221
 7679SOL     OW23935   3.356   6.648   5.882
 7679SOL    HW123936   3.449   6.634   5.846
 7679SOL    HW223937   3.300   6.694   5.813
 7680SOL     OW23938   1.565   0.848   0.636
 7680SOL    HW123939   1.615   0.935   0.632
 7680SOL    HW223940   1.601   0.785   0.568
 7681SOL     OW23941   2.588   0.675   1.051
 7681SOL    HW123942   2.653   0.677   0.975
 7681SOL    HW223943   2.504   0.723   1.025
 7682SOL     OW23944   3.576   0.229   1.936
 7682SOL    HW123945   3.577   0.326   1.912
 7682SOL    HW223946   3.555   0.174   1.855
 7683SOL     OW23947   6.113   2.184   4.562
 7683SOL    HW123948   6.106   2.167   4.660
 7683SOL    HW223949   6.045   2.130   4.513
 7684SOL     OW23950   3.894   1.837   1.406
 7684SOL    HW123951   3.891   1.895   1.488
 7684SOL    HW223952   3.802   1.807   1.382
 7685SOL     OW23953   2.706   1.788   5.938
 7685SOL    HW123954   2.801   1.815   5.923
 7685SOL    HW223955   2.695   1.754   6.031
 7686SOL     OW23956   0.093   6.319   3.221
 7686SOL    HW123957   0.015   6.348   3.166
 7686SOL    HW223958   0.072   6.331   3.318
 7687SOL     OW23959   6.146   5.460   3.922
 7687SOL    HW123960   6.147   5.491   3.827
 7687SOL    HW223961   6.232   5.486   3.967
 7688SOL     OW23962   0.927   6.074   5.106
 7688SOL    HW123963   0.986   6.101   5.182
 7688SOL    HW223964   0.929   5.975   5.095
 7689SOL     OW23965   5.731   6.227   2.233
 7689SOL    HW123966   5.778   6.252   2.318
 7689SOL    HW223967   5.742   6.301   2.166
 7690SOL     OW23968   5.433   4.379   0.204
 7690SOL    HW123969   5.469   4.302   0.152
 7690SOL    HW223970   5.342   4.402   0.171
 7691SOL     OW23971   4.902   3.654   4.120
 7691SOL    HW123972   4.868   3.597   4.195
 7691SOL    HW223973   4.948   3.596   4.053
 7692SOL     OW23974   0.849   6.518   1.915
 7692SOL    HW123975   0.759   6.554   1.889
 7692SOL    HW223976   0.845   6.480   2.007
 7693SOL     OW23977   3.401   6.908   1.896
 7693SOL    HW123978   3.373   6.973   1.967
 7693SOL    HW223979   3.444   6.958   1.820
 7694SOL     OW23980   5.176   3.697   4.090
 7694SOL    HW123981   5.194   3.780   4.037
 7694SOL    HW223982   5.082   3.699   4.125
 7695SOL     OW23983   4.690   0.127   0.775
 7695SOL    HW123984   4.750   0.180   0.836
 7695SOL    HW223985   4.595   0.153   0.790
 7696SOL     OW23986   0.269   0.765   6.142
 7696SOL    HW123987   0.362   0.738   6.166
 7696SOL    HW223988   0.204   0.706   6.190
 7697SOL     OW23989   2.335   0.104   3.283
 7697SOL    HW123990   2.347   0.107   3.382
 7697SOL    HW223991   2.325   0.009   3.253
 7698SOL     OW23992   5.559   2.232   4.100
 7698SOL    HW123993   5.550   2.223   4.199
 7698SOL    HW223994   5.570   2.328   4.076
 7699SOL     OW23995   3.420   6.017   6.066
 7699SOL    HW123996   3.506   5.969   6.053
 7699SOL    HW223997   3.351   5.978   6.005
 7700SOL     OW23998   4.649   5.823   3.023
 7700SOL    HW123999   4.610   5.738   3.059
 7700SOL    HW224000   4.742   5.834   3.058
 7701SOL     OW24001   6.184   1.912   0.247
 7701SOL    HW124002   6.147   1.967   0.322
 7701SOL    HW224003   6.136   1.935   0.162
 7702SOL     OW24004   3.531   6.293   4.725
 7702SOL    HW124005   3.553   6.196   4.735
 7702SOL    HW224006   3.454   6.317   4.784
 7703SOL     OW24007   6.125   6.049   6.334
 7703SOL    HW124008   6.034   6.087   6.319
 7703SOL    HW224009   6.176   6.050   6.248
 7704SOL     OW24010   5.906   0.488   4.321
 7704SOL    HW124011   5.829   0.519   4.376
 7704SOL    HW224012   5.876   0.473   4.227
 7705SOL     OW24013   2.556   6.031   0.592
 7705SOL    HW124014   2.477   6.006   0.647
 7705SOL    HW224015   2.527   6.049   0.498
 7706SOL     OW24016   3.578   3.835   4.656
 7706SOL    HW124017   3.646   3.908   4.660
 7706SOL    HW224018   3.486   3.874   4.667
 7707SOL     OW24019   0.191   4.829   5.864
 7707SOL    HW124020   0.121   4.895   5.837
 7707SOL    HW224021   0.269   4.835   5.802
 7708SOL     OW24022   1.161   6.742   5.877
 7708SOL    HW124023   1.168   6.810   5.804
 7708SOL    HW224024   1.082   6.761   5.934
 7709SOL     OW24025   6.902   4.593   2.706
 7709SOL    HW124026   6.997   4.589   2.675
 7709SOL    HW224027   6.841   4.591   2.627
 7710SOL     OW24028   3.367   2.523   0.369
 7710SOL    HW124029   3.424   2.605   0.367
 7710SOL    HW224030   3.271   2.550   0.377
 7711SOL     OW24031   5.415   6.840   5.997
 7711SOL    HW124032   5.471   6.806   5.921
 7711SOL    HW224033   5.325   6.797   5.995
 7712SOL     OW24034   0.207   5.211   1.543
 7712SOL    HW124035   0.302   5.241   1.550
 7712SOL    HW224036   0.180   5.204   1.447
 7713SOL     OW24037   1.471   4.074   0.554
 7713SOL    HW124038   1.412   4.032   0.623
 7713SOL    HW224039   1.416   4.099   0.473
 7714SOL     OW24040   0.247   4.433   5.105
 7714SOL    HW124041   0.181   4.360   5.091
 7714SOL    HW224042   0.286   4.425   5.197
 7715SOL     OW24043   3.002   2.360   0.357
 7715SOL    HW124044   3.006   2.262   0.376
 7715SOL    HW224045   3.011   2.374   0.258
 7716SOL     OW24046   0.177   4.983   1.826
 7716SOL    HW124047   0.093   5.010   1.779
 7716SOL    HW224048   0.201   4.890   1.800
 7717SOL     OW24049   1.817   0.921   6.305
 7717SOL    HW124050   1.885   0.986   6.338
 7717SOL    HW224051   1.762   0.888   6.382
 7718SOL     OW24052   6.595   4.210   3.354
 7718SOL    HW124053   6.534   4.277   3.395
 7718SOL    HW224054   6.627   4.146   3.424
 7719SOL     OW24055   0.277   4.390   5.382
 7719SOL    HW124056   0.365   4.395   5.429
 7719SOL    HW224057   0.237   4.300   5.396
 7720SOL     OW24058   6.602   2.142   6.318
 7720SOL    HW124059   6.610   2.063   6.378
 7720SOL    HW224060   6.618   2.114   6.223
 7721SOL     OW24061   0.402   5.366   2.282
 7721SOL    HW124062   0.390   5.445   2.341
 7721SOL    HW224063   0.373   5.283   2.330
 7722SOL     OW24064   1.462   4.009   3.346
 7722SOL    HW124065   1.438   4.091   3.398
 7722SOL    HW224066   1.381   3.951   3.337
 7723SOL     OW24067   4.556   3.544   6.431
 7723SOL    HW124068   4.552   3.565   6.333
 7723SOL    HW224069   4.543   3.445   6.444
 7724SOL     OW24070   2.517   3.806   0.814
 7724SOL    HW124071   2.609   3.777   0.840
 7724SOL    HW224072   2.450   3.742   0.851
 7725SOL     OW24073   6.417   1.936   2.500
 7725SOL    HW124074   6.399   2.035   2.506
 7725SOL    HW224075   6.470   1.918   2.417
 7726SOL     OW24076   1.983   5.189   5.920
 7726SOL    HW124077   1.932   5.246   5.856
 7726SOL    HW224078   2.007   5.103   5.877
 7727SOL     OW24079   6.826   1.991   2.996
 7727SOL    HW124080   6.830   2.030   2.904
 7727SOL    HW224081   6.743   2.021   3.042
 7728SOL     OW24082   2.112   3.009   5.193
 7728SOL    HW124083   2.072   3.099   5.209
 7728SOL    HW224084   2.204   3.020   5.154
 7729SOL     OW24085   6.148   1.927   1.281
 7729SOL    HW124086   6.169   2.011   1.230
 7729SOL    HW224087   6.051   1.927   1.307
 7730SOL     OW24088   6.808   4.858   0.063
 7730SOL    HW124089   6.805   4.873   6.985
 7730SOL    HW224090   6.749   4.924   0.109
 7731SOL     OW24091   6.063   1.115   6.946
 7731SOL    HW124092   6.071   1.168   0.011
 7731SOL    HW224093   6.001   1.039   6.960
 7732SOL     OW24094   4.857   6.755   0.548
 7732SOL    HW124095   4.900   6.778   0.461
 7732SOL    HW224096   4.905   6.800   0.623
 7733SOL     OW24097   5.429   6.181   2.407
 7733SOL    HW124098   5.481   6.100   2.381
 7733SOL    HW224099   5.435   6.195   2.506
 7734SOL     OW24100   1.250   4.814   4.148
 7734SOL    HW124101   1.231   4.906   4.113
 7734SOL    HW224102   1.327   4.817   4.211
 7735SOL     OW24103   4.932   6.532   6.360
 7735SOL    HW124104   4.992   6.556   6.437
 7735SOL    HW224105   4.984   6.480   6.292
 7736SOL     OW24106   2.687   3.053   6.850
 7736SOL    HW124107   2.700   2.998   6.768
 7736SOL    HW224108   2.741   3.014   6.925
 7737SOL     OW24109   2.505   6.444   2.693
 7737SOL    HW124110   2.526   6.366   2.751
 7737SOL    HW224111   2.551   6.433   2.605
 7738SOL     OW24112   3.067   5.602   0.149
 7738SOL    HW124113   3.145   5.598   0.211
 7738SOL    HW224114   2.991   5.549   0.188
 7739SOL     OW24115   6.885   1.959   1.938
 7739SOL    HW124116   6.941   2.041   1.925
 7739SOL    HW224117   6.872   1.914   1.850
 7740SOL     OW24118   2.998   0.866   3.140
 7740SOL    HW124119   2.913   0.841   3.093
 7740SOL    HW224120   3.067   0.795   3.124
 7741SOL     OW24121   0.322   5.207   6.088
 7741SOL    HW124122   0.416   5.173   6.078
 7741SOL    HW224123   0.283   5.222   5.997
 7742SOL     OW24124   4.216   2.178   2.954
 7742SOL    HW124125   4.234   2.080   2.958
 7742SOL    HW224126   4.175   2.208   3.040
 7743SOL     OW24127   5.340   2.074   0.271
 7743SOL    HW124128   5.379   2.052   0.182
 7743SOL    HW224129   5.356   1.998   0.334
 7744SOL     OW24130   0.473   0.438   4.365
 7744SOL    HW124131   0.392   0.496   4.378
 7744SOL    HW224132   0.491   0.387   4.449
 7745SOL     OW24133   4.044   1.192   6.520
 7745SOL    HW124134   4.100   1.236   6.450
 7745SOL    HW224135   4.030   1.255   6.596
 7746SOL     OW24136   1.050   0.661   0.837
 7746SOL    HW124137   1.142   0.646   0.874
 7746SOL    HW224138   1.057   0.683   0.740
 7747SOL     OW24139   5.865   6.338   1.078
 7747SOL    HW124140   5.953   6.306   1.043
 7747SOL    HW224141   5.791   6.295   1.027
 7748SOL     OW24142   3.081   3.822   4.565
 7748SOL    HW124143   3.011   3.751   4.552
 7748SOL    HW224144   3.077   3.887   4.489
 7749SOL     OW24145   3.387   3.397   5.453
 7749SOL    HW124146   3.336   3.359   5.530
 7749SOL    HW224147   3.359   3.351   5.369
 7750SOL     OW24148   6.958   5.609   0.450
 7750SOL    HW124149   6.884   5.674   0.468
 7750SOL    HW224150   0.025   5.651   0.474
 7751SOL     OW24151   1.554   2.995   2.386
 7751SOL    HW124152   1.586   2.956   2.473
 7751SOL    HW224153   1.583   3.091   2.381
 7752SOL     OW24154   6.130   6.392   5.301
 7752SOL    HW124155   6.142   6.398   5.400
 7752SOL    HW224156   6.145   6.297   5.272
 7753SOL     OW24157   1.787   0.518   4.797
 7753SOL    HW124158   1.696   0.507   4.839
 7753SOL    HW224159   1.840   0.584   4.851
 7754SOL     OW24160   5.081   6.887   1.662
 7754SOL    HW124161   5.172   6.883   1.622
 7754SOL    HW224162   5.014   6.851   1.596
 7755SOL     OW24163   1.194   2.285   5.732
 7755SOL    HW124164   1.176   2.350   5.805
 7755SOL    HW224165   1.123   2.214   5.732
 7756SOL     OW24166   3.036   5.869   1.627
 7756SOL    HW124167   3.044   5.879   1.726
 7756SOL    HW224168   2.983   5.787   1.605
 7757SOL     OW24169   5.824   5.949   5.312
 7757SOL    HW124170   5.749   6.015   5.323
 7757SOL    HW224171   5.795   5.860   5.347
 7758SOL     OW24172   1.390   1.670   6.021
 7758SOL    HW124173   1.375   1.750   6.079
 7758SOL    HW224174   1.310   1.655   5.963
 7759SOL     OW24175   1.096   1.741   5.507
 7759SOL    HW124176   1.074   1.765   5.412
 7759SOL    HW224177   1.166   1.803   5.542
 7760SOL     OW24178   5.646   3.602   2.440
 7760SOL    HW124179   5.560   3.630   2.482
 7760SOL    HW224180   5.633   3.515   2.391
 7761SOL     OW24181   1.025   0.343   5.849
 7761SOL    HW124182   0.992   0.327   5.756
 7761SOL    HW224183   0.956   0.396   5.900
 7762SOL     OW24184   4.687   0.777   3.831
 7762SOL    HW124185   4.786   0.776   3.845
 7762SOL    HW224186   4.652   0.869   3.852
 7763SOL     OW24187   0.850   0.909   6.905
 7763SOL    HW124188   0.893   0.972   6.971
 7763SOL    HW224189   0.897   0.916   6.817
 7764SOL     OW24190   3.449   2.893   3.150
 7764SOL    HW124191   3.497   2.921   3.066
 7764SOL    HW224192   3.511   2.900   3.228
 7765SOL     OW24193   6.329   2.778   4.267
 7765SOL    HW124194   6.361   2.748   4.177
 7765SOL    HW224195   6.284   2.701   4.313
 7766SOL     OW24196   6.069   2.867   6.759
 7766SOL    HW124197   6.066   2.771   6.734
 7766SOL    HW224198   6.084   2.922   6.677
 7767SOL     OW24199   4.676   5.651   2.761
 7767SOL    HW124200   4.601   5.645   2.826
 7767SOL    HW224201   4.641   5.684   2.673
 7768SOL     OW24202   4.260   4.594   2.143
 7768SOL    HW124203   4.188   4.527   2.123
 7768SOL    HW224204   4.340   4.575   2.086
 7769SOL     OW24205   4.866   2.998   3.092
 7769SOL    HW124206   4.855   2.902   3.068
 7769SOL    HW224207   4.930   3.007   3.168
 7770SOL     OW24208   1.521   4.264   2.727
 7770SOL    HW124209   1.489   4.190   2.785
 7770SOL    HW224210   1.481   4.351   2.759
 7771SOL     OW24211   3.430   2.402   5.319
 7771SOL    HW124212   3.337   2.381   5.288
 7771SOL    HW224213   3.449   2.499   5.304
 7772SOL     OW24214   5.185   6.946   2.315
 7772SOL    HW124215   5.100   6.914   2.273
 7772SOL    HW224216   5.251   6.870   2.317
 7773SOL     OW24217   2.464   5.932   5.094
 7773SOL    HW124218   2.472   5.995   5.171
 7773SOL    HW224219   2.553   5.920   5.051
 7774SOL     OW24220   5.572   2.225   5.539
 7774SOL    HW124221   5.665   2.199   5.512
 7774SOL    HW224222   5.573   2.315   5.582
 7775SOL     OW24223   5.185   5.848   1.374
 7775SOL    HW124224   5.243   5.880   1.300
 7775SOL    HW224225   5.229   5.868   1.462
 7776SOL     OW24226   1.722   4.911   6.555
 7776SOL    HW124227   1.644   4.849   6.564
 7776SOL    HW224228   1.712   4.987   6.618
 7777SOL     OW24229   0.499   0.068   4.399
 7777SOL    HW124230   0.435   7.013   4.409
 7777SOL    HW224231   0.587   0.033   4.365
 7778SOL     OW24232   5.335   3.903   1.112
 7778SOL    HW124233   5.302   3.946   1.028
 7778SOL    HW224234   5.354   3.974   1.180
 7779SOL     OW24235   2.451   2.576   1.793
 7779SOL    HW124236   2.478   2.666   1.759
 7779SOL    HW224237   2.500   2.505   1.743
 7780SOL     OW24238   1.129   4.125   5.248
 7780SOL    HW124239   1.170   4.216   5.237
 7780SOL    HW224240   1.161   4.065   5.174
 7781SOL     OW24241   1.030   4.618   0.154
 7781SOL    HW124242   1.106   4.683   0.154
 7781SOL    HW224243   0.949   4.661   0.115
 7782SOL     OW24244   6.562   4.734   4.670
 7782SOL    HW124245   6.542   4.662   4.736
 7782SOL    HW224246   6.528   4.707   4.580
 7783SOL     OW24247   1.246   5.766   5.040
 7783SOL    HW124248   1.273   5.671   5.021
 7783SOL    HW224249   1.259   5.821   4.958
 7784SOL     OW24250   3.046   2.456   1.564
 7784SOL    HW124251   3.027   2.553   1.576
 7784SOL    HW224252   3.046   2.411   1.653
 7785SOL     OW24253   1.930   5.451   4.329
 7785SOL    HW124254   1.970   5.437   4.239
 7785SOL    HW224255   1.854   5.516   4.323
 7786SOL     OW24256   2.830   6.581   0.142
 7786SOL    HW124257   2.845   6.496   0.091
 7786SOL    HW224258   2.901   6.592   0.212
 7787SOL     OW24259   2.075   2.834   6.737
 7787SOL    HW124260   2.107   2.860   6.646
 7787SOL    HW224261   2.053   2.916   6.790
 7788SOL     OW24262   2.463   5.326   1.152
 7788SOL    HW124263   2.495   5.420   1.135
 7788SOL    HW224264   2.526   5.281   1.215
 7789SOL     OW24265   1.746   6.622   6.154
 7789SOL    HW124266   1.825   6.642   6.095
 7789SOL    HW224267   1.762   6.537   6.204
 7790SOL     OW24268   5.754   5.738   3.446
 7790SOL    HW124269   5.682   5.740   3.516
 7790SOL    HW224270   5.817   5.814   3.462
 7791SOL     OW24271   2.353   5.255   3.957
 7791SOL    HW124272   2.343   5.249   4.057
 7791SOL    HW224273   2.419   5.188   3.926
 7792SOL     OW24274   1.804   5.050   4.698
 7792SOL    HW124275   1.887   5.004   4.730
 7792SOL    HW224276   1.809   5.148   4.719
 7793SOL     OW24277   3.350   0.955   0.696
 7793SOL    HW124278   3.347   0.855   0.692
 7793SOL    HW224279   3.286   0.993   0.629
 7794SOL     OW24280   6.149   4.203   3.166
 7794SOL    HW124281   6.118   4.290   3.126
 7794SOL    HW224282   6.072   4.140   3.172
 7795SOL     OW24283   2.280   4.486   5.563
 7795SOL    HW124284   2.182   4.480   5.544
 7795SOL    HW224285   2.321   4.395   5.552
 7796SOL     OW24286   3.961   3.509   3.655
 7796SOL    HW124287   4.038   3.566   3.684
 7796SOL    HW224288   3.892   3.507   3.728
 7797SOL     OW24289   1.289   6.892   2.982
 7797SOL    HW124290   1.352   6.942   2.923
 7797SOL    HW224291   1.262   6.950   3.059
 7798SOL     OW24292   2.424   3.879   5.575
 7798SOL    HW124293   2.383   3.959   5.532
 7798SOL    HW224294   2.411   3.799   5.516
 7799SOL     OW24295   0.935   6.281   2.584
 7799SOL    HW124296   1.011   6.254   2.525
 7799SOL    HW224297   0.971   6.310   2.673
 7800SOL     OW24298   0.567   5.523   1.331
 7800SOL    HW124299   0.643   5.483   1.280
 7800SOL    HW224300   0.486   5.527   1.273
 7801SOL     OW24301   2.528   1.817   1.805
 7801SOL    HW124302   2.485   1.776   1.885
 7801SOL    HW224303   2.626   1.828   1.823
 7802SOL     OW24304   5.944   2.743   1.089
 7802SOL    HW124305   5.969   2.736   1.186
 7802SOL    HW224306   5.912   2.654   1.057
 7803SOL     OW24307   4.767   2.072   5.845
 7803SOL    HW124308   4.755   2.001   5.777
 7803SOL    HW224309   4.805   2.154   5.802
 7804SOL     OW24310   4.541   1.961   3.756
 7804SOL    HW124311   4.494   1.977   3.843
 7804SOL    HW224312   4.592   1.876   3.761
 7805SOL     OW24313   5.748   2.850   1.553
 7805SOL    HW124314   5.704   2.761   1.563
 7805SOL    HW224315   5.682   2.916   1.516
 7806SOL     OW24316   5.935   1.885   0.408
 7806SOL    HW124317   6.016   1.876   0.466
 7806SOL    HW224318   5.934   1.811   0.341
 7807SOL     OW24319   1.400   4.789   5.551
 7807SOL    HW124320   1.486   4.744   5.525
 7807SOL    HW224321   1.358   4.829   5.470
 7808SOL     OW24322   6.278   3.385   3.770
 7808SOL    HW124323   6.317   3.373   3.679
 7808SOL    HW224324   6.228   3.302   3.796
 7809SOL     OW24325   2.930   4.962   4.067
 7809SOL    HW124326   2.974   4.904   3.999
 7809SOL    HW224327   2.834   4.975   4.043
 7810SOL     OW24328   3.697   0.092   4.261
 7810SOL    HW124329   3.751   0.009   4.276
 7810SOL    HW224330   3.632   0.103   4.335
 7811SOL     OW24331   1.827   5.342   2.231
 7811SOL    HW124332   1.814   5.290   2.146
 7811SOL    HW224333   1.890   5.291   2.291
 7812SOL     OW24334   6.871   1.935   4.071
 7812SOL    HW124335   6.945   1.923   4.005
 7812SOL    HW224336   6.882   1.869   4.146
 7813SOL     OW24337   5.163   2.544   6.804
 7813SOL    HW124338   5.207   2.633   6.798
 7813SOL    HW224339   5.215   2.485   6.866
 7814SOL     OW24340   0.532   3.474   3.290
 7814SOL    HW124341   0.524   3.404   3.361
 7814SOL    HW224342   0.596   3.443   3.220
 7815SOL     OW24343   5.568   1.172   5.410
 7815SOL    HW124344   5.629   1.210   5.479
 7815SOL    HW224345   5.520   1.093   5.448
 7816SOL     OW24346   1.739   2.577   6.301
 7816SOL    HW124347   1.652   2.576   6.252
 7816SOL    HW224348   1.752   2.489   6.348
 7817SOL     OW24349   5.224   5.135   3.178
 7817SOL    HW124350   5.289   5.060   3.186
 7817SOL    HW224351   5.264   5.209   3.123
 7818SOL     OW24352   4.265   0.750   1.839
 7818SOL    HW124353   4.285   0.656   1.868
 7818SOL    HW224354   4.169   0.758   1.815
 7819SOL     OW24355   0.124   3.611   1.992
 7819SOL    HW124356   0.041   3.664   2.011
 7819SOL    HW224357   0.128   3.532   2.054
 7820SOL     OW24358   1.170   1.620   5.844
 7820SOL    HW124359   1.083   1.588   5.806
 7820SOL    HW224360   1.226   1.660   5.772
 7821SOL     OW24361   5.341   5.638   0.503
 7821SOL    HW124362   5.291   5.637   0.417
 7821SOL    HW224363   5.433   5.676   0.488
 7822SOL     OW24364   2.131   2.230   6.339
 7822SOL    HW124365   2.070   2.153   6.359
 7822SOL    HW224366   2.165   2.222   6.246
 7823SOL     OW24367   2.524   3.685   5.381
 7823SOL    HW124368   2.571   3.597   5.368
 7823SOL    HW224369   2.583   3.759   5.350
 7824SOL     OW24370   6.204   0.447   4.007
 7824SOL    HW124371   6.128   0.383   3.990
 7824SOL    HW224372   6.179   0.509   4.081
 7825SOL     OW24373   1.612   3.186   0.894
 7825SOL    HW124374   1.583   3.112   0.954
 7825SOL    HW224375   1.629   3.150   0.802
 7826SOL     OW24376   6.161   1.447   0.825
 7826SOL    HW124377   6.192   1.355   0.849
 7826SOL    HW224378   6.083   1.472   0.883
 7827SOL     OW24379   2.810   5.281   1.015
 7827SOL    HW124380   2.820   5.347   1.089
 7827SOL    HW224381   2.885   5.293   0.950
 7828SOL     OW24382   1.424   4.374   6.769
 7828SOL    HW124383   1.465   4.283   6.776
 7828SOL    HW224384   1.490   4.442   6.800
 7829SOL     OW24385   2.759   3.701   1.159
 7829SOL    HW124386   2.765   3.607   1.192
 7829SOL    HW224387   2.775   3.703   1.060
 7830SOL     OW24388   2.505   4.499   5.771
 7830SOL    HW124389   2.433   4.479   5.704
 7830SOL    HW224390   2.511   4.424   5.837
 7831SOL     OW24391   1.650   6.158   1.341
 7831SOL    HW124392   1.695   6.239   1.378
 7831SOL    HW224393   1.702   6.122   1.264
 7832SOL     OW24394   4.644   1.103   3.143
 7832SOL    HW124395   4.718   1.095   3.075
 7832SOL    HW224396   4.626   1.013   3.183
 7833SOL     OW24397   0.626   1.102   6.423
 7833SOL    HW124398   0.612   1.197   6.395
 7833SOL    HW224399   0.588   1.088   6.515
 7834SOL     OW24400   6.341   1.831   4.122
 7834SOL    HW124401   6.322   1.915   4.071
 7834SOL    HW224402   6.262   1.770   4.115
 7835SOL     OW24403   3.264   2.010   5.585
 7835SOL    HW124404   3.303   2.070   5.515
 7835SOL    HW224405   3.166   2.027   5.592
 7836SOL     OW24406   3.044   3.052   5.052
 7836SOL    HW124407   3.127   3.004   5.022
 7836SOL    HW224408   2.980   2.987   5.091
 7837SOL     OW24409   6.484   5.702   0.479
 7837SOL    HW124410   6.459   5.776   0.541
 7837SOL    HW224411   6.423   5.703   0.399
 7838SOL     OW24412   4.296   6.791   0.318
 7838SOL    HW124413   4.247   6.837   0.392
 7838SOL    HW224414   4.386   6.833   0.306
 7839SOL     OW24415   6.190   4.851   4.848
 7839SOL    HW124416   6.137   4.766   4.851
 7839SOL    HW224417   6.241   4.862   4.933
 7840SOL     OW24418   6.120   2.594   3.996
 7840SOL    HW124419   6.125   2.581   3.897
 7840SOL    HW224420   6.203   2.640   4.028
 7841SOL     OW24421   3.929   2.233   6.988
 7841SOL    HW124422   3.904   2.294   0.042
 7841SOL    HW224423   3.881   2.260   6.904
 7842SOL     OW24424   2.490   1.940   2.836
 7842SOL    HW124425   2.460   1.896   2.751
 7842SOL    HW224426   2.424   2.010   2.863
 7843SOL     OW24427   6.121   5.686   2.733
 7843SOL    HW124428   6.081   5.612   2.679
 7843SOL    HW224429   6.093   5.676   2.828
 7844SOL     OW24430   3.747   6.488   2.309
 7844SOL    HW124431   3.716   6.476   2.215
 7844SOL    HW224432   3.781   6.581   2.322
 7845SOL     OW24433   5.223   1.837   3.802
 7845SOL    HW124434   5.267   1.752   3.833
 7845SOL    HW224435   5.184   1.823   3.711
 7846SOL     OW24436   1.115   1.080   2.516
 7846SOL    HW124437   1.068   1.077   2.427
 7846SOL    HW224438   1.047   1.085   2.589
 7847SOL     OW24439   6.937   1.800   3.160
 7847SOL    HW124440   6.913   1.875   3.099
 7847SOL    HW224441   0.016   1.786   3.159
 7848SOL     OW24442   3.627   3.503   0.404
 7848SOL    HW124443   3.672   3.565   0.339
 7848SOL    HW224444   3.558   3.449   0.355
 7849SOL     OW24445   5.656   4.286   3.715
 7849SOL    HW124446   5.727   4.224   3.680
 7849SOL    HW224447   5.637   4.263   3.810
 7850SOL     OW24448   0.295   2.351   5.045
 7850SOL    HW124449   0.207   2.353   5.092
 7850SOL    HW224450   0.330   2.258   5.044
 7851SOL     OW24451   6.754   1.410   1.863
 7851SOL    HW124452   6.697   1.442   1.787
 7851SOL    HW224453   6.848   1.441   1.849
 7852SOL     OW24454   2.701   1.641   6.156
 7852SOL    HW124455   2.783   1.692   6.180
 7852SOL    HW224456   2.643   1.631   6.237
 7853SOL     OW24457   4.521   2.111   1.026
 7853SOL    HW124458   4.580   2.189   1.047
 7853SOL    HW224459   4.569   2.049   0.964
 7854SOL     OW24460   3.861   3.225   6.939
 7854SOL    HW124461   3.812   3.289   6.999
 7854SOL    HW224462   3.953   3.209   6.976
 7855SOL     OW24463   4.696   5.680   4.165
 7855SOL    HW124464   4.676   5.603   4.105
 7855SOL    HW224465   4.782   5.663   4.214
 7856SOL     OW24466   6.292   4.857   5.144
 7856SOL    HW124467   6.349   4.812   5.212
 7856SOL    HW224468   6.196   4.834   5.160
 7857SOL     OW24469   5.729   1.888   5.749
 7857SOL    HW124470   5.729   1.988   5.742
 7857SOL    HW224471   5.637   1.854   5.729
 7858SOL     OW24472   5.528   6.224   4.033
 7858SOL    HW124473   5.569   6.159   3.970
 7858SOL    HW224474   5.479   6.175   4.105
 7859SOL     OW24475   4.384   2.754   6.729
 7859SOL    HW124476   4.449   2.787   6.661
 7859SOL    HW224477   4.383   2.816   6.807
 7860SOL     OW24478   3.608   0.081   2.623
 7860SOL    HW124479   3.630   7.020   2.568
 7860SOL    HW224480   3.543   0.137   2.573
 7861SOL     OW24481   3.499   4.987   1.773
 7861SOL    HW124482   3.596   5.009   1.761
 7861SOL    HW224483   3.489   4.901   1.823
 7862SOL     OW24484   2.232   3.840   1.327
 7862SOL    HW124485   2.320   3.801   1.302
 7862SOL    HW224486   2.246   3.925   1.378
 7863SOL     OW24487   0.574   5.279   3.833
 7863SOL    HW124488   0.543   5.324   3.916
 7863SOL    HW224489   0.514   5.202   3.812
 7864SOL     OW24490   0.552   5.371   5.139
 7864SOL    HW124491   0.539   5.439   5.067
 7864SOL    HW224492   0.501   5.288   5.116
 7865SOL     OW24493   6.017   6.105   3.758
 7865SOL    HW124494   6.031   6.191   3.708
 7865SOL    HW224495   5.940   6.116   3.821
 7866SOL     OW24496   1.225   1.433   6.218
 7866SOL    HW124497   1.313   1.461   6.257
 7866SOL    HW224498   1.157   1.505   6.233
 7867SOL     OW24499   6.087   6.030   3.452
 7867SOL    HW124500   6.009   6.016   3.392
 7867SOL    HW224501   6.057   6.067   3.539
 7868SOL     OW24502   5.677   6.383   1.282
 7868SOL    HW124503   5.732   6.332   1.216
 7868SOL    HW224504   5.665   6.329   1.365
 7869SOL     OW24505   6.311   3.806   0.284
 7869SOL    HW124506   6.394   3.752   0.298
 7869SOL    HW224507   6.264   3.774   0.201
 7870SOL     OW24508   4.024   4.877   3.766
 7870SOL    HW124509   4.094   4.806   3.768
 7870SOL    HW224510   4.050   4.946   3.698
 7871SOL     OW24511   4.762   2.934   2.418
 7871SOL    HW124512   4.707   3.017   2.405
 7871SOL    HW224513   4.748   2.873   2.340
 7872SOL     OW24514   2.135   4.497   3.474
 7872SOL    HW124515   2.226   4.535   3.485
 7872SOL    HW224516   2.121   4.471   3.378
 7873SOL     OW24517   5.783   0.821   5.823
 7873SOL    HW124518   5.795   0.747   5.758
 7873SOL    HW224519   5.864   0.879   5.823
 7874SOL     OW24520   5.424   1.946   0.021
 7874SOL    HW124521   5.377   1.864   7.009
 7874SOL    HW224522   5.456   2.000   6.964
 7875SOL     OW24523   5.127   2.839   6.845
 7875SOL    HW124524   5.226   2.848   6.835
 7875SOL    HW224525   5.083   2.848   6.756
 7876SOL     OW24526   1.020   0.332   4.886
 7876SOL    HW124527   0.946   0.268   4.906
 7876SOL    HW224528   1.086   0.289   4.825
 7877SOL     OW24529   0.698   2.050   3.191
 7877SOL    HW124530   0.656   2.123   3.245
 7877SOL    HW224531   0.700   1.966   3.245
 7878SOL     OW24532   5.809   4.965   4.871
 7878SOL    HW124533   5.775   5.054   4.844
 7878SOL    HW224534   5.904   4.973   4.901
 7879SOL     OW24535   4.671   4.740   3.599
 7879SOL    HW124536   4.587   4.719   3.548
 7879SOL    HW224537   4.744   4.765   3.534
 7880SOL     OW24538   1.630   5.059   0.691
 7880SOL    HW124539   1.675   5.148   0.696
 7880SOL    HW224540   1.699   4.986   0.693
 7881SOL     OW24541   6.335   4.418   4.600
 7881SOL    HW124542   6.397   4.489   4.569
 7881SOL    HW224543   6.335   4.342   4.535
 7882SOL     OW24544   1.003   2.630   1.797
 7882SOL    HW124545   0.976   2.578   1.879
 7882SOL    HW224546   1.048   2.568   1.732
 7883SOL     OW24547   0.997   0.722   0.566
 7883SOL    HW124548   0.929   0.692   0.499
 7883SOL    HW224549   1.025   0.815   0.546
 7884SOL     OW24550   1.974   3.627   4.032
 7884SOL    HW124551   1.938   3.644   3.940
 7884SOL    HW224552   2.051   3.688   4.049
 7885SOL     OW24553   6.918   4.987   1.982
 7885SOL    HW124554   6.848   4.980   2.053
 7885SOL    HW224555   7.006   4.960   2.019
 7886SOL     OW24556   3.416   5.371   6.666
 7886SOL    HW124557   3.337   5.415   6.709
 7886SOL    HW224558   3.445   5.293   6.722
 7887SOL     OW24559   3.250   2.767   5.205
 7887SOL    HW124560   3.178   2.780   5.274
 7887SOL    HW224561   3.211   2.724   5.124
 7888SOL     OW24562   6.613   0.258   4.895
 7888SOL    HW124563   6.529   0.310   4.879
 7888SOL    HW224564   6.629   0.249   4.994
 7889SOL     OW24565   1.455   5.144   0.251
 7889SOL    HW124566   1.531   5.182   0.303
 7889SOL    HW224567   1.490   5.075   0.186
 7890SOL     OW24568   1.071   2.576   3.439
 7890SOL    HW124569   1.113   2.640   3.375
 7890SOL    HW224570   1.143   2.528   3.489
 7891SOL     OW24571   2.402   4.423   3.732
 7891SOL    HW124572   2.379   4.326   3.720
 7891SOL    HW224573   2.402   4.467   3.642
 7892SOL     OW24574   1.792   1.000   3.859
 7892SOL    HW124575   1.767   1.002   3.955
 7892SOL    HW224576   1.881   0.956   3.848
 7893SOL     OW24577   6.580   6.394   2.914
 7893SOL    HW124578   6.587   6.303   2.955
 7893SOL    HW224579   6.561   6.386   2.816
 7894SOL     OW24580   3.873   6.932   0.330
 7894SOL    HW124581   3.813   7.000   0.289
 7894SOL    HW224582   3.855   6.842   0.290
 7895SOL     OW24583   5.592   0.563   4.892
 7895SOL    HW124584   5.649   0.604   4.963
 7895SOL    HW224585   5.625   0.593   4.802
 7896SOL     OW24586   4.479   3.460   0.938
 7896SOL    HW124587   4.536   3.418   1.008
 7896SOL    HW224588   4.495   3.559   0.936
 7897SOL     OW24589   3.035   3.723   0.519
 7897SOL    HW124590   3.059   3.723   0.422
 7897SOL    HW224591   3.117   3.729   0.575
 7898SOL     OW24592   3.862   1.952   2.911
 7898SOL    HW124593   3.955   1.948   2.948
 7898SOL    HW224594   3.796   1.932   2.983
 7899SOL     OW24595   5.689   7.018   1.639
 7899SOL    HW124596   5.758   0.059   1.676
 7899SOL    HW224597   5.601   0.015   1.683
 7900SOL     OW24598   1.529   4.645   2.073
 7900SOL    HW124599   1.501   4.740   2.063
 7900SOL    HW224600   1.527   4.620   2.170
 7901SOL     OW24601   4.992   1.409   6.368
 7901SOL    HW124602   4.965   1.469   6.292
 7901SOL    HW224603   5.037   1.464   6.438
 7902SOL     OW24604   6.063   6.560   1.202
 7902SOL    HW124605   5.991   6.493   1.183
 7902SOL    HW224606   6.031   6.626   1.270
 7903SOL     OW24607   5.453   1.188   1.109
 7903SOL    HW124608   5.479   1.093   1.127
 7903SOL    HW224609   5.379   1.190   1.042
 7904SOL     OW24610   5.591   0.215   3.507
 7904SOL    HW124611   5.515   0.176   3.558
 7904SOL    HW224612   5.604   0.310   3.535
 7905SOL     OW24613   4.800   2.396   0.194
 7905SOL    HW124614   4.844   2.314   0.157
 7905SOL    HW224615   4.850   2.477   0.165
 7906SOL     OW24616   0.474   5.636   0.644
 7906SOL    HW124617   0.506   5.601   0.556
 7906SOL    HW224618   0.446   5.731   0.634
 7907SOL     OW24619   5.420   2.315   2.667
 7907SOL    HW124620   5.380   2.362   2.588
 7907SOL    HW224621   5.375   2.227   2.681
 7908SOL     OW24622   1.245   1.419   5.431
 7908SOL    HW124623   1.194   1.469   5.361
 7908SOL    HW224624   1.191   1.341   5.462
 7909SOL     OW24625   5.623   4.268   4.857
 7909SOL    HW124626   5.602   4.192   4.796
 7909SOL    HW224627   5.538   4.311   4.887
 7910SOL     OW24628   2.907   3.521   5.760
 7910SOL    HW124629   2.907   3.614   5.797
 7910SOL    HW224630   2.964   3.518   5.678
 7911SOL     OW24631   1.915   3.480   0.060
 7911SOL    HW124632   1.965   3.565   0.078
 7911SOL    HW224633   1.819   3.491   0.088
 7912SOL     OW24634   0.134   5.011   1.193
 7912SOL    HW124635   0.154   5.104   1.224
 7912SOL    HW224636   0.069   5.014   1.117
 7913SOL     OW24637   1.754   4.344   0.705
 7913SOL    HW124638   1.711   4.315   0.790
 7913SOL    HW224639   1.683   4.370   0.639
 7914SOL     OW24640   0.356   4.082   0.236
 7914SOL    HW124641   0.333   4.154   0.302
 7914SOL    HW224642   0.274   4.053   0.188
 7915SOL     OW24643   5.082   2.753   1.885
 7915SOL    HW124644   5.036   2.842   1.878
 7915SOL    HW224645   5.177   2.762   1.857
 7916SOL     OW24646   1.033   4.024   4.952
 7916SOL    HW124647   1.104   4.080   4.910
 7916SOL    HW224648   0.949   4.076   4.960
 7917SOL     OW24649   4.121   3.591   4.734
 7917SOL    HW124650   4.045   3.590   4.798
 7917SOL    HW224651   4.191   3.656   4.765
 7918SOL     OW24652   0.400   1.389   5.609
 7918SOL    HW124653   0.471   1.458   5.600
 7918SOL    HW224654   0.438   1.305   5.648
 7919SOL     OW24655   1.810   4.101   2.853
 7919SOL    HW124656   1.752   4.177   2.883
 7919SOL    HW224657   1.843   4.120   2.760
 7920SOL     OW24658   0.311   6.248   0.694
 7920SOL    HW124659   0.260   6.165   0.716
 7920SOL    HW224660   0.362   6.235   0.609
 7921SOL     OW24661   5.460   6.814   0.683
 7921SOL    HW124662   5.396   6.779   0.614
 7921SOL    HW224663   5.452   6.914   0.687
 7922SOL     OW24664   0.021   6.766   0.610
 7922SOL    HW124665   6.965   6.729   0.557
 7922SOL    HW224666   0.091   6.802   0.548
 7923SOL     OW24667   3.481   0.148   1.691
 7923SOL    HW124668   3.487   0.110   1.599
 7923SOL    HW224669   3.385   0.148   1.721
 7924SOL     OW24670   4.235   6.947   1.755
 7924SOL    HW124671   4.160   6.962   1.819
 7924SOL    HW224672   4.216   6.995   1.670
 7925SOL     OW24673   0.769   1.549   6.742
 7925SOL    HW124674   0.794   1.455   6.721
 7925SOL    HW224675   0.844   1.592   6.793
 7926SOL     OW24676   5.019   1.897   5.398
 7926SOL    HW124677   5.026   1.958   5.477
 7926SOL    HW224678   5.036   1.803   5.427
 7927SOL     OW24679   4.245   5.557   2.431
 7927SOL    HW124680   4.172   5.489   2.436
 7927SOL    HW224681   4.250   5.594   2.338
 7928SOL     OW24682   1.443   1.835   4.585
 7928SOL    HW124683   1.442   1.796   4.678
 7928SOL    HW224684   1.375   1.909   4.580
 7929SOL     OW24685   4.171   5.032   6.143
 7929SOL    HW124686   4.155   4.984   6.057
 7929SOL    HW224687   4.194   4.966   6.214
 7930SOL     OW24688   4.055   5.633   4.739
 7930SOL    HW124689   4.137   5.601   4.786
 7930SOL    HW224690   3.974   5.593   4.782
 7931SOL     OW24691   1.916   2.026   0.139
 7931SOL    HW124692   1.835   1.970   0.118
 7931SOL    HW224693   1.946   2.007   0.232
 7932SOL     OW24694   1.376   6.478   6.500
 7932SOL    HW124695   1.419   6.495   6.411
 7932SOL    HW224696   1.416   6.539   6.569
 7933SOL     OW24697   0.337   5.974   6.061
 7933SOL    HW124698   0.400   5.939   6.130
 7933SOL    HW224699   0.251   5.999   6.104
 7934SOL     OW24700   2.410   5.042   0.047
 7934SOL    HW124701   2.399   4.951   0.088
 7934SOL    HW224702   2.430   5.032   6.970
 7935SOL     OW24703   5.911   5.583   0.114
 7935SOL    HW124704   5.988   5.549   0.168
 7935SOL    HW224705   5.833   5.520   0.123
 7936SOL     OW24706   3.902   6.266   2.339
 7936SOL    HW124707   3.928   6.233   2.248
 7936SOL    HW224708   3.839   6.344   2.329
 7937SOL     OW24709   6.891   6.123   3.391
 7937SOL    HW124710   6.948   6.179   3.451
 7937SOL    HW224711   6.861   6.042   3.440
 7938SOL     OW24712   6.340   5.526   4.094
 7938SOL    HW124713   6.276   5.574   4.154
 7938SOL    HW224714   6.385   5.452   4.145
 7939SOL     OW24715   1.650   2.463   5.555
 7939SOL    HW124716   1.690   2.549   5.585
 7939SOL    HW224717   1.587   2.429   5.626
 7940SOL     OW24718   1.647   3.469   1.948
 7940SOL    HW124719   1.582   3.519   1.890
 7940SOL    HW224720   1.740   3.483   1.913
 7941SOL     OW24721   5.595   1.189   0.825
 7941SOL    HW124722   5.635   1.263   0.878
 7941SOL    HW224723   5.516   1.152   0.875
 7942SOL     OW24724   6.358   6.190   2.946
 7942SOL    HW124725   6.389   6.205   3.040
 7942SOL    HW224726   6.309   6.271   2.914
 7943SOL     OW24727   6.091   3.235   0.510
 7943SOL    HW124728   6.082   3.335   0.505
 7943SOL    HW224729   6.161   3.212   0.577
 7944SOL     OW24730   0.184   2.522   1.324
 7944SOL    HW124731   0.261   2.572   1.284
 7944SOL    HW224732   0.159   2.447   1.264
 7945SOL     OW24733   5.932   5.697   1.602
 7945SOL    HW124734   5.875   5.779   1.612
 7945SOL    HW224735   5.988   5.685   1.684
 7946SOL     OW24736   2.329   1.563   5.511
 7946SOL    HW124737   2.333   1.515   5.423
 7946SOL    HW224738   2.257   1.523   5.567
 7947SOL     OW24739   3.831   2.044   6.298
 7947SOL    HW124740   3.905   2.043   6.230
 7947SOL    HW224741   3.744   2.058   6.251
 7948SOL     OW24742   1.047   6.658   1.093
 7948SOL    HW124743   0.988   6.635   1.170
 7948SOL    HW224744   1.034   6.591   1.020
 7949SOL     OW24745   4.417   4.688   4.943
 7949SOL    HW124746   4.465   4.650   4.864
 7949SOL    HW224747   4.360   4.618   4.985
 7950SOL     OW24748   5.423   5.177   4.704
 7950SOL    HW124749   5.373   5.185   4.618
 7950SOL    HW224750   5.404   5.087   4.745
 7951SOL     OW24751   2.304   4.106   1.928
 7951SOL    HW124752   2.337   4.157   1.848
 7951SOL    HW224753   2.297   4.009   1.905
 7952SOL     OW24754   0.537   3.395   6.952
 7952SOL    HW124755   0.473   3.464   6.919
 7952SOL    HW224756   0.491   3.335   7.017
 7953SOL     OW24757   2.237   2.632   3.894
 7953SOL    HW124758   2.196   2.664   3.808
 7953SOL    HW224759   2.329   2.598   3.876
 7954SOL     OW24760   4.467   4.205   5.660
 7954SOL    HW124761   4.380   4.157   5.665
 7954SOL    HW224762   4.451   4.304   5.662
 7955SOL     OW24763   1.169   6.705   6.762
 7955SOL    HW124764   1.101   6.731   6.693
 7955SOL    HW224765   1.143   6.617   6.803
 7956SOL     OW24766   3.702   5.802   2.559
 7956SOL    HW124767   3.726   5.874   2.494
 7956SOL    HW224768   3.632   5.836   2.622
 7957SOL     OW24769   1.184   0.709   1.985
 7957SOL    HW124770   1.211   0.636   2.048
 7957SOL    HW224771   1.163   0.792   2.037
 7958SOL     OW24772   3.846   4.942   4.975
 7958SOL    HW124773   3.804   4.870   5.031
 7958SOL    HW224774   3.943   4.921   4.961
 7959SOL     OW24775   4.120   5.814   0.886
 7959SOL    HW124776   4.120   5.832   0.788
 7959SOL    HW224777   4.208   5.774   0.912
 7960SOL     OW24778   2.777   0.919   7.002
 7960SOL    HW124779   2.763   0.830   0.024
 7960SOL    HW224780   2.853   0.913   6.937
 7961SOL     OW24781   0.143   0.812   1.242
 7961SOL    HW124782   0.066   0.871   1.220
 7961SOL    HW224783   0.182   0.839   1.330
 7962SOL     OW24784   1.116   0.450   6.980
 7962SOL    HW124785   1.203   0.419   7.020
 7962SOL    HW224786   1.132   0.531   6.925
 7963SOL     OW24787   6.685   0.271   3.956
 7963SOL    HW124788   6.710   0.180   3.925
 7963SOL    HW224789   6.649   0.266   4.050
 7964SOL     OW24790   0.310   4.836   3.708
 7964SOL    HW124791   0.296   4.737   3.710
 7964SOL    HW224792   0.321   4.867   3.613
 7965SOL     OW24793   3.548   2.543   5.961
 7965SOL    HW124794   3.452   2.533   5.990
 7965SOL    HW224795   3.552   2.546   5.861
 7966SOL     OW24796   0.896   2.711   5.261
 7966SOL    HW124797   0.990   2.713   5.227
 7966SOL    HW224798   0.868   2.617   5.278
 7967SOL     OW24799   2.698   6.312   3.398
 7967SOL    HW124800   2.619   6.252   3.414
 7967SOL    HW224801   2.782   6.265   3.425
 7968SOL     OW24802   1.804   2.783   3.602
 7968SOL    HW124803   1.837   2.793   3.507
 7968SOL    HW224804   1.883   2.773   3.663
 7969SOL     OW24805   3.976   5.594   0.510
 7969SOL    HW124806   3.992   5.498   0.489
 7969SOL    HW224807   4.049   5.650   0.471
 7970SOL     OW24808   6.624   3.053   2.606
 7970SOL    HW124809   6.546   2.994   2.624
 7970SOL    HW224810   6.709   3.001   2.615
 7971SOL     OW24811   4.562   1.930   0.835
 7971SOL    HW124812   4.468   1.914   0.805
 7971SOL    HW224813   4.599   1.845   0.873
 7972SOL     OW24814   1.962   3.291   0.706
 7972SOL    HW124815   2.013   3.340   0.776
 7972SOL    HW224816   1.946   3.197   0.736
 7973SOL     OW24817   4.653   4.680   3.880
 7973SOL    HW124818   4.705   4.715   3.958
 7973SOL    HW224819   4.674   4.734   3.799
 7974SOL     OW24820   5.912   1.587   6.000
 7974SOL    HW124821   5.868   1.607   5.912
 7974SOL    HW224822   5.939   1.491   6.003
 7975SOL     OW24823   6.189   1.227   2.209
 7975SOL    HW124824   6.156   1.232   2.114
 7975SOL    HW224825   6.128   1.280   2.268
 7976SOL     OW24826   0.809   0.517   6.280
 7976SOL    HW124827   0.822   0.592   6.344
 7976SOL    HW224828   0.724   0.469   6.301
 7977SOL     OW24829   5.205   5.907   1.771
 7977SOL    HW124830   5.250   5.955   1.846
 7977SOL    HW224831   5.125   5.960   1.742
 7978SOL     OW24832   6.150   3.369   6.537
 7978SOL    HW124833   6.072   3.422   6.570
 7978SOL    HW224834   6.142   3.353   6.439
 7979SOL     OW24835   4.074   6.261   5.209
 7979SOL    HW124836   4.029   6.208   5.137
 7979SOL    HW224837   4.006   6.315   5.259
 7980SOL     OW24838   2.664   5.189   6.951
 7980SOL    HW124839   2.593   5.235   7.005
 7980SOL    HW224840   2.632   5.178   6.856
 7981SOL     OW24841   0.925   5.604   1.815
 7981SOL    HW124842   0.831   5.570   1.815
 7981SOL    HW224843   0.926   5.702   1.832
 7982SOL     OW24844   0.053   1.611   0.268
 7982SOL    HW124845   0.117   1.534   0.264
 7982SOL    HW224846   6.984   1.582   0.234
 7983SOL     OW24847   5.715   1.751   1.997
 7983SOL    HW124848   5.624   1.709   1.989
 7983SOL    HW224849   5.775   1.691   2.050
 7984SOL     OW24850   1.646   1.275   0.877
 7984SOL    HW124851   1.659   1.371   0.901
 7984SOL    HW224852   1.703   1.218   0.937
 7985SOL     OW24853   2.333   0.657   3.717
 7985SOL    HW124854   2.303   0.610   3.799
 7985SOL    HW224855   2.418   0.617   3.684
 7986SOL     OW24856   3.554   1.675   6.896
 7986SOL    HW124857   3.525   1.700   6.989
 7986SOL    HW224858   3.477   1.683   6.834
 7987SOL     OW24859   1.478   2.967   6.780
 7987SOL    HW124860   1.518   3.043   6.728
 7987SOL    HW224861   1.542   2.938   6.851
 7988SOL     OW24862   1.345   2.313   3.994
 7988SOL    HW124863   1.382   2.394   3.949
 7988SOL    HW224864   1.354   2.322   4.093
 7989SOL     OW24865   3.624   2.945   5.331
 7989SOL    HW124866   3.639   2.913   5.238
 7989SOL    HW224867   3.664   3.036   5.343
 7990SOL     OW24868   0.019   3.218   3.643
 7990SOL    HW124869   0.026   3.126   3.681
 7990SOL    HW224870   0.050   3.217   3.548
 7991SOL     OW24871   6.364   0.238   4.008
 7991SOL    HW124872   6.303   0.316   3.992
 7991SOL    HW224873   6.441   0.242   3.944
 7992SOL     OW24874   1.456   6.378   1.678
 7992SOL    HW124875   1.414   6.466   1.657
 7992SOL    HW224876   1.440   6.314   1.602
 7993SOL     OW24877   0.497   0.188   6.212
 7993SOL    HW124878   0.481   0.113   6.148
 7993SOL    HW224879   0.425   0.256   6.202
 7994SOL     OW24880   4.455   6.816   2.744
 7994SOL    HW124881   4.412   6.728   2.725
 7994SOL    HW224882   4.537   6.802   2.799
 7995SOL     OW24883   4.741   4.966   3.716
 7995SOL    HW124884   4.723   5.053   3.670
 7995SOL    HW224885   4.686   4.894   3.674
 7996SOL     OW24886   3.406   0.130   4.724
 7996SOL    HW124887   3.348   0.060   4.766
 7996SOL    HW224888   3.360   0.218   4.729
 7997SOL     OW24889   0.688   1.561   1.660
 7997SOL    HW124890   0.649   1.653   1.667
 7997SOL    HW224891   0.711   1.542   1.565
 7998SOL     OW24892   3.165   5.617   1.395
 7998SOL    HW124893   3.237   5.586   1.457
 7998SOL    HW224894   3.093   5.662   1.448
 7999SOL     OW24895   0.562   6.955   6.089
 7999SOL    HW124896   0.628   6.908   6.148
 7999SOL    HW224897   0.566   6.915   5.997
 8000SOL     OW24898   5.098   0.285   6.987
 8000SOL    HW124899   5.078   0.220   0.040
 8000SOL    HW224900   5.062   0.375   7.011
 8001SOL     OW24901   3.509   5.719   1.078
 8001SOL    HW124902   3.558   5.804   1.061
 8001SOL    HW224903   3.537   5.650   1.012
 8002SOL     OW24904   0.429   2.560   5.757
 8002SOL    HW124905   0.518   2.564   5.710
 8002SOL    HW224906   0.444   2.564   5.856
 8003SOL     OW24907   3.348   5.141   2.739
 8003SOL    HW124908   3.360   5.178   2.647
 8003SOL    HW224909   3.436   5.144   2.788
 8004SOL     OW24910   2.145   3.168   3.781
 8004SOL    HW124911   2.178   3.077   3.804
 8004SOL    HW224912   2.188   3.200   3.697
 8005SOL     OW24913   3.370   0.067   2.074
 8005SOL    HW124914   3.432   0.052   2.150
 8005SOL    HW224915   3.397   0.149   2.024
 8006SOL     OW24916   2.264   0.300   6.579
 8006SOL    HW124917   2.208   0.368   6.530
 8006SOL    HW224918   2.205   0.240   6.633
 8007SOL     OW24919   6.649   1.071   4.550
 8007SOL    HW124920   6.677   1.167   4.550
 8007SOL    HW224921   6.628   1.042   4.457
 8008SOL     OW24922   4.650   6.070   5.858
 8008SOL    HW124923   4.687   5.978   5.846
 8008SOL    HW224924   4.645   6.115   5.769
 8009SOL     OW24925   5.800   1.264   3.058
 8009SOL    HW124926   5.822   1.252   2.961
 8009SOL    HW224927   5.712   1.220   3.078
 8010SOL     OW24928   0.512   1.160   0.076
 8010SOL    HW124929   0.590   1.201   0.028
 8010SOL    HW224930   0.542   1.077   0.123
 8011SOL     OW24931   3.076   2.408   0.625
 8011SOL    HW124932   3.033   2.382   0.539
 8011SOL    HW224933   3.164   2.361   0.634
 8012SOL     OW24934   1.937   4.098   1.449
 8012SOL    HW124935   2.013   4.116   1.387
 8012SOL    HW224936   1.969   4.099   1.543
 8013SOL     OW24937   0.969   5.384   3.503
 8013SOL    HW124938   0.977   5.411   3.407
 8013SOL    HW224939   0.878   5.407   3.537
 8014SOL     OW24940   1.456   6.726   5.052
 8014SOL    HW124941   1.454   6.678   4.964
 8014SOL    HW224942   1.463   6.825   5.035
 8015SOL     OW24943   2.442   1.015   0.245
 8015SOL    HW124944   2.527   1.067   0.247
 8015SOL    HW224945   2.444   0.948   0.171
 8016SOL     OW24946   5.640   0.648   5.977
 8016SOL    HW124947   5.568   0.677   6.039
 8016SOL    HW224948   5.684   0.729   5.937
 8017SOL     OW24949   6.271   6.940   0.660
 8017SOL    HW124950   6.300   6.959   0.754
 8017SOL    HW224951   6.351   6.923   0.603
 8018SOL     OW24952   3.153   2.092   5.900
 8018SOL    HW124953   3.164   2.046   5.812
 8018SOL    HW224954   3.233   2.150   5.918
 8019SOL     OW24955   2.481   4.604   6.223
 8019SOL    HW124956   2.536   4.660   6.285
 8019SOL    HW224957   2.393   4.649   6.207
 8020SOL     OW24958   6.037   6.785   0.695
 8020SOL    HW124959   6.038   6.734   0.781
 8020SOL    HW224960   6.123   6.836   0.685
 8021SOL     OW24961   1.549   1.867   1.285
 8021SOL    HW124962   1.638   1.821   1.277
 8021SOL    HW224963   1.546   1.919   1.370
 8022SOL     OW24964   5.110   6.561   2.824
 8022SOL    HW124965   5.021   6.515   2.820
 8022SOL    HW224966   5.160   6.528   2.904
 8023SOL     OW24967   6.152   5.358   3.019
 8023SOL    HW124968   6.247   5.388   3.028
 8023SOL    HW224969   6.136   5.327   2.926
 8024SOL     OW24970   2.940   4.945   6.907
 8024SOL    HW124971   2.988   5.024   6.867
 8024SOL    HW224972   2.952   4.946   7.006
 8025SOL     OW24973   2.526   6.411   6.778
 8025SOL    HW124974   2.546   6.467   6.698
 8025SOL    HW224975   2.492   6.470   6.852
 8026SOL     OW24976   0.959   4.542   6.735
 8026SOL    HW124977   1.047   4.531   6.782
 8026SOL    HW224978   0.956   4.479   6.657
 8027SOL     OW24979   4.701   0.641   5.313
 8027SOL    HW124980   4.773   0.710   5.309
 8027SOL    HW224981   4.690   0.610   5.408
 8028SOL     OW24982   3.241   5.122   4.504
 8028SOL    HW124983   3.209   5.175   4.426
 8028SOL    HW224984   3.176   5.129   4.579
 8029SOL     OW24985   5.006   3.259   1.340
 8029SOL    HW124986   4.967   3.212   1.261
 8029SOL    HW224987   4.959   3.346   1.354
 8030SOL     OW24988   4.153   4.545   0.144
 8030SOL    HW124989   4.064   4.552   0.098
 8030SOL    HW224990   4.224   4.527   0.076
 8031SOL     OW24991   5.577   6.565   2.701
 8031SOL    HW124992   5.485   6.545   2.667
 8031SOL    HW224993   5.643   6.555   2.626
 8032SOL     OW24994   6.475   4.924   6.900
 8032SOL    HW124995   6.516   4.973   6.977
 8032SOL    HW224996   6.525   4.946   6.817
 8033SOL     OW24997   4.936   2.660   5.833
 8033SOL    HW124998   5.013   2.601   5.807
 8033SOL    HW224999   4.929   2.664   5.933
 8034SOL     OW25000   6.429   0.440   4.842
 8034SOL    HW125001   6.456   0.528   4.803
 8034SOL    HW225002   6.332   0.445   4.869
 8035SOL     OW25003   4.819   2.100   4.512
 8035SOL    HW125004   4.786   2.192   4.532
 8035SOL    HW225005   4.743   2.043   4.483
 8036SOL     OW25006   0.868   4.285   2.670
 8036SOL    HW125007   0.775   4.297   2.637
 8036SOL    HW225008   0.892   4.360   2.732
 8037SOL     OW25009   1.824   3.294   1.308
 8037SOL    HW125010   1.727   3.272   1.317
 8037SOL    HW225011   1.868   3.289   1.398
 8038SOL     OW25012   3.465   0.415   2.897
 8038SOL    HW125013   3.494   0.319   2.905
 8038SOL    HW225014   3.365   0.420   2.900
 8039SOL     OW25015   0.576   1.984   4.404
 8039SOL    HW125016   0.634   2.057   4.440
 8039SOL    HW225017   0.619   1.942   4.324
 8040SOL     OW25018   1.750   6.172   0.451
 8040SOL    HW125019   1.718   6.195   0.359
 8040SOL    HW225020   1.728   6.247   0.514
 8041SOL     OW25021   2.946   0.858   2.090
 8041SOL    HW125022   2.852   0.852   2.123
 8041SOL    HW225023   3.007   0.806   2.150
 8042SOL     OW25024   3.030   3.213   3.707
 8042SOL    HW125025   3.002   3.285   3.643
 8042SOL    HW225026   2.950   3.158   3.732
 8043SOL     OW25027   4.230   6.730   2.542
 8043SOL    HW125028   4.191   6.709   2.453
 8043SOL    HW225029   4.237   6.830   2.553
 8044SOL     OW25030   3.904   2.838   0.867
 8044SOL    HW125031   3.932   2.790   0.784
 8044SOL    HW225032   3.968   2.816   0.941
 8045SOL     OW25033   5.372   0.549   1.776
 8045SOL    HW125034   5.334   0.457   1.785
 8045SOL    HW225035   5.387   0.588   1.867
 8046SOL     OW25036   0.236   5.379   0.743
 8046SOL    HW125037   0.139   5.401   0.746
 8046SOL    HW225038   0.288   5.460   0.715
 8047SOL     OW25039   3.979   5.628   4.468
 8047SOL    HW125040   3.998   5.656   4.562
 8047SOL    HW225041   4.062   5.591   4.427
 8048SOL     OW25042   5.128   1.227   5.753
 8048SOL    HW125043   5.139   1.288   5.832
 8048SOL    HW225044   5.129   1.132   5.784
 8049SOL     OW25045   0.417   0.134   6.918
 8049SOL    HW125046   0.494   0.070   6.909
 8049SOL    HW225047   0.448   0.218   6.963
 8050SOL     OW25048   1.709   3.749   2.980
 8050SOL    HW125049   1.615   3.781   2.993
 8050SOL    HW225050   1.752   3.804   2.908
 8051SOL     OW25051   4.402   5.584   2.768
 8051SOL    HW125052   4.382   5.665   2.713
 8051SOL    HW225053   4.434   5.510   2.708
 8052SOL     OW25054   4.519   2.032   1.867
 8052SOL    HW125055   4.431   1.994   1.838
 8052SOL    HW225056   4.560   2.084   1.792
 8053SOL     OW25057   2.957   3.768   3.262
 8053SOL    HW125058   2.931   3.861   3.234
 8053SOL    HW225059   3.031   3.773   3.329
 8054SOL     OW25060   4.753   0.287   4.671
 8054SOL    HW125061   4.815   0.364   4.686
 8054SOL    HW225062   4.678   0.315   4.611
 8055SOL     OW25063   0.267   0.004   5.401
 8055SOL    HW125064   0.257   0.036   5.495
 8055SOL    HW225065   0.178   6.995   5.366
 8056SOL     OW25066   3.582   1.857   4.064
 8056SOL    HW125067   3.495   1.821   4.099
 8056SOL    HW225068   3.590   1.953   4.089
 8057SOL     OW25069   2.776   1.942   3.275
 8057SOL    HW125070   2.837   1.883   3.223
 8057SOL    HW225071   2.686   1.898   3.283
 8058SOL     OW25072   4.879   0.667   1.726
 8058SOL    HW125073   4.922   0.622   1.648
 8058SOL    HW225074   4.796   0.713   1.695
 8059SOL     OW25075   4.028   1.621   4.475
 8059SOL    HW125076   4.015   1.630   4.573
 8059SOL    HW225077   4.050   1.710   4.435
 8060SOL     OW25078   6.917   2.166   3.735
 8060SOL    HW125079   6.983   2.195   3.666
 8060SOL    HW225080   6.964   2.150   3.822
 8061SOL     OW25081   0.501   1.075   2.842
 8061SOL    HW125082   0.420   1.089   2.900
 8061SOL    HW225083   0.491   0.989   2.792
 8062SOL     OW25084   3.485   5.358   4.496
 8062SOL    HW125085   3.436   5.404   4.571
 8062SOL    HW225086   3.583   5.368   4.509
 8063SOL     OW25087   0.894   2.509   0.861
 8063SOL    HW125088   0.900   2.543   0.954
 8063SOL    HW225089   0.820   2.441   0.854
 8064SOL     OW25090   0.345   4.465   1.912
 8064SOL    HW125091   0.289   4.544   1.938
 8064SOL    HW225092   0.422   4.496   1.858
 8065SOL     OW25093   2.909   5.886   4.324
 8065SOL    HW125094   2.892   5.953   4.396
 8065SOL    HW225095   2.942   5.933   4.242
 8066SOL     OW25096   0.295   2.263   5.751
 8066SOL    HW125097   0.294   2.197   5.676
 8066SOL    HW225098   0.289   2.356   5.714
 8067SOL     OW25099   4.668   2.787   1.762
 8067SOL    HW125100   4.649   2.878   1.798
 8067SOL    HW225101   4.696   2.727   1.837
 8068SOL     OW25102   0.279   4.168   0.698
 8068SOL    HW125103   0.184   4.164   0.727
 8068SOL    HW225104   0.296   4.253   0.648
 8069SOL     OW25105   1.947   6.479   1.132
 8069SOL    HW125106   1.985   6.480   1.040
 8069SOL    HW225107   1.979   6.397   1.181
 8070SOL     OW25108   3.434   3.360   0.271
 8070SOL    HW125109   3.388   3.312   0.346
 8070SOL    HW225110   3.395   3.330   0.184
 8071SOL     OW25111   2.900   6.476   4.868
 8071SOL    HW125112   2.824   6.475   4.804
 8071SOL    HW225113   2.867   6.497   4.960
 8072SOL     OW25114   3.435   0.770   0.231
 8072SOL    HW125115   3.525   0.753   0.190
 8072SOL    HW225116   3.439   0.853   0.286
 8073SOL     OW25117   3.854   5.594   5.135
 8073SOL    HW125118   3.840   5.690   5.160
 8073SOL    HW225119   3.765   5.548   5.130
 8074SOL     OW25120   3.926   2.247   0.478
 8074SOL    HW125121   3.830   2.239   0.452
 8074SOL    HW225122   3.949   2.343   0.495
 8075SOL     OW25123   6.649   0.774   0.162
 8075SOL    HW125124   6.583   0.752   0.091
 8075SOL    HW225125   6.636   0.713   0.240
 8076SOL     OW25126   5.896   2.108   5.577
 8076SOL    HW125127   5.893   2.194   5.526
 8076SOL    HW225128   5.879   2.032   5.514
 8077SOL     OW25129   2.202   5.310   1.180
 8077SOL    HW125130   2.299   5.332   1.176
 8077SOL    HW225131   2.181   5.269   1.269
 8078SOL     OW25132   6.304   1.666   0.481
 8078SOL    HW125133   6.367   1.734   0.443
 8078SOL    HW225134   6.352   1.613   0.551
 8079SOL     OW25135   4.668   1.669   3.172
 8079SOL    HW125136   4.722   1.586   3.156
 8079SOL    HW225137   4.604   1.682   3.097
 8080SOL     OW25138   0.327   2.951   0.260
 8080SOL    HW125139   0.384   2.881   0.304
 8080SOL    HW225140   0.304   3.022   0.326
 8081SOL     OW25141   5.142   6.714   4.560
 8081SOL    HW125142   5.166   6.682   4.652
 8081SOL    HW225143   5.224   6.753   4.517
 8082SOL     OW25144   5.114   6.641   2.040
 8082SOL    HW125145   5.212   6.646   2.020
 8082SOL    HW225146   5.072   6.731   2.026
 8083SOL     OW25147   4.941   3.981   2.544
 8083SOL    HW125148   4.985   4.024   2.465
 8083SOL    HW225149   4.903   3.892   2.517
 8084SOL     OW25150   4.898   0.344   0.332
 8084SOL    HW125151   4.838   0.285   0.386
 8084SOL    HW225152   4.909   0.305   0.240
 8085SOL     OW25153   5.896   6.824   2.509
 8085SOL    HW125154   5.847   6.740   2.486
 8085SOL    HW225155   5.971   6.837   2.444
 8086SOL     OW25156   4.401   0.912   3.683
 8086SOL    HW125157   4.386   0.830   3.739
 8086SOL    HW225158   4.459   0.976   3.733
 8087SOL     OW25159   2.804   1.124   0.558
 8087SOL    HW125160   2.759   1.133   0.646
 8087SOL    HW225161   2.891   1.078   0.569
 8088SOL     OW25162   5.394   3.046   1.603
 8088SOL    HW125163   5.340   3.127   1.624
 8088SOL    HW225164   5.450   3.062   1.522
 8089SOL     OW25165   5.127   2.541   0.723
 8089SOL    HW125166   5.049   2.565   0.666
 8089SOL    HW225167   5.212   2.558   0.673
 8090SOL     OW25168   4.590   2.057   0.090
 8090SOL    HW125169   4.607   2.004   0.173
 8090SOL    HW225170   4.505   2.026   0.047
 8091SOL     OW25171   2.699   3.426   6.150
 8091SOL    HW125172   2.625   3.427   6.083
 8091SOL    HW225173   2.677   3.489   6.225
 8092SOL     OW25174   6.961   2.858   5.139
 8092SOL    HW125175   6.963   2.941   5.082
 8092SOL    HW225176   6.920   2.783   5.087
 8093SOL     OW25177   4.720   4.955   2.743
 8093SOL    HW125178   4.672   4.902   2.814
 8093SOL    HW225179   4.746   5.044   2.780
 8094SOL     OW25180   1.482   3.518   5.248
 8094SOL    HW125181   1.511   3.426   5.274
 8094SOL    HW225182   1.463   3.521   5.150
 8095SOL     OW25183   6.293   4.218   5.273
 8095SOL    HW125184   6.365   4.209   5.341
 8095SOL    HW225185   6.257   4.312   5.273
 8096SOL     OW25186   2.617   5.893   3.803
 8096SOL    HW125187   2.665   5.956   3.741
 8096SOL    HW225188   2.679   5.865   3.876
 8097SOL     OW25189   4.693   6.553   4.179
 8097SOL    HW125190   4.727   6.643   4.206
 8097SOL    HW225191   4.745   6.482   4.226
 8098SOL     OW25192   2.051   6.808   3.784
 8098SOL    HW125193   1.959   6.833   3.815
 8098SOL    HW225194   2.077   6.720   3.825
 8099SOL     OW25195   4.277   0.572   4.022
 8099SOL    HW125196   4.215   0.494   4.014
 8099SOL    HW225197   4.284   0.600   4.118
 8100SOL     OW25198   5.985   6.990   0.196
 8100SOL    HW125199   6.039   6.944   0.266
 8100SOL    HW225200   5.997   0.068   0.204
 8101SOL     OW25201   2.040   0.014   3.600
 8101SOL    HW125202   2.057   6.947   3.646
 8101SOL    HW225203   1.956   0.055   3.636
 8102SOL     OW25204   0.686   5.173   4.164
 8102SOL    HW125205   0.763   5.115   4.190
 8102SOL    HW225206   0.604   5.116   4.152
 8103SOL     OW25207   4.487   0.497   1.243
 8103SOL    HW125208   4.581   0.464   1.243
 8103SOL    HW225209   4.445   0.479   1.332
 8104SOL     OW25210   2.920   0.203   6.171
 8104SOL    HW125211   2.972   0.178   6.090
 8104SOL    HW225212   2.981   0.209   6.249
 8105SOL     OW25213   0.794   2.213   3.650
 8105SOL    HW125214   0.719   2.231   3.714
 8105SOL    HW225215   0.839   2.299   3.627
 8106SOL     OW25216   1.895   6.304   2.741
 8106SOL    HW125217   1.945   6.298   2.654
 8106SOL    HW225218   1.912   6.221   2.795
 8107SOL     OW25219   0.397   5.832   4.871
 8107SOL    HW125220   0.386   5.756   4.936
 8107SOL    HW225221   0.494   5.855   4.864
 8108SOL     OW25222   6.216   3.157   5.148
 8108SOL    HW125223   6.233   3.128   5.054
 8108SOL    HW225224   6.292   3.127   5.206
 8109SOL     OW25225   2.017   3.898   4.243
 8109SOL    HW125226   2.001   3.989   4.205
 8109SOL    HW225227   1.931   3.847   4.245
 8110SOL     OW25228   2.955   6.548   0.504
 8110SOL    HW125229   2.923   6.537   0.599
 8110SOL    HW225230   2.930   6.467   0.451
 8111SOL     OW25231   3.854   0.822   4.481
 8111SOL    HW125232   3.772   0.775   4.447
 8111SOL    HW225233   3.833   0.918   4.499
 8112SOL     OW25234   2.272   2.246   4.606
 8112SOL    HW125235   2.271   2.246   4.506
 8112SOL    HW225236   2.253   2.338   4.640
 8113SOL     OW25237   3.404   3.129   1.093
 8113SOL    HW125238   3.357   3.218   1.091
 8113SOL    HW225239   3.488   3.135   1.038
 8114SOL     OW25240   2.329   3.834   1.786
 8114SOL    HW125241   2.350   3.765   1.717
 8114SOL    HW225242   2.241   3.814   1.829
 8115SOL     OW25243   3.413   0.036   0.416
 8115SOL    HW125244   3.448   6.972   0.375
 8115SOL    HW225245   3.358   0.085   0.349
 8116SOL     OW25246   4.718   6.126   5.380
 8116SOL    HW125247   4.682   6.160   5.467
 8116SOL    HW225248   4.643   6.086   5.327
 8117SOL     OW25249   1.855   1.321   4.247
 8117SOL    HW125250   1.917   1.390   4.209
 8117SOL    HW225251   1.893   1.286   4.332
 8118SOL     OW25252   5.827   3.309   5.840
 8118SOL    HW125253   5.903   3.355   5.794
 8118SOL    HW225254   5.823   3.338   5.935
 8119SOL     OW25255   6.433   6.112   5.099
 8119SOL    HW125256   6.466   6.064   5.018
 8119SOL    HW225257   6.367   6.182   5.072
 8120SOL     OW25258   2.546   4.690   6.938
 8120SOL    HW125259   2.608   4.766   6.919
 8120SOL    HW225260   2.598   4.613   6.976
 8121SOL     OW25261   0.426   4.963   1.384
 8121SOL    HW125262   0.439   5.030   1.311
 8121SOL    HW225263   0.366   4.890   1.352
 8122SOL     OW25264   1.614   5.720   2.255
 8122SOL    HW125265   1.595   5.644   2.318
 8122SOL    HW225266   1.693   5.696   2.199
 8123SOL     OW25267   6.813   0.074   6.919
 8123SOL    HW125268   6.722   0.111   6.935
 8123SOL    HW225269   6.881   0.129   6.968
 8124SOL     OW25270   6.939   6.031   0.868
 8124SOL    HW125271   6.840   6.040   0.883
 8124SOL    HW225272   6.986   6.027   0.956
 8125SOL     OW25273   1.317   1.052   3.636
 8125SOL    HW125274   1.352   0.967   3.598
 8125SOL    HW225275   1.385   1.091   3.699
 8126SOL     OW25276   5.747   4.708   2.751
 8126SOL    HW125277   5.666   4.740   2.800
 8126SOL    HW225278   5.821   4.693   2.816
 8127SOL     OW25279   3.091   6.422   6.736
 8127SOL    HW125280   3.102   6.366   6.654
 8127SOL    HW225281   3.023   6.493   6.718
 8128SOL     OW25282   2.983   2.662   1.142
 8128SOL    HW125283   3.073   2.681   1.180
 8128SOL    HW225284   2.913   2.703   1.200
 8129SOL     OW25285   4.350   0.736   5.638
 8129SOL    HW125286   4.308   0.743   5.547
 8129SOL    HW225287   4.280   0.720   5.707
 8130SOL     OW25288   0.058   4.089   6.816
 8130SOL    HW125289   0.033   3.997   6.849
 8130SOL    HW225290   0.080   4.147   6.895
 8131SOL     OW25291   3.561   1.580   0.616
 8131SOL    HW125292   3.635   1.608   0.554
 8131SOL    HW225293   3.498   1.519   0.568
 8132SOL     OW25294   5.393   6.282   6.655
 8132SOL    HW125295   5.479   6.274   6.703
 8132SOL    HW225296   5.388   6.372   6.611
 8133SOL     OW25297   2.884   4.894   1.607
 8133SOL    HW125298   2.872   4.803   1.647
 8133SOL    HW225299   2.794   4.935   1.592
 8134SOL     OW25300   1.121   2.276   5.122
 8134SOL    HW125301   1.200   2.296   5.181
 8134SOL    HW225302   1.051   2.228   5.174
 8135SOL     OW25303   2.056   5.796   0.937
 8135SOL    HW125304   1.960   5.814   0.913
 8135SOL    HW225305   2.075   5.699   0.928
 8136SOL     OW25306   5.077   5.048   2.956
 8136SOL    HW125307   5.115   5.088   3.039
 8136SOL    HW225308   5.111   5.099   2.876
 8137SOL     OW25309   2.892   0.980   4.653
 8137SOL    HW125310   2.828   0.915   4.611
 8137SOL    HW225311   2.876   1.071   4.614
 8138SOL     OW25312   5.393   2.375   0.352
 8138SOL    HW125313   5.412   2.278   0.334
 8138SOL    HW225314   5.386   2.389   0.451
 8139SOL     OW25315   1.662   1.522   4.426
 8139SOL    HW125316   1.731   1.505   4.356
 8139SOL    HW225317   1.644   1.437   4.477
 8140SOL     OW25318   4.375   0.034   0.582
 8140SOL    HW125319   4.366   0.107   0.649
 8140SOL    HW225320   4.351   6.967   0.624
 8141SOL     OW25321   4.657   6.805   5.167
 8141SOL    HW125322   4.701   6.735   5.223
 8141SOL    HW225323   4.683   6.791   5.071
 8142SOL     OW25324   1.749   5.146   0.020
 8142SOL    HW125325   1.691   5.066   0.037
 8142SOL    HW225326   1.844   5.123   0.042
 8143SOL     OW25327   6.406   4.940   0.257
 8143SOL    HW125328   6.334   4.968   0.321
 8143SOL    HW225329   6.373   4.865   0.200
 8144SOL     OW25330   0.568   6.666   6.121
 8144SOL    HW125331   0.469   6.666   6.106
 8144SOL    HW225332   0.615   6.628   6.041
 8145SOL     OW25333   5.760   5.384   0.676
 8145SOL    HW125334   5.776   5.292   0.639
 8145SOL    HW225335   5.674   5.384   0.727
 8146SOL     OW25336   5.832   0.659   5.558
 8146SOL    HW125337   5.853   0.578   5.613
 8146SOL    HW225338   5.916   0.694   5.516
 8147SOL     OW25339   6.402   0.877   1.761
 8147SOL    HW125340   6.498   0.896   1.740
 8147SOL    HW225341   6.381   0.912   1.853
 8148SOL     OW25342   5.461   4.963   0.904
 8148SOL    HW125343   5.463   5.042   0.966
 8148SOL    HW225344   5.522   4.980   0.827
 8149SOL     OW25345   1.966   6.446   3.281
 8149SOL    HW125346   1.875   6.438   3.239
 8149SOL    HW225347   1.989   6.361   3.329
 8150SOL     OW25348   2.017   3.645   0.581
 8150SOL    HW125349   1.930   3.596   0.586
 8150SOL    HW225350   2.001   3.743   0.595
 8151SOL     OW25351   6.017   4.894   3.159
 8151SOL    HW125352   5.977   4.976   3.199
 8151SOL    HW225353   5.988   4.814   3.211
 8152SOL     OW25354   6.382   3.172   3.275
 8152SOL    HW125355   6.398   3.095   3.336
 8152SOL    HW225356   6.284   3.195   3.274
 8153SOL     OW25357   0.941   1.832   3.885
 8153SOL    HW125358   1.005   1.821   3.961
 8153SOL    HW225359   0.933   1.746   3.836
 8154SOL     OW25360   3.517   5.978   2.297
 8154SOL    HW125361   3.493   5.898   2.352
 8154SOL    HW225362   3.449   5.992   2.226
 8155SOL     OW25363   1.443   3.134   1.974
 8155SOL    HW125364   1.386   3.181   2.042
 8155SOL    HW225365   1.508   3.074   2.021
 8156SOL     OW25366   4.487   6.205   0.640
 8156SOL    HW125367   4.503   6.273   0.568
 8156SOL    HW225368   4.461   6.118   0.598
 8157SOL     OW25369   6.730   4.844   5.971
 8157SOL    HW125370   6.739   4.809   5.878
 8157SOL    HW225371   6.795   4.797   6.031
 8158SOL     OW25372   4.870   4.072   0.303
 8158SOL    HW125373   4.875   4.069   0.204
 8158SOL    HW225374   4.913   4.156   0.337
 8159SOL     OW25375   2.516   5.301   3.187
 8159SOL    HW125376   2.598   5.247   3.168
 8159SOL    HW225377   2.495   5.357   3.107
 8160SOL     OW25378   5.231   0.554   3.865
 8160SOL    HW125379   5.285   0.472   3.845
 8160SOL    HW225380   5.250   0.585   3.959
 8161SOL     OW25381   6.129   3.021   6.530
 8161SOL    HW125382   6.041   3.049   6.493
 8161SOL    HW225383   6.166   2.945   6.476
 8162SOL     OW25384   6.004   6.758   6.588
 8162SOL    HW125385   6.010   6.658   6.590
 8162SOL    HW225386   6.065   6.797   6.657
 8163SOL     OW25387   2.570   4.588   5.145
 8163SOL    HW125388   2.543   4.551   5.234
 8163SOL    HW225389   2.667   4.572   5.130
 8164SOL     OW25390   4.951   2.614   0.164
 8164SOL    HW125391   4.990   2.700   0.131
 8164SOL    HW225392   5.022   2.561   0.209
 8165SOL     OW25393   0.262   3.907   5.862
 8165SOL    HW125394   0.342   3.872   5.814
 8165SOL    HW225395   0.187   3.841   5.854
 8166SOL     OW25396   1.231   0.640   3.786
 8166SOL    HW125397   1.196   0.566   3.843
 8166SOL    HW225398   1.284   0.602   3.711
 8167SOL     OW25399   6.990   0.700   3.831
 8167SOL    HW125400   0.007   0.792   3.818
 8167SOL    HW225401   7.004   0.671   3.926
 8168SOL     OW25402   3.018   1.771   2.080
 8168SOL    HW125403   3.111   1.809   2.084
 8168SOL    HW225404   3.021   1.673   2.099
 8169SOL     OW25405   4.867   1.974   0.384
 8169SOL    HW125406   4.918   2.045   0.432
 8169SOL    HW225407   4.833   1.908   0.451
 8170SOL     OW25408   1.370   5.408   2.044
 8170SOL    HW125409   1.292   5.466   2.021
 8170SOL    HW225410   1.348   5.354   2.125
 8171SOL     OW25411   1.762   1.957   6.194
 8171SOL    HW125412   1.787   1.967   6.098
 8171SOL    HW225413   1.842   1.972   6.251
 8172SOL     OW25414   0.220   1.891   2.621
 8172SOL    HW125415   0.292   1.939   2.572
 8172SOL    HW225416   0.165   1.956   2.672
 8173SOL     OW25417   5.369   1.970   1.862
 8173SOL    HW125418   5.453   2.022   1.879
 8173SOL    HW225419   5.315   2.015   1.791
 8174SOL     OW25420   6.621   1.068   2.378
 8174SOL    HW125421   6.551   0.997   2.372
 8174SOL    HW225422   6.622   1.106   2.470
 8175SOL     OW25423   0.457   3.254   6.124
 8175SOL    HW125424   0.513   3.189   6.071
 8175SOL    HW225425   0.498   3.345   6.119
 8176SOL     OW25426   2.332   4.950   1.371
 8176SOL    HW125427   2.354   4.853   1.386
 8176SOL    HW225428   2.265   4.980   1.439
 8177SOL     OW25429   3.514   0.097   3.534
 8177SOL    HW125430   3.472   0.166   3.476
 8177SOL    HW225431   3.444   0.052   3.590
 8178SOL     OW25432   3.073   0.072   0.536
 8178SOL    HW125433   3.021   7.011   0.561
 8178SOL    HW225434   3.034   0.152   0.583
 8179SOL     OW25435   4.745   1.450   4.264
 8179SOL    HW125436   4.834   1.450   4.311
 8179SOL    HW225437   4.741   1.528   4.202
 8180SOL     OW25438   6.312   1.029   5.581
 8180SOL    HW125439   6.304   1.017   5.482
 8180SOL    HW225440   6.228   1.070   5.616
 8181SOL     OW25441   1.097   1.756   0.614
 8181SOL    HW125442   1.118   1.836   0.557
 8181SOL    HW225443   0.998   1.750   0.626
 8182SOL     OW25444   3.210   3.345   5.644
 8182SOL    HW125445   3.182   3.279   5.714
 8182SOL    HW225446   3.141   3.348   5.572
 8183SOL     OW25447   6.454   2.494   4.959
 8183SOL    HW125448   6.477   2.401   4.989
 8183SOL    HW225449   6.358   2.498   4.934
 8184SOL     OW25450   6.421   0.275   0.419
 8184SOL    HW125451   6.364   0.350   0.454
 8184SOL    HW225452   6.479   0.240   0.493
 8185SOL     OW25453   1.827   7.015   6.834
 8185SOL    HW125454   1.852   6.958   6.756
 8185SOL    HW225455   1.869   6.978   6.917
 8186SOL     OW25456   3.488   4.583   5.365
 8186SOL    HW125457   3.421   4.654   5.344
 8186SOL    HW225458   3.449   4.494   5.345
 8187SOL     OW25459   2.476   1.452   5.078
 8187SOL    HW125460   2.405   1.495   5.023
 8187SOL    HW225461   2.482   1.354   5.056
 8188SOL     OW25462   5.338   3.015   3.402
 8188SOL    HW125463   5.429   3.024   3.443
 8188SOL    HW225464   5.271   3.059   3.461
 8189SOL     OW25465   5.177   5.436   3.179
 8189SOL    HW125466   5.266   5.464   3.217
 8189SOL    HW225467   5.178   5.450   3.080
 8190SOL     OW25468   5.159   4.350   4.322
 8190SOL    HW125469   5.232   4.284   4.335
 8190SOL    HW225470   5.070   4.303   4.323
 8191SOL     OW25471   3.728   6.215   1.699
 8191SOL    HW125472   3.793   6.164   1.643
 8191SOL    HW225473   3.674   6.152   1.755
 8192SOL     OW25474   3.372   5.317   0.705
 8192SOL    HW125475   3.326   5.407   0.705
 8192SOL    HW225476   3.303   5.245   0.707
 8193SOL     OW25477   6.509   5.893   5.662
 8193SOL    HW125478   6.548   5.828   5.727
 8193SOL    HW225479   6.582   5.936   5.609
 8194SOL     OW25480   5.023   2.312   1.105
 8194SOL    HW125481   5.091   2.352   1.042
 8194SOL    HW225482   5.047   2.336   1.199
 8195SOL     OW25483   1.442   7.015   3.325
 8195SOL    HW125484   1.431   0.093   3.312
 8195SOL    HW225485   1.522   6.983   3.274
 8196SOL     OW25486   4.187   5.856   5.932
 8196SOL    HW125487   4.266   5.871   5.992
 8196SOL    HW225488   4.170   5.757   5.925
 8197SOL     OW25489   4.672   1.790   0.264
 8197SOL    HW125490   4.670   1.857   0.338
 8197SOL    HW225491   4.663   1.698   0.302
 8198SOL     OW25492   2.820   6.499   2.854
 8198SOL    HW125493   2.892   6.473   2.919
 8198SOL    HW225494   2.735   6.454   2.879
 8199SOL     OW25495   5.788   2.844   6.234
 8199SOL    HW125496   5.839   2.792   6.166
 8199SOL    HW225497   5.850   2.875   6.306
 8200SOL     OW25498   5.760   5.053   1.687
 8200SOL    HW125499   5.789   4.964   1.651
 8200SOL    HW225500   5.790   5.061   1.782
 8201SOL     OW25501   5.698   0.922   4.074
 8201SOL    HW125502   5.641   0.974   4.011
 8201SOL    HW225503   5.791   0.960   4.074
 8202SOL     OW25504   0.375   5.840   4.161
 8202SOL    HW125505   0.469   5.811   4.179
 8202SOL    HW225506   0.323   5.764   4.123
 8203SOL     OW25507   3.879   2.576   6.804
 8203SOL    HW125508   3.887   2.573   6.903
 8203SOL    HW225509   3.970   2.580   6.763
 8204SOL     OW25510   3.496   5.159   6.817
 8204SOL    HW125511   3.537   5.172   6.907
 8204SOL    HW225512   3.433   5.081   6.820
 8205SOL     OW25513   0.553   4.720   0.647
 8205SOL    HW125514   0.574   4.814   0.675
 8205SOL    HW225515   0.544   4.717   0.548
 8206SOL     OW25516   4.878   2.215   6.499
 8206SOL    HW125517   4.935   2.137   6.471
 8206SOL    HW225518   4.927   2.268   6.568
 8207SOL     OW25519   2.935   3.824   3.791
 8207SOL    HW125520   2.922   3.920   3.767
 8207SOL    HW225521   2.959   3.772   3.709
 8208SOL     OW25522   1.760   0.167   1.332
 8208SOL    HW125523   1.836   0.187   1.394
 8208SOL    HW225524   1.783   0.198   1.239
 8209SOL     OW25525   0.366   1.316   5.309
 8209SOL    HW125526   0.451   1.358   5.341
 8209SOL    HW225527   0.344   1.239   5.368
 8210SOL     OW25528   2.249   1.311   1.629
 8210SOL    HW125529   2.154   1.324   1.602
 8210SOL    HW225530   2.301   1.395   1.611
 8211SOL     OW25531   3.901   4.272   1.678
 8211SOL    HW125532   3.815   4.322   1.692
 8211SOL    HW225533   3.889   4.206   1.603
 8212SOL     OW25534   2.099   1.632   1.984
 8212SOL    HW125535   2.069   1.599   2.073
 8212SOL    HW225536   2.139   1.557   1.932
 8213SOL     OW25537   6.995   4.280   2.695
 8213SOL    HW125538   0.074   4.278   2.694
 8213SOL    HW225539   6.960   4.186   2.696
 8214SOL     OW25540   6.329   5.528   5.135
 8214SOL    HW125541   6.426   5.533   5.113
 8214SOL    HW225542   6.291   5.443   5.098
 8215SOL     OW25543   2.588   6.114   6.456
 8215SOL    HW125544   2.500   6.161   6.454
 8215SOL    HW225545   2.650   6.164   6.518
 8216SOL     OW25546   5.135   5.191   3.880
 8216SOL    HW125547   5.167   5.277   3.841
 8216SOL    HW225548   5.199   5.161   3.951
 8217SOL     OW25549   1.740   3.712   0.370
 8217SOL    HW125550   1.744   3.762   0.457
 8217SOL    HW225551   1.768   3.617   0.385
 8218SOL     OW25552   0.043   6.965   5.201
 8218SOL    HW125553   0.130   6.963   5.152
 8218SOL    HW225554   6.998   0.002   5.152
 8219SOL     OW25555   3.996   3.449   0.398
 8219SOL    HW125556   3.927   3.421   0.330
 8219SOL    HW225557   3.978   3.543   0.426
 8220SOL     OW25558   2.856   3.480   3.728
 8220SOL    HW125559   2.882   3.492   3.824
 8220SOL    HW225560   2.756   3.473   3.721
 8221SOL     OW25561   5.971   6.387   3.445
 8221SOL    HW125562   5.947   6.337   3.361
 8221SOL    HW225563   5.908   6.361   3.518
 8222SOL     OW25564   5.490   1.436   1.115
 8222SOL    HW125565   5.503   1.477   1.206
 8222SOL    HW225566   5.481   1.337   1.125
 8223SOL     OW25567   0.823   4.168   5.279
 8223SOL    HW125568   0.804   4.211   5.191
 8223SOL    HW225569   0.919   4.138   5.281
 8224SOL     OW25570   5.494   1.731   2.245
 8224SOL    HW125571   5.556   1.675   2.190
 8224SOL    HW225572   5.403   1.731   2.202
 8225SOL     OW25573   3.298   1.677   1.404
 8225SOL    HW125574   3.363   1.740   1.360
 8225SOL    HW225575   3.330   1.583   1.392
 8226SOL     OW25576   3.836   6.653   0.230
 8226SOL    HW125577   3.927   6.616   0.254
 8226SOL    HW225578   3.772   6.577   0.218
 8227SOL     OW25579   0.483   1.232   2.509
 8227SOL    HW125580   0.456   1.285   2.590
 8227SOL    HW225581   0.412   1.242   2.439
 8228SOL     OW25582   6.722   1.890   6.226
 8228SOL    HW125583   6.659   1.816   6.203
 8228SOL    HW225584   6.778   1.913   6.146
 8229SOL     OW25585   4.489   3.388   0.654
 8229SOL    HW125586   4.412   3.403   0.592
 8229SOL    HW225587   4.475   3.441   0.738
 8230SOL     OW25588   3.704   0.409   4.922
 8230SOL    HW125589   3.802   0.392   4.917
 8230SOL    HW225590   3.661   0.377   4.838
 8231SOL     OW25591   3.362   3.422   1.040
 8231SOL    HW125592   3.395   3.511   1.006
 8231SOL    HW225593   3.265   3.412   1.020
 8232SOL     OW25594   4.168   2.288   1.555
 8232SOL    HW125595   4.264   2.294   1.583
 8232SOL    HW225596   4.155   2.209   1.496
 8233SOL     OW25597   0.730   6.532   5.914
 8233SOL    HW125598   0.771   6.609   5.866
 8233SOL    HW225599   0.790   6.453   5.908
 8234SOL     OW25600   2.833   3.275   6.492
 8234SOL    HW125601   2.896   3.241   6.562
 8234SOL    HW225602   2.862   3.367   6.464
 8235SOL     OW25603   0.632   2.551   0.212
 8235SOL    HW125604   0.694   2.620   0.174
 8235SOL    HW225605   0.606   2.486   0.141
 8236SOL     OW25606   0.811   4.418   0.680
 8236SOL    HW125607   0.877   4.486   0.712
 8236SOL    HW225608   0.746   4.398   0.754
 8237SOL     OW25609   5.024   6.430   5.475
 8237SOL    HW125610   5.011   6.499   5.547
 8237SOL    HW225611   5.110   6.449   5.427
 8238SOL     OW25612   0.693   5.268   6.440
 8238SOL    HW125613   0.707   5.244   6.536
 8238SOL    HW225614   0.610   5.225   6.407
 8239SOL     OW25615   0.237   1.067   5.740
 8239SOL    HW125616   0.221   0.983   5.792
 8239SOL    HW225617   0.326   1.104   5.764
 8240SOL     OW25618   3.800   3.751   2.390
 8240SOL    HW125619   3.725   3.807   2.424
 8240SOL    HW225620   3.886   3.801   2.399
 8241SOL     OW25621   3.671   6.380   5.840
 8241SOL    HW125622   3.704   6.287   5.826
 8241SOL    HW225623   3.638   6.390   5.934
 8242SOL     OW25624   0.465   4.159   6.464
 8242SOL    HW125625   0.462   4.153   6.364
 8242SOL    HW225626   0.372   4.168   6.499
 8243SOL     OW25627   0.201   3.150   0.632
 8243SOL    HW125628   0.148   3.085   0.578
 8243SOL    HW225629   0.195   3.127   0.729
 8244SOL     OW25630   0.314   0.943   4.149
 8244SOL    HW125631   0.333   0.852   4.114
 8244SOL    HW225632   0.236   0.940   4.211
 8245SOL     OW25633   4.022   2.069   2.256
 8245SOL    HW125634   3.928   2.037   2.270
 8245SOL    HW225635   4.042   2.142   2.321
 8246SOL     OW25636   0.993   3.389   5.685
 8246SOL    HW125637   1.050   3.390   5.603
 8246SOL    HW225638   1.016   3.467   5.743
 8247SOL     OW25639   1.825   0.741   2.744
 8247SOL    HW125640   1.843   0.794   2.827
 8247SOL    HW225641   1.800   0.648   2.769
 8248SOL     OW25642   6.948   4.934   4.866
 8248SOL    HW125643   6.968   4.978   4.953
 8248SOL    HW225644   6.923   5.003   4.798
 8249SOL     OW25645   1.908   2.401   5.801
 8249SOL    HW125646   1.911   2.405   5.901
 8249SOL    HW225647   1.880   2.491   5.765
 8250SOL     OW25648   2.770   3.208   1.427
 8250SOL    HW125649   2.713   3.184   1.506
 8250SOL    HW225650   2.832   3.133   1.407
 8251SOL     OW25651   4.928   3.253   4.511
 8251SOL    HW125652   5.001   3.238   4.578
 8251SOL    HW225653   4.890   3.345   4.523
 8252SOL     OW25654   3.420   1.612   5.787
 8252SOL    HW125655   3.423   1.591   5.885
 8252SOL    HW225656   3.433   1.528   5.735
 8253SOL     OW25657   4.814   5.510   5.973
 8253SOL    HW125658   4.732   5.464   5.937
 8253SOL    HW225659   4.815   5.605   5.941
 8254SOL     OW25660   4.453   4.309   5.276
 8254SOL    HW125661   4.385   4.314   5.202
 8254SOL    HW225662   4.456   4.216   5.312
 8255SOL     OW25663   1.898   0.205   5.128
 8255SOL    HW125664   1.874   0.119   5.083
 8255SOL    HW225665   1.838   0.218   5.207
 8256SOL     OW25666   6.931   6.176   1.936
 8256SOL    HW125667   6.958   6.252   1.877
 8256SOL    HW225668   6.978   6.093   1.908
 8257SOL     OW25669   5.454   4.189   2.623
 8257SOL    HW125670   5.369   4.156   2.582
 8257SOL    HW225671   5.491   4.118   2.684
 8258SOL     OW25672   5.312   3.023   1.087
 8258SOL    HW125673   5.255   2.960   1.033
 8258SOL    HW225674   5.408   2.998   1.077
 8259SOL     OW25675   3.896   1.711   4.747
 8259SOL    HW125676   3.864   1.726   4.841
 8259SOL    HW225677   3.901   1.613   4.730
 8260SOL     OW25678   2.222   0.011   0.945
 8260SOL    HW125679   2.251   0.087   1.004
 8260SOL    HW225680   2.141   0.038   0.892
 8261SOL     OW25681   5.375   6.658   1.961
 8261SOL    HW125682   5.416   6.741   1.922
 8261SOL    HW225683   5.426   6.578   1.931
 8262SOL     OW25684   0.826   2.730   0.089
 8262SOL    HW125685   0.827   2.681   0.002
 8262SOL    HW225686   0.854   2.825   0.074
 8263SOL     OW25687   0.143   2.650   6.241
 8263SOL    HW125688   0.217   2.690   6.295
 8263SOL    HW225689   0.072   2.615   6.302
 8264SOL     OW25690   1.888   5.851   1.535
 8264SOL    HW125691   1.871   5.785   1.461
 8264SOL    HW225692   1.966   5.908   1.513
 8265SOL     OW25693   6.507   0.772   1.075
 8265SOL    HW125694   6.579   0.729   1.020
 8265SOL    HW225695   6.467   0.848   1.024
 8266SOL     OW25696   2.362   1.137   4.423
 8266SOL    HW125697   2.294   1.072   4.458
 8266SOL    HW225698   2.375   1.210   4.491
 8267SOL     OW25699   1.993   3.466   1.175
 8267SOL    HW125700   1.909   3.432   1.215
 8267SOL    HW225701   2.001   3.565   1.192
 8268SOL     OW25702   2.299   6.428   6.099
 8268SOL    HW125703   2.260   6.440   6.008
 8268SOL    HW225704   2.384   6.376   6.092
 8269SOL     OW25705   4.333   1.266   1.979
 8269SOL    HW125706   4.341   1.253   2.078
 8269SOL    HW225707   4.405   1.214   1.933
 8270SOL     OW25708   3.325   6.370   4.873
 8270SOL    HW125709   3.292   6.462   4.891
 8270SOL    HW225710   3.359   6.330   4.958
 8271SOL     OW25711   0.354   6.957   3.058
 8271SOL    HW125712   0.421   6.999   2.996
 8271SOL    HW225713   0.401   6.924   3.140
 8272SOL     OW25714   6.695   1.674   3.112
 8272SOL    HW125715   6.707   1.640   3.019
 8272SOL    HW225716   6.770   1.735   3.136
 8273SOL     OW25717   2.289   1.093   1.244
 8273SOL    HW125718   2.266   0.997   1.227
 8273SOL    HW225719   2.214   1.137   1.294
 8274SOL     OW25720   4.497   5.253   4.305
 8274SOL    HW125721   4.553   5.243   4.223
 8274SOL    HW225722   4.548   5.303   4.375
 8275SOL     OW25723   5.817   1.148   4.500
 8275SOL    HW125724   5.911   1.159   4.532
 8275SOL    HW225725   5.796   1.051   4.491
 8276SOL     OW25726   0.329   2.257   4.391
 8276SOL    HW125727   0.399   2.302   4.447
 8276SOL    HW225728   0.320   2.162   4.419
 8277SOL     OW25729   0.957   6.360   6.306
 8277SOL    HW125730   0.906   6.446   6.315
 8277SOL    HW225731   0.926   6.296   6.376
 8278SOL     OW25732   3.253   0.990   6.484
 8278SOL    HW125733   3.320   1.035   6.426
 8278SOL    HW225734   3.292   0.906   6.521
 8279SOL     OW25735   0.896   6.472   4.574
 8279SOL    HW125736   0.869   6.552   4.626
 8279SOL    HW225737   0.826   6.451   4.505
 8280SOL     OW25738   2.664   2.576   0.533
 8280SOL    HW125739   2.580   2.617   0.567
 8280SOL    HW225740   2.658   2.565   0.434
 8281SOL     OW25741   2.459   4.300   1.805
 8281SOL    HW125742   2.489   4.374   1.865
 8281SOL    HW225743   2.433   4.338   1.717
 8282SOL     OW25744   4.676   3.908   6.995
 8282SOL    HW125745   4.696   3.827   0.029
 8282SOL    HW225746   4.598   3.957   0.014
 8283SOL     OW25747   1.385   4.998   5.340
 8283SOL    HW125748   1.328   5.073   5.374
 8283SOL    HW225749   1.475   5.033   5.315
 8284SOL     OW25750   1.004   3.696   1.701
 8284SOL    HW125751   0.927   3.665   1.644
 8284SOL    HW225752   1.027   3.624   1.767
 8285SOL     OW25753   3.424   4.116   4.952
 8285SOL    HW125754   3.483   4.106   5.032
 8285SOL    HW225755   3.328   4.115   4.981
 8286SOL     OW25756   5.451   1.819   5.091
 8286SOL    HW125757   5.455   1.877   5.010
 8286SOL    HW225758   5.382   1.854   5.154
 8287SOL     OW25759   0.984   4.819   4.635
 8287SOL    HW125760   0.978   4.844   4.538
 8287SOL    HW225761   1.049   4.879   4.681
 8288SOL     OW25762   2.776   2.294   2.260
 8288SOL    HW125763   2.682   2.269   2.235
 8288SOL    HW225764   2.828   2.316   2.178
 8289SOL     OW25765   0.442   6.665   6.384
 8289SOL    HW125766   0.499   6.690   6.306
 8289SOL    HW225767   0.458   6.569   6.408
 8290SOL     OW25768   5.454   1.821   0.965
 8290SOL    HW125769   5.471   1.761   0.887
 8290SOL    HW225770   5.355   1.829   0.979
 8291SOL     OW25771   4.318   5.502   4.889
 8291SOL    HW125772   4.365   5.518   4.802
 8291SOL    HW225773   4.318   5.405   4.910
 8292SOL     OW25774   3.172   6.520   6.321
 8292SOL    HW125775   3.109   6.541   6.246
 8292SOL    HW225776   3.146   6.573   6.402
 8293SOL     OW25777   1.864   5.536   0.811
 8293SOL    HW125778   1.776   5.490   0.795
 8293SOL    HW225779   1.850   5.635   0.810
 8294SOL     OW25780   5.782   3.911   5.483
 8294SOL    HW125781   5.838   3.894   5.564
 8294SOL    HW225782   5.840   3.906   5.401
 8295SOL     OW25783   4.849   4.833   1.646
 8295SOL    HW125784   4.875   4.882   1.729
 8295SOL    HW225785   4.879   4.738   1.653
 8296SOL     OW25786   1.849   4.831   6.907
 8296SOL    HW125787   1.910   4.900   6.868
 8296SOL    HW225788   1.901   4.771   6.968
 8297SOL     OW25789   6.962   3.043   2.875
 8297SOL    HW125790   6.987   3.138   2.898
 8297SOL    HW225791   6.946   2.992   2.960
 8298SOL     OW25792   6.395   1.820   0.956
 8298SOL    HW125793   6.312   1.792   1.004
 8298SOL    HW225794   6.418   1.753   0.886
 8299SOL     OW25795   0.589   2.246   2.577
 8299SOL    HW125796   0.656   2.271   2.648
 8299SOL    HW225797   0.577   2.147   2.577
 8300SOL     OW25798   0.047   5.682   3.777
 8300SOL    HW125799   0.099   5.764   3.755
 8300SOL    HW225800   0.052   5.618   3.700
 8301SOL     OW25801   3.947   1.249   0.360
 8301SOL    HW125802   3.861   1.296   0.340
 8301SOL    HW225803   3.931   1.181   0.433
 8302SOL     OW25804   5.691   7.021   6.390
 8302SOL    HW125805   5.681   0.099   6.400
 8302SOL    HW225806   5.788   6.996   6.398
 8303SOL     OW25807   5.930   0.705   3.982
 8303SOL    HW125808   6.025   0.734   3.990
 8303SOL    HW225809   5.873   0.783   3.954
 8304SOL     OW25810   5.725   3.261   1.239
 8304SOL    HW125811   5.814   3.306   1.250
 8304SOL    HW225812   5.697   3.265   1.143
 8305SOL     OW25813   4.823   4.516   3.694
 8305SOL    HW125814   4.755   4.580   3.657
 8305SOL    HW225815   4.835   4.533   3.791
 8306SOL     OW25816   5.403   1.483   4.487
 8306SOL    HW125817   5.396   1.574   4.446
 8306SOL    HW225818   5.412   1.492   4.587
 8307SOL     OW25819   3.186   5.063   1.910
 8307SOL    HW125820   3.156   5.088   1.818
 8307SOL    HW225821   3.192   4.964   1.917
 8308SOL     OW25822   2.112   5.227   0.734
 8308SOL    HW125823   2.198   5.230   0.784
 8308SOL    HW225824   2.130   5.232   0.636
 8309SOL     OW25825   6.635   5.781   3.286
 8309SOL    HW125826   6.733   5.782   3.268
 8309SOL    HW225827   6.589   5.844   3.223
 8310SOL     OW25828   0.718   5.712   1.479
 8310SOL    HW125829   0.813   5.681   1.477
 8310SOL    HW225830   0.664   5.659   1.415
 8311SOL     OW25831   0.010   2.459   5.685
 8311SOL    HW125832   6.973   2.537   5.661
 8311SOL    HW225833   0.094   2.462   5.632
 8312SOL     OW25834   4.464   0.503   0.203
 8312SOL    HW125835   4.365   0.498   0.195
 8312SOL    HW225836   4.505   0.416   0.177
 8313SOL     OW25837   5.276   6.947   0.122
 8313SOL    HW125838   5.346   6.995   0.069
 8313SOL    HW225839   5.232   6.879   0.063
 8314SOL     OW25840   5.655   6.692   7.010
 8314SOL    HW125841   5.689   6.778   6.973
 8314SOL    HW225842   5.608   6.641   6.939
 8315SOL     OW25843   4.039   3.196   1.644
 8315SOL    HW125844   4.008   3.104   1.667
 8315SOL    HW225845   4.110   3.225   1.708
 8316SOL     OW25846   1.521   2.203   1.917
 8316SOL    HW125847   1.522   2.223   1.819
 8316SOL    HW225848   1.606   2.237   1.958
 8317SOL     OW25849   1.377   2.381   2.332
 8317SOL    HW125850   1.473   2.400   2.353
 8317SOL    HW225851   1.365   2.377   2.232
 8318SOL     OW25852   4.157   1.781   5.803
 8318SOL    HW125853   4.151   1.764   5.901
 8318SOL    HW225854   4.099   1.858   5.779
 8319SOL     OW25855   1.366   1.564   1.179
 8319SOL    HW125856   1.266   1.553   1.183
 8319SOL    HW225857   1.409   1.475   1.168
 8320SOL     OW25858   3.261   3.798   2.372
 8320SOL    HW125859   3.263   3.862   2.295
 8320SOL    HW225860   3.169   3.761   2.382
 8321SOL     OW25861   6.265   6.763   6.338
 8321SOL    HW125862   6.225   6.686   6.287
 8321SOL    HW225863   6.268   6.740   6.435
 8322SOL     OW25864   6.243   0.212   0.825
 8322SOL    HW125865   6.291   0.256   0.749
 8322SOL    HW225866   6.297   0.135   0.860
 8323SOL     OW25867   5.275   5.319   1.584
 8323SOL    HW125868   5.214   5.247   1.618
 8323SOL    HW225869   5.370   5.292   1.599
 8324SOL     OW25870   6.153   6.550   1.827
 8324SOL    HW125871   6.076   6.601   1.865
 8324SOL    HW225872   6.227   6.546   1.893
 8325SOL     OW25873   1.930   3.450   4.988
 8325SOL    HW125874   2.013   3.433   5.041
 8325SOL    HW225875   1.956   3.484   4.897
 8326SOL     OW25876   4.672   3.608   5.794
 8326SOL    HW125877   4.675   3.535   5.862
 8326SOL    HW225878   4.670   3.569   5.702
 8327SOL     OW25879   0.077   0.366   5.622
 8327SOL    HW125880   0.000   0.430   5.617
 8327SOL    HW225881   0.137   0.380   5.543
 8328SOL     OW25882   2.537   5.694   6.607
 8328SOL    HW125883   2.439   5.675   6.602
 8328SOL    HW225884   2.582   5.622   6.659
 8329SOL     OW25885   0.829   2.859   5.764
 8329SOL    HW125886   0.834   2.801   5.683
 8329SOL    HW225887   0.872   2.947   5.745
 8330SOL     OW25888   2.947   1.227   6.219
 8330SOL    HW125889   2.982   1.193   6.132
 8330SOL    HW225890   2.865   1.281   6.203
 8331SOL     OW25891   3.201   0.596   1.365
 8331SOL    HW125892   3.179   0.526   1.432
 8331SOL    HW225893   3.281   0.568   1.311
 8332SOL     OW25894   5.365   5.265   2.578
 8332SOL    HW125895   5.405   5.315   2.501
 8332SOL    HW225896   5.295   5.202   2.543
 8333SOL     OW25897   0.477   5.161   6.304
 8333SOL    HW125898   0.435   5.084   6.351
 8333SOL    HW225899   0.408   5.210   6.251
 8334SOL     OW25900   3.709   1.271   4.381
 8334SOL    HW125901   3.662   1.288   4.294
 8334SOL    HW225902   3.800   1.314   4.379
 8335SOL     OW25903   5.260   1.116   0.380
 8335SOL    HW125904   5.336   1.164   0.337
 8335SOL    HW225905   5.246   1.028   0.333
 8336SOL     OW25906   0.632   4.753   3.200
 8336SOL    HW125907   0.624   4.777   3.297
 8336SOL    HW225908   0.555   4.697   3.172
 8337SOL     OW25909   1.672   5.951   3.304
 8337SOL    HW125910   1.620   5.980   3.384
 8337SOL    HW225911   1.757   5.908   3.333
 8338SOL     OW25912   3.918   5.327   1.839
 8338SOL    HW125913   3.833   5.319   1.892
 8338SOL    HW225914   3.933   5.244   1.787
 8339SOL     OW25915   6.691   0.499   1.559
 8339SOL    HW125916   6.650   0.553   1.633
 8339SOL    HW225917   6.737   0.419   1.598
 8340SOL     OW25918   5.038   3.185   0.996
 8340SOL    HW125919   5.074   3.102   1.039
 8340SOL    HW225920   5.044   3.177   0.897
 8341SOL     OW25921   3.053   6.863   0.150
 8341SOL    HW125922   3.049   6.954   0.110
 8341SOL    HW225923   3.137   6.852   0.202
 8342SOL     OW25924   4.684   6.584   0.627
 8342SOL    HW125925   4.630   6.525   0.568
 8342SOL    HW225926   4.754   6.631   0.573
 8343SOL     OW25927   0.503   5.530   4.487
 8343SOL    HW125928   0.463   5.621   4.483
 8343SOL    HW225929   0.474   5.477   4.407
 8344SOL     OW25930   5.449   6.320   5.415
 8344SOL    HW125931   5.389   6.240   5.421
 8344SOL    HW225932   5.423   6.375   5.336
 8345SOL     OW25933   4.109   1.990   2.607
 8345SOL    HW125934   4.121   2.002   2.509
 8345SOL    HW225935   4.192   2.019   2.655
 8346SOL     OW25936   3.854   4.832   0.152
 8346SOL    HW125937   3.771   4.862   0.104
 8346SOL    HW225938   3.842   4.738   0.183
 8347SOL     OW25939   3.748   5.946   3.939
 8347SOL    HW125940   3.795   5.932   3.851
 8347SOL    HW225941   3.653   5.916   3.931
 8348SOL     OW25942   2.031   1.200   1.367
 8348SOL    HW125943   2.016   1.128   1.435
 8348SOL    HW225944   1.972   1.279   1.389
 8349SOL     OW25945   6.527   0.160   1.751
 8349SOL    HW125946   6.547   0.090   1.683
 8349SOL    HW225947   6.432   0.150   1.782
 8350SOL     OW25948   3.251   6.776   6.119
 8350SOL    HW125949   3.261   6.763   6.020
 8350SOL    HW225950   3.154   6.781   6.142
 8351SOL     OW25951   6.220   5.153   4.766
 8351SOL    HW125952   6.252   5.061   4.740
 8351SOL    HW225953   6.127   5.166   4.732
 8352SOL     OW25954   0.211   6.931   3.727
 8352SOL    HW125955   0.188   6.926   3.630
 8352SOL    HW225956   0.162   6.860   3.777
 8353SOL     OW25957   0.144   3.529   1.353
 8353SOL    HW125958   0.214   3.536   1.282
 8353SOL    HW225959   0.064   3.582   1.327
 8354SOL     OW25960   4.458   0.004   5.201
 8354SOL    HW125961   4.365   7.010   5.169
 8354SOL    HW225962   4.519   6.958   5.158
 8355SOL     OW25963   2.950   0.745   6.176
 8355SOL    HW125964   2.999   0.823   6.216
 8355SOL    HW225965   2.993   0.660   6.205
 8356SOL     OW25966   0.657   6.831   1.500
 8356SOL    HW125967   0.631   6.809   1.406
 8356SOL    HW225968   0.637   6.753   1.559
 8357SOL     OW25969   3.587   6.972   5.014
 8357SOL    HW125970   3.664   6.981   4.950
 8357SOL    HW225971   3.590   6.882   5.058
 8358SOL     OW25972   1.659   4.240   4.446
 8358SOL    HW125973   1.658   4.171   4.373
 8358SOL    HW225974   1.691   4.327   4.410
 8359SOL     OW25975   2.722   0.727   4.965
 8359SOL    HW125976   2.696   0.630   4.969
 8359SOL    HW225977   2.820   0.736   4.981
 8360SOL     OW25978   3.806   6.106   0.785
 8360SOL    HW125979   3.762   6.170   0.849
 8360SOL    HW225980   3.736   6.053   0.738
 8361SOL     OW25981   3.121   0.193   2.353
 8361SOL    HW125982   3.179   0.270   2.328
 8361SOL    HW225983   3.100   0.139   2.271
 8362SOL     OW25984   4.032   1.702   1.202
 8362SOL    HW125985   3.983   1.722   1.117
 8362SOL    HW225986   3.983   1.740   1.280
 8363SOL     OW25987   5.457   3.361   6.622
 8363SOL    HW125988   5.389   3.288   6.610
 8363SOL    HW225989   5.472   3.407   6.534
 8364SOL     OW25990   0.809   2.524   3.425
 8364SOL    HW125991   0.804   2.575   3.339
 8364SOL    HW225992   0.903   2.523   3.458
 8365SOL     OW25993   1.610   2.969   2.104
 8365SOL    HW125994   1.616   2.952   2.202
 8365SOL    HW225995   1.598   2.882   2.055
 8366SOL     OW25996   1.716   5.441   1.396
 8366SOL    HW125997   1.765   5.528   1.389
 8366SOL    HW225998   1.670   5.436   1.485
 8367SOL     OW25999   4.630   5.976   4.400
 8367SOL    HW126000   4.634   5.938   4.308
 8367SOL    HW226001   4.608   6.073   4.396
 8368SOL     OW26002   1.653   6.669   6.630
 8368SOL    HW126003   1.662   6.616   6.714
 8368SOL    HW226004   1.578   6.735   6.641
 8369SOL     OW26005   0.838   6.941   6.224
 8369SOL    HW126006   0.874   6.855   6.260
 8369SOL    HW226007   0.790   6.990   6.296
 8370SOL     OW26008   2.967   1.176   5.966
 8370SOL    HW126009   3.013   1.130   5.890
 8370SOL    HW226010   2.887   1.224   5.931
 8371SOL     OW26011   2.280   4.438   0.361
 8371SOL    HW126012   2.378   4.422   0.361
 8371SOL    HW226013   2.251   4.466   0.453
 8372SOL     OW26014   1.644   4.699   1.811
 8372SOL    HW126015   1.640   4.797   1.791
 8372SOL    HW226016   1.595   4.680   1.896
 8373SOL     OW26017   1.725   0.152   4.305
 8373SOL    HW126018   1.713   0.251   4.307
 8373SOL    HW226019   1.678   0.114   4.226
 8374SOL     OW26020   0.187   0.957   5.267
 8374SOL    HW126021   0.226   0.866   5.247
 8374SOL    HW226022   0.240   1.000   5.339
 8375SOL     OW26023   3.262   6.676   5.081
 8375SOL    HW126024   3.204   6.650   5.004
 8375SOL    HW226025   3.255   6.608   5.154
 8376SOL     OW26026   0.562   1.464   4.303
 8376SOL    HW126027   0.518   1.405   4.371
 8376SOL    HW226028   0.560   1.559   4.334
 8377SOL     OW26029   5.224   5.885   0.660
 8377SOL    HW126030   5.178   5.961   0.615
 8377SOL    HW226031   5.232   5.808   0.597
 8378SOL     OW26032   4.644   5.343   2.858
 8378SOL    HW126033   4.718   5.298   2.907
 8378SOL    HW226034   4.636   5.438   2.887
 8379SOL     OW26035   5.507   3.368   1.353
 8379SOL    HW126036   5.586   3.340   1.298
 8379SOL    HW226037   5.423   3.343   1.305
 8380SOL     OW26038   0.353   0.584   2.815
 8380SOL    HW126039   0.437   0.593   2.762
 8380SOL    HW226040   0.297   0.666   2.801
 8381SOL     OW26041   6.987   3.314   4.856
 8381SOL    HW126042   0.054   3.352   4.824
 8381SOL    HW226043   7.000   3.218   4.881
 8382SOL     OW26044   2.678   0.020   2.826
 8382SOL    HW126045   2.672   6.955   2.877
 8382SOL    HW226046   2.620   0.089   2.870
 8383SOL     OW26047   2.754   0.090   5.955
 8383SOL    HW126048   2.767   0.184   5.986
 8383SOL    HW226049   2.699   0.040   6.021
 8384SOL     OW26050   6.540   0.965   1.419
 8384SOL    HW126051   6.489   0.880   1.429
 8384SOL    HW226052   6.585   0.987   1.506
 8385SOL     OW26053   5.538   2.515   0.816
 8385SOL    HW126054   5.590   2.445   0.865
 8385SOL    HW226055   5.576   2.605   0.838
 8386SOL     OW26056   1.989   5.488   1.912
 8386SOL    HW126057   1.926   5.564   1.926
 8386SOL    HW226058   1.939   5.402   1.919
 8387SOL     OW26059   1.378   1.317   1.626
 8387SOL    HW126060   1.349   1.240   1.683
 8387SOL    HW226061   1.477   1.319   1.620
 8388SOL     OW26062   2.029   6.261   0.198
 8388SOL    HW126063   1.930   6.251   0.205
 8388SOL    HW226064   2.073   6.188   0.251
 8389SOL     OW26065   0.284   3.338   3.263
 8389SOL    HW126066   0.193   3.299   3.279
 8389SOL    HW226067   0.277   3.411   3.196
 8390SOL     OW26068   4.432   1.088   0.183
 8390SOL    HW126069   4.439   1.187   0.172
 8390SOL    HW226070   4.477   1.043   0.105
 8391SOL     OW26071   6.285   4.923   0.789
 8391SOL    HW126072   6.356   4.915   0.859
 8391SOL    HW226073   6.326   4.906   0.699
 8392SOL     OW26074   6.593   4.570   5.206
 8392SOL    HW126075   6.620   4.665   5.189
 8392SOL    HW226076   6.675   4.512   5.208
 8393SOL     OW26077   0.513   6.404   2.609
 8393SOL    HW126078   0.453   6.326   2.590
 8393SOL    HW226079   0.458   6.486   2.624
 8394SOL     OW26080   6.209   2.742   2.206
 8394SOL    HW126081   6.275   2.791   2.264
 8394SOL    HW226082   6.124   2.794   2.200
 8395SOL     OW26083   1.797   6.697   5.070
 8395SOL    HW126084   1.876   6.666   5.015
 8395SOL    HW226085   1.794   6.646   5.155
 8396SOL     OW26086   4.424   5.329   2.561
 8396SOL    HW126087   4.460   5.237   2.579
 8396SOL    HW226088   4.421   5.343   2.462
 8397SOL     OW26089   2.412   0.088   2.605
 8397SOL    HW126090   2.471   0.027   2.552
 8397SOL    HW226091   2.376   0.160   2.546
 8398SOL     OW26092   4.282   1.986   6.451
 8398SOL    HW126093   4.332   1.965   6.367
 8398SOL    HW226094   4.185   1.966   6.438
 8399SOL     OW26095   5.818   5.931   6.953
 8399SOL    HW126096   5.752   5.958   0.003
 8399SOL    HW226097   5.829   5.831   6.954
 8400SOL     OW26098   1.746   1.352   4.625
 8400SOL    HW126099   1.670   1.396   4.672
 8400SOL    HW226100   1.750   1.256   4.653
 8401SOL     OW26101   2.685   1.341   6.213
 8401SOL    HW126102   2.665   1.383   6.124
 8401SOL    HW226103   2.680   1.411   6.285
 8402SOL     OW26104   4.048   1.885   5.328
 8402SOL    HW126105   3.959   1.840   5.329
 8402SOL    HW226106   4.118   1.820   5.298
 8403SOL     OW26107   1.112   2.250   4.577
 8403SOL    HW126108   1.025   2.288   4.609
 8403SOL    HW226109   1.187   2.289   4.630
 8404SOL     OW26110   4.744   6.986   5.785
 8404SOL    HW126111   4.738   0.063   5.808
 8404SOL    HW226112   4.651   6.949   5.775
 8405SOL     OW26113   1.987   0.621   5.811
 8405SOL    HW126114   2.067   0.674   5.783
 8405SOL    HW226115   2.013   0.526   5.825
 8406SOL     OW26116   5.679   0.156   0.212
 8406SOL    HW126117   5.616   0.136   0.287
 8406SOL    HW226118   5.631   0.206   0.140
 8407SOL     OW26119   3.543   6.430   3.799
 8407SOL    HW126120   3.562   6.521   3.836
 8407SOL    HW226121   3.620   6.370   3.816
 8408SOL     OW26122   5.758   4.011   2.049
 8408SOL    HW126123   5.770   4.086   1.983
 8408SOL    HW226124   5.756   4.048   2.142
 8409SOL     OW26125   5.384   2.282   3.343
 8409SOL    HW126126   5.355   2.201   3.395
 8409SOL    HW226127   5.409   2.355   3.407
 8410SOL     OW26128   5.531   0.822   1.955
 8410SOL    HW126129   5.621   0.783   1.972
 8410SOL    HW226130   5.525   0.852   1.860
 8411SOL     OW26131   0.580   4.777   0.254
 8411SOL    HW126132   0.496   4.795   0.305
 8411SOL    HW226133   0.639   4.716   0.307
 8412SOL     OW26134   3.179   1.127   1.428
 8412SOL    HW126135   3.112   1.164   1.364
 8412SOL    HW226136   3.195   1.030   1.408
 8413SOL     OW26137   4.451   5.328   6.630
 8413SOL    HW126138   4.480   5.254   6.690
 8413SOL    HW226139   4.457   5.416   6.678
 8414SOL     OW26140   3.608   4.956   3.455
 8414SOL    HW126141   3.625   4.898   3.375
 8414SOL    HW226142   3.679   4.940   3.523
 8415SOL     OW26143   6.910   6.186   4.039
 8415SOL    HW126144   6.835   6.223   3.983
 8415SOL    HW226145   6.900   6.216   4.133
 8416SOL     OW26146   5.294   3.811   2.419
 8416SOL    HW126147   5.210   3.799   2.366
 8416SOL    HW226148   5.352   3.880   2.375
 8417SOL     OW26149   1.640   3.984   5.610
 8417SOL    HW126150   1.720   3.929   5.588
 8417SOL    HW226151   1.669   4.076   5.636
 8418SOL     OW26152   6.072   5.115   0.754
 8418SOL    HW126153   6.157   5.065   0.743
 8418SOL    HW226154   6.027   5.127   0.666
 8419SOL     OW26155   5.492   6.789   2.194
 8419SOL    HW126156   5.458   6.746   2.111
 8419SOL    HW226157   5.440   6.756   2.273
 8420SOL     OW26158   4.087   0.349   0.433
 8420SOL    HW126159   4.149   0.281   0.394
 8420SOL    HW226160   4.000   0.347   0.385
 8421SOL     OW26161   1.494   5.429   6.755
 8421SOL    HW126162   1.450   5.341   6.773
 8421SOL    HW226163   1.512   5.439   6.657
 8422SOL     OW26164   3.909   1.444   1.098
 8422SOL    HW126165   3.936   1.528   1.145
 8422SOL    HW226166   3.812   1.449   1.075
 8423SOL     OW26167   3.311   4.384   5.588
 8423SOL    HW126168   3.384   4.339   5.640
 8423SOL    HW226169   3.314   4.355   5.493
 8424SOL     OW26170   2.326   2.260   2.643
 8424SOL    HW126171   2.328   2.210   2.729
 8424SOL    HW226172   2.418   2.265   2.605
 8425SOL     OW26173   4.978   5.101   6.179
 8425SOL    HW126174   4.905   5.109   6.247
 8425SOL    HW226175   5.062   5.141   6.215
 8426SOL     OW26176   3.459   3.859   3.386
 8426SOL    HW126177   3.530   3.789   3.398
 8426SOL    HW226178   3.384   3.821   3.332
 8427SOL     OW26179   3.799   4.026   4.602
 8427SOL    HW126180   3.869   3.984   4.661
 8427SOL    HW226181   3.748   4.093   4.654
 8428SOL     OW26182   0.702   4.932   1.351
 8428SOL    HW126183   0.725   4.847   1.397
 8428SOL    HW226184   0.607   4.929   1.320
 8429SOL     OW26185   1.415   5.607   4.231
 8429SOL    HW126186   1.481   5.574   4.164
 8429SOL    HW226187   1.463   5.651   4.307
 8430SOL     OW26188   3.742   5.367   3.469
 8430SOL    HW126189   3.711   5.453   3.429
 8430SOL    HW226190   3.682   5.293   3.440
 8431SOL     OW26191   2.992   4.603   0.567
 8431SOL    HW126192   2.990   4.645   0.657
 8431SOL    HW226193   3.025   4.509   0.574
 8432SOL     OW26194   5.560   6.992   6.148
 8432SOL    HW126195   5.560   6.983   6.247
 8432SOL    HW226196   5.486   6.937   6.110
 8433SOL     OW26197   5.098   2.180   0.311
 8433SOL    HW126198   5.191   2.151   0.286
 8433SOL    HW226199   5.032   2.139   0.248
 8434SOL     OW26200   2.873   6.910   4.846
 8434SOL    HW126201   2.913   6.854   4.918
 8434SOL    HW226202   2.823   6.986   4.886
 8435SOL     OW26203   6.371   0.958   2.034
 8435SOL    HW126204   6.440   1.030   2.046
 8435SOL    HW226205   6.300   0.968   2.103
 8436SOL     OW26206   3.760   6.990   3.631
 8436SOL    HW126207   3.708   0.022   3.563
 8436SOL    HW226208   3.858   7.006   3.617
 8437SOL     OW26209   2.017   0.596   4.586
 8437SOL    HW126210   2.060   0.617   4.499
 8437SOL    HW226211   1.989   0.500   4.588
 8438SOL     OW26212   2.434   4.499   2.315
 8438SOL    HW126213   2.467   4.512   2.408
 8438SOL    HW226214   2.504   4.531   2.250
 8439SOL     OW26215   6.670   5.065   2.763
 8439SOL    HW126216   6.622   4.990   2.718
 8439SOL    HW226217   6.634   5.152   2.731
 8440SOL     OW26218   1.575   2.244   3.788
 8440SOL    HW126219   1.501   2.305   3.815
 8440SOL    HW226220   1.556   2.151   3.821
 8441SOL     OW26221   6.274   6.425   0.604
 8441SOL    HW126222   6.178   6.435   0.581
 8441SOL    HW226223   6.331   6.467   0.533
 8442SOL     OW26224   3.294   1.718   5.152
 8442SOL    HW126225   3.228   1.757   5.087
 8442SOL    HW226226   3.257   1.724   5.245
 8443SOL     OW26227   2.453   4.797   3.901
 8443SOL    HW126228   2.386   4.836   3.838
 8443SOL    HW226229   2.407   4.732   3.962
 8444SOL     OW26230   2.601   6.120   4.136
 8444SOL    HW126231   2.576   6.188   4.206
 8444SOL    HW226232   2.534   6.123   4.062
 8445SOL     OW26233   3.966   6.588   0.842
 8445SOL    HW126234   4.031   6.512   0.851
 8445SOL    HW226235   3.899   6.583   0.916
 8446SOL     OW26236   4.525   4.531   6.707
 8446SOL    HW126237   4.453   4.541   6.638
 8446SOL    HW226238   4.550   4.622   6.742
 8447SOL     OW26239   4.695   1.377   2.153
 8447SOL    HW126240   4.704   1.440   2.075
 8447SOL    HW226241   4.755   1.408   2.227
 8448SOL     OW26242   4.156   5.880   4.308
 8448SOL    HW126243   4.223   5.829   4.255
 8448SOL    HW226244   4.203   5.951   4.360
 8449SOL     OW26245   6.829   2.860   3.552
 8449SOL    HW126246   6.776   2.779   3.576
 8449SOL    HW226247   6.779   2.914   3.485
 8450SOL     OW26248   0.560   6.348   1.182
 8450SOL    HW126249   0.656   6.357   1.208
 8450SOL    HW226250   0.552   6.295   1.098
 8451SOL     OW26251   4.231   1.761   0.484
 8451SOL    HW126252   4.132   1.777   0.475
 8451SOL    HW226253   4.281   1.839   0.446
 8452SOL     OW26254   5.774   1.726   2.540
 8452SOL    HW126255   5.844   1.656   2.526
 8452SOL    HW226256   5.781   1.795   2.467
 8453SOL     OW26257   0.286   4.468   6.586
 8453SOL    HW126258   0.280   4.469   6.685
 8453SOL    HW226259   0.372   4.425   6.558
 8454SOL     OW26260   6.718   6.746   1.865
 8454SOL    HW126261   6.778   6.690   1.923
 8454SOL    HW226262   6.671   6.687   1.799
 8455SOL     OW26263   6.155   2.590   1.924
 8455SOL    HW126264   6.092   2.666   1.907
 8455SOL    HW226265   6.201   2.605   2.012
 8456SOL     OW26266   4.010   5.789   3.043
 8456SOL    HW126267   4.087   5.788   2.978
 8456SOL    HW226268   3.951   5.867   3.023
 8457SOL     OW26269   6.678   6.869   4.638
 8457SOL    HW126270   6.742   6.919   4.697
 8457SOL    HW226271   6.592   6.920   4.631
 8458SOL     OW26272   3.398   1.521   6.612
 8458SOL    HW126273   3.348   1.595   6.567
 8458SOL    HW226274   3.339   1.441   6.622
 8459SOL     OW26275   2.806   5.556   1.950
 8459SOL    HW126276   2.803   5.656   1.950
 8459SOL    HW226277   2.718   5.520   1.919
 8460SOL     OW26278   4.188   4.192   5.374
 8460SOL    HW126279   4.195   4.254   5.295
 8460SOL    HW226280   4.224   4.102   5.349
 8461SOL     OW26281   0.504   4.114   4.231
 8461SOL    HW126282   0.452   4.031   4.211
 8461SOL    HW226283   0.553   4.144   4.149
 8462SOL     OW26284   2.714   2.946   6.592
 8462SOL    HW126285   2.657   2.866   6.574
 8462SOL    HW226286   2.699   3.014   6.520
 8463SOL     OW26287   6.719   0.203   1.356
 8463SOL    HW126288   6.743   0.192   1.260
 8463SOL    HW226289   6.668   0.288   1.368
 8464SOL     OW26290   5.864   3.118   4.586
 8464SOL    HW126291   5.942   3.178   4.571
 8464SOL    HW226292   5.781   3.173   4.595
 8465SOL     OW26293   0.828   2.896   0.859
 8465SOL    HW126294   0.900   2.831   0.887
 8465SOL    HW226295   0.785   2.863   0.775
 8466SOL     OW26296   6.963   0.154   4.010
 8466SOL    HW126297   6.891   0.149   3.941
 8466SOL    HW226298   6.951   0.237   4.065
 8467SOL     OW26299   4.283   0.162   0.338
 8467SOL    HW126300   4.304   0.100   0.262
 8467SOL    HW226301   4.352   0.151   0.410
 8468SOL     OW26302   3.478   2.343   6.531
 8468SOL    HW126303   3.428   2.260   6.556
 8468SOL    HW226304   3.497   2.396   6.614
 8469SOL     OW26305   3.351   2.119   6.565
 8469SOL    HW126306   3.288   2.170   6.506
 8469SOL    HW226307   3.300   2.047   6.613
 8470SOL     OW26308   1.401   3.663   6.935
 8470SOL    HW126309   1.419   3.662   0.013
 8470SOL    HW226310   1.415   3.755   6.899
 8471SOL     OW26311   3.030   1.171   3.571
 8471SOL    HW126312   3.032   1.083   3.620
 8471SOL    HW226313   3.115   1.220   3.589
 8472SOL     OW26314   6.927   1.092   4.909
 8472SOL    HW126315   6.879   1.047   4.984
 8472SOL    HW226316   7.019   1.055   4.901
 8473SOL     OW26317   6.613   5.896   6.583
 8473SOL    HW126318   6.679   5.961   6.622
 8473SOL    HW226319   6.576   5.933   6.498
 8474SOL     OW26320   3.469   2.847   1.536
 8474SOL    HW126321   3.466   2.864   1.437
 8474SOL    HW226322   3.382   2.808   1.566
 8475SOL     OW26323   7.008   2.424   3.528
 8475SOL    HW126324   7.017   2.518   3.494
 8475SOL    HW226325   0.062   2.369   3.491
 8476SOL     OW26326   6.926   2.213   1.091
 8476SOL    HW126327   6.855   2.196   1.023
 8476SOL    HW226328   6.899   2.292   1.147
 8477SOL     OW26329   4.725   6.408   0.990
 8477SOL    HW126330   4.731   6.503   0.960
 8477SOL    HW226331   4.818   6.374   1.007
 8478SOL     OW26332   1.352   6.529   5.816
 8478SOL    HW126333   1.447   6.560   5.812
 8478SOL    HW226334   1.294   6.604   5.849
 8479SOL     OW26335   0.574   2.302   1.158
 8479SOL    HW126336   0.655   2.282   1.102
 8479SOL    HW226337   0.530   2.216   1.185
 8480SOL     OW26338   4.855   1.382   0.274
 8480SOL    HW126339   4.799   1.454   0.316
 8480SOL    HW226340   4.801   1.298   0.265
 8481SOL     OW26341   3.949   2.099   3.942
 8481SOL    HW126342   4.033   2.153   3.952
 8481SOL    HW226343   3.951   2.050   3.855
 8482SOL     OW26344   4.331   5.787   1.652
 8482SOL    HW126345   4.420   5.810   1.612
 8482SOL    HW226346   4.296   5.865   1.704
 8483SOL     OW26347   4.522   6.161   2.490
 8483SOL    HW126348   4.432   6.146   2.450
 8483SOL    HW226349   4.585   6.091   2.456
 8484SOL     OW26350   0.791   5.901   3.435
 8484SOL    HW126351   0.876   5.882   3.484
 8484SOL    HW226352   0.745   5.815   3.412
 8485SOL     OW26353   3.517   3.298   7.004
 8485SOL    HW126354   3.445   3.358   6.969
 8485SOL    HW226355   3.486   3.203   6.999
 8486SOL     OW26356   3.747   0.786   3.101
 8486SOL    HW126357   3.767   0.876   3.137
 8486SOL    HW226358   3.655   0.759   3.129
 8487SOL     OW26359   5.564   1.868   6.021
 8487SOL    HW126360   5.499   1.941   6.043
 8487SOL    HW226361   5.551   1.839   5.926
 8488SOL     OW26362   5.883   5.617   6.844
 8488SOL    HW126363   5.784   5.619   6.827
 8488SOL    HW226364   5.900   5.604   6.942
 8489SOL     OW26365   6.174   1.719   1.099
 8489SOL    HW126366   6.151   1.783   1.172
 8489SOL    HW226367   6.108   1.643   1.098
 8490SOL     OW26368   4.260   6.534   3.990
 8490SOL    HW126369   4.241   6.597   3.915
 8490SOL    HW226370   4.197   6.457   3.986
 8491SOL     OW26371   2.423   6.095   0.358
 8491SOL    HW126372   2.413   6.194   0.369
 8491SOL    HW226373   2.333   6.052   0.358
 8492SOL     OW26374   4.641   4.153   6.446
 8492SOL    HW126375   4.700   4.074   6.431
 8492SOL    HW226376   4.691   4.236   6.421
 8493SOL     OW26377   2.478   2.783   6.165
 8493SOL    HW126378   2.479   2.807   6.068
 8493SOL    HW226379   2.514   2.690   6.177
 8494SOL     OW26380   3.266   5.806   1.131
 8494SOL    HW126381   3.260   5.780   1.227
 8494SOL    HW226382   3.352   5.772   1.093
 8495SOL     OW26383   6.763   5.027   2.222
 8495SOL    HW126384   6.677   4.990   2.258
 8495SOL    HW226385   6.745   5.111   2.172
 8496SOL     OW26386   0.824   2.226   1.983
 8496SOL    HW126387   0.771   2.272   1.912
 8496SOL    HW226388   0.765   2.163   2.034
 8497SOL     OW26389   5.854   1.154   3.532
 8497SOL    HW126390   5.847   1.054   3.524
 8497SOL    HW226391   5.870   1.193   3.441
 8498SOL     OW26392   0.310   6.684   2.977
 8498SOL    HW126393   0.298   6.761   3.041
 8498SOL    HW226394   0.403   6.647   2.988
 8499SOL     OW26395   2.119   4.329   6.402
 8499SOL    HW126396   2.211   4.330   6.363
 8499SOL    HW226397   2.097   4.420   6.436
 8500SOL     OW26398   2.063   6.606   5.267
 8500SOL    HW126399   2.076   6.593   5.168
 8500SOL    HW226400   1.969   6.581   5.292
 8501SOL     OW26401   0.625   1.779   6.894
 8501SOL    HW126402   0.715   1.822   6.894
 8501SOL    HW226403   0.558   1.840   6.854
 8502SOL     OW26404   1.559   4.127   1.222
 8502SOL    HW126405   1.561   4.057   1.150
 8502SOL    HW226406   1.480   4.112   1.281
 8503SOL     OW26407   1.989   0.045   4.352
 8503SOL    HW126408   1.973   6.971   4.324
 8503SOL    HW226409   1.901   0.093   4.359
 8504SOL     OW26410   2.426   5.236   2.494
 8504SOL    HW126411   2.464   5.154   2.537
 8504SOL    HW226412   2.381   5.292   2.563
 8505SOL     OW26413   4.858   3.466   3.702
 8505SOL    HW126414   4.878   3.507   3.613
 8505SOL    HW226415   4.868   3.367   3.695
 8506SOL     OW26416   6.786   1.512   6.540
 8506SOL    HW126417   6.834   1.424   6.542
 8506SOL    HW226418   6.704   1.507   6.596
 8507SOL     OW26419   3.414   0.948   5.617
 8507SOL    HW126420   3.498   0.907   5.580
 8507SOL    HW226421   3.428   0.976   5.712
 8508SOL     OW26422   6.240   2.013   5.203
 8508SOL    HW126423   6.256   1.965   5.117
 8508SOL    HW226424   6.189   1.954   5.265
 8509SOL     OW26425   4.368   1.597   3.277
 8509SOL    HW126426   4.395   1.661   3.205
 8509SOL    HW226427   4.430   1.607   3.355
 8510SOL     OW26428   5.738   3.834   3.498
 8510SOL    HW126429   5.718   3.766   3.428
 8510SOL    HW226430   5.685   3.916   3.481
 8511SOL     OW26431   6.801   3.872   1.632
 8511SOL    HW126432   6.784   3.851   1.728
 8511SOL    HW226433   6.801   3.788   1.578
 8512SOL     OW26434   3.725   1.868   1.656
 8512SOL    HW126435   3.672   1.884   1.740
 8512SOL    HW226436   3.820   1.897   1.671
 8513SOL     OW26437   4.968   3.866   1.327
 8513SOL    HW126438   4.924   3.815   1.253
 8513SOL    HW226439   5.049   3.818   1.358
 8514SOL     OW26440   2.434   2.536   3.685
 8514SOL    HW126441   2.478   2.506   3.600
 8514SOL    HW226442   2.504   2.561   3.751
 8515SOL     OW26443   5.666   1.762   0.684
 8515SOL    HW126444   5.744   1.705   0.709
 8515SOL    HW226445   5.593   1.704   0.648
 8516SOL     OW26446   6.615   1.979   1.446
 8516SOL    HW126447   6.678   1.943   1.377
 8516SOL    HW226448   6.561   1.904   1.485
 8517SOL     OW26449   1.589   3.156   6.170
 8517SOL    HW126450   1.589   3.252   6.141
 8517SOL    HW226451   1.635   3.149   6.259
 8518SOL     OW26452   4.993   3.856   0.464
 8518SOL    HW126453   4.944   3.931   0.419
 8518SOL    HW226454   5.026   3.886   0.553
 8519SOL     OW26455   1.364   4.145   1.424
 8519SOL    HW126456   1.429   4.210   1.463
 8519SOL    HW226457   1.380   4.055   1.462
 8520SOL     OW26458   3.449   3.016   0.034
 8520SOL    HW126459   3.393   2.936   0.011
 8520SOL    HW226460   3.544   2.999   0.006
 8521SOL     OW26461   2.151   5.660   5.990
 8521SOL    HW126462   2.053   5.673   5.976
 8521SOL    HW226463   2.179   5.706   6.075
 8522SOL     OW26464   1.311   6.483   1.923
 8522SOL    HW126465   1.218   6.464   1.891
 8522SOL    HW226466   1.374   6.481   1.845
 8523SOL     OW26467   1.693   6.574   6.947
 8523SOL    HW126468   1.671   6.669   6.970
 8523SOL    HW226469   1.625   6.514   6.989
 8524SOL     OW26470   0.363   2.398   4.794
 8524SOL    HW126471   0.347   2.394   4.893
 8524SOL    HW226472   0.278   2.422   4.747
 8525SOL     OW26473   6.337   3.990   2.766
 8525SOL    HW126474   6.436   4.003   2.763
 8525SOL    HW226475   6.305   3.959   2.676
 8526SOL     OW26476   3.885   5.833   6.145
 8526SOL    HW126477   3.892   5.734   6.130
 8526SOL    HW226478   3.975   5.871   6.165
 8527SOL     OW26479   3.063   0.963   6.301
 8527SOL    HW126480   3.050   1.056   6.268
 8527SOL    HW226481   3.125   0.963   6.379
 8528SOL     OW26482   3.897   1.226   6.195
 8528SOL    HW126483   3.837   1.181   6.262
 8528SOL    HW226484   3.982   1.254   6.240
 8529SOL     OW26485   1.084   0.723   1.138
 8529SOL    HW126486   1.024   0.689   1.066
 8529SOL    HW226487   1.126   0.810   1.108
 8530SOL     OW26488   3.430   3.893   5.171
 8530SOL    HW126489   3.429   3.823   5.242
 8530SOL    HW226490   3.339   3.933   5.161
 8531SOL     OW26491   6.533   5.250   2.342
 8531SOL    HW126492   6.459   5.182   2.342
 8531SOL    HW226493   6.582   5.246   2.255
 8532SOL     OW26494   4.159   4.829   4.353
 8532SOL    HW126495   4.132   4.895   4.283
 8532SOL    HW226496   4.208   4.753   4.311
 8533SOL     OW26497   1.230   0.117   6.635
 8533SOL    HW126498   1.138   0.109   6.597
 8533SOL    HW226499   1.251   0.034   6.688
 8534SOL     OW26500   6.526   2.902   3.712
 8534SOL    HW126501   6.558   2.814   3.678
 8534SOL    HW226502   6.446   2.930   3.660
 8535SOL     OW26503   6.531   1.546   4.546
 8535SOL    HW126504   6.473   1.474   4.585
 8535SOL    HW226505   6.475   1.625   4.521
 8536SOL     OW26506   6.814   2.694   4.965
 8536SOL    HW126507   6.834   2.598   4.944
 8536SOL    HW226508   6.867   2.753   4.904
 8537SOL     OW26509   5.254   1.389   2.136
 8537SOL    HW126510   5.333   1.337   2.102
 8537SOL    HW226511   5.281   1.484   2.151
 8538SOL     OW26512   0.568   0.932   6.902
 8538SOL    HW126513   0.528   0.996   6.968
 8538SOL    HW226514   0.665   0.921   6.921
 8539SOL     OW26515   5.397   0.683   2.478
 8539SOL    HW126516   5.405   0.704   2.381
 8539SOL    HW226517   5.305   0.649   2.497
 8540SOL     OW26518   4.599   0.615   6.988
 8540SOL    HW126519   4.544   0.584   0.044
 8540SOL    HW226520   4.662   0.542   6.960
 8541SOL     OW26521   2.606   1.630   4.429
 8541SOL    HW126522   2.695   1.595   4.457
 8541SOL    HW226523   2.581   1.708   4.487
 8542SOL     OW26524   3.946   4.593   6.618
 8542SOL    HW126525   3.853   4.581   6.655
 8542SOL    HW226526   3.958   4.533   6.539
 8543SOL     OW26527   3.358   0.604   0.894
 8543SOL    HW126528   3.275   0.621   0.841
 8543SOL    HW226529   3.386   0.688   0.941
 8544SOL     OW26530   5.347   3.270   4.763
 8544SOL    HW126531   5.248   3.272   4.765
 8544SOL    HW226532   5.383   3.362   4.776
 8545SOL     OW26533   4.981   6.651   5.085
 8545SOL    HW126534   5.072   6.676   5.054
 8545SOL    HW226535   4.928   6.617   5.008
 8546SOL     OW26536   6.828   1.216   3.488
 8546SOL    HW126537   6.919   1.179   3.501
 8546SOL    HW226538   6.829   1.315   3.502
 8547SOL     OW26539   1.289   6.891   6.385
 8547SOL    HW126540   1.310   6.989   6.389
 8547SOL    HW226541   1.276   6.864   6.290
 8548SOL     OW26542   5.996   3.545   5.405
 8548SOL    HW126543   6.078   3.491   5.385
 8548SOL    HW226544   5.959   3.583   5.320
 8549SOL     OW26545   0.992   2.874   4.369
 8549SOL    HW126546   1.061   2.813   4.330
 8549SOL    HW226547   0.959   2.836   4.456
 8550SOL     OW26548   1.768   4.919   0.431
 8550SOL    HW126549   1.704   4.853   0.468
 8550SOL    HW226550   1.801   4.979   0.504
 8551SOL     OW26551   3.285   3.593   6.345
 8551SOL    HW126552   3.330   3.615   6.432
 8551SOL    HW226553   3.240   3.675   6.310
 8552SOL     OW26554   2.484   0.297   3.752
 8552SOL    HW126555   2.539   0.214   3.747
 8552SOL    HW226556   2.444   0.304   3.844
 8553SOL     OW26557   4.341   4.081   6.617
 8553SOL    HW126558   4.360   4.096   6.520
 8553SOL    HW226559   4.425   4.093   6.670
 8554SOL     OW26560   1.137   4.583   0.437
 8554SOL    HW126561   1.168   4.668   0.392
 8554SOL    HW226562   1.206   4.554   0.503
 8555SOL     OW26563   1.976   1.456   3.499
 8555SOL    HW126564   2.025   1.523   3.442
 8555SOL    HW226565   2.041   1.413   3.562
 8556SOL     OW26566   1.631   5.882   4.822
 8556SOL    HW126567   1.552   5.852   4.875
 8556SOL    HW226568   1.644   5.981   4.834
 8557SOL     OW26569   5.618   6.682   3.092
 8557SOL    HW126570   5.669   6.763   3.062
 8557SOL    HW226571   5.528   6.681   3.049
 8558SOL     OW26572   2.630   4.699   3.147
 8558SOL    HW126573   2.604   4.624   3.208
 8558SOL    HW226574   2.564   4.774   3.158
 8559SOL     OW26575   1.320   0.228   2.900
 8559SOL    HW126576   1.387   0.159   2.872
 8559SOL    HW226577   1.244   0.183   2.946
 8560SOL     OW26578   6.787   6.309   1.669
 8560SOL    HW126579   6.725   6.266   1.735
 8560SOL    HW226580   6.857   6.360   1.718
 8561SOL     OW26581   2.831   0.537   2.724
 8561SOL    HW126582   2.899   0.465   2.715
 8561SOL    HW226583   2.740   0.500   2.705
 8562SOL     OW26584   4.224   6.192   5.639
 8562SOL    HW126585   4.252   6.254   5.712
 8562SOL    HW226586   4.303   6.172   5.580
 8563SOL     OW26587   1.611   4.525   6.867
 8563SOL    HW126588   1.686   4.508   6.802
 8563SOL    HW226589   1.640   4.593   6.934
 8564SOL     OW26590   2.927   0.966   5.223
 8564SOL    HW126591   2.861   0.946   5.295
 8564SOL    HW226592   2.941   1.064   5.217
 8565SOL     OW26593   3.507   5.590   1.321
 8565SOL    HW126594   3.494   5.491   1.327
 8565SOL    HW226595   3.506   5.618   1.225
 8566SOL     OW26596   1.935   0.413   1.173
 8566SOL    HW126597   1.922   0.314   1.170
 8566SOL    HW226598   1.851   0.458   1.142
 8567SOL     OW26599   0.353   2.683   2.923
 8567SOL    HW126600   0.387   2.645   2.837
 8567SOL    HW226601   0.387   2.776   2.934
 8568SOL     OW26602   5.275   1.232   6.635
 8568SOL    HW126603   5.350   1.215   6.700
 8568SOL    HW226604   5.205   1.162   6.647
 8569SOL     OW26605   4.885   0.975   6.181
 8569SOL    HW126606   4.876   0.940   6.088
 8569SOL    HW226607   4.970   1.026   6.189
 8570SOL     OW26608   1.483   1.826   5.287
 8570SOL    HW126609   1.545   1.842   5.210
 8570SOL    HW226610   1.535   1.787   5.364
 8571SOL     OW26611   1.547   5.916   5.149
 8571SOL    HW126612   1.481   5.985   5.118
 8571SOL    HW226613   1.505   5.860   5.221
 8572SOL     OW26614   3.107   4.520   6.474
 8572SOL    HW126615   3.074   4.493   6.384
 8572SOL    HW226616   3.155   4.608   6.466
 8573SOL     OW26617   3.083   5.911   6.174
 8573SOL    HW126618   3.015   5.859   6.224
 8573SOL    HW226619   3.172   5.867   6.183
 8574SOL     OW26620   6.898   5.878   5.963
 8574SOL    HW126621   6.966   5.936   6.009
 8574SOL    HW226622   6.837   5.839   6.032
 8575SOL     OW26623   2.308   2.616   4.527
 8575SOL    HW126624   2.224   2.561   4.530
 8575SOL    HW226625   2.368   2.590   4.602
 8576SOL     OW26626   1.763   5.350   6.031
 8576SOL    HW126627   1.668   5.320   6.042
 8576SOL    HW226628   1.821   5.270   6.014
 8577SOL     OW26629   0.453   6.683   4.831
 8577SOL    HW126630   0.353   6.686   4.824
 8577SOL    HW226631   0.486   6.595   4.795
 8578SOL     OW26632   5.536   6.923   3.742
 8578SOL    HW126633   5.577   6.850   3.689
 8578SOL    HW226634   5.606   6.967   3.798
 8579SOL     OW26635   1.475   0.034   2.546
 8579SOL    HW126636   1.564   0.030   2.500
 8579SOL    HW226637   1.406   7.009   2.490
 8580SOL     OW26638   2.001   6.064   1.935
 8580SOL    HW126639   1.992   6.034   2.030
 8580SOL    HW226640   1.930   6.131   1.914
 8581SOL     OW26641   3.362   4.014   1.885
 8581SOL    HW126642   3.303   4.002   1.965
 8581SOL    HW226643   3.359   3.930   1.830
 8582SOL     OW26644   4.508   4.619   3.166
 8582SOL    HW126645   4.492   4.581   3.075
 8582SOL    HW226646   4.604   4.606   3.192
 8583SOL     OW26647   5.870   0.445   4.045
 8583SOL    HW126648   5.934   0.389   3.992
 8583SOL    HW226649   5.886   0.541   4.024
 8584SOL     OW26650   1.279   4.526   5.488
 8584SOL    HW126651   1.311   4.431   5.482
 8584SOL    HW226652   1.274   4.554   5.584
 8585SOL     OW26653   0.758   6.109   5.885
 8585SOL    HW126654   0.765   6.088   5.982
 8585SOL    HW226655   0.678   6.166   5.868
 8586SOL     OW26656   2.562   6.649   2.326
 8586SOL    HW126657   2.585   6.559   2.365
 8586SOL    HW226658   2.553   6.716   2.400
 8587SOL     OW26659   1.124   6.800   4.021
 8587SOL    HW126660   1.041   6.777   4.071
 8587SOL    HW226661   1.128   6.747   3.936
 8588SOL     OW26662   2.652   1.193   0.354
 8588SOL    HW126663   2.593   1.274   0.364
 8588SOL    HW226664   2.702   1.178   0.439
 8589SOL     OW26665   4.823   3.127   5.349
 8589SOL    HW126666   4.801   3.222   5.326
 8589SOL    HW226667   4.841   3.120   5.447
 8590SOL     OW26668   6.804   5.942   4.381
 8590SOL    HW126669   6.793   5.878   4.457
 8590SOL    HW226670   6.721   5.996   4.371
 8591SOL     OW26671   0.696   3.875   0.264
 8591SOL    HW126672   0.611   3.825   0.282
 8591SOL    HW226673   0.763   3.853   0.335
 8592SOL     OW26674   6.598   3.138   6.258
 8592SOL    HW126675   6.603   3.209   6.188
 8592SOL    HW226676   6.564   3.053   6.216
 8593SOL     OW26677   2.429   0.490   1.213
 8593SOL    HW126678   2.482   0.543   1.146
 8593SOL    HW226679   2.486   0.417   1.251
 8594SOL     OW26680   4.386   2.482   5.407
 8594SOL    HW126681   4.471   2.453   5.451
 8594SOL    HW226682   4.367   2.577   5.432
 8595SOL     OW26683   0.608   2.253   3.362
 8595SOL    HW126684   0.612   2.353   3.364
 8595SOL    HW226685   0.512   2.223   3.367
 8596SOL     OW26686   0.779   5.637   3.395
 8596SOL    HW126687   0.742   5.634   3.488
 8596SOL    HW226688   0.738   5.565   3.340
 8597SOL     OW26689   4.221   1.664   1.384
 8597SOL    HW126690   4.305   1.716   1.367
 8597SOL    HW226691   4.159   1.676   1.307
 8598SOL     OW26692   6.037   6.993   0.956
 8598SOL    HW126693   6.065   6.985   0.861
 8598SOL    HW226694   5.937   6.996   0.961
 8599SOL     OW26695   0.893   2.768   4.630
 8599SOL    HW126696   0.854   2.828   4.700
 8599SOL    HW226697   0.823   2.705   4.597
 8600SOL     OW26698   4.944   5.250   4.882
 8600SOL    HW126699   4.882   5.215   4.813
 8600SOL    HW226700   4.917   5.343   4.907
 8601SOL     OW26701   0.788   1.081   4.840
 8601SOL    HW126702   0.845   1.075   4.758
 8601SOL    HW226703   0.806   1.002   4.899
 8602SOL     OW26704   2.764   5.263   2.534
 8602SOL    HW126705   2.687   5.201   2.520
 8602SOL    HW226706   2.826   5.225   2.602
 8603SOL     OW26707   4.104   5.905   0.614
 8603SOL    HW126708   4.046   5.866   0.543
 8603SOL    HW226709   4.067   5.994   0.642
 8604SOL     OW26710   0.289   2.533   5.296
 8604SOL    HW126711   0.327   2.461   5.354
 8604SOL    HW226712   0.328   2.525   5.204
 8605SOL     OW26713   2.978   6.003   4.092
 8605SOL    HW126714   3.056   5.987   4.031
 8605SOL    HW226715   2.952   6.099   4.087
 8606SOL     OW26716   1.554   3.896   6.214
 8606SOL    HW126717   1.556   3.960   6.137
 8606SOL    HW226718   1.641   3.898   6.262
 8607SOL     OW26719   3.436   6.093   0.871
 8607SOL    HW126720   3.413   6.018   0.809
 8607SOL    HW226721   3.389   6.176   0.843
 8608SOL     OW26722   3.839   5.170   2.862
 8608SOL    HW126723   3.814   5.170   2.765
 8608SOL    HW226724   3.911   5.237   2.878
 8609SOL     OW26725   4.849   0.500   2.663
 8609SOL    HW126726   4.776   0.524   2.727
 8609SOL    HW226727   4.937   0.496   2.711
 8610SOL     OW26728   1.571   2.540   2.958
 8610SOL    HW126729   1.560   2.447   2.993
 8610SOL    HW226730   1.551   2.541   2.860
 8611SOL     OW26731   2.987   1.562   4.842
 8611SOL    HW126732   2.975   1.657   4.870
 8611SOL    HW226733   2.900   1.514   4.850
 8612SOL     OW26734   3.125   3.265   1.253
 8612SOL    HW126735   3.134   3.364   1.262
 8612SOL    HW226736   3.059   3.231   1.321
 8613SOL     OW26737   2.416   1.809   1.542
 8613SOL    HW126738   2.421   1.904   1.509
 8613SOL    HW226739   2.443   1.806   1.638
 8614SOL     OW26740   1.189   2.427   2.070
 8614SOL    HW126741   1.096   2.440   2.102
 8614SOL    HW226742   1.229   2.516   2.047
 8615SOL     OW26743   4.649   1.656   5.544
 8615SOL    HW126744   4.550   1.652   5.530
 8615SOL    HW226745   4.675   1.590   5.615
 8616SOL     OW26746   3.103   4.632   1.694
 8616SOL    HW126747   3.096   4.612   1.596
 8616SOL    HW226748   3.044   4.569   1.745
 8617SOL     OW26749   6.585   1.144   6.941
 8617SOL    HW126750   6.606   1.068   6.879
 8617SOL    HW226751   6.671   1.186   6.971
 8618SOL     OW26752   6.104   5.505   0.267
 8618SOL    HW126753   6.098   5.422   0.322
 8618SOL    HW226754   6.200   5.528   0.250
 8619SOL     OW26755   3.770   4.979   1.926
 8619SOL    HW126756   3.868   4.958   1.928
 8619SOL    HW226757   3.719   4.902   1.965
 8620SOL     OW26758   1.744   0.574   4.004
 8620SOL    HW126759   1.678   0.636   4.047
 8620SOL    HW226760   1.699   0.524   3.930
 8621SOL     OW26761   5.631   1.607   2.799
 8621SOL    HW126762   5.631   1.704   2.772
 8621SOL    HW226763   5.589   1.598   2.889
 8622SOL     OW26764   5.193   3.335   0.508
 8622SOL    HW126765   5.185   3.391   0.591
 8622SOL    HW226766   5.187   3.239   0.533
 8623SOL     OW26767   1.142   3.651   4.291
 8623SOL    HW126768   1.138   3.601   4.377
 8623SOL    HW226769   1.158   3.587   4.215
 8624SOL     OW26770   1.454   3.776   4.750
 8624SOL    HW126771   1.468   3.845   4.679
 8624SOL    HW226772   1.382   3.713   4.720
 8625SOL     OW26773   4.413   0.267   5.816
 8625SOL    HW126774   4.333   0.235   5.766
 8625SOL    HW226775   4.484   0.294   5.752
 8626SOL     OW26776   3.770   3.175   5.410
 8626SOL    HW126777   3.695   3.197   5.472
 8626SOL    HW226778   3.850   3.147   5.463
 8627SOL     OW26779   0.876   1.308   3.536
 8627SOL    HW126780   0.779   1.326   3.546
 8627SOL    HW226781   0.911   1.265   3.619
 8628SOL     OW26782   6.668   6.263   0.532
 8628SOL    HW126783   6.682   6.334   0.601
 8628SOL    HW226784   6.757   6.227   0.504
 8629SOL     OW26785   1.435   5.416   5.243
 8629SOL    HW126786   1.360   5.352   5.224
 8629SOL    HW226787   1.465   5.458   5.157
 8630SOL     OW26788   5.270   4.217   3.675
 8630SOL    HW126789   5.271   4.242   3.772
 8630SOL    HW226790   5.277   4.299   3.619
 8631SOL     OW26791   1.241   4.937   6.232
 8631SOL    HW126792   1.238   4.839   6.253
 8631SOL    HW226793   1.150   4.975   6.242
 8632SOL     OW26794   3.791   5.657   4.277
 8632SOL    HW126795   3.859   5.657   4.350
 8632SOL    HW226796   3.731   5.736   4.287
 8633SOL     OW26797   4.805   1.710   5.857
 8633SOL    HW126798   4.771   1.631   5.807
 8633SOL    HW226799   4.826   1.784   5.793
 8634SOL     OW26800   5.154   3.553   0.724
 8634SOL    HW126801   5.163   3.652   0.710
 8634SOL    HW226802   5.160   3.533   0.822
 8635SOL     OW26803   5.301   4.371   6.545
 8635SOL    HW126804   5.207   4.339   6.535
 8635SOL    HW226805   5.339   4.394   6.455
 8636SOL     OW26806   4.922   5.715   1.090
 8636SOL    HW126807   4.995   5.668   1.139
 8636SOL    HW226808   4.961   5.770   1.016
 8637SOL     OW26809   2.129   1.038   0.446
 8637SOL    HW126810   2.194   1.108   0.417
 8637SOL    HW226811   2.037   1.077   0.451
 8638SOL     OW26812   2.388   3.160   6.115
 8638SOL    HW126813   2.315   3.169   6.048
 8638SOL    HW226814   2.356   3.188   6.205
 8639SOL     OW26815   5.523   2.823   1.198
 8639SOL    HW126816   5.569   2.734   1.201
 8639SOL    HW226817   5.433   2.815   1.239
 8640SOL     OW26818   4.412   3.912   0.355
 8640SOL    HW126819   4.383   3.921   0.260
 8640SOL    HW226820   4.423   3.816   0.378
 8641SOL     OW26821   5.051   4.594   4.446
 8641SOL    HW126822   4.987   4.572   4.520
 8641SOL    HW226823   5.077   4.509   4.399
 8642SOL     OW26824   2.325   6.217   3.177
 8642SOL    HW126825   2.277   6.165   3.247
 8642SOL    HW226826   2.275   6.210   3.091
 8643SOL     OW26827   2.720   0.047   6.704
 8643SOL    HW126828   2.648   0.102   6.661
 8643SOL    HW226829   2.694   6.971   6.704
 8644SOL     OW26830   5.351   2.124   5.391
 8644SOL    HW126831   5.417   2.098   5.461
 8644SOL    HW226832   5.397   2.179   5.321
 8645SOL     OW26833   4.556   4.575   1.385
 8645SOL    HW126834   4.600   4.650   1.336
 8645SOL    HW226835   4.626   4.518   1.429
 8646SOL     OW26836   6.861   1.241   1.492
 8646SOL    HW126837   6.957   1.230   1.518
 8646SOL    HW226838   6.854   1.239   1.392
 8647SOL     OW26839   2.899   5.737   6.333
 8647SOL    HW126840   2.802   5.745   6.354
 8647SOL    HW226841   2.924   5.640   6.327
 8648SOL     OW26842   6.288   0.692   3.300
 8648SOL    HW126843   6.357   0.763   3.315
 8648SOL    HW226844   6.200   0.735   3.279
 8649SOL     OW26845   5.342   5.256   5.712
 8649SOL    HW126846   5.433   5.294   5.694
 8649SOL    HW226847   5.351   5.179   5.776
 8650SOL     OW26848   2.396   5.131   4.895
 8650SOL    HW126849   2.339   5.050   4.910
 8650SOL    HW226850   2.443   5.155   4.981
 8651SOL     OW26851   3.424   0.148   0.102
 8651SOL    HW126852   3.401   0.226   0.160
 8651SOL    HW226853   3.521   0.153   0.076
 8652SOL     OW26854   1.767   4.318   4.167
 8652SOL    HW126855   1.827   4.351   4.093
 8652SOL    HW226856   1.673   4.345   4.148
 8653SOL     OW26857   5.894   0.626   6.363
 8653SOL    HW126858   5.926   0.603   6.272
 8653SOL    HW226859   5.924   0.556   6.428
 8654SOL     OW26860   1.214   4.979   1.575
 8654SOL    HW126861   1.314   4.972   1.570
 8654SOL    HW226862   1.179   5.009   1.486
 8655SOL     OW26863   6.726   1.497   4.041
 8655SOL    HW126864   6.717   1.554   3.959
 8655SOL    HW226865   6.818   1.458   4.045
 8656SOL     OW26866   6.649   0.407   0.757
 8656SOL    HW126867   6.555   0.416   0.790
 8656SOL    HW226868   6.709   0.466   0.811
 8657SOL     OW26869   5.306   4.656   0.646
 8657SOL    HW126870   5.342   4.720   0.578
 8657SOL    HW226871   5.248   4.588   0.600
 8658SOL     OW26872   5.069   6.673   0.319
 8658SOL    HW126873   5.115   6.585   0.318
 8658SOL    HW226874   4.992   6.671   0.255
 8659SOL     OW26875   4.697   2.091   2.338
 8659SOL    HW126876   4.597   2.097   2.344
 8659SOL    HW226877   4.722   2.049   2.251
 8660SOL     OW26878   6.612   4.506   1.833
 8660SOL    HW126879   6.708   4.514   1.806
 8660SOL    HW226880   6.564   4.590   1.807
 8661SOL     OW26881   5.719   4.025   0.880
 8661SOL    HW126882   5.636   4.034   0.824
 8661SOL    HW226883   5.695   3.985   0.968
 8662SOL     OW26884   4.623   5.495   1.293
 8662SOL    HW126885   4.532   5.533   1.278
 8662SOL    HW226886   4.637   5.480   1.390
 8663SOL     OW26887   3.554   5.794   1.517
 8663SOL    HW126888   3.480   5.862   1.521
 8663SOL    HW226889   3.528   5.720   1.455
 8664SOL     OW26890   1.546   6.078   1.046
 8664SOL    HW126891   1.554   6.062   0.948
 8664SOL    HW226892   1.637   6.073   1.089
 8665SOL     OW26893   5.371   6.461   4.570
 8665SOL    HW126894   5.356   6.483   4.666
 8665SOL    HW226895   5.423   6.536   4.527
 8666SOL     OW26896   5.149   1.626   4.021
 8666SOL    HW126897   5.236   1.608   3.975
 8666SOL    HW226898   5.125   1.548   4.079
 8667SOL     OW26899   4.397   2.460   3.179
 8667SOL    HW126900   4.427   2.364   3.176
 8667SOL    HW226901   4.457   2.515   3.121
 8668SOL     OW26902   5.098   3.555   3.049
 8668SOL    HW126903   5.125   3.515   2.962
 8668SOL    HW226904   5.023   3.503   3.089
 8669SOL     OW26905   1.477   6.316   6.726
 8669SOL    HW126906   1.430   6.334   6.639
 8669SOL    HW226907   1.518   6.225   6.724
 8670SOL     OW26908   3.931   3.923   5.150
 8670SOL    HW126909   3.990   3.888   5.076
 8670SOL    HW226910   3.856   3.859   5.166
 8671SOL     OW26911   5.015   1.295   2.985
 8671SOL    HW126912   5.065   1.227   3.038
 8671SOL    HW226913   5.078   1.343   2.924
 8672SOL     OW26914   1.818   4.948   4.392
 8672SOL    HW126915   1.754   4.958   4.468
 8672SOL    HW226916   1.768   4.953   4.306
 8673SOL     OW26917   5.879   2.822   0.281
 8673SOL    HW126918   5.907   2.875   0.361
 8673SOL    HW226919   5.960   2.792   0.230
 8674SOL     OW26920   5.779   6.055   3.393
 8674SOL    HW126921   5.776   6.135   3.454
 8674SOL    HW226922   5.717   5.985   3.428
 8675SOL     OW26923   2.926   2.265   4.156
 8675SOL    HW126924   2.930   2.320   4.239
 8675SOL    HW226925   2.836   2.274   4.113
 8676SOL     OW26926   4.317   0.491   2.248
 8676SOL    HW126927   4.264   0.574   2.267
 8676SOL    HW226928   4.381   0.508   2.174
 8677SOL     OW26929   2.243   5.808   5.774
 8677SOL    HW126930   2.223   5.767   5.684
 8677SOL    HW226931   2.212   5.746   5.846
 8678SOL     OW26932   6.801   0.561   0.936
 8678SOL    HW126933   6.857   0.643   0.925
 8678SOL    HW226934   6.842   0.501   1.005
 8679SOL     OW26935   0.118   2.294   3.291
 8679SOL    HW126936   0.024   2.272   3.267
 8679SOL    HW226937   0.149   2.372   3.237
 8680SOL     OW26938   1.060   3.733   1.066
 8680SOL    HW126939   0.967   3.717   1.099
 8680SOL    HW226940   1.098   3.814   1.111
 8681SOL     OW26941   5.284   5.101   0.089
 8681SOL    HW126942   5.277   5.156   0.006
 8681SOL    HW226943   5.259   5.158   0.168
 8682SOL     OW26944   4.967   6.711   2.480
 8682SOL    HW126945   5.019   6.667   2.407
 8682SOL    HW226946   5.026   6.776   2.528
 8683SOL     OW26947   1.369   2.123   3.231
 8683SOL    HW126948   1.319   2.151   3.149
 8683SOL    HW226949   1.334   2.035   3.263
 8684SOL     OW26950   6.686   3.122   5.172
 8684SOL    HW126951   6.733   3.073   5.245
 8684SOL    HW226952   6.659   3.058   5.100
 8685SOL     OW26953   0.295   1.602   5.905
 8685SOL    HW126954   0.243   1.659   5.968
 8685SOL    HW226955   0.294   1.642   5.814
 8686SOL     OW26956   0.210   1.727   2.296
 8686SOL    HW126957   0.251   1.758   2.381
 8686SOL    HW226958   0.115   1.757   2.291
 8687SOL     OW26959   4.486   5.227   1.803
 8687SOL    HW126960   4.519   5.321   1.804
 8687SOL    HW226961   4.559   5.167   1.836
 8688SOL     OW26962   2.460   5.368   0.005
 8688SOL    HW126963   2.419   5.371   0.096
 8688SOL    HW226964   2.387   5.373   6.957
 8689SOL     OW26965   3.931   4.071   1.445
 8689SOL    HW126966   3.974   3.983   1.426
 8689SOL    HW226967   3.845   4.078   1.393
 8690SOL     OW26968   1.586   3.508   3.147
 8690SOL    HW126969   1.533   3.537   3.226
 8690SOL    HW226970   1.616   3.589   3.096
 8691SOL     OW26971   3.121   1.735   6.009
 8691SOL    HW126972   3.082   1.721   5.918
 8691SOL    HW226973   3.104   1.654   6.065
 8692SOL     OW26974   2.515   1.789   4.659
 8692SOL    HW126975   2.499   1.863   4.725
 8692SOL    HW226976   2.436   1.727   4.659
 8693SOL     OW26977   6.018   1.003   0.241
 8693SOL    HW126978   5.943   0.975   0.180
 8693SOL    HW226979   6.105   0.973   0.202
 8694SOL     OW26980   4.972   0.856   5.459
 8694SOL    HW126981   4.946   0.878   5.365
 8694SOL    HW226982   5.070   0.837   5.463
 8695SOL     OW26983   4.013   2.981   6.186
 8695SOL    HW126984   4.037   2.914   6.115
 8695SOL    HW226985   4.049   2.950   6.274
 8696SOL     OW26986   1.981   5.077   6.825
 8696SOL    HW126987   2.049   5.108   6.892
 8696SOL    HW226988   1.973   5.144   6.752
 8697SOL     OW26989   6.705   2.381   6.392
 8697SOL    HW126990   6.640   2.407   6.463
 8697SOL    HW226991   6.674   2.296   6.348
 8698SOL     OW26992   5.458   6.254   5.684
 8698SOL    HW126993   5.451   6.291   5.592
 8698SOL    HW226994   5.540   6.197   5.691
 8699SOL     OW26995   2.022   2.412   5.380
 8699SOL    HW126996   2.075   2.446   5.302
 8699SOL    HW226997   1.931   2.385   5.348
 8700SOL     OW26998   0.584   1.157   4.490
 8700SOL    HW126999   0.552   1.072   4.532
 8700SOL    HW227000   0.514   1.228   4.501
 8701SOL     OW27001   0.638   1.567   0.851
 8701SOL    HW127002   0.648   1.594   0.755
 8701SOL    HW227003   0.727   1.538   0.887
 8702SOL     OW27004   5.561   5.263   1.582
 8702SOL    HW127005   5.597   5.348   1.620
 8702SOL    HW227006   5.627   5.189   1.597
 8703SOL     OW27007   2.601   5.011   6.587
 8703SOL    HW127008   2.603   5.104   6.624
 8703SOL    HW227009   2.510   4.991   6.551
 8704SOL     OW27010   0.331   3.684   3.238
 8704SOL    HW127011   0.391   3.624   3.291
 8704SOL    HW227012   0.361   3.687   3.143
 8705SOL     OW27013   5.414   1.442   6.316
 8705SOL    HW127014   5.345   1.372   6.333
 8705SOL    HW227015   5.372   1.532   6.327
 8706SOL     OW27016   5.027   1.952   6.846
 8706SOL    HW127017   4.937   1.941   6.803
 8706SOL    HW227018   5.015   1.991   6.938
 8707SOL     OW27019   6.921   1.740   6.597
 8707SOL    HW127020   6.894   1.647   6.573
 8707SOL    HW227021   6.839   1.797   6.607
 8708SOL     OW27022   4.631   2.086   2.814
 8708SOL    HW127023   4.545   2.136   2.827
 8708SOL    HW227024   4.705   2.151   2.795
 8709SOL     OW27025   0.145   6.947   7.007
 8709SOL    HW127026   0.066   6.951   0.048
 8709SOL    HW227027   0.113   6.927   6.914
 8710SOL     OW27028   2.036   3.412   3.828
 8710SOL    HW127029   2.085   3.325   3.832
 8710SOL    HW227030   2.100   3.486   3.850
 8711SOL     OW27031   1.579   6.705   3.188
 8711SOL    HW127032   1.660   6.646   3.184
 8711SOL    HW227033   1.496   6.648   3.190
 8712SOL     OW27034   4.153   2.184   4.945
 8712SOL    HW127035   4.174   2.280   4.957
 8712SOL    HW227036   4.054   2.173   4.933
 8713SOL     OW27037   6.633   3.133   3.811
 8713SOL    HW127038   6.598   3.076   3.737
 8713SOL    HW227039   6.601   3.098   3.899
 8714SOL     OW27040   0.625   0.831   6.232
 8714SOL    HW127041   0.704   0.832   6.170
 8714SOL    HW227042   0.608   0.924   6.266
 8715SOL     OW27043   4.593   0.485   0.861
 8715SOL    HW127044   4.632   0.514   0.774
 8715SOL    HW227045   4.666   0.453   0.921
 8716SOL     OW27046   6.918   6.888   1.766
 8716SOL    HW127047   6.824   6.856   1.774
 8716SOL    HW227048   6.940   6.903   1.669
 8717SOL     OW27049   3.508   3.139   3.963
 8717SOL    HW127050   3.602   3.104   3.964
 8717SOL    HW227051   3.444   3.063   3.969
 8718SOL     OW27052   1.434   3.748   5.038
 8718SOL    HW127053   1.529   3.754   5.069
 8718SOL    HW227054   1.430   3.767   4.940
 8719SOL     OW27055   3.647   0.448   6.740
 8719SOL    HW127056   3.644   0.412   6.647
 8719SOL    HW227057   3.730   0.416   6.786
 8720SOL     OW27058   6.804   5.521   5.977
 8720SOL    HW127059   6.732   5.458   6.007
 8720SOL    HW227060   6.865   5.541   6.054
 8721SOL     OW27061   6.687   3.191   2.276
 8721SOL    HW127062   6.702   3.260   2.205
 8721SOL    HW227063   6.720   3.226   2.364
 8722SOL     OW27064   3.979   1.594   0.070
 8722SOL    HW127065   3.912   1.552   0.008
 8722SOL    HW227066   3.943   1.682   0.102
 8723SOL     OW27067   5.545   5.857   1.003
 8723SOL    HW127068   5.570   5.761   0.989
 8723SOL    HW227069   5.463   5.878   0.949
 8724SOL     OW27070   5.006   0.016   5.203
 8724SOL    HW127071   4.946   0.075   5.257
 8724SOL    HW227072   4.961   7.013   5.116
 8725SOL     OW27073   1.873   6.036   6.039
 8725SOL    HW127074   1.963   6.004   6.010
 8725SOL    HW227075   1.803   5.992   5.982
 8726SOL     OW27076   6.725   1.050   3.060
 8726SOL    HW127077   6.748   1.039   2.964
 8726SOL    HW227078   6.762   1.136   3.094
 8727SOL     OW27079   6.470   6.375   2.659
 8727SOL    HW127080   6.391   6.319   2.636
 8727SOL    HW227081   6.533   6.377   2.582
 8728SOL     OW27082   6.389   0.458   2.329
 8728SOL    HW127083   6.390   0.358   2.329
 8728SOL    HW227084   6.418   0.491   2.419
 8729SOL     OW27085   4.303   6.078   4.909
 8729SOL    HW127086   4.266   6.067   5.001
 8729SOL    HW227087   4.275   6.001   4.852
 8730SOL     OW27088   6.849   3.927   2.351
 8730SOL    HW127089   6.831   3.889   2.442
 8730SOL    HW227090   6.775   3.989   2.325
 8731SOL     OW27091   2.078   2.618   2.644
 8731SOL    HW127092   2.167   2.577   2.625
 8731SOL    HW227093   2.006   2.551   2.623
 8732SOL     OW27094   6.182   5.228   1.657
 8732SOL    HW127095   6.259   5.198   1.601
 8732SOL    HW227096   6.118   5.281   1.602
 8733SOL     OW27097   1.409   5.026   1.166
 8733SOL    HW127098   1.394   5.074   1.079
 8733SOL    HW227099   1.487   5.067   1.213
 8734SOL     OW27100   1.513   4.106   2.088
 8734SOL    HW127101   1.519   4.206   2.083
 8734SOL    HW227102   1.448   4.081   2.159
 8735SOL     OW27103   1.246   2.532   0.678
 8735SOL    HW127104   1.274   2.527   0.774
 8735SOL    HW227105   1.192   2.615   0.663
 8736SOL     OW27106   0.509   5.876   6.562
 8736SOL    HW127107   0.488   5.778   6.557
 8736SOL    HW227108   0.605   5.888   6.590
 8737SOL     OW27109   1.547   6.059   6.667
 8737SOL    HW127110   1.630   6.087   6.619
 8737SOL    HW227111   1.546   5.960   6.678
 8738SOL     OW27112   2.330   5.580   4.656
 8738SOL    HW127113   2.386   5.662   4.659
 8738SOL    HW227114   2.365   5.513   4.721
 8739SOL     OW27115   5.695   5.333   6.512
 8739SOL    HW127116   5.708   5.243   6.470
 8739SOL    HW227117   5.608   5.335   6.561
 8740SOL     OW27118   4.863   1.004   4.574
 8740SOL    HW127119   4.949   1.055   4.576
 8740SOL    HW227120   4.838   0.985   4.478
 8741SOL     OW27121   2.719   1.248   2.564
 8741SOL    HW127122   2.624   1.255   2.594
 8741SOL    HW227123   2.774   1.207   2.636
 8742SOL     OW27124   6.097   6.084   1.531
 8742SOL    HW127125   6.127   5.993   1.504
 8742SOL    HW227126   6.164   6.151   1.501
 8743SOL     OW27127   1.070   0.057   2.553
 8743SOL    HW127128   1.167   0.048   2.530
 8743SOL    HW227129   1.016   0.063   2.469
 8744SOL     OW27130   3.246   2.701   6.192
 8744SOL    HW127131   3.290   2.617   6.226
 8744SOL    HW227132   3.220   2.687   6.097
 8745SOL     OW27133   6.039   2.593   6.708
 8745SOL    HW127134   6.085   2.554   6.628
 8745SOL    HW227135   6.068   2.542   6.790
 8746SOL     OW27136   4.743   4.934   4.446
 8746SOL    HW127137   4.830   4.908   4.405
 8746SOL    HW227138   4.673   4.940   4.374
 8747SOL     OW27139   0.474   2.930   2.966
 8747SOL    HW127140   0.553   2.976   2.926
 8747SOL    HW227141   0.405   2.998   2.990
 8748SOL     OW27142   6.516   1.439   5.098
 8748SOL    HW127143   6.479   1.434   5.191
 8748SOL    HW227144   6.589   1.508   5.095
 8749SOL     OW27145   2.558   0.868   5.457
 8749SOL    HW127146   2.650   0.828   5.446
 8749SOL    HW227147   2.566   0.957   5.502
 8750SOL     OW27148   3.444   3.644   5.340
 8750SOL    HW127149   3.389   3.575   5.387
 8750SOL    HW227150   3.524   3.600   5.298
 8751SOL     OW27151   5.804   1.040   2.170
 8751SOL    HW127152   5.860   1.020   2.090
 8751SOL    HW227153   5.863   1.052   2.250
 8752SOL     OW27154   2.808   2.858   0.662
 8752SOL    HW127155   2.872   2.871   0.738
 8752SOL    HW227156   2.789   2.946   0.619
 8753SOL     OW27157   3.990   2.254   5.827
 8753SOL    HW127158   3.905   2.266   5.777
 8753SOL    HW227159   4.064   2.303   5.780
 8754SOL     OW27160   2.023   3.414   5.786
 8754SOL    HW127161   1.988   3.356   5.713
 8754SOL    HW227162   1.950   3.432   5.852
 8755SOL     OW27163   1.850   0.612   0.739
 8755SOL    HW127164   1.941   0.572   0.748
 8755SOL    HW227165   1.781   0.540   0.748
 8756SOL     OW27166   0.942   3.078   3.574
 8756SOL    HW127167   0.867   3.085   3.508
 8756SOL    HW227168   0.941   3.158   3.634
 8757SOL     OW27169   3.886   5.572   6.173
 8757SOL    HW127170   3.817   5.500   6.183
 8757SOL    HW227171   3.933   5.585   6.261
 8758SOL     OW27172   5.199   5.806   2.170
 8758SOL    HW127173   5.266   5.790   2.242
 8758SOL    HW227174   5.169   5.902   2.173
 8759SOL     OW27175   4.622   2.691   0.313
 8759SOL    HW127176   4.704   2.745   0.292
 8759SOL    HW227177   4.649   2.606   0.357
 8760SOL     OW27178   1.981   1.161   4.729
 8760SOL    HW127179   1.907   1.096   4.743
 8760SOL    HW227180   2.001   1.209   4.814
 8761SOL     OW27181   6.083   1.855   1.964
 8761SOL    HW127182   6.048   1.767   1.934
 8761SOL    HW227183   6.164   1.842   2.021
 8762SOL     OW27184   1.658   3.902   2.744
 8762SOL    HW127185   1.581   3.861   2.793
 8762SOL    HW227186   1.715   3.954   2.809
 8763SOL     OW27187   7.018   6.830   5.963
 8763SOL    HW127188   0.024   6.753   6.021
 8763SOL    HW227189   6.943   6.802   5.903
 8764SOL     OW27190   4.958   0.491   4.698
 8764SOL    HW127191   5.048   0.460   4.729
 8764SOL    HW227192   4.969   0.571   4.639
 8765SOL     OW27193   5.172   6.387   3.533
 8765SOL    HW127194   5.136   6.462   3.589
 8765SOL    HW227195   5.168   6.413   3.437
 8766SOL     OW27196   4.834   4.220   3.619
 8766SOL    HW127197   4.850   4.315   3.649
 8766SOL    HW227198   4.805   4.220   3.523
 8767SOL     OW27199   5.182   5.796   2.590
 8767SOL    HW127200   5.132   5.859   2.531
 8767SOL    HW227201   5.245   5.847   2.649
 8768SOL     OW27202   1.304   1.962   0.516
 8768SOL    HW127203   1.289   2.057   0.541
 8768SOL    HW227204   1.395   1.933   0.545
 8769SOL     OW27205   0.308   0.638   4.098
 8769SOL    HW127206   0.226   0.639   4.042
 8769SOL    HW227207   0.389   0.627   4.040
 8770SOL     OW27208   5.040   4.335   2.598
 8770SOL    HW127209   5.059   4.357   2.694
 8770SOL    HW227210   5.125   4.321   2.549
 8771SOL     OW27211   0.879   1.409   6.489
 8771SOL    HW127212   0.965   1.427   6.537
 8771SOL    HW227213   0.835   1.495   6.464
 8772SOL     OW27214   5.126   0.657   6.155
 8772SOL    HW127215   5.089   0.617   6.070
 8772SOL    HW227216   5.052   0.664   6.223
 8773SOL     OW27217   4.905   2.674   3.387
 8773SOL    HW127218   4.861   2.607   3.447
 8773SOL    HW227219   4.880   2.766   3.416
 8774SOL     OW27220   0.865   0.739   0.333
 8774SOL    HW127221   0.853   0.837   0.346
 8774SOL    HW227222   0.917   0.723   0.249
 8775SOL     OW27223   5.752   0.082   5.189
 8775SOL    HW127224   5.766   0.156   5.255
 8775SOL    HW227225   5.665   0.096   5.141
 8776SOL     OW27226   3.311   2.924   6.566
 8776SOL    HW127227   3.220   2.886   6.550
 8776SOL    HW227228   3.373   2.850   6.593
 8777SOL     OW27229   0.259   4.231   1.935
 8777SOL    HW127230   0.334   4.171   1.906
 8777SOL    HW227231   0.290   4.326   1.935
 8778SOL     OW27232   5.431   2.594   5.067
 8778SOL    HW127233   5.440   2.605   5.166
 8778SOL    HW227234   5.520   2.571   5.028
 8779SOL     OW27235   2.484   5.328   2.893
 8779SOL    HW127236   2.436   5.332   2.806
 8779SOL    HW227237   2.564   5.269   2.885
 8780SOL     OW27238   0.710   6.367   2.390
 8780SOL    HW127239   0.627   6.405   2.431
 8780SOL    HW227240   0.781   6.360   2.461
 8781SOL     OW27241   5.236   1.260   3.213
 8781SOL    HW127242   5.223   1.299   3.304
 8781SOL    HW227243   5.191   1.171   3.208
 8782SOL     OW27244   6.452   6.227   1.102
 8782SOL    HW127245   6.354   6.228   1.086
 8782SOL    HW227246   6.470   6.235   1.200
 8783SOL     OW27247   6.192   4.405   3.615
 8783SOL    HW127248   6.204   4.430   3.711
 8783SOL    HW227249   6.162   4.485   3.563
 8784SOL     OW27250   6.405   3.861   6.140
 8784SOL    HW127251   6.402   3.954   6.177
 8784SOL    HW227252   6.466   3.857   6.061
 8785SOL     OW27253   5.598   3.837   0.013
 8785SOL    HW127254   5.594   3.756   0.071
 8785SOL    HW227255   5.523   3.834   6.967
 8786SOL     OW27256   2.085   6.972   0.247
 8786SOL    HW127257   2.150   0.027   0.232
 8786SOL    HW227258   2.022   6.997   0.320
 8787SOL     OW27259   3.533   2.035   1.525
 8787SOL    HW127260   3.614   1.985   1.557
 8787SOL    HW227261   3.526   2.122   1.573
 8788SOL     OW27262   6.796   1.737   5.975
 8788SOL    HW127263   6.887   1.729   6.014
 8788SOL    HW227264   6.765   1.648   5.942
 8789SOL     OW27265   6.275   0.210   4.708
 8789SOL    HW127266   6.200   0.275   4.695
 8789SOL    HW227267   6.361   0.260   4.718
 8790SOL     OW27268   0.856   0.339   6.667
 8790SOL    HW127269   0.877   0.323   6.764
 8790SOL    HW227270   0.766   0.303   6.646
 8791SOL     OW27271   5.418   6.881   4.434
 8791SOL    HW127272   5.514   6.854   4.425
 8791SOL    HW227273   5.396   6.950   4.365
 8792SOL     OW27274   2.633   6.771   2.886
 8792SOL    HW127275   2.640   6.677   2.919
 8792SOL    HW227276   2.679   6.778   2.797
 8793SOL     OW27277   1.423   4.247   3.459
 8793SOL    HW127278   1.478   4.315   3.413
 8793SOL    HW227279   1.378   4.288   3.538
 8794SOL     OW27280   4.693   6.927   2.230
 8794SOL    HW127281   4.660   6.850   2.175
 8794SOL    HW227282   4.695   6.900   2.326
 8795SOL     OW27283   1.573   5.299   5.683
 8795SOL    HW127284   1.544   5.203   5.682
 8795SOL    HW227285   1.522   5.350   5.615
 8796SOL     OW27286   3.684   1.997   4.858
 8796SOL    HW127287   3.671   2.035   4.766
 8796SOL    HW227288   3.636   1.909   4.864
 8797SOL     OW27289   6.695   6.845   6.876
 8797SOL    HW127290   6.643   6.870   6.795
 8797SOL    HW227291   6.761   6.916   6.898
 8798SOL     OW27292   5.318   5.664   5.690
 8798SOL    HW127293   5.269   5.578   5.707
 8798SOL    HW227294   5.285   5.734   5.753
 8799SOL     OW27295   2.889   4.747   3.610
 8799SOL    HW127296   2.968   4.779   3.662
 8799SOL    HW227297   2.829   4.693   3.669
 8800SOL     OW27298   6.414   3.738   5.586
 8800SOL    HW127299   6.370   3.718   5.673
 8800SOL    HW227300   6.386   3.829   5.554
 8801SOL     OW27301   0.249   1.563   4.986
 8801SOL    HW127302   0.316   1.625   5.028
 8801SOL    HW227303   0.259   1.472   5.026
 8802SOL     OW27304   1.971   6.509   0.342
 8802SOL    HW127305   2.014   6.461   0.266
 8802SOL    HW227306   1.903   6.574   0.307
 8803SOL     OW27307   6.438   6.095   6.891
 8803SOL    HW127308   6.492   6.170   6.853
 8803SOL    HW227309   6.367   6.068   6.826
 8804SOL     OW27310   2.400   6.690   2.103
 8804SOL    HW127311   2.447   6.665   2.188
 8804SOL    HW227312   2.438   6.775   2.068
 8805SOL     OW27313   2.744   6.450   4.197
 8805SOL    HW127314   2.731   6.542   4.159
 8805SOL    HW227315   2.780   6.458   4.290
 8806SOL     OW27316   3.151   5.743   2.245
 8806SOL    HW127317   3.052   5.732   2.241
 8806SOL    HW227318   3.194   5.656   2.270
 8807SOL     OW27319   5.060   0.513   0.101
 8807SOL    HW127320   5.079   0.609   0.082
 8807SOL    HW227321   5.077   0.494   0.197
 8808SOL     OW27322   5.814   2.958   6.773
 8808SOL    HW127323   5.799   3.019   6.851
 8808SOL    HW227324   5.909   2.925   6.774
 8809SOL     OW27325   5.169   5.710   3.367
 8809SOL    HW127326   5.211   5.709   3.276
 8809SOL    HW227327   5.083   5.661   3.365
 8810SOL     OW27328   5.918   1.055   5.420
 8810SOL    HW127329   5.852   1.082   5.490
 8810SOL    HW227330   5.888   1.086   5.330
 8811SOL     OW27331   2.937   0.477   3.102
 8811SOL    HW127332   2.916   0.564   3.058
 8811SOL    HW227333   2.977   0.494   3.192
 8812SOL     OW27334   1.648   0.419   0.756
 8812SOL    HW127335   1.624   0.406   0.852
 8812SOL    HW227336   1.729   0.365   0.734
 8813SOL     OW27337   2.600   4.805   1.551
 8813SOL    HW127338   2.665   4.740   1.591
 8813SOL    HW227339   2.538   4.757   1.490
 8814SOL     OW27340   5.530   6.727   1.351
 8814SOL    HW127341   5.622   6.714   1.314
 8814SOL    HW227342   5.532   6.708   1.449
 8815SOL     OW27343   5.781   6.990   0.920
 8815SOL    HW127344   5.704   0.032   0.933
 8815SOL    HW227345   5.785   6.962   0.824
 8816SOL     OW27346   0.911   6.445   0.368
 8816SOL    HW127347   0.887   6.394   0.451
 8816SOL    HW227348   0.983   6.510   0.389
 8817SOL     OW27349   0.526   4.989   3.825
 8817SOL    HW127350   0.524   4.969   3.923
 8817SOL    HW227351   0.445   4.951   3.782
 8818SOL     OW27352   0.579   4.757   4.607
 8818SOL    HW127353   0.531   4.790   4.526
 8818SOL    HW227354   0.620   4.667   4.586
 8819SOL     OW27355   5.668   5.314   5.097
 8819SOL    HW127356   5.754   5.364   5.107
 8819SOL    HW227357   5.657   5.252   5.175
 8820SOL     OW27358   2.388   0.854   5.214
 8820SOL    HW127359   2.291   0.832   5.228
 8820SOL    HW227360   2.430   0.879   5.301
 8821SOL     OW27361   1.856   6.082   1.112
 8821SOL    HW127362   1.930   6.025   1.148
 8821SOL    HW227363   1.893   6.150   1.049
 8822SOL     OW27364   0.828   0.206   4.637
 8822SOL    HW127365   0.850   0.198   4.734
 8822SOL    HW227366   0.729   0.198   4.625
 8823SOL     OW27367   2.376   0.998   2.030
 8823SOL    HW127368   2.427   1.042   2.103
 8823SOL    HW227369   2.328   1.067   1.976
 8824SOL     OW27370   1.088   1.960   0.369
 8824SOL    HW127371   1.029   1.976   0.449
 8824SOL    HW227372   1.181   1.940   0.400
 8825SOL     OW27373   2.532   1.226   1.508
 8825SOL    HW127374   2.495   1.317   1.488
 8825SOL    HW227375   2.500   1.197   1.599
 8826SOL     OW27376   6.424   3.493   0.152
 8826SOL    HW127377   6.416   3.573   0.094
 8826SOL    HW227378   6.476   3.516   0.234
 8827SOL     OW27379   4.288   1.688   2.188
 8827SOL    HW127380   4.197   1.680   2.147
 8827SOL    HW227381   4.353   1.722   2.119
 8828SOL     OW27382   4.577   6.211   5.598
 8828SOL    HW127383   4.515   6.146   5.553
 8828SOL    HW227384   4.523   6.284   5.641
 8829SOL     OW27385   5.563   3.097   0.810
 8829SOL    HW127386   5.554   3.077   0.713
 8829SOL    HW227387   5.616   3.025   0.854
 8830SOL     OW27388   1.395   1.627   2.841
 8830SOL    HW127389   1.325   1.612   2.910
 8830SOL    HW227390   1.420   1.724   2.840
 8831SOL     OW27391   3.756   2.146   4.185
 8831SOL    HW127392   3.822   2.150   4.110
 8831SOL    HW227393   3.805   2.151   4.272
 8832SOL     OW27394   0.223   6.121   2.986
 8832SOL    HW127395   0.230   6.216   2.957
 8832SOL    HW227396   0.145   6.110   3.047
 8833SOL     OW27397   2.673   4.955   5.910
 8833SOL    HW127398   2.650   5.044   5.872
 8833SOL    HW227399   2.590   4.899   5.917
 8834SOL     OW27400   5.398   3.877   4.775
 8834SOL    HW127401   5.327   3.807   4.771
 8834SOL    HW227402   5.426   3.891   4.870
 8835SOL     OW27403   5.005   0.978   5.835
 8835SOL    HW127404   5.063   0.908   5.876
 8835SOL    HW227405   4.926   0.936   5.791
 8836SOL     OW27406   5.361   2.764   0.312
 8836SOL    HW127407   5.460   2.766   0.327
 8836SOL    HW227408   5.339   2.810   0.226
 8837SOL     OW27409   0.116   6.133   2.243
 8837SOL    HW127410   0.116   6.184   2.329
 8837SOL    HW227411   0.210   6.114   2.215
 8838SOL     OW27412   2.075   5.225   3.379
 8838SOL    HW127413   2.117   5.297   3.435
 8838SOL    HW227414   2.138   5.148   3.372
 8839SOL     OW27415   6.103   5.252   2.752
 8839SOL    HW127416   6.196   5.238   2.719
 8839SOL    HW227417   6.060   5.163   2.769
 8840SOL     OW27418   0.074   2.218   2.273
 8840SOL    HW127419   0.044   2.311   2.253
 8840SOL    HW227420   0.123   2.182   2.194
 8841SOL     OW27421   0.664   0.960   5.256
 8841SOL    HW127422   0.657   0.864   5.229
 8841SOL    HW227423   0.760   0.988   5.255
 8842SOL     OW27424   3.345   3.096   2.140
 8842SOL    HW127425   3.291   3.012   2.151
 8842SOL    HW227426   3.400   3.112   2.222
 8843SOL     OW27427   1.734   3.266   5.206
 8843SOL    HW127428   1.792   3.200   5.159
 8843SOL    HW227429   1.776   3.290   5.294
 8844SOL     OW27430   0.054   1.816   6.327
 8844SOL    HW127431   0.047   1.739   6.391
 8844SOL    HW227432   6.983   1.846   6.301
 8845SOL     OW27433   3.973   3.719   0.517
 8845SOL    HW127434   3.917   3.764   0.586
 8845SOL    HW227435   4.060   3.691   0.557
 8846SOL     OW27436   3.614   5.533   4.131
 8846SOL    HW127437   3.684   5.575   4.187
 8846SOL    HW227438   3.647   5.445   4.097
 8847SOL     OW27439   2.615   0.706   3.224
 8847SOL    HW127440   2.660   0.636   3.279
 8847SOL    HW227441   2.583   0.780   3.283
 8848SOL     OW27442   2.810   1.929   2.163
 8848SOL    HW127443   2.882   1.860   2.157
 8848SOL    HW227444   2.739   1.897   2.226
 8849SOL     OW27445   2.951   6.229   3.536
 8849SOL    HW127446   2.993   6.301   3.480
 8849SOL    HW227447   3.022   6.183   3.589
 8850SOL     OW27448   0.819   1.849   0.124
 8850SOL    HW127449   0.731   1.854   0.077
 8850SOL    HW227450   0.863   1.939   0.124
 8851SOL     OW27451   1.270   4.399   2.768
 8851SOL    HW127452   1.219   4.443   2.695
 8851SOL    HW227453   1.222   4.316   2.798
 8852SOL     OW27454   5.876   2.867   5.054
 8852SOL    HW127455   5.793   2.828   5.095
 8852SOL    HW227456   5.850   2.937   4.987
 8853SOL     OW27457   2.704   0.963   1.075
 8853SOL    HW127458   2.656   1.021   1.141
 8853SOL    HW227459   2.693   0.867   1.101
 8854SOL     OW27460   3.226   2.580   5.611
 8854SOL    HW127461   3.162   2.506   5.631
 8854SOL    HW227462   3.229   2.597   5.513
 8855SOL     OW27463   0.070   5.549   1.509
 8855SOL    HW127464   0.009   5.518   1.581
 8855SOL    HW227465   0.154   5.585   1.549
 8856SOL     OW27466   0.276   6.657   6.109
 8856SOL    HW127467   0.242   6.627   6.197
 8856SOL    HW227468   0.257   6.588   6.040
 8857SOL     OW27469   6.572   1.728   4.208
 8857SOL    HW127470   6.491   1.753   4.155
 8857SOL    HW227471   6.585   1.795   4.281
 8858SOL     OW27472   0.959   3.606   5.387
 8858SOL    HW127473   0.934   3.592   5.292
 8858SOL    HW227474   0.994   3.521   5.426
 8859SOL     OW27475   0.185   0.344   4.121
 8859SOL    HW127476   0.180   0.444   4.119
 8859SOL    HW227477   0.191   0.309   4.028
 8860SOL     OW27478   6.667   2.516   2.823
 8860SOL    HW127479   6.733   2.486   2.892
 8860SOL    HW227480   6.651   2.614   2.832
 8861SOL     OW27481   4.157   1.563   6.110
 8861SOL    HW127482   4.124   1.657   6.098
 8861SOL    HW227483   4.171   1.521   6.020
 8862SOL     OW27484   5.364   0.321   3.794
 8862SOL    HW127485   5.364   0.277   3.884
 8862SOL    HW227486   5.379   0.252   3.723
 8863SOL     OW27487   2.109   4.995   4.342
 8863SOL    HW127488   2.094   5.094   4.340
 8863SOL    HW227489   2.021   4.949   4.355
 8864SOL     OW27490   2.876   4.909   6.510
 8864SOL    HW127491   2.861   4.819   6.549
 8864SOL    HW227492   2.798   4.968   6.531
 8865SOL     OW27493   2.971   0.352   5.485
 8865SOL    HW127494   3.012   0.301   5.561
 8865SOL    HW227495   2.948   0.288   5.412
 8866SOL     OW27496   4.953   0.066   2.867
 8866SOL    HW127497   5.018   0.043   2.794
 8866SOL    HW227498   4.984   0.025   2.953
 8867SOL     OW27499   5.649   4.482   2.844
 8867SOL    HW127500   5.688   4.457   2.932
 8867SOL    HW227501   5.688   4.570   2.814
 8868SOL     OW27502   6.546   2.591   1.283
 8868SOL    HW127503   6.520   2.651   1.358
 8868SOL    HW227504   6.493   2.507   1.286
 8869SOL     OW27505   4.127   5.577   5.122
 8869SOL    HW127506   4.029   5.561   5.128
 8869SOL    HW227507   4.167   5.515   5.054
 8870SOL     OW27508   2.848   0.469   0.667
 8870SOL    HW127509   2.832   0.486   0.570
 8870SOL    HW227510   2.938   0.425   0.678
 8871SOL     OW27511   2.347   1.394   3.756
 8871SOL    HW127512   2.385   1.366   3.668
 8871SOL    HW227513   2.255   1.358   3.766
 8872SOL     OW27514   1.337   4.399   4.887
 8872SOL    HW127515   1.265   4.465   4.866
 8872SOL    HW227516   1.426   4.438   4.866
 8873SOL     OW27517   0.563   6.519   1.879
 8873SOL    HW127518   0.519   6.541   1.792
 8873SOL    HW227519   0.494   6.506   1.949
 8874SOL     OW27520   1.752   6.485   2.883
 8874SOL    HW127521   1.813   6.422   2.834
 8874SOL    HW227522   1.663   6.488   2.838
 8875SOL     OW27523   0.145   3.736   5.214
 8875SOL    HW127524   0.107   3.722   5.122
 8875SOL    HW227525   0.194   3.823   5.216
 8876SOL     OW27526   2.196   6.631   5.502
 8876SOL    HW127527   2.218   6.538   5.532
 8876SOL    HW227528   2.140   6.627   5.419
 8877SOL     OW27529   3.241   2.144   4.192
 8877SOL    HW127530   3.338   2.165   4.205
 8877SOL    HW227531   3.220   2.143   4.094
 8878SOL     OW27532   6.181   5.003   0.381
 8878SOL    HW127533   6.091   4.963   0.397
 8878SOL    HW227534   6.177   5.065   0.302
 8879SOL     OW27535   4.873   4.544   2.950
 8879SOL    HW127536   4.783   4.541   2.907
 8879SOL    HW227537   4.908   4.638   2.949
 8880SOL     OW27538   4.929   6.513   4.827
 8880SOL    HW127539   4.916   6.421   4.789
 8880SOL    HW227540   4.882   6.580   4.769
 8881SOL     OW27541   4.954   6.427   3.932
 8881SOL    HW127542   5.044   6.386   3.922
 8881SOL    HW227543   4.963   6.518   3.971
 8882SOL     OW27544   5.481   0.732   1.044
 8882SOL    HW127545   5.440   0.774   0.963
 8882SOL    HW227546   5.418   0.663   1.081
 8883SOL     OW27547   1.674   6.162   6.264
 8883SOL    HW127548   1.690   6.211   6.349
 8883SOL    HW227549   1.762   6.136   6.223
 8884SOL     OW27550   6.750   4.149   5.224
 8884SOL    HW127551   6.787   4.063   5.189
 8884SOL    HW227552   6.654   4.158   5.197
 8885SOL     OW27553   5.898   4.208   1.860
 8885SOL    HW127554   5.963   4.229   1.933
 8885SOL    HW227555   5.931   4.129   1.809
 8886SOL     OW27556   2.805   6.033   4.519
 8886SOL    HW127557   2.878   6.051   4.584
 8886SOL    HW227558   2.795   6.112   4.458
 8887SOL     OW27559   3.734   0.488   0.436
 8887SOL    HW127560   3.661   0.512   0.500
 8887SOL    HW227561   3.823   0.507   0.479
 8888SOL     OW27562   1.921   1.653   5.761
 8888SOL    HW127563   1.825   1.630   5.777
 8888SOL    HW227564   1.979   1.578   5.794
 8889SOL     OW27565   6.553   0.121   6.984
 8889SOL    HW127566   6.554   0.130   0.063
 8889SOL    HW227567   6.460   0.134   6.950
 8890SOL     OW27568   0.079   5.787   5.338
 8890SOL    HW127569   0.169   5.819   5.310
 8890SOL    HW227570   0.077   5.774   5.438
 8891SOL     OW27571   4.178   3.059   6.581
 8891SOL    HW127572   4.138   3.038   6.492
 8891SOL    HW227573   4.110   3.108   6.637
 8892SOL     OW27574   3.614   5.424   2.745
 8892SOL    HW127575   3.542   5.490   2.726
 8892SOL    HW227576   3.624   5.363   2.667
 8893SOL     OW27577   0.903   5.624   4.221
 8893SOL    HW127578   0.892   5.527   4.201
 8893SOL    HW227579   0.995   5.640   4.257
 8894SOL     OW27580   3.232   2.632   6.486
 8894SOL    HW127581   3.292   2.592   6.417
 8894SOL    HW227582   3.171   2.699   6.443
 8895SOL     OW27583   6.420   2.816   2.379
 8895SOL    HW127584   6.515   2.783   2.386
 8895SOL    HW227585   6.392   2.853   2.467
 8896SOL     OW27586   2.398   3.195   5.652
 8896SOL    HW127587   2.475   3.133   5.664
 8896SOL    HW227588   2.345   3.168   5.572
 8897SOL     OW27589   2.204   2.971   3.147
 8897SOL    HW127590   2.286   2.938   3.100
 8897SOL    HW227591   2.127   2.911   3.125
 8898SOL     OW27592   5.068   3.566   2.286
 8898SOL    HW127593   5.058   3.555   2.187
 8898SOL    HW227594   5.056   3.477   2.330
 8899SOL     OW27595   1.586   4.979   1.777
 8899SOL    HW127596   1.583   5.035   1.860
 8899SOL    HW227597   1.557   5.034   1.699
 8900SOL     OW27598   5.625   2.894   2.627
 8900SOL    HW127599   5.564   2.814   2.628
 8900SOL    HW227600   5.698   2.879   2.561
 8901SOL     OW27601   1.442   0.901   4.902
 8901SOL    HW127602   1.384   0.918   4.982
 8901SOL    HW227603   1.489   0.986   4.876
 8902SOL     OW27604   1.359   6.444   0.427
 8902SOL    HW127605   1.363   6.483   0.335
 8902SOL    HW227606   1.287   6.489   0.480
 8903SOL     OW27607   0.361   1.712   4.286
 8903SOL    HW127608   0.275   1.708   4.337
 8903SOL    HW227609   0.436   1.689   4.347
 8904SOL     OW27610   6.512   0.959   4.819
 8904SOL    HW127611   6.490   0.988   4.912
 8904SOL    HW227612   6.578   1.022   4.779
 8905SOL     OW27613   2.148   3.793   3.262
 8905SOL    HW127614   2.057   3.828   3.241
 8905SOL    HW227615   2.150   3.694   3.247
 8906SOL     OW27616   0.610   6.217   0.064
 8906SOL    HW127617   0.630   6.195   6.990
 8906SOL    HW227618   0.511   6.218   0.078
 8907SOL     OW27619   2.802   2.613   5.507
 8907SOL    HW127620   2.831   2.697   5.552
 8907SOL    HW227621   2.715   2.628   5.460
 8908SOL     OW27622   1.080   5.157   6.779
 8908SOL    HW127623   1.117   5.232   6.833
 8908SOL    HW227624   1.138   5.141   6.699
 8909SOL     OW27625   2.140   1.488   5.771
 8909SOL    HW127626   2.125   1.390   5.772
 8909SOL    HW227627   2.236   1.508   5.792
 8910SOL     OW27628   0.554   2.975   5.777
 8910SOL    HW127629   0.618   2.900   5.762
 8910SOL    HW227630   0.495   2.985   5.697
 8911SOL     OW27631   4.733   2.345   4.569
 8911SOL    HW127632   4.722   2.377   4.475
 8911SOL    HW227633   4.731   2.423   4.632
 8912SOL     OW27634   3.375   3.564   6.631
 8912SOL    HW127635   3.284   3.526   6.651
 8912SOL    HW227636   3.440   3.489   6.619
 8913SOL     OW27637   4.500   5.711   5.738
 8913SOL    HW127638   4.484   5.613   5.721
 8913SOL    HW227639   4.453   5.765   5.668
 8914SOL     OW27640   4.282   6.702   4.868
 8914SOL    HW127641   4.324   6.680   4.955
 8914SOL    HW227642   4.343   6.763   4.816
 8915SOL     OW27643   1.079   2.440   3.941
 8915SOL    HW127644   0.999   2.380   3.948
 8915SOL    HW227645   1.158   2.395   3.983
 8916SOL     OW27646   6.574   2.846   0.847
 8916SOL    HW127647   6.607   2.803   0.931
 8916SOL    HW227648   6.595   2.944   0.849
 8917SOL     OW27649   6.205   3.367   0.246
 8917SOL    HW127650   6.201   3.270   0.223
 8917SOL    HW227651   6.297   3.402   0.226
 8918SOL     OW27652   7.017   3.932   1.415
 8918SOL    HW127653   0.077   3.978   1.378
 8918SOL    HW227654   6.990   3.975   1.501
 8919SOL     OW27655   4.049   4.116   0.514
 8919SOL    HW127656   4.035   4.210   0.484
 8919SOL    HW227657   3.966   4.083   0.559
 8920SOL     OW27658   0.231   1.279   6.749
 8920SOL    HW127659   0.267   1.355   6.693
 8920SOL    HW227660   0.240   1.193   6.699
 8921SOL     OW27661   2.083   2.080   1.971
 8921SOL    HW127662   2.062   2.150   2.040
 8921SOL    HW227663   2.131   2.123   1.895
 8922SOL     OW27664   4.393   4.910   1.170
 8922SOL    HW127665   4.341   4.852   1.233
 8922SOL    HW227666   4.347   4.999   1.162
 8923SOL     OW27667   2.251   1.998   6.596
 8923SOL    HW127668   2.177   1.931   6.597
 8923SOL    HW227669   2.229   2.073   6.659
 8924SOL     OW27670   4.088   5.716   5.660
 8924SOL    HW127671   4.071   5.672   5.572
 8924SOL    HW227672   4.137   5.653   5.720
 8925SOL     OW27673   0.945   1.261   3.275
 8925SOL    HW127674   0.952   1.162   3.263
 8925SOL    HW227675   0.947   1.283   3.372
 8926SOL     OW27676   6.511   2.931   6.064
 8926SOL    HW127677   6.594   2.956   6.014
 8926SOL    HW227678   6.491   2.834   6.050
 8927SOL     OW27679   0.169   0.933   4.476
 8927SOL    HW127680   0.196   0.839   4.453
 8927SOL    HW227681   0.073   0.947   4.450
 8928SOL     OW27682   1.277   6.793   6.128
 8928SOL    HW127683   1.251   6.742   6.045
 8928SOL    HW227684   1.374   6.817   6.123
 8929SOL     OW27685   5.915   1.814   4.875
 8929SOL    HW127686   5.878   1.826   4.783
 8929SOL    HW227687   5.884   1.889   4.934
 8930SOL     OW27688   2.070   3.055   4.756
 8930SOL    HW127689   2.082   3.123   4.684
 8930SOL    HW227690   2.104   3.091   4.842
 8931SOL     OW27691   2.636   3.089   0.923
 8931SOL    HW127692   2.667   3.075   0.829
 8931SOL    HW227693   2.543   3.055   0.933
 8932SOL     OW27694   6.077   1.463   1.269
 8932SOL    HW127695   6.140   1.516   1.325
 8932SOL    HW227696   6.129   1.400   1.211
 8933SOL     OW27697   2.204   2.877   6.465
 8933SOL    HW127698   2.216   2.790   6.513
 8933SOL    HW227699   2.191   2.859   6.367
 8934SOL     OW27700   3.067   5.323   4.398
 8934SOL    HW127701   3.032   5.417   4.397
 8934SOL    HW227702   2.995   5.261   4.365
 8935SOL     OW27703   0.453   4.527   0.807
 8935SOL    HW127704   0.502   4.587   0.744
 8935SOL    HW227705   0.491   4.434   0.800
 8936SOL     OW27706   1.258   3.085   2.216
 8936SOL    HW127707   1.204   3.029   2.279
 8936SOL    HW227708   1.354   3.082   2.243
 8937SOL     OW27709   0.508   0.126   5.765
 8937SOL    HW127710   0.582   0.128   5.698
 8937SOL    HW227711   0.421   0.117   5.718
 8938SOL     OW27712   0.137   6.524   1.022
 8938SOL    HW127713   0.126   6.425   1.009
 8938SOL    HW227714   0.094   6.573   0.946
 8939SOL     OW27715   5.501   3.850   4.111
 8939SOL    HW127716   5.565   3.907   4.162
 8939SOL    HW227717   5.460   3.782   4.172
 8940SOL     OW27718   0.311   0.810   2.043
 8940SOL    HW127719   0.381   0.874   2.012
 8940SOL    HW227720   0.338   0.717   2.017
 8941SOL     OW27721   5.706   2.720   5.232
 8941SOL    HW127722   5.647   2.797   5.259
 8941SOL    HW227723   5.658   2.634   5.251
 8942SOL     OW27724   6.392   5.529   5.804
 8942SOL    HW127725   6.447   5.536   5.721
 8942SOL    HW227726   6.374   5.432   5.824
 8943SOL     OW27727   3.640   5.550   6.855
 8943SOL    HW127728   3.733   5.566   6.822
 8943SOL    HW227729   3.604   5.467   6.813
 8944SOL     OW27730   5.580   5.380   5.704
 8944SOL    HW127731   5.585   5.465   5.651
 8944SOL    HW227732   5.646   5.314   5.668
 8945SOL     OW27733   1.327   0.845   3.237
 8945SOL    HW127734   1.243   0.872   3.190
 8945SOL    HW227735   1.364   0.923   3.287
 8946SOL     OW27736   2.731   1.708   5.040
 8946SOL    HW127737   2.743   1.623   4.989
 8946SOL    HW227738   2.637   1.740   5.030
 8947SOL     OW27739   2.138   2.987   5.861
 8947SOL    HW127740   2.108   3.076   5.897
 8947SOL    HW227741   2.100   2.914   5.918
 8948SOL     OW27742   5.869   6.003   5.019
 8948SOL    HW127743   5.836   5.920   4.975
 8948SOL    HW227744   5.837   6.006   5.114
 8949SOL     OW27745   2.855   6.299   0.432
 8949SOL    HW127746   2.792   6.282   0.356
 8949SOL    HW227747   2.873   6.212   0.480
 8950SOL     OW27748   4.854   4.148   6.637
 8950SOL    HW127749   4.943   4.116   6.602
 8950SOL    HW227750   4.781   4.102   6.586
 8951SOL     OW27751   1.656   1.379   5.046
 8951SOL    HW127752   1.663   1.279   5.042
 8951SOL    HW227753   1.747   1.418   5.035
 8952SOL     OW27754   1.455   5.950   2.177
 8952SOL    HW127755   1.522   5.881   2.204
 8952SOL    HW227756   1.363   5.917   2.200
 8953SOL     OW27757   1.788   4.001   6.920
 8953SOL    HW127758   1.801   3.902   6.915
 8953SOL    HW227759   1.802   4.032   7.014
 8954SOL     OW27760   0.600   6.773   4.489
 8954SOL    HW127761   0.542   6.826   4.551
 8954SOL    HW227762   0.648   6.835   4.427
 8955SOL     OW27763   0.034   5.180   2.599
 8955SOL    HW127764   0.008   5.185   2.695
 8955SOL    HW227765   6.973   5.174   2.542
 8956SOL     OW27766   1.929   1.329   6.684
 8956SOL    HW127767   1.977   1.301   6.601
 8956SOL    HW227768   1.964   1.418   6.715
 8957SOL     OW27769   2.466   4.416   1.036
 8957SOL    HW127770   2.395   4.349   1.058
 8957SOL    HW227771   2.490   4.409   0.939
 8958SOL     OW27772   0.133   1.729   4.447
 8958SOL    HW127773   0.035   1.727   4.428
 8958SOL    HW227774   0.151   1.678   4.531
 8959SOL     OW27775   1.615   4.402   2.426
 8959SOL    HW127776   1.535   4.462   2.430
 8959SOL    HW227777   1.585   4.307   2.428
 8960SOL     OW27778   4.523   5.056   2.589
 8960SOL    HW127779   4.468   4.976   2.564
 8960SOL    HW227780   4.602   5.027   2.642
 8961SOL     OW27781   2.693   0.874   3.839
 8961SOL    HW127782   2.659   0.846   3.929
 8961SOL    HW227783   2.780   0.829   3.821
 8962SOL     OW27784   6.924   5.649   2.763
 8962SOL    HW127785   6.978   5.579   2.715
 8962SOL    HW227786   6.924   5.733   2.709
 8963SOL     OW27787   3.896   6.697   4.618
 8963SOL    HW127788   3.861   6.615   4.574
 8963SOL    HW227789   3.986   6.719   4.582
 8964SOL     OW27790   5.205   3.685   2.780
 8964SOL    HW127791   5.223   3.732   2.866
 8964SOL    HW227792   5.188   3.588   2.797
 8965SOL     OW27793   2.756   4.574   0.389
 8965SOL    HW127794   2.823   4.551   0.460
 8965SOL    HW227795   2.794   4.644   0.329
 8966SOL     OW27796   0.255   4.299   0.400
 8966SOL    HW127797   0.260   4.352   0.485
 8966SOL    HW227798   0.161   4.301   0.365
 8967SOL     OW27799   4.504   0.149   1.196
 8967SOL    HW127800   4.590   0.190   1.164
 8967SOL    HW227801   4.499   0.054   1.164
 8968SOL     OW27802   4.313   5.516   3.024
 8968SOL    HW127803   4.310   5.417   3.038
 8968SOL    HW227804   4.348   5.535   2.932
 8969SOL     OW27805   6.185   1.221   4.349
 8969SOL    HW127806   6.142   1.252   4.434
 8969SOL    HW227807   6.246   1.292   4.314
 8970SOL     OW27808   2.512   3.193   0.105
 8970SOL    HW127809   2.453   3.127   0.059
 8970SOL    HW227810   2.455   3.266   0.143
 8971SOL     OW27811   5.997   5.063   1.333
 8971SOL    HW127812   5.957   5.052   1.242
 8971SOL    HW227813   5.972   4.986   1.391
 8972SOL     OW27814   5.301   3.974   0.137
 8972SOL    HW127815   5.274   3.933   0.224
 8972SOL    HW227816   5.306   3.903   0.067
 8973SOL     OW27817   0.227   2.975   2.730
 8973SOL    HW127818   0.190   3.061   2.765
 8973SOL    HW227819   0.173   2.899   2.765
 8974SOL     OW27820   1.158   4.611   4.812
 8974SOL    HW127821   1.085   4.578   4.871
 8974SOL    HW227822   1.117   4.658   4.733
 8975SOL     OW27823   1.800   6.521   5.686
 8975SOL    HW127824   1.861   6.596   5.662
 8975SOL    HW227825   1.758   6.538   5.775
 8976SOL     OW27826   0.094   5.425   5.726
 8976SOL    HW127827   0.008   5.395   5.684
 8976SOL    HW227828   0.146   5.478   5.660
 8977SOL     OW27829   6.600   3.066   6.703
 8977SOL    HW127830   6.608   3.122   6.621
 8977SOL    HW227831   6.622   3.121   6.784
 8978SOL     OW27832   5.569   6.379   3.581
 8978SOL    HW127833   5.480   6.333   3.575
 8978SOL    HW227834   5.558   6.475   3.555
 8979SOL     OW27835   1.139   4.005   4.633
 8979SOL    HW127836   1.140   3.988   4.535
 8979SOL    HW227837   1.101   3.926   4.681
 8980SOL     OW27838   3.833   2.744   5.307
 8980SOL    HW127839   3.784   2.829   5.288
 8980SOL    HW227840   3.931   2.760   5.300
 8981SOL     OW27841   3.924   0.965   6.060
 8981SOL    HW127842   3.851   0.956   6.128
 8981SOL    HW227843   3.897   1.031   5.990
 8982SOL     OW27844   0.841   1.930   1.830
 8982SOL    HW127845   0.899   1.873   1.772
 8982SOL    HW227846   0.898   1.992   1.884
 8983SOL     OW27847   1.092   5.712   6.459
 8983SOL    HW127848   1.072   5.654   6.380
 8983SOL    HW227849   1.091   5.656   6.542
 8984SOL     OW27850   6.477   6.899   3.749
 8984SOL    HW127851   6.380   6.924   3.747
 8984SOL    HW227852   6.511   6.891   3.656
 8985SOL     OW27853   2.682   1.888   0.936
 8985SOL    HW127854   2.768   1.929   0.907
 8985SOL    HW227855   2.665   1.910   1.032
 8986SOL     OW27856   4.217   5.211   1.945
 8986SOL    HW127857   4.219   5.130   1.886
 8986SOL    HW227858   4.290   5.274   1.917
 8987SOL     OW27859   5.386   6.924   0.986
 8987SOL    HW127860   5.395   6.825   0.982
 8987SOL    HW227861   5.294   6.948   1.018
 8988SOL     OW27862   1.258   3.942   6.322
 8988SOL    HW127863   1.212   3.951   6.233
 8988SOL    HW227864   1.357   3.946   6.309
 8989SOL     OW27865   5.021   4.001   2.057
 8989SOL    HW127866   5.100   3.976   2.112
 8989SOL    HW227867   4.939   4.004   2.114
 8990SOL     OW27868   2.079   5.614   2.851
 8990SOL    HW127869   2.137   5.643   2.775
 8990SOL    HW227870   2.010   5.683   2.870
 8991SOL     OW27871   1.830   1.854   6.783
 8991SOL    HW127872   1.766   1.905   6.840
 8991SOL    HW227873   1.895   1.806   6.842
 8992SOL     OW27874   6.434   1.874   0.371
 8992SOL    HW127875   6.360   1.890   0.305
 8992SOL    HW227876   6.519   1.855   0.322
 8993SOL     OW27877   4.563   2.385   1.991
 8993SOL    HW127878   4.513   2.358   1.909
 8993SOL    HW227879   4.499   2.409   2.063
 8994SOL     OW27880   1.460   5.181   4.704
 8994SOL    HW127881   1.468   5.149   4.798
 8994SOL    HW227882   1.371   5.153   4.667
 8995SOL     OW27883   0.474   2.358   0.007
 8995SOL    HW127884   0.508   2.270   6.995
 8995SOL    HW227885   0.387   2.379   6.982
 8996SOL     OW27886   6.387   5.089   1.004
 8996SOL    HW127887   6.468   5.144   0.988
 8996SOL    HW227888   6.319   5.107   0.933
 8997SOL     OW27889   4.533   0.958   6.366
 8997SOL    HW127890   4.527   0.894   6.290
 8997SOL    HW227891   4.630   0.974   6.389
 8998SOL     OW27892   6.849   3.905   5.124
 8998SOL    HW127893   6.781   3.832   5.126
 8998SOL    HW227894   6.931   3.873   5.076
 8999SOL     OW27895   4.802   6.156   0.014
 8999SOL    HW127896   4.800   6.079   0.078
 8999SOL    HW227897   4.864   6.227   0.048
 9000SOL     OW27898   2.802   3.591   0.587
 9000SOL    HW127899   2.884   3.645   0.567
 9000SOL    HW227900   2.754   3.632   0.664
 9001SOL     OW27901   1.176   5.185   2.592
 9001SOL    HW127902   1.147   5.205   2.498
 9001SOL    HW227903   1.247   5.250   2.619
 9002SOL     OW27904   0.318   5.070   5.210
 9002SOL    HW127905   0.333   4.981   5.253
 9002SOL    HW227906   0.306   5.140   5.281
 9003SOL     OW27907   4.998   2.844   1.416
 9003SOL    HW127908   4.918   2.797   1.454
 9003SOL    HW227909   4.988   2.850   1.316
 9004SOL     OW27910   4.384   6.474   1.323
 9004SOL    HW127911   4.456   6.449   1.387
 9004SOL    HW227912   4.400   6.567   1.289
 9005SOL     OW27913   4.984   2.401   4.418
 9005SOL    HW127914   5.020   2.312   4.447
 9005SOL    HW227915   4.893   2.414   4.456
 9006SOL     OW27916   2.851   6.522   0.759
 9006SOL    HW127917   2.778   6.453   0.766
 9006SOL    HW227918   2.856   6.574   0.845
 9007SOL     OW27919   4.138   0.838   4.076
 9007SOL    HW127920   4.071   0.912   4.080
 9007SOL    HW227921   4.094   0.755   4.041
 9008SOL     OW27922   0.959   5.860   3.032
 9008SOL    HW127923   0.863   5.882   3.013
 9008SOL    HW227924   1.009   5.945   3.052
 9009SOL     OW27925   3.073   1.144   0.205
 9009SOL    HW127926   2.975   1.157   0.190
 9009SOL    HW227927   3.105   1.064   0.154
 9010SOL     OW27928   1.608   6.595   3.973
 9010SOL    HW127929   1.569   6.551   3.892
 9010SOL    HW227930   1.648   6.525   4.032
 9011SOL     OW27931   4.821   2.463   1.676
 9011SOL    HW127932   4.804   2.507   1.764
 9011SOL    HW227933   4.796   2.526   1.602
 9012SOL     OW27934   2.832   4.219   1.473
 9012SOL    HW127935   2.796   4.235   1.382
 9012SOL    HW227936   2.757   4.202   1.537
 9013SOL     OW27937   0.001   6.298   5.262
 9013SOL    HW127938   6.970   6.334   5.339
 9013SOL    HW227939   6.967   6.229   5.214
 9014SOL     OW27940   6.930   1.534   0.502
 9014SOL    HW127941   6.963   1.592   0.427
 9014SOL    HW227942   6.953   1.439   0.484
 9015SOL     OW27943   5.227   2.092   1.386
 9015SOL    HW127944   5.226   2.129   1.294
 9015SOL    HW227945   5.321   2.068   1.413
 9016SOL     OW27946   0.593   6.833   6.555
 9016SOL    HW127947   0.677   6.779   6.561
 9016SOL    HW227948   0.522   6.779   6.511
 9017SOL     OW27949   4.448   2.046   2.141
 9017SOL    HW127950   4.463   2.018   2.046
 9017SOL    HW227951   4.424   2.143   2.144
 9018SOL     OW27952   3.995   1.929   6.522
 9018SOL    HW127953   3.993   1.864   6.447
 9018SOL    HW227954   3.982   2.022   6.486
 9019SOL     OW27955   0.913   0.129   2.328
 9019SOL    HW127956   0.971   0.198   2.285
 9019SOL    HW227957   0.817   0.157   2.321
 9020SOL     OW27958   0.712   3.757   1.800
 9020SOL    HW127959   0.792   3.724   1.848
 9020SOL    HW227960   0.700   3.855   1.816
 9021SOL     OW27961   6.496   0.645   4.225
 9021SOL    HW127962   6.442   0.562   4.242
 9021SOL    HW227963   6.451   0.699   4.153
 9022SOL     OW27964   3.049   1.668   7.010
 9022SOL    HW127965   3.002   1.581   0.002
 9022SOL    HW227966   2.999   1.724   6.944
 9023SOL     OW27967   3.166   3.419   2.389
 9023SOL    HW127968   3.218   3.412   2.304
 9023SOL    HW227969   3.185   3.340   2.447
 9024SOL     OW27970   0.458   4.845   4.816
 9024SOL    HW127971   0.500   4.804   4.735
 9024SOL    HW227972   0.365   4.876   4.793
 9025SOL     OW27973   1.046   5.326   0.094
 9025SOL    HW127974   0.964   5.375   0.064
 9025SOL    HW227975   1.025   5.229   0.105
 9026SOL     OW27976   4.182   3.293   1.138
 9026SOL    HW127977   4.122   3.214   1.154
 9026SOL    HW227978   4.277   3.262   1.130
 9027SOL     OW27979   1.037   2.370   4.310
 9027SOL    HW127980   0.943   2.371   4.344
 9027SOL    HW227981   1.100   2.360   4.386
 9028SOL     OW27982   2.617   3.587   5.762
 9028SOL    HW127983   2.546   3.547   5.705
 9028SOL    HW227984   2.706   3.548   5.738
 9029SOL     OW27985   3.333   5.994   4.776
 9029SOL    HW127986   3.400   6.004   4.851
 9029SOL    HW227987   3.307   5.898   4.768
 9030SOL     OW27988   2.066   2.287   3.366
 9030SOL    HW127989   2.111   2.211   3.320
 9030SOL    HW227990   2.017   2.343   3.299
 9031SOL     OW27991   4.216   5.866   4.769
 9031SOL    HW127992   4.274   5.859   4.688
 9031SOL    HW227993   4.143   5.798   4.762
 9032SOL     OW27994   4.203   3.683   0.166
 9032SOL    HW127995   4.157   3.753   0.221
 9032SOL    HW227996   4.135   3.629   0.116
 9033SOL     OW27997   0.944   4.156   3.714
 9033SOL    HW127998   0.866   4.209   3.747
 9033SOL    HW227999   0.982   4.102   3.789
 9034SOL     OW28000   3.111   0.416   5.787
 9034SOL    HW128001   3.077   0.497   5.834
 9034SOL    HW228002   3.114   0.338   5.850
 9035SOL     OW28003   1.403   4.932   6.017
 9035SOL    HW128004   1.407   4.842   5.975
 9035SOL    HW228005   1.361   4.925   6.108
 9036SOL     OW28006   2.000   1.160   6.066
 9036SOL    HW128007   1.909   1.157   6.108
 9036SOL    HW228008   2.030   1.255   6.057
 9037SOL     OW28009   1.731   3.877   5.300
 9037SOL    HW128010   1.822   3.893   5.263
 9037SOL    HW228011   1.731   3.792   5.354
 9038SOL     OW28012   4.459   6.902   5.946
 9038SOL    HW128013   4.496   6.864   5.861
 9038SOL    HW228014   4.382   6.846   5.978
 9039SOL     OW28015   2.935   4.856   5.148
 9039SOL    HW128016   2.898   4.824   5.235
 9039SOL    HW228017   2.930   4.783   5.081
 9040SOL     OW28018   3.278   2.107   2.810
 9040SOL    HW128019   3.253   2.171   2.737
 9040SOL    HW228020   3.230   2.021   2.797
 9041SOL     OW28021   1.123   2.220   1.559
 9041SOL    HW128022   1.080   2.170   1.484
 9041SOL    HW228023   1.099   2.178   1.646
 9042SOL     OW28024   2.893   0.341   3.747
 9042SOL    HW128025   2.904   0.327   3.846
 9042SOL    HW228026   2.983   0.345   3.704
 9043SOL     OW28027   1.457   0.964   6.772
 9043SOL    HW128028   1.407   1.049   6.793
 9043SOL    HW228029   1.398   0.903   6.720
 9044SOL     OW28030   5.832   1.052   0.857
 9044SOL    HW128031   5.751   1.105   0.830
 9044SOL    HW228032   5.850   1.066   0.954
 9045SOL     OW28033   2.239   1.386   2.598
 9045SOL    HW128034   2.201   1.374   2.690
 9045SOL    HW228035   2.332   1.349   2.595
 9046SOL     OW28036   3.574   4.106   3.728
 9046SOL    HW128037   3.600   4.010   3.730
 9046SOL    HW228038   3.586   4.142   3.636
 9047SOL     OW28039   1.186   2.956   5.650
 9047SOL    HW128040   1.249   2.926   5.578
 9047SOL    HW228041   1.096   2.974   5.610
 9048SOL     OW28042   5.865   2.503   6.411
 9048SOL    HW128043   5.807   2.520   6.332
 9048SOL    HW228044   5.844   2.568   6.483
 9049SOL     OW28045   3.639   6.753   5.922
 9049SOL    HW128046   3.590   6.739   6.008
 9049SOL    HW228047   3.720   6.694   5.919
 9050SOL     OW28048   0.203   3.285   0.290
 9050SOL    HW128049   0.254   3.346   0.352
 9050SOL    HW228050   0.130   3.240   0.341
 9051SOL     OW28051   4.128   6.354   0.872
 9051SOL    HW128052   4.227   6.368   0.882
 9051SOL    HW228053   4.108   6.256   0.879
 9052SOL     OW28054   2.063   2.587   4.087
 9052SOL    HW128055   2.079   2.638   4.171
 9052SOL    HW228056   2.138   2.604   4.023
 9053SOL     OW28057   2.137   1.508   3.054
 9053SOL    HW128058   2.206   1.513   3.125
 9053SOL    HW228059   2.057   1.562   3.081
 9054SOL     OW28060   2.208   5.943   2.869
 9054SOL    HW128061   2.237   5.924   2.963
 9054SOL    HW228062   2.229   6.039   2.847
 9055SOL     OW28063   6.013   3.097   4.015
 9055SOL    HW128064   5.994   2.999   4.015
 9055SOL    HW228065   5.951   3.143   4.079
 9056SOL     OW28066   0.794   1.017   2.377
 9056SOL    HW128067   0.802   1.116   2.369
 9056SOL    HW228068   0.735   0.982   2.304
 9057SOL     OW28069   5.644   4.939   5.749
 9057SOL    HW128070   5.733   4.893   5.750
 9057SOL    HW228071   5.657   5.037   5.731
 9058SOL     OW28072   2.619   1.759   3.006
 9058SOL    HW128073   2.668   1.690   2.952
 9058SOL    HW228074   2.569   1.820   2.945
 9059SOL     OW28075   1.255   2.013   4.492
 9059SOL    HW128076   1.223   2.095   4.541
 9059SOL    HW228077   1.213   2.011   4.401
 9060SOL     OW28078   5.945   3.033   3.599
 9060SOL    HW128079   5.896   3.025   3.511
 9060SOL    HW228080   5.878   3.043   3.673
 9061SOL     OW28081   2.255   5.508   1.972
 9061SOL    HW128082   2.164   5.493   1.935
 9061SOL    HW228083   2.259   5.598   2.015
 9062SOL     OW28084   1.872   5.724   1.819
 9062SOL    HW128085   1.773   5.740   1.826
 9062SOL    HW228086   1.906   5.761   1.733
 9063SOL     OW28087   1.756   7.004   2.870
 9063SOL    HW128088   1.790   0.043   2.797
 9063SOL    HW228089   1.814   6.923   2.877
 9064SOL     OW28090   6.705   2.239   5.584
 9064SOL    HW128091   6.730   2.172   5.514
 9064SOL    HW228092   6.621   2.210   5.630
 9065SOL     OW28093   3.250   0.028   5.746
 9065SOL    HW128094   3.338   0.051   5.787
 9065SOL    HW228095   3.234   0.087   5.667
 9066SOL     OW28096   5.068   6.097   0.576
 9066SOL    HW128097   5.061   6.188   0.617
 9066SOL    HW228098   4.978   6.066   0.547
 9067SOL     OW28099   6.341   1.014   4.448
 9067SOL    HW128100   6.438   1.039   4.441
 9067SOL    HW228101   6.285   1.089   4.411
 9068SOL     OW28102   2.270   6.747   5.003
 9068SOL    HW128103   2.299   6.754   4.908
 9068SOL    HW228104   2.349   6.721   5.059
 9069SOL     OW28105   1.889   3.132   1.918
 9069SOL    HW128106   1.908   3.157   1.823
 9069SOL    HW228107   1.916   3.037   1.935
 9070SOL     OW28108   1.700   4.080   4.847
 9070SOL    HW128109   1.792   4.119   4.842
 9070SOL    HW228110   1.705   3.989   4.890
 9071SOL     OW28111   5.329   7.020   1.334
 9071SOL    HW128112   5.260   0.044   1.278
 9071SOL    HW228113   5.351   6.931   1.296
 9072SOL     OW28114   0.378   1.588   1.948
 9072SOL    HW128115   0.354   1.496   1.978
 9072SOL    HW228116   0.447   1.627   2.009
 9073SOL     OW28117   3.115   6.866   2.585
 9073SOL    HW128118   3.034   6.813   2.608
 9073SOL    HW228119   3.180   6.864   2.661
 9074SOL     OW28120   2.293   1.425   1.922
 9074SOL    HW128121   2.321   1.455   1.831
 9074SOL    HW228122   2.365   1.445   1.988
 9075SOL     OW28123   1.262   1.263   2.650
 9075SOL    HW128124   1.188   1.294   2.709
 9075SOL    HW228125   1.235   1.179   2.603
 9076SOL     OW28126   5.918   2.305   5.399
 9076SOL    HW128127   5.899   2.402   5.389
 9076SOL    HW228128   6.009   2.285   5.363
 9077SOL     OW28129   5.001   0.155   0.527
 9077SOL    HW128130   4.952   0.074   0.495
 9077SOL    HW228131   5.032   0.208   0.449
 9078SOL     OW28132   4.620   3.827   6.211
 9078SOL    HW128133   4.593   3.890   6.139
 9078SOL    HW228134   4.591   3.734   6.187
 9079SOL     OW28135   3.041   0.462   4.202
 9079SOL    HW128136   3.113   0.473   4.133
 9079SOL    HW228137   3.040   0.543   4.261
 9080SOL     OW28138   4.758   2.696   7.019
 9080SOL    HW128139   4.810   2.675   0.081
 9080SOL    HW228140   4.799   2.649   6.941
 9081SOL     OW28141   3.466   6.256   2.406
 9081SOL    HW128142   3.373   6.275   2.374
 9081SOL    HW228143   3.486   6.159   2.397
 9082SOL     OW28144   2.374   0.513   5.918
 9082SOL    HW128145   2.274   0.521   5.917
 9082SOL    HW228146   2.412   0.577   5.984
 9083SOL     OW28147   3.076   6.300   6.035
 9083SOL    HW128148   3.051   6.217   5.984
 9083SOL    HW228149   3.158   6.340   5.994
 9084SOL     OW28150   3.029   3.927   4.330
 9084SOL    HW128151   2.964   3.918   4.254
 9084SOL    HW228152   3.102   3.990   4.305
 9085SOL     OW28153   2.382   5.818   1.460
 9085SOL    HW128154   2.361   5.829   1.557
 9085SOL    HW228155   2.432   5.899   1.428
 9086SOL     OW28156   1.224   4.396   0.235
 9086SOL    HW128157   1.167   4.479   0.232
 9086SOL    HW228158   1.315   4.418   0.201
 9087SOL     OW28159   4.774   2.724   1.522
 9087SOL    HW128160   4.706   2.722   1.449
 9087SOL    HW228161   4.733   2.764   1.604
 9088SOL     OW28162   6.651   6.671   0.682
 9088SOL    HW128163   6.694   6.716   0.760
 9088SOL    HW228164   6.568   6.623   0.713
 9089SOL     OW28165   4.862   5.807   5.175
 9089SOL    HW128166   4.931   5.806   5.102
 9089SOL    HW228167   4.781   5.757   5.144
 9090SOL     OW28168   0.061   1.290   3.933
 9090SOL    HW128169   7.015   1.230   3.891
 9090SOL    HW228170   0.151   1.245   3.934
 9091SOL     OW28171   3.319   4.469   0.044
 9091SOL    HW128172   3.267   4.410   0.106
 9091SOL    HW228173   3.318   4.430   6.972
 9092SOL     OW28174   6.860   0.953   0.173
 9092SOL    HW128175   6.885   0.938   0.268
 9092SOL    HW228176   6.778   0.899   0.151
 9093SOL     OW28177   1.196   6.239   5.357
 9093SOL    HW128178   1.178   6.338   5.356
 9093SOL    HW228179   1.283   6.221   5.311
 9094SOL     OW28180   6.670   4.865   2.978
 9094SOL    HW128181   6.676   4.875   3.078
 9094SOL    HW228182   6.660   4.955   2.936
 9095SOL     OW28183   5.189   4.398   5.957
 9095SOL    HW128184   5.176   4.302   5.983
 9095SOL    HW228185   5.222   4.403   5.863
 9096SOL     OW28186   6.082   4.392   2.454
 9096SOL    HW128187   6.160   4.342   2.493
 9096SOL    HW228188   6.066   4.475   2.507
 9097SOL     OW28189   1.368   1.839   1.065
 9097SOL    HW128190   1.352   1.741   1.048
 9097SOL    HW228191   1.435   1.849   1.139
 9098SOL     OW28192   3.566   1.289   5.032
 9098SOL    HW128193   3.492   1.352   5.010
 9098SOL    HW228194   3.652   1.338   5.038
 9099SOL     OW28195   3.388   2.985   5.676
 9099SOL    HW128196   3.304   3.003   5.625
 9099SOL    HW228197   3.439   2.911   5.632
 9100SOL     OW28198   0.442   3.117   3.280
 9100SOL    HW128199   0.392   3.203   3.283
 9100SOL    HW228200   0.413   3.059   3.357
 9101SOL     OW28201   2.523   2.526   2.051
 9101SOL    HW128202   2.623   2.521   2.056
 9101SOL    HW228203   2.496   2.540   1.956
 9102SOL     OW28204   3.053   6.191   1.682
 9102SOL    HW128205   3.129   6.254   1.669
 9102SOL    HW228206   3.048   6.129   1.604
 9103SOL     OW28207   6.395   3.088   6.458
 9103SOL    HW128208   6.441   3.169   6.422
 9103SOL    HW228209   6.296   3.100   6.449
 9104SOL     OW28210   0.337   5.864   2.079
 9104SOL    HW128211   0.259   5.843   2.138
 9104SOL    HW228212   0.311   5.936   2.014
 9105SOL     OW28213   0.599   1.372   6.348
 9105SOL    HW128214   0.650   1.447   6.392
 9105SOL    HW228215   0.516   1.409   6.306
 9106SOL     OW28216   6.587   4.048   1.089
 9106SOL    HW128217   6.546   3.957   1.079
 9106SOL    HW228218   6.606   4.066   1.185
 9107SOL     OW28219   2.603   0.518   6.774
 9107SOL    HW128220   2.584   0.596   6.714
 9107SOL    HW228221   2.598   0.433   6.722
 9108SOL     OW28222   5.187   4.751   5.130
 9108SOL    HW128223   5.142   4.698   5.058
 9108SOL    HW228224   5.168   4.849   5.115
 9109SOL     OW28225   6.357   3.498   3.279
 9109SOL    HW128226   6.383   3.413   3.326
 9109SOL    HW228227   6.306   3.557   3.342
 9110SOL     OW28228   1.953   4.692   4.213
 9110SOL    HW128229   1.897   4.771   4.189
 9110SOL    HW228230   2.001   4.659   4.131
 9111SOL     OW28231   5.151   2.575   0.362
 9111SOL    HW128232   5.209   2.643   0.318
 9111SOL    HW228233   5.207   2.496   0.389
 9112SOL     OW28234   1.626   5.803   2.842
 9112SOL    HW128235   1.675   5.725   2.802
 9112SOL    HW228236   1.640   5.805   2.941
 9113SOL     OW28237   4.744   2.737   2.681
 9113SOL    HW128238   4.760   2.760   2.585
 9113SOL    HW228239   4.650   2.705   2.693
 9114SOL     OW28240   0.135   5.510   3.567
 9114SOL    HW128241   0.122   5.448   3.490
 9114SOL    HW228242   0.207   5.576   3.545
 9115SOL     OW28243   6.623   5.645   4.620
 9115SOL    HW128244   6.696   5.713   4.622
 9115SOL    HW228245   6.638   5.577   4.692
 9116SOL     OW28246   0.433   0.240   2.595
 9116SOL    HW128247   0.519   0.265   2.641
 9116SOL    HW228248   0.403   0.151   2.629
 9117SOL     OW28249   3.568   2.856   5.889
 9117SOL    HW128250   3.539   2.807   5.808
 9117SOL    HW228251   3.581   2.953   5.867
 9118SOL     OW28252   6.703   3.458   6.792
 9118SOL    HW128253   6.725   3.555   6.797
 9118SOL    HW228254   6.653   3.440   6.707
 9119SOL     OW28255   3.831   1.033   2.365
 9119SOL    HW128256   3.850   1.089   2.285
 9119SOL    HW228257   3.795   1.090   2.438
 9120SOL     OW28258   6.826   1.853   5.725
 9120SOL    HW128259   6.772   1.937   5.720
 9120SOL    HW228260   6.819   1.813   5.816
 9121SOL     OW28261   3.553   6.483   4.518
 9121SOL    HW128262   3.540   6.418   4.443
 9121SOL    HW228263   3.526   6.441   4.604
 9122SOL     OW28264   2.349   4.388   2.064
 9122SOL    HW128265   2.357   4.311   2.000
 9122SOL    HW228266   2.416   4.458   2.040
 9123SOL     OW28267   1.807   0.749   4.603
 9123SOL    HW128268   1.872   0.812   4.561
 9123SOL    HW228269   1.855   0.671   4.641
 9124SOL     OW28270   4.173   5.456   0.197
 9124SOL    HW128271   4.251   5.405   0.162
 9124SOL    HW228272   4.088   5.410   0.172
 9125SOL     OW28273   4.209   4.761   0.873
 9125SOL    HW128274   4.295   4.810   0.885
 9125SOL    HW228275   4.197   4.695   0.948
 9126SOL     OW28276   6.106   3.915   1.257
 9126SOL    HW128277   6.135   3.819   1.256
 9126SOL    HW228278   6.175   3.971   1.302
 9127SOL     OW28279   6.530   1.705   6.157
 9127SOL    HW128280   6.591   1.626   6.153
 9127SOL    HW228281   6.490   1.721   6.067
 9128SOL     OW28282   6.180   2.254   5.315
 9128SOL    HW128283   6.196   2.222   5.408
 9128SOL    HW228284   6.198   2.180   5.250
 9129SOL     OW28285   6.678   2.136   0.182
 9129SOL    HW128286   6.586   2.160   0.150
 9129SOL    HW228287   6.712   2.059   0.129
 9130SOL     OW28288   1.559   4.141   6.786
 9130SOL    HW128289   1.626   4.092   6.842
 9130SOL    HW228290   1.587   4.139   6.690
 9131SOL     OW28291   5.474   3.285   6.224
 9131SOL    HW128292   5.461   3.277   6.125
 9131SOL    HW228293   5.391   3.259   6.271
 9132SOL     OW28294   0.967   5.656   4.541
 9132SOL    HW128295   1.022   5.695   4.467
 9132SOL    HW228296   0.909   5.583   4.505
 9133SOL     OW28297   3.787   6.683   1.171
 9133SOL    HW128298   3.706   6.683   1.113
 9133SOL    HW228299   3.850   6.754   1.141
 9134SOL     OW28300   3.998   5.310   1.208
 9134SOL    HW128301   3.941   5.303   1.290
 9134SOL    HW228302   3.994   5.403   1.172
 9135SOL     OW28303   0.605   0.583   1.463
 9135SOL    HW128304   0.559   0.524   1.397
 9135SOL    HW228305   0.644   0.662   1.416
 9136SOL     OW28306   4.809   6.156   6.075
 9136SOL    HW128307   4.745   6.161   6.152
 9136SOL    HW228308   4.762   6.118   5.995
 9137SOL     OW28309   3.885   0.343   6.807
 9137SOL    HW128310   3.965   0.402   6.818
 9137SOL    HW228311   3.908   0.266   6.748
 9138SOL     OW28312   0.363   4.732   6.468
 9138SOL    HW128313   0.426   4.678   6.412
 9138SOL    HW228314   0.271   4.694   6.460
 9139SOL     OW28315   1.620   1.290   2.704
 9139SOL    HW128316   1.598   1.222   2.635
 9139SOL    HW228317   1.539   1.309   2.760
 9140SOL     OW28318   1.073   3.613   2.067
 9140SOL    HW128319   1.067   3.560   1.983
 9140SOL    HW228320   0.989   3.665   2.080
 9141SOL     OW28321   6.276   6.454   1.544
 9141SOL    HW128322   6.211   6.465   1.619
 9141SOL    HW228323   6.321   6.365   1.551
 9142SOL     OW28324   0.697   3.994   1.379
 9142SOL    HW128325   0.757   3.916   1.396
 9142SOL    HW228326   0.638   3.974   1.301
 9143SOL     OW28327   6.396   3.276   0.705
 9143SOL    HW128328   6.362   3.241   0.792
 9143SOL    HW228329   6.367   3.372   0.694
 9144SOL     OW28330   3.127   5.259   5.124
 9144SOL    HW128331   3.210   5.248   5.070
 9144SOL    HW228332   3.047   5.245   5.067
 9145SOL     OW28333   0.641   6.337   6.443
 9145SOL    HW128334   0.733   6.322   6.480
 9145SOL    HW228335   0.588   6.394   6.506
 9146SOL     OW28336   5.192   3.422   2.834
 9146SOL    HW128337   5.125   3.424   2.760
 9146SOL    HW228338   5.269   3.364   2.808
 9147SOL     OW28339   6.984   0.598   5.499
 9147SOL    HW128340   0.029   0.663   5.537
 9147SOL    HW228341   6.891   0.624   5.526
 9148SOL     OW28342   5.298   6.519   2.625
 9148SOL    HW128343   5.240   6.546   2.702
 9148SOL    HW228344   5.241   6.493   2.548
 9149SOL     OW28345   5.487   3.975   2.214
 9149SOL    HW128346   5.419   4.037   2.176
 9149SOL    HW228347   5.514   3.908   2.144
 9150SOL     OW28348   3.682   4.678   0.624
 9150SOL    HW128349   3.632   4.676   0.711
 9150SOL    HW228350   3.733   4.763   0.617
 9151SOL     OW28351   1.922   4.489   3.676
 9151SOL    HW128352   1.995   4.481   3.608
 9151SOL    HW228353   1.838   4.450   3.639
 9152SOL     OW28354   2.250   4.077   4.581
 9152SOL    HW128355   2.216   4.049   4.491
 9152SOL    HW228356   2.342   4.116   4.572
 9153SOL     OW28357   0.205   2.743   6.889
 9153SOL    HW128358   0.257   2.816   6.846
 9153SOL    HW228359   0.108   2.754   6.867
 9154SOL     OW28360   4.888   4.245   4.408
 9154SOL    HW128361   4.818   4.314   4.389
 9154SOL    HW228362   4.894   4.230   4.507
 9155SOL     OW28363   2.605   5.012   2.534
 9155SOL    HW128364   2.526   4.971   2.490
 9155SOL    HW228365   2.659   4.941   2.580
 9156SOL     OW28366   6.516   1.706   1.486
 9156SOL    HW128367   6.498   1.697   1.584
 9156SOL    HW228368   6.603   1.663   1.464
 9157SOL     OW28369   3.431   4.102   6.834
 9157SOL    HW128370   3.455   4.114   6.930
 9157SOL    HW228371   3.514   4.091   6.780
 9158SOL     OW28372   6.637   4.018   4.025
 9158SOL    HW128373   6.721   4.066   4.001
 9158SOL    HW228374   6.625   3.940   3.963
 9159SOL     OW28375   2.215   0.210   3.686
 9159SOL    HW128376   2.311   0.197   3.663
 9159SOL    HW228377   2.160   0.139   3.642
 9160SOL     OW28378   0.529   6.271   5.773
 9160SOL    HW128379   0.562   6.360   5.804
 9160SOL    HW228380   0.443   6.250   5.820
 9161SOL     OW28381   6.409   4.605   3.070
 9161SOL    HW128382   6.421   4.547   2.989
 9161SOL    HW228383   6.496   4.609   3.120
 9162SOL     OW28384   3.724   6.986   2.873
 9162SOL    HW128385   3.687   0.039   2.816
 9162SOL    HW228386   3.690   6.997   2.967
 9163SOL     OW28387   6.651   3.142   3.159
 9163SOL    HW128388   6.561   3.179   3.138
 9163SOL    HW228389   6.721   3.197   3.114
 9164SOL     OW28390   1.853   0.570   6.537
 9164SOL    HW128391   1.901   0.649   6.500
 9164SOL    HW228392   1.817   0.593   6.628
 9165SOL     OW28393   4.737   2.315   6.029
 9165SOL    HW128394   4.709   2.297   6.124
 9165SOL    HW228395   4.815   2.257   6.006
 9166SOL     OW28396   4.709   5.550   1.057
 9166SOL    HW128397   4.782   5.615   1.076
 9166SOL    HW228398   4.656   5.534   1.141
 9167SOL     OW28399   1.466   2.342   6.285
 9167SOL    HW128400   1.536   2.316   6.352
 9167SOL    HW228401   1.506   2.344   6.194
 9168SOL     OW28402   6.948   6.348   6.637
 9168SOL    HW128403   6.975   6.370   6.730
 9168SOL    HW228404   0.009   6.344   6.579
 9169SOL     OW28405   6.965   6.423   6.256
 9169SOL    HW128406   6.913   6.480   6.194
 9169SOL    HW228407   6.907   6.348   6.288
 9170SOL     OW28408   2.030   0.117   6.286
 9170SOL    HW128409   1.954   0.061   6.251
 9170SOL    HW228410   1.994   0.184   6.351
 9171SOL     OW28411   3.118   5.816   0.500
 9171SOL    HW128412   3.130   5.792   0.597
 9171SOL    HW228413   3.144   5.738   0.443
 9172SOL     OW28414   4.447   1.600   3.931
 9172SOL    HW128415   4.408   1.558   4.013
 9172SOL    HW228416   4.394   1.682   3.908
 9173SOL     OW28417   6.070   2.991   4.819
 9173SOL    HW128418   6.085   2.965   4.723
 9173SOL    HW228419   6.144   2.953   4.875
 9174SOL     OW28420   0.708   5.848   0.051
 9174SOL    HW128421   0.704   5.777   7.001
 9174SOL    HW228422   0.787   5.831   0.110
 9175SOL     OW28423   1.375   0.064   0.289
 9175SOL    HW128424   1.444   7.020   0.321
 9175SOL    HW228425   1.416   0.155   0.281
 9176SOL     OW28426   2.426   6.835   1.699
 9176SOL    HW128427   2.498   6.777   1.663
 9176SOL    HW228428   2.360   6.857   1.627
 9177SOL     OW28429   1.470   2.515   3.886
 9177SOL    HW128430   1.425   2.577   3.821
 9177SOL    HW228431   1.568   2.514   3.868
 9178SOL     OW28432   1.914   5.742   6.341
 9178SOL    HW128433   1.854   5.662   6.345
 9178SOL    HW228434   1.989   5.725   6.277
 9179SOL     OW28435   1.571   5.620   5.030
 9179SOL    HW128436   1.573   5.709   5.075
 9179SOL    HW228437   1.645   5.562   5.064
 9180SOL     OW28438   6.405   2.754   3.255
 9180SOL    HW128439   6.352   2.672   3.231
 9180SOL    HW228440   6.426   2.806   3.172
 9181SOL     OW28441   4.785   2.959   3.794
 9181SOL    HW128442   4.730   2.887   3.838
 9181SOL    HW228443   4.818   3.023   3.863
 9182SOL     OW28444   3.484   0.257   3.316
 9182SOL    HW128445   3.504   0.256   3.218
 9182SOL    HW228446   3.401   0.311   3.333
 9183SOL     OW28447   4.914   4.309   6.849
 9183SOL    HW128448   4.904   4.250   6.769
 9183SOL    HW228449   5.010   4.312   6.877
 9184SOL     OW28450   3.618   2.134   0.676
 9184SOL    HW128451   3.612   2.035   0.678
 9184SOL    HW228452   3.666   2.166   0.758
 9185SOL     OW28453   6.941   6.675   5.362
 9185SOL    HW128454   6.891   6.592   5.336
 9185SOL    HW228455   6.940   6.740   5.286
 9186SOL     OW28456   5.258   1.080   5.452
 9186SOL    HW128457   5.232   1.140   5.377
 9186SOL    HW228458   5.230   0.986   5.431
 9187SOL     OW28459   4.891   1.813   0.119
 9187SOL    HW128460   4.806   1.812   0.171
 9187SOL    HW228461   4.894   1.733   0.059
 9188SOL     OW28462   1.514   0.358   2.016
 9188SOL    HW128463   1.525   0.367   1.917
 9188SOL    HW228464   1.473   0.269   2.037
 9189SOL     OW28465   2.846   6.729   3.274
 9189SOL    HW128466   2.865   6.775   3.361
 9189SOL    HW228467   2.748   6.708   3.268
 9190SOL     OW28468   0.067   3.481   5.280
 9190SOL    HW128469   0.097   3.563   5.231
 9190SOL    HW228470   0.134   3.459   5.351
 9191SOL     OW28471   5.675   0.372   6.723
 9191SOL    HW128472   5.751   0.393   6.785
 9191SOL    HW228473   5.634   0.458   6.692
 9192SOL     OW28474   6.245   3.180   5.533
 9192SOL    HW128475   6.306   3.150   5.459
 9192SOL    HW228476   6.150   3.159   5.507
 9193SOL     OW28477   3.823   3.567   3.899
 9193SOL    HW128478   3.725   3.554   3.911
 9193SOL    HW228479   3.865   3.584   3.988
 9194SOL     OW28480   3.999   6.204   2.069
 9194SOL    HW128481   4.003   6.264   1.990
 9194SOL    HW228482   3.925   6.138   2.057
 9195SOL     OW28483   1.639   2.971   3.561
 9195SOL    HW128484   1.666   2.993   3.467
 9195SOL    HW228485   1.709   2.912   3.602
 9196SOL     OW28486   5.818   0.458   3.667
 9196SOL    HW128487   5.764   0.534   3.704
 9196SOL    HW228488   5.896   0.495   3.616
 9197SOL     OW28489   3.609   5.577   0.130
 9197SOL    HW128490   3.605   5.671   0.161
 9197SOL    HW228491   3.616   5.575   0.030
 9198SOL     OW28492   5.722   4.685   6.203
 9198SOL    HW128493   5.729   4.645   6.295
 9198SOL    HW228494   5.642   4.647   6.157
 9199SOL     OW28495   6.959   2.772   6.446
 9199SOL    HW128496   0.005   2.829   6.495
 9199SOL    HW228497   6.925   2.822   6.367
 9200SOL     OW28498   2.277   5.646   6.546
 9200SOL    HW128499   2.226   5.726   6.513
 9200SOL    HW228500   2.287   5.581   6.471
 9201SOL     OW28501   0.309   3.316   0.888
 9201SOL    HW128502   0.383   3.253   0.864
 9201SOL    HW228503   0.308   3.392   0.823
 9202SOL     OW28504   1.609   6.049   3.887
 9202SOL    HW128505   1.707   6.061   3.906
 9202SOL    HW228506   1.578   5.961   3.923
 9203SOL     OW28507   5.428   2.596   6.390
 9203SOL    HW128508   5.427   2.548   6.478
 9203SOL    HW228509   5.416   2.695   6.406
 9204SOL     OW28510   4.964   3.736   3.707
 9204SOL    HW128511   4.912   3.653   3.724
 9204SOL    HW228512   5.008   3.730   3.617
 9205SOL     OW28513   5.070   4.619   2.533
 9205SOL    HW128514   5.124   4.652   2.611
 9205SOL    HW228515   5.070   4.519   2.532
 9206SOL     OW28516   3.179   0.223   3.780
 9206SOL    HW128517   3.234   0.301   3.750
 9206SOL    HW228518   3.205   0.198   3.873
 9207SOL     OW28519   3.512   5.667   6.094
 9207SOL    HW128520   3.560   5.729   6.032
 9207SOL    HW228521   3.517   5.703   6.187
 9208SOL     OW28522   5.430   4.470   2.071
 9208SOL    HW128523   5.479   4.395   2.025
 9208SOL    HW228524   5.494   4.521   2.129
 9209SOL     OW28525   4.028   0.611   1.749
 9209SOL    HW128526   4.006   0.573   1.839
 9209SOL    HW228527   4.105   0.560   1.710
 9210SOL     OW28528   0.874   0.779   1.367
 9210SOL    HW128529   0.868   0.776   1.467
 9210SOL    HW228530   0.797   0.833   1.331
 9211SOL     OW28531   5.342   3.456   5.933
 9211SOL    HW128532   5.424   3.434   5.880
 9211SOL    HW228533   5.285   3.374   5.940
 9212SOL     OW28534   5.015   3.886   5.397
 9212SOL    HW128535   4.945   3.864   5.329
 9212SOL    HW228536   5.073   3.806   5.413
 9213SOL     OW28537   5.153   5.530   4.355
 9213SOL    HW128538   5.202   5.482   4.282
 9213SOL    HW228539   5.212   5.535   4.436
 9214SOL     OW28540   0.332   2.792   5.391
 9214SOL    HW128541   0.305   2.707   5.347
 9214SOL    HW228542   0.283   2.869   5.349
 9215SOL     OW28543   0.899   4.837   2.713
 9215SOL    HW128544   0.936   4.834   2.806
 9215SOL    HW228545   0.969   4.807   2.649
 9216SOL     OW28546   2.770   6.916   4.442
 9216SOL    HW128547   2.837   6.877   4.504
 9216SOL    HW228548   2.682   6.869   4.453
 9217SOL     OW28549   5.739   1.634   6.917
 9217SOL    HW128550   5.679   1.665   6.990
 9217SOL    HW228551   5.823   1.596   6.957
 9218SOL     OW28552   3.879   1.435   6.703
 9218SOL    HW128553   3.870   1.456   6.800
 9218SOL    HW228554   3.803   1.474   6.652
 9219SOL     OW28555   4.385   3.514   5.724
 9219SOL    HW128556   4.286   3.506   5.729
 9219SOL    HW228557   4.417   3.577   5.794
 9220SOL     OW28558   1.635   6.139   2.862
 9220SOL    HW128559   1.724   6.143   2.816
 9220SOL    HW228560   1.649   6.125   2.960
 9221SOL     OW28561   2.724   0.151   4.876
 9221SOL    HW128562   2.725   0.204   4.790
 9221SOL    HW228563   2.759   0.208   4.950
 9222SOL     OW28564   2.437   4.644   4.904
 9222SOL    HW128565   2.508   4.635   4.974
 9222SOL    HW228566   2.422   4.556   4.859
 9223SOL     OW28567   1.079   2.696   3.826
 9223SOL    HW128568   1.171   2.724   3.798
 9223SOL    HW228569   1.082   2.600   3.855
 9224SOL     OW28570   1.725   3.921   3.415
 9224SOL    HW128571   1.699   3.837   3.464
 9224SOL    HW228572   1.642   3.969   3.386
 9225SOL     OW28573   4.339   5.571   6.082
 9225SOL    HW128574   4.349   5.543   6.178
 9225SOL    HW228575   4.352   5.670   6.074
 9226SOL     OW28576   1.028   0.515   1.294
 9226SOL    HW128577   0.995   0.610   1.288
 9226SOL    HW228578   1.110   0.505   1.238
 9227SOL     OW28579   1.620   5.950   1.548
 9227SOL    HW128580   1.646   6.017   1.478
 9227SOL    HW228581   1.696   5.886   1.563
 9228SOL     OW28582   2.038   1.757   6.986
 9228SOL    HW128583   2.100   1.834   6.973
 9228SOL    HW228584   1.982   1.773   0.047
 9229SOL     OW28585   0.595   4.849   5.946
 9229SOL    HW128586   0.569   4.936   5.905
 9229SOL    HW228587   0.646   4.865   6.031
 9230SOL     OW28588   4.967   3.388   2.668
 9230SOL    HW128589   4.969   3.317   2.738
 9230SOL    HW228590   4.990   3.348   2.579
 9231SOL     OW28591   0.586   4.036   5.178
 9231SOL    HW128592   0.664   3.975   5.164
 9231SOL    HW228593   0.618   4.130   5.187
 9232SOL     OW28594   2.734   5.568   1.086
 9232SOL    HW128595   2.665   5.610   1.145
 9232SOL    HW228596   2.825   5.593   1.118
 9233SOL     OW28597   0.296   7.005   1.002
 9233SOL    HW128598   0.276   0.011   0.908
 9233SOL    HW228599   0.220   6.951   1.038
 9234SOL     OW28600   1.822   5.795   0.812
 9234SOL    HW128601   1.723   5.778   0.818
 9234SOL    HW228602   1.840   5.863   0.741
 9235SOL     OW28603   2.141   2.538   2.978
 9235SOL    HW128604   2.055   2.578   2.949
 9235SOL    HW228605   2.150   2.547   3.078
 9236SOL     OW28606   2.874   3.544   6.410
 9236SOL    HW128607   2.890   3.630   6.458
 9236SOL    HW228608   2.903   3.553   6.315
 9237SOL     OW28609   0.887   5.504   2.632
 9237SOL    HW128610   0.825   5.563   2.684
 9237SOL    HW228611   0.850   5.489   2.541
 9238SOL     OW28612   2.701   2.507   6.000
 9238SOL    HW128613   2.798   2.500   5.977
 9238SOL    HW228614   2.674   2.603   6.002
 9239SOL     OW28615   6.849   4.233   6.796
 9239SOL    HW128616   6.856   4.293   6.716
 9239SOL    HW228617   6.931   4.176   6.802
 9240SOL     OW28618   4.936   2.643   2.326
 9240SOL    HW128619   4.862   2.683   2.273
 9240SOL    HW228620   4.901   2.567   2.381
 9241SOL     OW28621   0.302   5.928   0.924
 9241SOL    HW128622   0.390   5.884   0.939
 9241SOL    HW228623   0.296   6.010   0.982
 9242SOL     OW28624   2.189   3.176   1.844
 9242SOL    HW128625   2.093   3.177   1.819
 9242SOL    HW228626   2.210   3.255   1.902
 9243SOL     OW28627   0.220   0.512   1.951
 9243SOL    HW128628   0.241   0.487   1.856
 9243SOL    HW228629   0.120   0.517   1.962
 9244SOL     OW28630   2.817   6.715   6.364
 9244SOL    HW128631   2.723   6.724   6.332
 9244SOL    HW228632   2.827   6.629   6.415
 9245SOL     OW28633   0.507   4.223   3.692
 9245SOL    HW128634   0.484   4.285   3.616
 9245SOL    HW228635   0.498   4.128   3.662
 9246SOL     OW28636   5.488   0.645   3.503
 9246SOL    HW128637   5.530   0.665   3.592
 9246SOL    HW228638   5.399   0.602   3.517
 9247SOL     OW28639   3.598   5.297   2.403
 9247SOL    HW128640   3.512   5.247   2.414
 9247SOL    HW228641   3.593   5.352   2.319
 9248SOL     OW28642   2.920   2.146   5.082
 9248SOL    HW128643   2.894   2.090   5.003
 9248SOL    HW228644   3.011   2.184   5.067
 9249SOL     OW28645   4.979   5.403   1.747
 9249SOL    HW128646   4.975   5.362   1.655
 9249SOL    HW228647   5.005   5.500   1.738
 9250SOL     OW28648   0.049   2.948   3.666
 9250SOL    HW128649   0.108   2.869   3.652
 9250SOL    HW228650   6.981   2.932   3.623
 9251SOL     OW28651   4.034   1.880   2.027
 9251SOL    HW128652   4.042   1.941   2.105
 9251SOL    HW228653   4.021   1.786   2.058
 9252SOL     OW28654   5.715   0.646   4.468
 9252SOL    HW128655   5.626   0.687   4.489
 9252SOL    HW228656   5.776   0.716   4.430
 9253SOL     OW28657   5.348   5.409   5.395
 9253SOL    HW128658   5.254   5.435   5.419
 9253SOL    HW228659   5.359   5.411   5.296
 9254SOL     OW28660   4.386   4.823   2.517
 9254SOL    HW128661   4.379   4.799   2.614
 9254SOL    HW228662   4.441   4.754   2.469
 9255SOL     OW28663   5.156   3.490   0.026
 9255SOL    HW128664   5.080   3.429   0.048
 9255SOL    HW228665   5.162   3.562   0.095
 9256SOL     OW28666   2.233   0.038   2.093
 9256SOL    HW128667   2.185   0.060   2.008
 9256SOL    HW228668   2.170   7.012   2.155
 9257SOL     OW28669   5.923   5.397   3.538
 9257SOL    HW128670   6.003   5.344   3.510
 9257SOL    HW228671   5.924   5.486   3.493
 9258SOL     OW28672   3.935   3.493   1.632
 9258SOL    HW128673   3.930   3.530   1.540
 9258SOL    HW228674   4.030   3.488   1.661
 9259SOL     OW28675   2.056   1.293   0.714
 9259SOL    HW128676   2.003   1.210   0.728
 9259SOL    HW228677   2.041   1.327   0.621
 9260SOL     OW28678   6.593   2.793   5.741
 9260SOL    HW128679   6.614   2.886   5.773
 9260SOL    HW228680   6.543   2.744   5.812
 9261SOL     OW28681   4.516   1.462   6.679
 9261SOL    HW128682   4.543   1.543   6.731
 9261SOL    HW228683   4.462   1.402   6.738
 9262SOL     OW28684   0.593   6.210   4.966
 9262SOL    HW128685   0.575   6.176   5.058
 9262SOL    HW228686   0.527   6.172   4.902
 9263SOL     OW28687   3.131   5.433   2.360
 9263SOL    HW128688   3.121   5.499   2.434
 9263SOL    HW228689   3.040   5.403   2.330
 9264SOL     OW28690   4.718   3.683   0.138
 9264SOL    HW128691   4.623   3.654   0.146
 9264SOL    HW228692   4.758   3.692   0.229
 9265SOL     OW28693   4.058   2.490   0.506
 9265SOL    HW128694   4.026   2.583   0.487
 9265SOL    HW228695   4.149   2.494   0.548
 9266SOL     OW28696   0.615   6.007   1.271
 9266SOL    HW128697   0.672   6.086   1.294
 9266SOL    HW228698   0.674   5.931   1.244
 9267SOL     OW28699   0.288   1.957   4.439
 9267SOL    HW128700   0.385   1.958   4.415
 9267SOL    HW228701   0.249   1.867   4.419
 9268SOL     OW28702   0.961   6.988   2.776
 9268SOL    HW128703   0.862   6.979   2.771
 9268SOL    HW228704   0.996   0.005   2.690
 9269SOL     OW28705   4.429   6.988   6.319
 9269SOL    HW128706   4.426   0.065   6.300
 9269SOL    HW228707   4.508   6.947   6.275
 9270SOL     OW28708   4.028   0.000   5.812
 9270SOL    HW128709   3.965   6.993   5.740
 9270SOL    HW228710   3.979   0.005   5.899
 9271SOL     OW28711   6.043   0.599   0.376
 9271SOL    HW128712   6.056   0.515   0.427
 9271SOL    HW228713   6.131   0.634   0.345
 9272SOL     OW28714   0.805   6.677   6.563
 9272SOL    HW128715   0.901   6.701   6.569
 9272SOL    HW228716   0.783   6.651   6.469
 9273SOL     OW28717   6.505   6.117   3.533
 9273SOL    HW128718   6.488   6.195   3.594
 9273SOL    HW228719   6.478   6.032   3.580
 9274SOL     OW28720   6.648   2.517   6.995
 9274SOL    HW128721   6.566   2.489   6.947
 9274SOL    HW228722   6.714   2.554   6.930
 9275SOL     OW28723   6.554   0.554   0.340
 9275SOL    HW128724   6.463   0.593   0.352
 9275SOL    HW228725   6.546   0.464   0.297
 9276SOL     OW28726   1.558   4.941   0.081
 9276SOL    HW128727   1.584   4.846   0.096
 9276SOL    HW228728   1.542   4.956   7.004
 9277SOL     OW28729   4.403   5.328   2.298
 9277SOL    HW128730   4.317   5.360   2.258
 9277SOL    HW228731   4.415   5.231   2.278
 9278SOL     OW28732   1.833   0.676   6.030
 9278SOL    HW128733   1.886   0.657   5.948
 9278SOL    HW228734   1.768   0.601   6.046
 9279SOL     OW28735   3.723   6.680   1.758
 9279SOL    HW128736   3.722   6.735   1.674
 9279SOL    HW228737   3.766   6.733   1.832
 9280SOL     OW28738   2.459   1.205   2.642
 9280SOL    HW128739   2.446   1.176   2.737
 9280SOL    HW228740   2.480   1.125   2.585
 9281SOL     OW28741   3.012   4.697   6.807
 9281SOL    HW128742   2.994   4.776   6.866
 9281SOL    HW228743   3.099   4.710   6.759
 9282SOL     OW28744   4.860   1.239   3.672
 9282SOL    HW128745   4.872   1.141   3.662
 9282SOL    HW228746   4.931   1.287   3.619
 9283SOL     OW28747   5.304   0.528   4.888
 9283SOL    HW128748   5.399   0.556   4.900
 9283SOL    HW228749   5.301   0.430   4.864
 9284SOL     OW28750   2.379   3.427   5.294
 9284SOL    HW128751   2.354   3.345   5.347
 9284SOL    HW228752   2.476   3.446   5.306
 9285SOL     OW28753   4.874   3.548   1.336
 9285SOL    HW128754   4.775   3.557   1.351
 9285SOL    HW228755   4.894   3.558   1.238
 9286SOL     OW28756   5.438   5.134   0.614
 9286SOL    HW128757   5.529   5.110   0.578
 9286SOL    HW228758   5.380   5.053   0.614
 9287SOL     OW28759   3.867   4.653   6.114
 9287SOL    HW128760   3.827   4.744   6.125
 9287SOL    HW228761   3.827   4.609   6.033
 9288SOL     OW28762   4.473   1.475   2.370
 9288SOL    HW128763   4.471   1.558   2.314
 9288SOL    HW228764   4.537   1.488   2.446
 9289SOL     OW28765   4.886   0.740   0.729
 9289SOL    HW128766   4.838   0.818   0.767
 9289SOL    HW228767   4.820   0.672   0.696
 9290SOL     OW28768   6.079   1.188   3.696
 9290SOL    HW128769   6.136   1.150   3.622
 9290SOL    HW228770   5.985   1.197   3.663
 9291SOL     OW28771   1.406   5.508   5.789
 9291SOL    HW128772   1.429   5.414   5.764
 9291SOL    HW228773   1.432   5.524   5.885
 9292SOL     OW28774   2.028   1.580   6.792
 9292SOL    HW128775   1.945   1.552   6.841
 9292SOL    HW228776   2.081   1.643   6.850
 9293SOL     OW28777   5.767   4.000   6.440
 9293SOL    HW128778   5.745   4.093   6.410
 9293SOL    HW228779   5.792   3.945   6.361
 9294SOL     OW28780   5.209   1.258   6.381
 9294SOL    HW128781   5.240   1.263   6.476
 9294SOL    HW228782   5.115   1.290   6.375
 9295SOL     OW28783   6.000   0.511   5.009
 9295SOL    HW128784   5.902   0.531   5.010
 9295SOL    HW228785   6.014   0.412   5.006
 9296SOL     OW28786   2.010   4.865   0.269
 9296SOL    HW128787   1.920   4.892   0.303
 9296SOL    HW228788   2.002   4.779   0.218
 9297SOL     OW28789   0.614   6.860   3.529
 9297SOL    HW128790   0.569   6.887   3.614
 9297SOL    HW228791   0.592   6.926   3.457
 9298SOL     OW28792   1.608   6.245   5.866
 9298SOL    HW128793   1.526   6.262   5.810
 9298SOL    HW228794   1.615   6.314   5.938
 9299SOL     OW28795   0.976   1.852   4.513
 9299SOL    HW128796   0.944   1.758   4.497
 9299SOL    HW228797   1.039   1.879   4.440
 9300SOL     OW28798   7.005   5.229   5.334
 9300SOL    HW128799   0.077   5.247   5.366
 9300SOL    HW228800   6.947   5.309   5.353
 9301SOL     OW28801   6.546   5.017   5.068
 9301SOL    HW128802   6.574   5.094   5.126
 9301SOL    HW228803   6.478   4.962   5.117
 9302SOL     OW28804   2.073   3.264   4.569
 9302SOL    HW128805   1.981   3.227   4.555
 9302SOL    HW228806   2.130   3.243   4.489
 9303SOL     OW28807   2.763   3.686   0.877
 9303SOL    HW128808   2.841   3.748   0.871
 9303SOL    HW228809   2.793   3.598   0.914
 9304SOL     OW28810   4.323   5.467   0.533
 9304SOL    HW128811   4.296   5.418   0.450
 9304SOL    HW228812   4.252   5.455   0.603
 9305SOL     OW28813   3.635   0.937   0.655
 9305SOL    HW128814   3.674   0.888   0.577
 9305SOL    HW228815   3.536   0.922   0.658
 9306SOL     OW28816   1.399   4.283   5.415
 9306SOL    HW128817   1.355   4.309   5.329
 9306SOL    HW228818   1.434   4.189   5.408
 9307SOL     OW28819   1.276   3.451   0.738
 9307SOL    HW128820   1.259   3.547   0.761
 9307SOL    HW228821   1.211   3.422   0.668
 9308SOL     OW28822   1.312   3.753   1.989
 9308SOL    HW128823   1.399   3.772   2.034
 9308SOL    HW228824   1.258   3.689   2.044
 9309SOL     OW28825   3.778   6.125   5.872
 9309SOL    HW128826   3.866   6.105   5.915
 9309SOL    HW228827   3.712   6.054   5.894
 9310SOL     OW28828   5.794   6.484   5.528
 9310SOL    HW128829   5.699   6.516   5.523
 9310SOL    HW228830   5.856   6.562   5.535
 9311SOL     OW28831   5.458   4.635   1.748
 9311SOL    HW128832   5.421   4.546   1.774
 9311SOL    HW228833   5.498   4.630   1.657
 9312SOL     OW28834   1.594   2.009   0.912
 9312SOL    HW128835   1.691   2.024   0.934
 9312SOL    HW228836   1.578   1.910   0.904
 9313SOL     OW28837   6.983   0.333   1.504
 9313SOL    HW128838   6.947   0.301   1.416
 9313SOL    HW228839   6.921   0.307   1.578
 9314SOL     OW28840   6.576   3.600   0.414
 9314SOL    HW128841   6.580   3.688   0.461
 9314SOL    HW228842   6.616   3.529   0.473
 9315SOL     OW28843   6.305   0.015   5.543
 9315SOL    HW128844   6.304   0.064   5.631
 9315SOL    HW228845   6.220   0.033   5.494
 9316SOL     OW28846   5.720   0.234   5.436
 9316SOL    HW128847   5.730   0.274   5.527
 9316SOL    HW228848   5.722   0.134   5.442
 9317SOL     OW28849   4.040   5.404   2.921
 9317SOL    HW128850   4.107   5.330   2.929
 9317SOL    HW228851   4.056   5.472   2.993
 9318SOL     OW28852   5.370   0.086   0.378
 9318SOL    HW128853   5.460   0.067   0.417
 9318SOL    HW228854   5.336   0.004   0.331
 9319SOL     OW28855   2.591   2.801   1.163
 9319SOL    HW128856   2.685   2.769   1.173
 9319SOL    HW228857   2.561   2.843   1.249
 9320SOL     OW28858   4.345   0.393   5.173
 9320SOL    HW128859   4.281   0.361   5.243
 9320SOL    HW228860   4.308   0.374   5.082
 9321SOL     OW28861   1.045   1.191   5.415
 9321SOL    HW128862   1.046   1.213   5.318
 9321SOL    HW228863   0.960   1.225   5.456
 9322SOL     OW28864   6.952   4.458   6.973
 9322SOL    HW128865   6.866   4.476   6.925
 9322SOL    HW228866   6.947   4.493   0.045
 9323SOL     OW28867   1.926   1.048   5.069
 9323SOL    HW128868   1.896   1.011   5.157
 9323SOL    HW228869   1.931   0.975   5.002
 9324SOL     OW28870   2.198   3.915   2.528
 9324SOL    HW128871   2.138   3.848   2.572
 9324SOL    HW228872   2.254   3.869   2.459
 9325SOL     OW28873   0.000   0.027   0.698
 9325SOL    HW128874   0.036   6.962   0.661
 9325SOL    HW228875   0.075   0.079   0.739
 9326SOL     OW28876   3.300   4.978   6.813
 9326SOL    HW128877   3.285   4.913   6.888
 9326SOL    HW228878   3.275   4.935   6.726
 9327SOL     OW28879   4.307   6.559   2.740
 9327SOL    HW128880   4.234   6.608   2.692
 9327SOL    HW228881   4.267   6.496   2.807
 9328SOL     OW28882   1.646   0.701   4.985
 9328SOL    HW128883   1.579   0.775   4.982
 9328SOL    HW228884   1.618   0.634   5.054
 9329SOL     OW28885   6.901   5.309   1.013
 9329SOL    HW128886   6.851   5.366   0.948
 9329SOL    HW228887   6.941   5.366   1.084
 9330SOL     OW28888   0.164   0.000   5.925
 9330SOL    HW128889   0.102   6.944   5.913
 9330SOL    HW228890   0.218   7.007   6.009
 9331SOL     OW28891   1.806   1.472   6.288
 9331SOL    HW128892   1.785   1.568   6.307
 9331SOL    HW228893   1.864   1.466   6.207
 9332SOL     OW28894   4.412   5.703   0.421
 9332SOL    HW128895   4.383   5.622   0.473
 9332SOL    HW228896   4.491   5.680   0.365
 9333SOL     OW28897   3.793   5.291   6.425
 9333SOL    HW128898   3.887   5.307   6.453
 9333SOL    HW228899   3.787   5.287   6.326
 9334SOL     OW28900   4.993   6.579   4.386
 9334SOL    HW128901   4.949   6.661   4.351
 9334SOL    HW228902   5.044   6.602   4.470
 9335SOL     OW28903   1.580   1.730   6.959
 9335SOL    HW128904   1.619   1.816   6.927
 9335SOL    HW228905   1.499   1.708   6.905
 9336SOL     OW28906   5.408   6.912   4.095
 9336SOL    HW128907   5.314   6.933   4.070
 9336SOL    HW228908   5.446   6.847   4.029
 9337SOL     OW28909   4.831   1.322   5.893
 9337SOL    HW128910   4.760   1.310   5.963
 9337SOL    HW228911   4.865   1.233   5.863
 9338SOL     OW28912   6.411   6.586   0.760
 9338SOL    HW128913   6.349   6.519   0.718
 9338SOL    HW228914   6.379   6.609   0.852
 9339SOL     OW28915   5.939   5.812   0.258
 9339SOL    HW128916   5.911   5.744   0.190
 9339SOL    HW228917   5.863   5.875   0.275
 9340SOL     OW28918   3.909   4.816   2.720
 9340SOL    HW128919   3.976   4.781   2.654
 9340SOL    HW228920   3.817   4.804   2.685
 9341SOL     OW28921   6.187   4.294   0.447
 9341SOL    HW128922   6.276   4.258   0.472
 9341SOL    HW228923   6.196   4.349   0.363
 9342SOL     OW28924   2.048   0.638   4.846
 9342SOL    HW128925   2.040   0.614   4.750
 9342SOL    HW228926   2.139   0.614   4.880
 9343SOL     OW28927   4.803   4.020   1.835
 9343SOL    HW128928   4.874   3.999   1.768
 9343SOL    HW228929   4.829   3.982   1.924
 9344SOL     OW28930   5.255   5.204   0.392
 9344SOL    HW128931   5.349   5.220   0.422
 9344SOL    HW228932   5.199   5.178   0.470
 9345SOL     OW28933   0.141   4.894   2.103
 9345SOL    HW128934   0.197   4.932   2.030
 9345SOL    HW228935   0.155   4.947   2.187
 9346SOL     OW28936   4.834   0.335   2.068
 9346SOL    HW128937   4.849   0.353   2.165
 9346SOL    HW228938   4.922   0.322   2.022
 9347SOL     OW28939   2.861   5.987   0.128
 9347SOL    HW128940   2.908   5.956   0.211
 9347SOL    HW228941   2.821   6.077   0.145
 9348SOL     OW28942   2.643   5.815   2.283
 9348SOL    HW128943   2.717   5.756   2.252
 9348SOL    HW228944   2.594   5.851   2.204
 9349SOL     OW28945   6.598   5.330   2.650
 9349SOL    HW128946   6.612   5.425   2.678
 9349SOL    HW228947   6.621   5.320   2.554
 9350SOL     OW28948   6.843   1.700   4.225
 9350SOL    HW128949   6.887   1.612   4.206
 9350SOL    HW228950   6.748   1.697   4.196
 9351SOL     OW28951   2.754   0.339   6.352
 9351SOL    HW128952   2.777   0.303   6.262
 9351SOL    HW228953   2.699   0.422   6.341
 9352SOL     OW28954   2.879   2.824   5.703
 9352SOL    HW128955   2.967   2.870   5.713
 9352SOL    HW228956   2.805   2.892   5.708
 9353SOL     OW28957   1.943   4.298   1.075
 9353SOL    HW128958   1.863   4.352   1.101
 9353SOL    HW228959   1.985   4.258   1.157
 9354SOL     OW28960   6.589   1.806   0.155
 9354SOL    HW128961   6.668   1.852   0.116
 9354SOL    HW228962   6.521   1.790   0.083
 9355SOL     OW28963   6.538   2.009   4.644
 9355SOL    HW128964   6.582   1.976   4.560
 9355SOL    HW228965   6.571   1.956   4.722
 9356SOL     OW28966   4.516   5.961   1.553
 9356SOL    HW128967   4.570   5.995   1.476
 9356SOL    HW228968   4.455   6.033   1.585
 9357SOL     OW28969   3.399   3.089   6.374
 9357SOL    HW128970   3.330   3.160   6.369
 9357SOL    HW228971   3.378   3.026   6.449
 9358SOL     OW28972   6.576   3.622   2.148
 9358SOL    HW128973   6.675   3.635   2.149
 9358SOL    HW228974   6.546   3.597   2.056
 9359SOL     OW28975   1.265   3.386   5.914
 9359SOL    HW128976   1.276   3.304   5.858
 9359SOL    HW228977   1.332   3.454   5.887
 9360SOL     OW28978   1.420   0.084   5.920
 9360SOL    HW128979   1.458   0.006   5.970
 9360SOL    HW228980   1.324   0.095   5.944
 9361SOL     OW28981   1.919   5.904   3.473
 9361SOL    HW128982   1.852   5.833   3.493
 9361SOL    HW228983   1.943   5.952   3.558
 9362SOL     OW28984   1.329   2.203   2.097
 9362SOL    HW128985   1.395   2.204   2.021
 9362SOL    HW228986   1.265   2.279   2.086
 9363SOL     OW28987   3.919   5.831   1.815
 9363SOL    HW128988   3.906   5.732   1.806
 9363SOL    HW228989   3.925   5.872   1.724
 9364SOL     OW28990   4.600   2.932   5.822
 9364SOL    HW128991   4.536   2.876   5.875
 9364SOL    HW228992   4.576   2.927   5.725
 9365SOL     OW28993   2.524   1.843   4.931
 9365SOL    HW128994   2.465   1.921   4.912
 9365SOL    HW228995   2.483   1.760   4.892
 9366SOL     OW28996   3.306   0.399   0.010
 9366SOL    HW128997   3.324   0.308   6.992
 9366SOL    HW228998   3.334   0.468   6.964
 9367SOL     OW28999   6.694   6.213   3.085
 9367SOL    HW129000   6.764   6.278   3.114
 9367SOL    HW229001   6.737   6.138   3.033
 9368SOL     OW29002   2.750   1.523   4.047
 9368SOL    HW129003   2.836   1.514   3.997
 9368SOL    HW229004   2.675   1.487   3.991
 9369SOL     OW29005   6.989   0.340   5.142
 9369SOL    HW129006   0.017   0.350   5.229
 9369SOL    HW229007   6.941   0.426   5.120
 9370SOL     OW29008   4.339   7.014   2.106
 9370SOL    HW129009   4.323   0.092   2.107
 9370SOL    HW229010   4.434   6.997   2.081
 9371SOL     OW29011   1.909   5.008   0.643
 9371SOL    HW129012   1.905   5.089   0.702
 9371SOL    HW229013   1.993   5.010   0.589
 9372SOL     OW29014   5.344   5.903   2.800
 9372SOL    HW129015   5.409   5.830   2.822
 9372SOL    HW229016   5.315   5.948   2.885
 9373SOL     OW29017   4.152   2.274   2.692
 9373SOL    HW129018   4.163   2.230   2.782
 9373SOL    HW229019   4.054   2.282   2.671
 9374SOL     OW29020   0.590   2.839   1.022
 9374SOL    HW129021   0.681   2.863   0.988
 9374SOL    HW229022   0.583   2.739   1.031
 9375SOL     OW29023   6.207   1.692   3.035
 9375SOL    HW129024   6.172   1.618   2.978
 9375SOL    HW229025   6.137   1.764   3.043
 9376SOL     OW29026   2.763   4.117   1.036
 9376SOL    HW129027   2.700   4.078   0.968
 9376SOL    HW229028   2.849   4.141   0.991
 9377SOL     OW29029   1.915   5.500   3.752
 9377SOL    HW129030   1.912   5.596   3.777
 9377SOL    HW229031   1.828   5.456   3.772
 9378SOL     OW29032   1.232   1.145   4.904
 9378SOL    HW129033   1.308   1.135   4.840
 9378SOL    HW229034   1.229   1.239   4.937
 9379SOL     OW29035   4.491   6.274   4.953
 9379SOL    HW129036   4.443   6.187   4.942
 9379SOL    HW229037   4.470   6.314   5.042
 9380SOL     OW29038   5.767   4.698   4.865
 9380SOL    HW129039   5.775   4.794   4.891
 9380SOL    HW229040   5.672   4.669   4.872
 9381SOL     OW29041   3.210   2.778   5.840
 9381SOL    HW129042   3.173   2.751   5.751
 9381SOL    HW229043   3.273   2.855   5.828
 9382SOL     OW29044   3.508   0.857   3.241
 9382SOL    HW129045   3.585   0.876   3.302
 9382SOL    HW229046   3.496   0.933   3.178
 9383SOL     OW29047   1.859   5.986   4.622
 9383SOL    HW129048   1.940   5.957   4.571
 9383SOL    HW229049   1.887   6.018   4.713
 9384SOL     OW29050   2.894   6.730   1.507
 9384SOL    HW129051   2.800   6.737   1.541
 9384SOL    HW229052   2.953   6.696   1.580
 9385SOL     OW29053   4.012   0.659   2.656
 9385SOL    HW129054   4.048   0.634   2.746
 9385SOL    HW229055   3.987   0.576   2.606
 9386SOL     OW29056   2.290   6.454   5.222
 9386SOL    HW129057   2.258   6.366   5.257
 9386SOL    HW229058   2.216   6.521   5.226
 9387SOL     OW29059   2.550   1.681   0.378
 9387SOL    HW129060   2.536   1.715   0.285
 9387SOL    HW229061   2.508   1.591   0.387
 9388SOL     OW29062   2.035   5.177   2.784
 9388SOL    HW129063   1.982   5.094   2.768
 9388SOL    HW229064   1.991   5.232   2.855
 9389SOL     OW29065   1.742   6.581   4.775
 9389SOL    HW129066   1.824   6.603   4.723
 9389SOL    HW229067   1.743   6.633   4.861
 9390SOL     OW29068   4.302   5.090   4.782
 9390SOL    HW129069   4.242   5.030   4.729
 9390SOL    HW229070   4.353   5.149   4.719
 9391SOL     OW29071   2.293   1.335   4.887
 9391SOL    HW129072   2.365   1.268   4.903
 9391SOL    HW229073   2.210   1.309   4.938
 9392SOL     OW29074   6.810   0.982   5.124
 9392SOL    HW129075   6.711   0.970   5.135
 9392SOL    HW229076   6.855   0.965   5.211
 9393SOL     OW29077   2.993   0.004   5.472
 9393SOL    HW129078   2.939   0.013   5.556
 9393SOL    HW229079   2.965   0.075   5.407
 9394SOL     OW29080   0.570   1.814   2.071
 9394SOL    HW129081   0.663   1.823   2.109
 9394SOL    HW229082   0.504   1.849   2.137
 9395SOL     OW29083   2.762   1.603   0.597
 9395SOL    HW129084   2.843   1.644   0.638
 9395SOL    HW229085   2.756   1.630   0.501
 9396SOL     OW29086   2.002   5.434   4.040
 9396SOL    HW129087   1.952   5.458   3.957
 9396SOL    HW229088   2.091   5.479   4.040
 9397SOL     OW29089   3.655   6.916   0.106
 9397SOL    HW129090   3.725   6.960   0.050
 9397SOL    HW229091   3.565   6.941   0.072
 9398SOL     OW29092   7.016   1.339   4.959
 9398SOL    HW129093   0.066   1.345   5.030
 9398SOL    HW229094   6.972   1.249   4.964
 9399SOL     OW29095   0.112   1.712   6.062
 9399SOL    HW129096   0.116   1.697   6.161
 9399SOL    HW229097   0.110   1.810   6.042
 9400SOL     OW29098   4.304   1.266   2.299
 9400SOL    HW129099   4.368   1.340   2.324
 9400SOL    HW229100   4.220   1.276   2.352
 9401SOL     OW29101   5.846   7.019   3.458
 9401SOL    HW129102   5.870   0.077   3.514
 9401SOL    HW229103   5.753   6.990   3.479
 9402SOL     OW29104   1.021   4.742   3.752
 9402SOL    HW129105   1.081   4.754   3.673
 9402SOL    HW229106   0.973   4.828   3.770
 9403SOL     OW29107   6.678   1.677   2.787
 9403SOL    HW129108   6.675   1.598   2.726
 9403SOL    HW229109   6.584   1.705   2.809
 9404SOL     OW29110   1.607   3.085   6.481
 9404SOL    HW129111   1.658   3.166   6.509
 9404SOL    HW229112   1.510   3.099   6.499
 9405SOL     OW29113   1.660   5.144   2.500
 9405SOL    HW129114   1.626   5.154   2.406
 9405SOL    HW229115   1.684   5.233   2.537
 9406SOL     OW29116   6.683   3.004   5.865
 9406SOL    HW129117   6.661   3.101   5.857
 9406SOL    HW229118   6.776   2.995   5.901
 9407SOL     OW29119   2.775   5.140   3.180
 9407SOL    HW129120   2.778   5.147   3.280
 9407SOL    HW229121   2.851   5.084   3.148
 9408SOL     OW29122   4.674   2.109   6.621
 9408SOL    HW129123   4.719   2.035   6.671
 9408SOL    HW229124   4.742   2.157   6.566
 9409SOL     OW29125   6.249   4.945   6.500
 9409SOL    HW129126   6.341   4.962   6.464
 9409SOL    HW229127   6.186   5.012   6.462
 9410SOL     OW29128   3.117   7.010   2.123
 9410SOL    HW129129   3.112   6.932   2.186
 9410SOL    HW229130   3.213   0.008   2.102
 9411SOL     OW29131   3.376   3.215   1.889
 9411SOL    HW129132   3.309   3.288   1.883
 9411SOL    HW229133   3.374   3.174   1.980
 9412SOL     OW29134   6.591   2.870   1.925
 9412SOL    HW129135   6.687   2.885   1.901
 9412SOL    HW229136   6.533   2.896   1.848
 9413SOL     OW29137   3.380   6.178   3.873
 9413SOL    HW129138   3.438   6.259   3.867
 9413SOL    HW229139   3.297   6.193   3.819
 9414SOL     OW29140   3.062   0.742   3.402
 9414SOL    HW129141   3.009   0.824   3.378
 9414SOL    HW229142   3.158   0.767   3.412
 9415SOL     OW29143   3.094   6.669   2.062
 9415SOL    HW129144   3.029   6.598   2.086
 9415SOL    HW229145   3.114   6.724   2.143
 9416SOL     OW29146   0.408   2.372   0.899
 9416SOL    HW129147   0.434   2.353   0.805
 9416SOL    HW229148   0.474   2.436   0.940
 9417SOL     OW29149   4.049   0.054   6.216
 9417SOL    HW129150   3.966   0.029   6.167
 9417SOL    HW229151   4.096   0.128   6.166
 9418SOL     OW29152   3.674   6.256   0.955
 9418SOL    HW129153   3.577   6.259   0.978
 9418SOL    HW229154   3.725   6.311   1.021
 9419SOL     OW29155   3.798   5.521   5.834
 9419SOL    HW129156   3.730   5.473   5.888
 9419SOL    HW229157   3.873   5.459   5.812
 9420SOL     OW29158   6.646   3.527   5.670
 9420SOL    HW129159   6.643   3.621   5.637
 9420SOL    HW229160   6.607   3.466   5.601
 9421SOL     OW29161   2.130   6.939   4.567
 9421SOL    HW129162   2.107   6.997   4.489
 9421SOL    HW229163   2.226   6.951   4.591
 9422SOL     OW29164   4.258   5.802   3.415
 9422SOL    HW129165   4.338   5.775   3.361
 9422SOL    HW229166   4.280   5.794   3.512
 9423SOL     OW29167   3.948   0.703   3.918
 9423SOL    HW129168   3.960   0.604   3.921
 9423SOL    HW229169   3.860   0.728   3.958
 9424SOL     OW29170   4.966   0.821   4.764
 9424SOL    HW129171   5.015   0.786   4.684
 9424SOL    HW229172   4.915   0.903   4.738
 9425SOL     OW29173   6.277   3.201   6.725
 9425SOL    HW129174   6.334   3.122   6.701
 9425SOL    HW229175   6.228   3.233   6.644
 9426SOL     OW29176   3.285   2.110   6.957
 9426SOL    HW129177   3.377   2.070   6.953
 9426SOL    HW229178   3.292   2.210   6.952
 9427SOL     OW29179   3.191   5.289   3.370
 9427SOL    HW129180   3.144   5.375   3.349
 9427SOL    HW229181   3.153   5.249   3.453
 9428SOL     OW29182   6.101   0.812   1.380
 9428SOL    HW129183   6.121   0.740   1.446
 9428SOL    HW229184   6.023   0.785   1.323
 9429SOL     OW29185   2.103   3.588   2.256
 9429SOL    HW129186   2.098   3.547   2.347
 9429SOL    HW229187   2.050   3.533   2.191
 9430SOL     OW29188   0.314   4.004   2.393
 9430SOL    HW129189   0.381   3.936   2.424
 9430SOL    HW229190   0.259   4.035   2.471
 9431SOL     OW29191   6.213   4.166   1.362
 9431SOL    HW129192   6.280   4.231   1.325
 9431SOL    HW229193   6.120   4.197   1.339
 9432SOL     OW29194   4.355   0.647   3.224
 9432SOL    HW129195   4.277   0.596   3.187
 9432SOL    HW229196   4.324   0.734   3.261
 9433SOL     OW29197   2.699   5.176   2.865
 9433SOL    HW129198   2.781   5.155   2.812
 9433SOL    HW229199   2.700   5.122   2.949
 9434SOL     OW29200   5.470   5.201   3.001
 9434SOL    HW129201   5.520   5.158   3.076
 9434SOL    HW229202   5.499   5.297   2.993
 9435SOL     OW29203   0.589   2.816   4.688
 9435SOL    HW129204   0.533   2.767   4.755
 9435SOL    HW229205   0.547   2.808   4.598
 9436SOL     OW29206   1.182   2.924   1.574
 9436SOL    HW129207   1.216   2.944   1.666
 9436SOL    HW229208   1.112   2.853   1.580
 9437SOL     OW29209   2.609   5.817   2.982
 9437SOL    HW129210   2.549   5.738   2.968
 9437SOL    HW229211   2.687   5.790   3.039
 9438SOL     OW29212   0.066   0.515   1.661
 9438SOL    HW129213   0.012   0.459   1.598
 9438SOL    HW229214   0.049   0.612   1.642
 9439SOL     OW29215   0.533   3.354   1.529
 9439SOL    HW129216   0.476   3.273   1.519
 9439SOL    HW229217   0.512   3.399   1.616
 9440SOL     OW29218   4.079   5.062   3.548
 9440SOL    HW129219   4.131   5.013   3.478
 9440SOL    HW229220   4.060   5.155   3.516
 9441SOL     OW29221   0.841   3.267   4.919
 9441SOL    HW129222   0.911   3.323   4.963
 9441SOL    HW229223   0.751   3.310   4.932
 9442SOL     OW29224   4.250   3.051   0.451
 9442SOL    HW129225   4.268   2.953   0.443
 9442SOL    HW229226   4.281   3.097   0.367
 9443SOL     OW29227   2.089   5.540   0.644
 9443SOL    HW129228   2.013   5.509   0.701
 9443SOL    HW229229   2.164   5.475   0.649
 9444SOL     OW29230   1.597   3.574   6.419
 9444SOL    HW129231   1.637   3.653   6.466
 9444SOL    HW229232   1.499   3.569   6.440
 9445SOL     OW29233   5.423   3.366   3.573
 9445SOL    HW129234   5.421   3.320   3.484
 9445SOL    HW229235   5.365   3.448   3.569
 9446SOL     OW29236   6.118   6.035   4.233
 9446SOL    HW129237   6.045   6.082   4.185
 9446SOL    HW229238   6.128   6.072   4.325
 9447SOL     OW29239   5.859   3.545   5.158
 9447SOL    HW129240   5.934   3.551   5.092
 9447SOL    HW229241   5.836   3.449   5.174
 9448SOL     OW29242   7.019   6.998   6.761
 9448SOL    HW129243   6.957   0.029   6.821
 9448SOL    HW229244   6.977   6.990   6.670
 9449SOL     OW29245   6.977   6.235   0.223
 9449SOL    HW129246   6.934   6.174   0.290
 9449SOL    HW229247   6.928   6.227   0.136
 9450SOL     OW29248   2.530   5.544   5.168
 9450SOL    HW129249   2.454   5.610   5.165
 9450SOL    HW229250   2.600   5.577   5.232
 9451SOL     OW29251   4.109   6.734   5.885
 9451SOL    HW129252   4.101   6.831   5.864
 9451SOL    HW229253   4.162   6.723   5.969
 9452SOL     OW29254   2.015   4.255   0.036
 9452SOL    HW129255   2.112   4.236   0.055
 9452SOL    HW229256   2.007   4.296   6.966
 9453SOL     OW29257   1.853   4.582   3.378
 9453SOL    HW129258   1.933   4.549   3.429
 9453SOL    HW229259   1.778   4.598   3.442
 9454SOL     OW29260   3.226   3.173   6.896
 9454SOL    HW129261   3.210   3.269   6.919
 9454SOL    HW229262   3.217   3.118   6.979
 9455SOL     OW29263   3.017   1.841   3.350
 9455SOL    HW129264   2.967   1.814   3.433
 9455SOL    HW229265   3.068   1.762   3.315
 9456SOL     OW29266   1.402   3.386   0.974
 9456SOL    HW129267   1.461   3.306   0.963
 9456SOL    HW229268   1.355   3.405   0.888
 9457SOL     OW29269   2.167   3.746   5.105
 9457SOL    HW129270   2.091   3.753   5.040
 9457SOL    HW229271   2.245   3.798   5.070
 9458SOL     OW29272   1.354   3.483   6.455
 9458SOL    HW129273   1.287   3.498   6.383
 9458SOL    HW229274   1.351   3.388   6.485
 9459SOL     OW29275   5.143   4.740   3.263
 9459SOL    HW129276   5.068   4.791   3.221
 9459SOL    HW229277   5.176   4.671   3.199
 9460SOL     OW29278   0.323   2.704   3.962
 9460SOL    HW129279   0.361   2.648   4.036
 9460SOL    HW229280   0.295   2.793   3.998
 9461SOL     OW29281   6.386   1.463   2.202
 9461SOL    HW129282   6.349   1.424   2.286
 9461SOL    HW229283   6.473   1.417   2.180
 9462SOL     OW29284   2.148   3.520   3.218
 9462SOL    HW129285   2.152   3.519   3.318
 9462SOL    HW229286   2.149   3.426   3.184
 9463SOL     OW29287   0.212   0.883   1.701
 9463SOL    HW129288   0.125   0.840   1.676
 9463SOL    HW229289   0.215   0.899   1.799
 9464SOL     OW29290   6.484   0.495   1.090
 9464SOL    HW129291   6.486   0.592   1.114
 9464SOL    HW229292   6.449   0.484   0.997
 9465SOL     OW29293   1.637   5.170   2.972
 9465SOL    HW129294   1.581   5.101   2.926
 9465SOL    HW229295   1.665   5.137   3.062
 9466SOL     OW29296   4.572   4.822   5.710
 9466SOL    HW129297   4.629   4.843   5.790
 9466SOL    HW229298   4.629   4.783   5.638
 9467SOL     OW29299   1.402   3.137   1.546
 9467SOL    HW129300   1.451   3.174   1.625
 9467SOL    HW229301   1.347   3.058   1.575
 9468SOL     OW29302   5.897   3.064   5.731
 9468SOL    HW129303   5.834   3.141   5.733
 9468SOL    HW229304   5.905   3.029   5.638
 9469SOL     OW29305   6.383   5.782   1.995
 9469SOL    HW129306   6.285   5.790   2.013
 9469SOL    HW229307   6.431   5.771   2.082
 9470SOL     OW29308   4.355   3.672   5.489
 9470SOL    HW129309   4.396   3.628   5.569
 9470SOL    HW229310   4.273   3.722   5.517
 9471SOL     OW29311   6.791   2.460   4.666
 9471SOL    HW129312   6.812   2.431   4.759
 9471SOL    HW229313   6.706   2.416   4.636
 9472SOL     OW29314   5.783   4.076   5.132
 9472SOL    HW129315   5.814   4.010   5.200
 9472SOL    HW229316   5.775   4.166   5.175
 9473SOL     OW29317   3.152   5.379   6.036
 9473SOL    HW129318   3.111   5.295   5.998
 9473SOL    HW229319   3.177   5.363   6.131
 9474SOL     OW29320   0.131   2.899   0.084
 9474SOL    HW129321   0.173   2.836   0.019
 9474SOL    HW229322   0.191   2.910   0.163
 9475SOL     OW29323   3.626   3.264   6.403
 9475SOL    HW129324   3.611   3.316   6.487
 9475SOL    HW229325   3.551   3.200   6.389
 9476SOL     OW29326   3.161   4.069   5.020
 9476SOL    HW129327   3.088   4.016   4.977
 9476SOL    HW229328   3.121   4.146   5.069
 9477SOL     OW29329   0.301   3.245   1.683
 9477SOL    HW129330   0.247   3.318   1.642
 9477SOL    HW229331   0.245   3.162   1.690
 9478SOL     OW29332   5.353   3.322   0.162
 9478SOL    HW129333   5.259   3.352   0.146
 9478SOL    HW229334   5.354   3.224   0.182
 9479SOL     OW29335   4.303   6.283   6.852
 9479SOL    HW129336   4.338   6.279   6.946
 9479SOL    HW229337   4.370   6.243   6.789
 9480SOL     OW29338   4.524   3.745   0.949
 9480SOL    HW129339   4.475   3.756   0.863
 9480SOL    HW229340   4.465   3.774   1.025
 9481SOL     OW29341   5.326   3.476   2.170
 9481SOL    HW129342   5.270   3.396   2.148
 9481SOL    HW229343   5.266   3.554   2.186
 9482SOL     OW29344   6.619   0.507   3.098
 9482SOL    HW129345   6.569   0.441   3.041
 9482SOL    HW229346   6.583   0.504   3.191
 9483SOL     OW29347   1.048   1.736   1.694
 9483SOL    HW129348   1.034   1.637   1.684
 9483SOL    HW229349   1.135   1.754   1.739
 9484SOL     OW29350   2.981   1.483   3.903
 9484SOL    HW129351   3.060   1.509   3.846
 9484SOL    HW229352   2.915   1.434   3.847
 9485SOL     OW29353   0.295   0.373   1.705
 9485SOL    HW129354   0.214   0.428   1.684
 9485SOL    HW229355   0.376   0.432   1.702
 9486SOL     OW29356   2.735   6.219   0.888
 9486SOL    HW129357   2.698   6.140   0.936
 9486SOL    HW229358   2.686   6.232   0.802
 9487SOL     OW29359   3.688   3.680   3.394
 9487SOL    HW129360   3.787   3.683   3.379
 9487SOL    HW229361   3.666   3.604   3.456
 9488SOL     OW29362   1.528   6.322   0.674
 9488SOL    HW129363   1.495   6.382   0.602
 9488SOL    HW229364   1.554   6.376   0.754
 9489SOL     OW29365   4.350   4.434   1.668
 9489SOL    HW129366   4.390   4.448   1.577
 9489SOL    HW229367   4.389   4.351   1.709
 9490SOL     OW29368   0.021   5.460   1.204
 9490SOL    HW129369   0.058   5.538   1.153
 9490SOL    HW229370   0.037   5.474   1.302
 9491SOL     OW29371   6.345   4.874   4.105
 9491SOL    HW129372   6.334   4.974   4.111
 9491SOL    HW229373   6.401   4.842   4.181
 9492SOL     OW29374   3.320   2.880   2.887
 9492SOL    HW129375   3.256   2.935   2.941
 9492SOL    HW229376   3.375   2.823   2.948
 9493SOL     OW29377   3.711   5.274   4.062
 9493SOL    HW129378   3.661   5.194   4.093
 9493SOL    HW229379   3.758   5.252   3.976
 9494SOL     OW29380   4.594   4.933   1.819
 9494SOL    HW129381   4.539   4.867   1.769
 9494SOL    HW229382   4.634   4.890   1.900
 9495SOL     OW29383   6.287   1.887   3.362
 9495SOL    HW129384   6.213   1.846   3.309
 9495SOL    HW229385   6.329   1.818   3.421
 9496SOL     OW29386   6.201   4.666   1.340
 9496SOL    HW129387   6.222   4.730   1.266
 9496SOL    HW229388   6.158   4.584   1.302
 9497SOL     OW29389   5.672   5.933   6.700
 9497SOL    HW129390   5.703   5.920   6.795
 9497SOL    HW229391   5.572   5.932   6.698
 9498SOL     OW29392   5.098   0.029   4.769
 9498SOL    HW129393   5.044   0.032   4.685
 9498SOL    HW229394   5.180   6.994   4.754
 9499SOL     OW29395   1.724   5.038   6.183
 9499SOL    HW129396   1.636   5.060   6.224
 9499SOL    HW229397   1.712   5.023   6.085
 9500SOL     OW29398   5.964   0.610   0.862
 9500SOL    HW129399   5.966   0.695   0.809
 9500SOL    HW229400   5.880   0.606   0.916
 9501SOL     OW29401   3.095   1.372   5.141
 9501SOL    HW129402   3.040   1.455   5.153
 9501SOL    HW229403   3.094   1.345   5.045
 9502SOL     OW29404   6.498   2.485   5.355
 9502SOL    HW129405   6.493   2.565   5.295
 9502SOL    HW229406   6.408   2.442   5.361
 9503SOL     OW29407   0.478   1.705   1.443
 9503SOL    HW129408   0.571   1.735   1.463
 9503SOL    HW229409   0.457   1.724   1.347
 9504SOL     OW29410   6.832   2.467   1.236
 9504SOL    HW129411   6.741   2.431   1.216
 9504SOL    HW229412   6.858   2.533   1.165
 9505SOL     OW29413   5.473   5.222   3.620
 9505SOL    HW129414   5.559   5.224   3.568
 9505SOL    HW229415   5.469   5.138   3.674
 9506SOL     OW29416   0.570   2.337   6.071
 9506SOL    HW129417   0.605   2.269   6.135
 9506SOL    HW229418   0.635   2.349   5.996
 9507SOL     OW29419   0.949   2.176   3.167
 9507SOL    HW129420   0.977   2.188   3.262
 9507SOL    HW229421   0.864   2.124   3.164
 9508SOL     OW29422   6.631   3.127   0.898
 9508SOL    HW129423   6.708   3.175   0.938
 9508SOL    HW229424   6.555   3.125   0.964
 9509SOL     OW29425   0.599   0.737   4.413
 9509SOL    HW129426   0.601   0.813   4.348
 9509SOL    HW229427   0.607   0.651   4.364
 9510SOL     OW29428   1.608   3.506   2.432
 9510SOL    HW129429   1.664   3.576   2.387
 9510SOL    HW229430   1.604   3.525   2.530
 9511SOL     OW29431   0.883   0.959   0.906
 9511SOL    HW129432   0.983   0.956   0.915
 9511SOL    HW229433   0.852   0.884   0.850
 9512SOL     OW29434   5.551   1.528   1.384
 9512SOL    HW129435   5.556   1.509   1.482
 9512SOL    HW229436   5.644   1.544   1.349
 9513SOL     OW29437   1.839   3.336   5.972
 9513SOL    HW129438   1.833   3.238   5.954
 9513SOL    HW229439   1.815   3.354   6.067
 9514SOL     OW29440   1.718   4.695   6.392
 9514SOL    HW129441   1.663   4.688   6.308
 9514SOL    HW229442   1.717   4.789   6.425
 9515SOL     OW29443   1.405   6.253   1.436
 9515SOL    HW129444   1.325   6.193   1.432
 9515SOL    HW229445   1.487   6.201   1.413
 9516SOL     OW29446   5.207   4.077   5.321
 9516SOL    HW129447   5.133   4.011   5.323
 9516SOL    HW229448   5.174   4.166   5.351
 9517SOL     OW29449   1.354   4.746   0.916
 9517SOL    HW129450   1.344   4.746   1.016
 9517SOL    HW229451   1.347   4.652   0.883
 9518SOL     OW29452   1.678   2.015   6.947
 9518SOL    HW129453   1.586   2.041   6.918
 9518SOL    HW229454   1.707   2.073   0.002
 9519SOL     OW29455   3.736   4.066   4.097
 9519SOL    HW129456   3.649   4.075   4.049
 9519SOL    HW229457   3.722   4.083   4.195
 9520SOL     OW29458   0.690   1.567   3.296
 9520SOL    HW129459   0.685   1.551   3.395
 9520SOL    HW229460   0.697   1.479   3.248
 9521SOL     OW29461   5.191   5.075   1.659
 9521SOL    HW129462   5.250   5.027   1.724
 9521SOL    HW229463   5.162   5.012   1.587
 9522SOL     OW29464   3.987   4.976   1.437
 9522SOL    HW129465   3.891   4.960   1.411
 9522SOL    HW229466   4.013   5.070   1.414
 9523SOL     OW29467   2.645   5.009   4.886
 9523SOL    HW129468   2.552   5.030   4.855
 9523SOL    HW229469   2.677   4.925   4.841
 9524SOL     OW29470   3.148   3.175   0.780
 9524SOL    HW129471   3.209   3.101   0.749
 9524SOL    HW229472   3.115   3.154   0.872
 9525SOL     OW29473   2.300   2.177   6.000
 9525SOL    HW129474   2.386   2.163   6.050
 9525SOL    HW229475   2.321   2.191   5.903
 9526SOL     OW29476   6.491   4.711   1.055
 9526SOL    HW129477   6.547   4.641   1.099
 9526SOL    HW229478   6.435   4.758   1.124
 9527SOL     OW29479   0.392   1.377   4.516
 9527SOL    HW129480   0.365   1.359   4.611
 9527SOL    HW229481   0.336   1.321   4.455
 9528SOL     OW29482   6.487   1.416   1.106
 9528SOL    HW129483   6.455   1.511   1.107
 9528SOL    HW229484   6.568   1.408   1.048
 9529SOL     OW29485   6.344   3.658   6.488
 9529SOL    HW129486   6.322   3.752   6.513
 9529SOL    HW229487   6.270   3.619   6.435
 9530SOL     OW29488   1.936   3.009   2.858
 9530SOL    HW129489   1.889   3.051   2.780
 9530SOL    HW229490   2.005   3.071   2.893
 9531SOL     OW29491   5.048   5.217   2.740
 9531SOL    HW129492   4.964   5.242   2.692
 9531SOL    HW229493   5.101   5.153   2.684
 9532SOL     OW29494   0.275   6.013   1.518
 9532SOL    HW129495   0.337   5.952   1.467
 9532SOL    HW229496   0.322   6.099   1.536
 9533SOL     OW29497   0.382   5.775   5.307
 9533SOL    HW129498   0.436   5.734   5.380
 9533SOL    HW229499   0.433   5.851   5.266
 9534SOL     OW29500   0.126   4.153   5.157
 9534SOL    HW129501   0.079   4.158   5.069
 9534SOL    HW229502   0.060   4.152   5.231
 9535SOL     OW29503   2.012   0.783   6.499
 9535SOL    HW129504   2.031   0.860   6.438
 9535SOL    HW229505   2.026   0.812   6.594
 9536SOL     OW29506   2.837   3.905   6.192
 9536SOL    HW129507   2.818   3.839   6.120
 9536SOL    HW229508   2.933   3.899   6.219
 9537SOL     OW29509   2.735   0.109   4.259
 9537SOL    HW129510   2.742   0.036   4.328
 9537SOL    HW229511   2.682   0.185   4.297
 9538SOL     OW29512   5.447   1.048   3.346
 9538SOL    HW129513   5.382   0.974   3.364
 9538SOL    HW229514   5.429   1.124   3.409
 9539SOL     OW29515   3.464   3.609   4.814
 9539SOL    HW129516   3.532   3.662   4.764
 9539SOL    HW229517   3.496   3.515   4.827
 9540SOL     OW29518   6.079   4.087   4.269
 9540SOL    HW129519   6.043   4.001   4.306
 9540SOL    HW229520   6.165   4.108   4.314
 9541SOL     OW29521   3.272   0.454   6.022
 9541SOL    HW129522   3.340   0.413   6.082
 9541SOL    HW229523   3.317   0.501   5.946
 9542SOL     OW29524   4.765   4.064   4.730
 9542SOL    HW129525   4.863   4.080   4.734
 9542SOL    HW229526   4.720   4.143   4.687
 9543SOL     OW29527   3.472   0.091   5.924
 9543SOL    HW129528   3.405   0.058   5.990
 9543SOL    HW229529   3.556   0.119   5.971
 9544SOL     OW29530   6.874   2.243   3.172
 9544SOL    HW129531   6.892   2.158   3.121
 9544SOL    HW229532   6.779   2.242   3.205
 9545SOL     OW29533   5.797   5.568   4.589
 9545SOL    HW129534   5.728   5.591   4.658
 9545SOL    HW229535   5.839   5.652   4.555
 9546SOL     OW29536   3.812   2.069   5.464
 9546SOL    HW129537   3.714   2.055   5.476
 9546SOL    HW229538   3.844   2.016   5.385
 9547SOL     OW29539   2.301   5.989   4.498
 9547SOL    HW129540   2.323   5.981   4.595
 9547SOL    HW229541   2.385   5.986   4.445
 9548SOL     OW29542   6.262   5.458   6.121
 9548SOL    HW129543   6.213   5.458   6.033
 9548SOL    HW229544   6.211   5.512   6.188
 9549SOL     OW29545   2.454   3.189   1.206
 9549SOL    HW129546   2.431   3.155   1.297
 9549SOL    HW229547   2.392   3.264   1.181
 9550SOL     OW29548   0.209   1.371   0.184
 9550SOL    HW129549   0.232   1.355   0.280
 9550SOL    HW229550   0.294   1.384   0.132
 9551SOL     OW29551   5.562   1.902   4.810
 9551SOL    HW129552   5.486   1.842   4.835
 9551SOL    HW229553   5.612   1.928   4.892
 9552SOL     OW29554   1.393   6.692   4.121
 9552SOL    HW129555   1.307   6.707   4.072
 9552SOL    HW229556   1.453   6.635   4.066
 9553SOL     OW29557   6.254   2.991   6.132
 9553SOL    HW129558   6.348   2.983   6.099
 9553SOL    HW229559   6.197   3.031   6.061
 9554SOL     OW29560   2.081   6.310   1.578
 9554SOL    HW129561   2.036   6.398   1.593
 9554SOL    HW229562   2.025   6.237   1.618
 9555SOL     OW29563   1.058   0.592   3.138
 9555SOL    HW129564   0.988   0.643   3.187
 9555SOL    HW229565   1.148   0.616   3.174
 9556SOL     OW29566   1.711   3.475   1.652
 9556SOL    HW129567   1.797   3.510   1.615
 9556SOL    HW229568   1.639   3.485   1.582
 9557SOL     OW29569   0.414   6.170   2.301
 9557SOL    HW129570   0.392   6.260   2.265
 9557SOL    HW229571   0.401   6.169   2.400
 9558SOL     OW29572   6.050   6.102   4.806
 9558SOL    HW129573   5.977   6.080   4.870
 9558SOL    HW229574   6.049   6.200   4.785
 9559SOL     OW29575   0.340   4.356   1.015
 9559SOL    HW129576   0.387   4.416   0.950
 9559SOL    HW229577   0.408   4.309   1.072
 9560SOL     OW29578   1.664   1.186   3.144
 9560SOL    HW129579   1.706   1.186   3.053
 9560SOL    HW229580   1.732   1.209   3.213
 9561SOL     OW29581   1.679   0.296   0.511
 9561SOL    HW129582   1.767   0.285   0.557
 9561SOL    HW229583   1.605   0.284   0.577
 9562SOL     OW29584   3.206   7.013   5.200
 9562SOL    HW129585   3.195   0.051   5.120
 9562SOL    HW229586   3.259   0.040   5.270
 9563SOL     OW29587   6.169   5.689   0.659
 9563SOL    HW129588   6.131   5.733   0.577
 9563SOL    HW229589   6.248   5.740   0.691
 9564SOL     OW29590   2.853   0.137   0.953
 9564SOL    HW129591   2.857   0.220   1.009
 9564SOL    HW229592   2.781   0.147   0.884
 9565SOL     OW29593   3.913   0.255   4.990
 9565SOL    HW129594   3.891   0.158   4.981
 9565SOL    HW229595   3.993   0.277   4.935
 9566SOL     OW29596   2.008   5.137   0.164
 9566SOL    HW129597   2.064   5.178   0.092
 9566SOL    HW229598   2.029   5.039   0.171
 9567SOL     OW29599   5.176   5.011   0.595
 9567SOL    HW129600   5.228   4.938   0.551
 9567SOL    HW229601   5.096   4.971   0.641
 9568SOL     OW29602   4.195   2.314   6.764
 9568SOL    HW129603   4.267   2.258   6.725
 9568SOL    HW229604   4.137   2.259   6.824
 9569SOL     OW29605   0.783   1.601   2.616
 9569SOL    HW129606   0.782   1.596   2.516
 9569SOL    HW229607   0.689   1.611   2.649
 9570SOL     OW29608   0.550   3.072   2.127
 9570SOL    HW129609   0.609   2.996   2.100
 9570SOL    HW229610   0.501   3.106   2.046
 9571SOL     OW29611   3.965   4.331   5.943
 9571SOL    HW129612   3.878   4.324   5.991
 9571SOL    HW229613   3.980   4.250   5.887
 9572SOL     OW29614   1.895   4.680   2.110
 9572SOL    HW129615   1.828   4.648   2.178
 9572SOL    HW229616   1.934   4.601   2.063
 9573SOL     OW29617   0.261   1.597   6.886
 9573SOL    HW129618   0.242   1.557   6.797
 9573SOL    HW229619   0.312   1.532   6.942
 9574SOL     OW29620   4.010   3.097   3.422
 9574SOL    HW129621   3.917   3.116   3.452
 9574SOL    HW229622   4.074   3.112   3.497
 9575SOL     OW29623   0.196   1.299   1.203
 9575SOL    HW129624   0.165   1.393   1.218
 9575SOL    HW229625   0.287   1.300   1.161
 9576SOL     OW29626   2.146   0.044   1.823
 9576SOL    HW129627   2.183   0.038   1.730
 9576SOL    HW229628   2.118   0.138   1.842
 9577SOL     OW29629   1.541   0.612   6.354
 9577SOL    HW129630   1.595   0.531   6.332
 9577SOL    HW229631   1.521   0.613   6.452
 9578SOL     OW29632   0.586   3.639   3.806
 9578SOL    HW129633   0.564   3.557   3.857
 9578SOL    HW229634   0.621   3.709   3.868
 9579SOL     OW29635   1.473   4.973   2.898
 9579SOL    HW129636   1.512   4.910   2.966
 9579SOL    HW229637   1.373   4.973   2.907
 9580SOL     OW29638   4.027   3.239   0.582
 9580SOL    HW129639   4.020   3.300   0.503
 9580SOL    HW229640   4.068   3.152   0.554
 9581SOL     OW29641   0.778   5.544   6.366
 9581SOL    HW129642   0.848   5.543   6.295
 9581SOL    HW229643   0.735   5.454   6.373
 9582SOL     OW29644   4.570   5.363   5.932
 9582SOL    HW129645   4.526   5.415   5.859
 9582SOL    HW229646   4.499   5.318   5.988
 9583SOL     OW29647   4.047   4.589   1.404
 9583SOL    HW129648   4.060   4.490   1.396
 9583SOL    HW229649   3.994   4.609   1.486
 9584SOL     OW29650   6.798   6.051   0.321
 9584SOL    HW129651   6.776   5.957   0.347
 9584SOL    HW229652   6.724   6.088   0.264
 9585SOL     OW29653   6.129   0.862   4.248
 9585SOL    HW129654   6.188   0.893   4.322
 9585SOL    HW229655   6.152   0.767   4.224
 9586SOL     OW29656   6.167   3.965   2.552
 9586SOL    HW129657   6.108   3.909   2.610
 9586SOL    HW229658   6.141   3.952   2.456
 9587SOL     OW29659   0.418   1.060   1.847
 9587SOL    HW129660   0.348   1.115   1.802
 9587SOL    HW229661   0.497   1.050   1.787
 9588SOL     OW29662   0.572   1.799   1.762
 9588SOL    HW129663   0.657   1.845   1.784
 9588SOL    HW229664   0.523   1.776   1.846
 9589SOL     OW29665   2.463   5.222   6.018
 9589SOL    HW129666   2.488   5.274   6.100
 9589SOL    HW229667   2.516   5.256   5.940
 9590SOL     OW29668   6.945   3.302   1.756
 9590SOL    HW129669   6.995   3.370   1.702
 9590SOL    HW229670   6.897   3.239   1.695
 9591SOL     OW29671   3.342   6.041   6.310
 9591SOL    HW129672   3.287   6.124   6.317
 9591SOL    HW229673   3.365   6.023   6.215
 9592SOL     OW29674   3.328   4.122   0.952
 9592SOL    HW129675   3.354   4.204   0.901
 9592SOL    HW229676   3.296   4.052   0.888
 9593SOL     OW29677   0.142   1.025   4.969
 9593SOL    HW129678   0.164   0.977   5.053
 9593SOL    HW229679   0.182   0.977   4.891
 9594SOL     OW29680   1.338   6.243   2.919
 9594SOL    HW129681   1.376   6.155   2.893
 9594SOL    HW229682   1.384   6.316   2.869
 9595SOL     OW29683   1.591   4.406   5.555
 9595SOL    HW129684   1.518   4.376   5.493
 9595SOL    HW229685   1.654   4.331   5.571
 9596SOL     OW29686   0.436   5.681   0.182
 9596SOL    HW129687   0.470   5.661   0.090
 9596SOL    HW229688   0.368   5.754   0.178
 9597SOL     OW29689   0.629   4.543   1.153
 9597SOL    HW129690   0.555   4.605   1.130
 9597SOL    HW229691   0.602   4.449   1.132
 9598SOL     OW29692   1.415   3.181   4.744
 9598SOL    HW129693   1.487   3.250   4.735
 9598SOL    HW229694   1.439   3.116   4.816
 9599SOL     OW29695   4.121   0.314   5.314
 9599SOL    HW129696   4.041   0.367   5.343
 9599SOL    HW229697   4.108   0.218   5.338
 9600SOL     OW29698   1.966   6.865   0.023
 9600SOL    HW129699   2.014   6.777   0.032
 9600SOL    HW229700   2.000   6.928   0.093
 9601SOL     OW29701   6.443   3.811   1.119
 9601SOL    HW129702   6.371   3.778   1.059
 9601SOL    HW229703   6.419   3.790   1.214
 9602SOL     OW29704   6.863   5.441   6.589
 9602SOL    HW129705   6.842   5.435   6.687
 9602SOL    HW229706   6.951   5.488   6.578
 9603SOL     OW29707   3.819   1.430   5.050
 9603SOL    HW129708   3.836   1.525   5.023
 9603SOL    HW229709   3.863   1.368   4.985
 9604SOL     OW29710   3.764   0.918   6.872
 9604SOL    HW129711   3.791   0.855   6.799
 9604SOL    HW229712   3.793   1.010   6.848
 9605SOL     OW29713   0.121   4.982   3.993
 9605SOL    HW129714   0.151   4.888   4.010
 9605SOL    HW229715   0.130   5.035   4.076
 9606SOL     OW29716   1.926   6.329   6.129
 9606SOL    HW129717   1.979   6.382   6.063
 9606SOL    HW229718   1.913   6.236   6.095
 9607SOL     OW29719   1.572   1.469   1.396
 9607SOL    HW129720   1.643   1.523   1.352
 9607SOL    HW229721   1.484   1.517   1.388
 9608SOL     OW29722   6.976   6.391   2.129
 9608SOL    HW129723   0.009   6.381   2.213
 9608SOL    HW229724   6.981   6.306   2.076
 9609SOL     OW29725   2.004   3.694   6.303
 9609SOL    HW129726   2.036   3.686   6.208
 9609SOL    HW229727   2.011   3.604   6.347
 9610SOL     OW29728   2.079   5.170   4.091
 9610SOL    HW129729   2.161   5.202   4.139
 9610SOL    HW229730   2.035   5.247   4.044
 9611SOL     OW29731   0.416   6.789   7.011
 9611SOL    HW129732   0.324   6.824   6.995
 9611SOL    HW229733   0.411   6.703   0.042
 9612SOL     OW29734   0.498   3.455   2.027
 9612SOL    HW129735   0.417   3.416   2.071
 9612SOL    HW229736   0.555   3.500   2.096
 9613SOL     OW29737   4.559   6.507   3.939
 9613SOL    HW129738   4.618   6.514   4.019
 9613SOL    HW229739   4.464   6.528   3.965
 9614SOL     OW29740   3.884   2.147   1.074
 9614SOL    HW129741   3.922   2.238   1.090
 9614SOL    HW229742   3.806   2.154   1.012
 9615SOL     OW29743   0.514   6.831   1.275
 9615SOL    HW129744   0.462   6.759   1.228
 9615SOL    HW229745   0.450   6.894   1.319
 9616SOL     OW29746   4.652   3.424   1.141
 9616SOL    HW129747   4.651   3.473   1.227
 9616SOL    HW229748   4.745   3.425   1.103
 9617SOL     OW29749   1.547   3.343   4.131
 9617SOL    HW129750   1.455   3.338   4.092
 9617SOL    HW229751   1.611   3.377   4.061
 9618SOL     OW29752   3.900   6.737   5.648
 9618SOL    HW129753   3.884   6.673   5.723
 9618SOL    HW229754   3.814   6.780   5.622
 9619SOL     OW29755   0.694   6.982   0.451
 9619SOL    HW129756   0.699   0.011   0.537
 9619SOL    HW229757   0.765   7.017   0.388
 9620SOL     OW29758   5.229   3.144   6.946
 9620SOL    HW129759   5.223   3.243   6.933
 9620SOL    HW229760   5.137   3.106   6.952
 9621SOL     OW29761   1.498   0.828   3.035
 9621SOL    HW129762   1.460   0.847   3.126
 9621SOL    HW229763   1.436   0.865   2.966
 9622SOL     OW29764   5.492   0.635   0.119
 9622SOL    HW129765   5.566   0.661   0.181
 9622SOL    HW229766   5.404   0.658   0.159
 9623SOL     OW29767   4.064   4.875   5.198
 9623SOL    HW129768   4.083   4.965   5.238
 9623SOL    HW229769   4.076   4.879   5.099
 9624SOL     OW29770   6.151   4.462   3.899
 9624SOL    HW129771   6.058   4.479   3.869
 9624SOL    HW229772   6.194   4.549   3.926
 9625SOL     OW29773   5.087   5.334   6.866
 9625SOL    HW129774   5.157   5.380   6.811
 9625SOL    HW229775   4.999   5.378   6.850
 9626SOL     OW29776   2.354   6.373   0.443
 9626SOL    HW129777   2.308   6.461   0.433
 9626SOL    HW229778   2.446   6.387   0.481
 9627SOL     OW29779   6.879   4.068   3.557
 9627SOL    HW129780   6.791   4.046   3.599
 9627SOL    HW229781   6.940   3.990   3.564
 9628SOL     OW29782   6.706   4.584   0.116
 9628SOL    HW129783   6.783   4.637   0.153
 9628SOL    HW229784   6.701   4.598   0.017
 9629SOL     OW29785   6.883   6.405   3.080
 9629SOL    HW129786   6.862   6.498   3.110
 9629SOL    HW229787   6.906   6.406   2.983
 9630SOL     OW29788   6.193   6.323   5.030
 9630SOL    HW129789   6.133   6.347   4.953
 9630SOL    HW229790   6.210   6.404   5.086
 9631SOL     OW29791   5.748   1.174   0.025
 9631SOL    HW129792   5.776   1.079   0.037
 9631SOL    HW229793   5.727   1.191   6.950
 9632SOL     OW29794   2.351   5.095   2.085
 9632SOL    HW129795   2.372   5.011   2.135
 9632SOL    HW229796   2.302   5.158   2.145
 9633SOL     OW29797   4.977   5.096   6.900
 9633SOL    HW129798   5.022   5.183   6.883
 9633SOL    HW229799   4.902   5.109   6.965
 9634SOL     OW29800   0.699   6.559   4.376
 9634SOL    HW129801   0.659   6.520   4.294
 9634SOL    HW229802   0.652   6.644   4.400
 9635SOL     OW29803   2.530   4.508   5.399
 9635SOL    HW129804   2.569   4.578   5.459
 9635SOL    HW229805   2.588   4.426   5.401
 9636SOL     OW29806   4.388   1.662   6.235
 9636SOL    HW129807   4.381   1.762   6.227
 9636SOL    HW229808   4.296   1.623   6.237
 9637SOL     OW29809   3.040   2.539   7.007
 9637SOL    HW129810   2.986   2.601   0.043
 9637SOL    HW229811   3.046   2.574   6.914
 9638SOL     OW29812   0.104   3.903   6.396
 9638SOL    HW129813   0.058   3.983   6.435
 9638SOL    HW229814   0.144   3.928   6.308
 9639SOL     OW29815   4.653   1.778   1.947
 9639SOL    HW129816   4.598   1.857   1.921
 9639SOL    HW229817   4.708   1.800   2.027
 9640SOL     OW29818   3.028   1.348   3.034
 9640SOL    HW129819   3.120   1.323   3.004
 9640SOL    HW229820   2.997   1.285   3.105
 9641SOL     OW29821   5.528   5.571   0.949
 9641SOL    HW129822   5.520   5.508   0.873
 9641SOL    HW229823   5.447   5.565   1.007
 9642SOL     OW29824   1.947   5.668   5.000
 9642SOL    HW129825   1.917   5.678   4.905
 9642SOL    HW229826   2.023   5.603   5.004
 9643SOL     OW29827   5.971   4.953   3.997
 9643SOL    HW129828   5.965   5.050   3.977
 9643SOL    HW229829   5.921   4.933   4.081
 9644SOL     OW29830   0.232   4.649   4.628
 9644SOL    HW129831   0.308   4.584   4.628
 9644SOL    HW229832   0.217   4.685   4.720
 9645SOL     OW29833   3.110   4.864   3.833
 9645SOL    HW129834   3.159   4.937   3.785
 9645SOL    HW229835   3.173   4.790   3.854
 9646SOL     OW29836   2.635   4.623   2.196
 9646SOL    HW129837   2.706   4.607   2.127
 9646SOL    HW229838   2.645   4.715   2.234
 9647SOL     OW29839   1.119   5.453   1.922
 9647SOL    HW129840   1.114   5.371   1.864
 9647SOL    HW229841   1.038   5.511   1.904
 9648SOL     OW29842   3.585   2.098   0.165
 9648SOL    HW129843   3.507   2.152   0.199
 9648SOL    HW229844   3.600   2.118   0.069
 9649SOL     OW29845   2.156   4.567   6.789
 9649SOL    HW129846   2.180   4.658   6.823
 9649SOL    HW229847   2.239   4.518   6.762
 9650SOL     OW29848   4.472   4.571   2.907
 9650SOL    HW129849   4.392   4.579   2.847
 9650SOL    HW229850   4.544   4.519   2.860
 9651SOL     OW29851   5.757   1.451   0.669
 9651SOL    HW129852   5.659   1.430   0.664
 9651SOL    HW229853   5.795   1.412   0.753
 9652SOL     OW29854   2.272   4.201   0.994
 9652SOL    HW129855   2.306   4.219   0.902
 9652SOL    HW229856   2.237   4.108   0.999
 9653SOL     OW29857   4.200   5.118   5.277
 9653SOL    HW129858   4.199   5.160   5.186
 9653SOL    HW229859   4.289   5.076   5.294
 9654SOL     OW29860   3.462   3.467   2.301
 9654SOL    HW129861   3.435   3.533   2.371
 9654SOL    HW229862   3.558   3.482   2.276
 9655SOL     OW29863   0.247   1.649   0.503
 9655SOL    HW129864   0.213   1.581   0.567
 9655SOL    HW229865   0.188   1.650   0.421
 9656SOL     OW29866   4.836   1.826   0.935
 9656SOL    HW129867   4.752   1.792   0.977
 9656SOL    HW229868   4.880   1.892   0.997
 9657SOL     OW29869   6.180   2.898   3.613
 9657SOL    HW129870   6.144   2.810   3.644
 9657SOL    HW229871   6.106   2.965   3.611
 9658SOL     OW29872   5.572   2.299   2.404
 9658SOL    HW129873   5.610   2.308   2.312
 9658SOL    HW229874   5.588   2.383   2.456
 9659SOL     OW29875   6.902   3.071   0.225
 9659SOL    HW129876   6.837   3.140   0.256
 9659SOL    HW229877   6.967   3.112   0.160
 9660SOL     OW29878   0.522   6.882   2.016
 9660SOL    HW129879   0.508   6.962   2.073
 9660SOL    HW229880   0.573   6.907   1.933
 9661SOL     OW29881   3.366   6.404   1.342
 9661SOL    HW129882   3.297   6.406   1.269
 9661SOL    HW229883   3.425   6.324   1.330
 9662SOL     OW29884   4.264   2.994   5.493
 9662SOL    HW129885   4.208   2.913   5.474
 9662SOL    HW229886   4.354   2.965   5.524
 9663SOL     OW29887   6.490   6.998   3.255
 9663SOL    HW129888   6.456   0.071   3.248
 9663SOL    HW229889   6.428   6.936   3.206
 9664SOL     OW29890   5.380   6.173   4.511
 9664SOL    HW129891   5.290   6.135   4.528
 9664SOL    HW229892   5.379   6.271   4.530
 9665SOL     OW29893   5.677   6.195   6.728
 9665SOL    HW129894   5.757   6.225   6.781
 9665SOL    HW229895   5.676   6.095   6.724
 9666SOL     OW29896   6.969   3.727   2.650
 9666SOL    HW129897   6.906   3.672   2.596
 9666SOL    HW229898   6.943   3.722   2.747
 9667SOL     OW29899   4.248   3.527   6.053
 9667SOL    HW129900   4.187   3.599   6.020
 9667SOL    HW229901   4.194   3.454   6.095
 9668SOL     OW29902   6.676   0.490   6.194
 9668SOL    HW129903   6.595   0.444   6.231
 9668SOL    HW229904   6.697   0.452   6.104
 9669SOL     OW29905   2.085   0.199   2.858
 9669SOL    HW129906   2.143   0.120   2.881
 9669SOL    HW229907   1.996   0.166   2.827
 9670SOL     OW29908   6.272   4.481   6.947
 9670SOL    HW129909   6.361   4.439   6.930
 9670SOL    HW229910   6.206   4.409   6.970
 9671SOL     OW29911   6.323   4.750   0.029
 9671SOL    HW129912   6.293   4.675   6.991
 9671SOL    HW229913   6.397   4.800   7.004
 9672SOL     OW29914   1.509   5.560   3.683
 9672SOL    HW129915   1.591   5.512   3.715
 9672SOL    HW229916   1.515   5.575   3.584
 9673SOL     OW29917   4.900   3.406   1.089
 9673SOL    HW129918   4.942   3.315   1.096
 9673SOL    HW229919   4.932   3.451   1.005
 9674SOL     OW29920   2.205   6.566   2.731
 9674SOL    HW129921   2.303   6.548   2.721
 9674SOL    HW229922   2.154   6.480   2.721
 9675SOL     OW29923   5.622   2.803   0.344
 9675SOL    HW129924   5.634   2.809   0.443
 9675SOL    HW229925   5.711   2.802   0.299
 9676SOL     OW29926   1.855   3.824   5.621
 9676SOL    HW129927   1.871   3.726   5.631
 9676SOL    HW229928   1.943   3.871   5.613
 9677SOL     OW29929   0.355   5.641   5.074
 9677SOL    HW129930   0.406   5.685   5.148
 9677SOL    HW229931   0.257   5.658   5.086
 9678SOL     OW29932   3.101   4.026   3.225
 9678SOL    HW129933   3.141   4.118   3.221
 9678SOL    HW229934   3.080   3.995   3.132
 9679SOL     OW29935   2.839   1.522   3.437
 9679SOL    HW129936   2.848   1.610   3.485
 9679SOL    HW229937   2.819   1.539   3.341
 9680SOL     OW29938   4.397   1.182   3.031
 9680SOL    HW129939   4.478   1.178   3.089
 9680SOL    HW229940   4.371   1.278   3.017
 9681SOL     OW29941   3.246   1.939   0.308
 9681SOL    HW129942   3.215   1.953   0.402
 9681SOL    HW229943   3.167   1.930   0.248
 9682SOL     OW29944   5.251   4.743   3.705
 9682SOL    HW129945   5.333   4.704   3.746
 9682SOL    HW229946   5.234   4.834   3.744
 9683SOL     OW29947   2.687   5.383   0.638
 9683SOL    HW129948   2.657   5.317   0.708
 9683SOL    HW229949   2.687   5.475   0.677
 9684SOL     OW29950   0.231   3.470   6.160
 9684SOL    HW129951   0.206   3.446   6.066
 9684SOL    HW229952   0.163   3.532   6.198
 9685SOL     OW29953   3.483   4.919   1.091
 9685SOL    HW129954   3.582   4.930   1.079
 9685SOL    HW229955   3.447   4.998   1.142
 9686SOL     OW29956   6.567   1.728   6.891
 9686SOL    HW129957   6.594   1.631   6.885
 9686SOL    HW229958   6.649   1.785   6.890
 9687SOL     OW29959   1.742   0.754   4.290
 9687SOL    HW129960   1.714   0.662   4.320
 9687SOL    HW229961   1.830   0.777   4.331
 9688SOL     OW29962   0.863   3.293   2.551
 9688SOL    HW129963   0.896   3.320   2.641
 9688SOL    HW229964   0.914   3.342   2.480
 9689SOL     OW29965   0.801   4.620   6.255
 9689SOL    HW129966   0.811   4.697   6.319
 9689SOL    HW229967   0.845   4.644   6.168
 9690SOL     OW29968   5.477   5.324   6.650
 9690SOL    HW129969   5.501   5.316   6.747
 9690SOL    HW229970   5.460   5.233   6.613
 9691SOL     OW29971   3.039   5.537   0.926
 9691SOL    HW129972   3.046   5.566   1.021
 9691SOL    HW229973   3.099   5.458   0.911
 9692SOL     OW29974   3.437   5.109   3.129
 9692SOL    HW129975   3.477   5.163   3.203
 9692SOL    HW229976   3.473   5.142   3.042
 9693SOL     OW29977   5.952   4.684   1.827
 9693SOL    HW129978   6.029   4.640   1.781
 9693SOL    HW229979   5.978   4.777   1.854
 9694SOL     OW29980   2.352   0.766   0.929
 9694SOL    HW129981   2.320   0.830   0.859
 9694SOL    HW229982   2.314   0.792   1.017
 9695SOL     OW29983   6.847   2.926   2.654
 9695SOL    HW129984   6.885   2.965   2.738
 9695SOL    HW229985   6.914   2.865   2.612
 9696SOL     OW29986   5.313   3.662   1.223
 9696SOL    HW129987   5.298   3.744   1.168
 9696SOL    HW229988   5.379   3.681   1.295
 9697SOL     OW29989   0.383   5.395   7.002
 9697SOL    HW129990   0.456   5.372   0.045
 9697SOL    HW229991   0.396   5.489   6.968
 9698SOL     OW29992   4.589   1.890   5.981
 9698SOL    HW129993   4.635   1.805   5.958
 9698SOL    HW229994   4.643   1.967   5.948
 9699SOL     OW29995   6.816   4.915   6.833
 9699SOL    HW129996   6.752   4.979   6.790
 9699SOL    HW229997   6.908   4.930   6.797
 9700SOL     OW29998   4.631   5.707   5.014
 9700SOL    HW129999   4.542   5.738   5.048
 9700SOL    HW230000   4.645   5.743   4.922
 9701SOL     OW30001   4.566   5.056   5.508
 9701SOL    HW130002   4.540   5.013   5.595
 9701SOL    HW230003   4.607   5.145   5.526
 9702SOL     OW30004   4.586   0.562   6.612
 9702SOL    HW130005   4.609   0.488   6.549
 9702SOL    HW230006   4.651   0.638   6.600
 9703SOL     OW30007   4.849   4.059   3.352
 9703SOL    HW130008   4.863   4.112   3.268
 9703SOL    HW230009   4.935   4.053   3.402
 9704SOL     OW30010   3.476   0.947   2.594
 9704SOL    HW130011   3.563   0.899   2.579
 9704SOL    HW230012   3.492   1.029   2.649
 9705SOL     OW30013   5.410   4.643   5.850
 9705SOL    HW130014   5.403   4.612   5.945
 9705SOL    HW230015   5.398   4.565   5.789
 9706SOL     OW30016   1.563   3.451   0.379
 9706SOL    HW130017   1.502   3.515   0.427
 9706SOL    HW230018   1.553   3.360   0.420
 9707SOL     OW30019   6.651   4.869   2.569
 9707SOL    HW130020   6.712   4.790   2.561
 9707SOL    HW230021   6.597   4.877   2.485
 9708SOL     OW30022   1.595   1.982   3.182
 9708SOL    HW130023   1.510   2.034   3.187
 9708SOL    HW230024   1.631   1.967   3.274
 9709SOL     OW30025   5.289   6.105   3.331
 9709SOL    HW130026   5.309   6.134   3.424
 9709SOL    HW230027   5.364   6.132   3.271
 9710SOL     OW30028   0.140   1.167   1.440
 9710SOL    HW130029   0.162   1.221   1.359
 9710SOL    HW230030   0.146   1.070   1.418
 9711SOL     OW30031   2.685   5.287   5.872
 9711SOL    HW130032   2.675   5.385   5.885
 9711SOL    HW230033   2.751   5.269   5.800
 9712SOL     OW30034   5.671   3.832   6.651
 9712SOL    HW130035   5.695   3.890   6.574
 9712SOL    HW230036   5.753   3.786   6.686
 9713SOL     OW30037   0.911   4.559   3.468
 9713SOL    HW130038   0.824   4.573   3.515
 9713SOL    HW230039   0.974   4.510   3.528
 9714SOL     OW30040   3.724   6.551   6.426
 9714SOL    HW130041   3.702   6.591   6.515
 9714SOL    HW230042   3.646   6.499   6.392
 9715SOL     OW30043   5.588   3.828   6.121
 9715SOL    HW130044   5.517   3.779   6.173
 9715SOL    HW230045   5.547   3.906   6.074
 9716SOL     OW30046   4.038   3.962   6.844
 9716SOL    HW130047   3.969   3.890   6.849
 9716SOL    HW230048   4.012   4.038   6.904
 9717SOL     OW30049   5.341   6.553   6.575
 9717SOL    HW130050   5.425   6.575   6.525
 9717SOL    HW230051   5.356   6.568   6.673
 9718SOL     OW30052   4.808   2.887   0.230
 9718SOL    HW130053   4.811   2.905   0.329
 9718SOL    HW230054   4.901   2.876   0.196
 9719SOL     OW30055   6.412   1.512   5.811
 9719SOL    HW130056   6.418   1.495   5.713
 9719SOL    HW230057   6.447   1.603   5.832
 9720SOL     OW30058   0.276   5.191   2.523
 9720SOL    HW130059   0.177   5.189   2.541
 9720SOL    HW230060   0.298   5.124   2.452
 9721SOL     OW30061   6.724   1.662   1.077
 9721SOL    HW130062   6.732   1.567   1.045
 9721SOL    HW230063   6.630   1.680   1.104
 9722SOL     OW30064   5.889   1.311   4.049
 9722SOL    HW130065   5.860   1.215   4.047
 9722SOL    HW230066   5.989   1.315   4.060
 9723SOL     OW30067   1.943   6.596   2.473
 9723SOL    HW130068   1.884   6.555   2.403
 9723SOL    HW230069   1.887   6.649   2.536
 9724SOL     OW30070   1.909   4.631   0.468
 9724SOL    HW130071   1.890   4.701   0.536
 9724SOL    HW230072   2.008   4.621   0.456
 9725SOL     OW30073   4.062   5.118   6.430
 9725SOL    HW130074   4.062   5.213   6.459
 9725SOL    HW230075   4.104   5.110   6.339
 9726SOL     OW30076   5.067   1.205   4.544
 9726SOL    HW130077   5.040   1.223   4.639
 9726SOL    HW230078   5.108   1.287   4.505
 9727SOL     OW30079   1.388   3.685   6.147
 9727SOL    HW130080   1.439   3.766   6.176
 9727SOL    HW230081   1.451   3.618   6.109
 9728SOL     OW30082   0.276   0.829   5.876
 9728SOL    HW130083   0.262   0.799   5.970
 9728SOL    HW230084   0.361   0.790   5.841
 9729SOL     OW30085   0.957   3.824   4.148
 9729SOL    HW130086   1.045   3.782   4.167
 9729SOL    HW230087   0.913   3.848   4.235
 9730SOL     OW30088   0.953   3.655   3.918
 9730SOL    HW130089   0.939   3.740   3.968
 9730SOL    HW230090   1.046   3.622   3.935
 9731SOL     OW30091   4.923   4.876   1.155
 9731SOL    HW130092   4.962   4.953   1.206
 9731SOL    HW230093   4.834   4.852   1.193
 9732SOL     OW30094   6.411   5.454   3.052
 9732SOL    HW130095   6.415   5.554   3.039
 9732SOL    HW230096   6.477   5.427   3.122
 9733SOL     OW30097   5.977   5.204   0.510
 9733SOL    HW130098   6.032   5.189   0.428
 9733SOL    HW230099   5.980   5.301   0.535
 9734SOL     OW30100   6.768   1.805   1.736
 9734SOL    HW130101   6.683   1.755   1.750
 9734SOL    HW230102   6.837   1.743   1.697
 9735SOL     OW30103   1.925   4.403   3.954
 9735SOL    HW130104   1.941   4.369   3.861
 9735SOL    HW230105   1.960   4.496   3.962
 9736SOL     OW30106   6.421   0.984   6.568
 9736SOL    HW130107   6.370   0.988   6.482
 9736SOL    HW230108   6.357   0.995   6.644
 9737SOL     OW30109   5.362   2.789   3.729
 9737SOL    HW130110   5.269   2.811   3.698
 9737SOL    HW230111   5.360   2.705   3.782
 9738SOL     OW30112   1.565   0.305   1.483
 9738SOL    HW130113   1.622   0.241   1.431
 9738SOL    HW230114   1.551   0.388   1.429
 9739SOL     OW30115   5.955   4.808   2.327
 9739SOL    HW130116   5.872   4.758   2.355
 9739SOL    HW230117   5.978   4.876   2.396
 9740SOL     OW30118   6.426   1.584   3.157
 9740SOL    HW130119   6.513   1.611   3.114
 9740SOL    HW230120   6.350   1.628   3.110
 9741SOL     OW30121   3.526   1.098   2.798
 9741SOL    HW130122   3.582   1.177   2.819
 9741SOL    HW230123   3.473   1.072   2.878
 9742SOL     OW30124   4.454   0.259   0.800
 9742SOL    HW130125   4.496   0.344   0.834
 9742SOL    HW230126   4.360   0.277   0.771
 9743SOL     OW30127   0.047   1.952   5.455
 9743SOL    HW130128   6.985   1.998   5.486
 9743SOL    HW230129   0.023   1.862   5.418
 9744SOL     OW30130   0.601   6.970   2.893
 9744SOL    HW130131   0.680   6.936   2.944
 9744SOL    HW230132   0.611   6.947   2.796
 9745SOL     OW30133   5.213   3.683   5.799
 9745SOL    HW130134   5.130   3.629   5.809
 9745SOL    HW230135   5.289   3.636   5.844
 9746SOL     OW30136   6.616   0.342   5.351
 9746SOL    HW130137   6.627   0.420   5.289
 9746SOL    HW230138   6.696   0.336   5.411
 9747SOL     OW30139   2.000   0.700   1.671
 9747SOL    HW130140   2.028   0.784   1.719
 9747SOL    HW230141   2.081   0.657   1.631
 9748SOL     OW30142   0.314   1.368   3.177
 9748SOL    HW130143   0.255   1.418   3.114
 9748SOL    HW230144   0.272   1.367   3.268
 9749SOL     OW30145   2.550   1.203   4.892
 9749SOL    HW130146   2.583   1.171   4.803
 9749SOL    HW230147   2.590   1.148   4.965
 9750SOL     OW30148   5.530   4.484   3.585
 9750SOL    HW130149   5.442   4.438   3.572
 9750SOL    HW230150   5.595   4.419   3.625
 9751SOL     OW30151   1.206   1.039   1.210
 9751SOL    HW130152   1.147   1.046   1.290
 9751SOL    HW230153   1.273   0.967   1.224
 9752SOL     OW30154   4.640   2.139   5.395
 9752SOL    HW130155   4.552   2.098   5.417
 9752SOL    HW230156   4.643   2.162   5.297
 9753SOL     OW30157   6.256   6.005   5.729
 9753SOL    HW130158   6.350   5.973   5.721
 9753SOL    HW230159   6.204   5.943   5.787
 9754SOL     OW30160   0.844   1.376   6.216
 9754SOL    HW130161   0.896   1.292   6.203
 9754SOL    HW230162   0.774   1.362   6.286
 9755SOL     OW30163   3.594   3.211   4.418
 9755SOL    HW130164   3.511   3.219   4.472
 9755SOL    HW230165   3.588   3.129   4.360
 9756SOL     OW30166   6.558   3.628   0.772
 9756SOL    HW130167   6.588   3.610   0.866
 9756SOL    HW230168   6.463   3.598   0.761
 9757SOL     OW30169   5.651   3.703   3.941
 9757SOL    HW130170   5.597   3.647   3.877
 9757SOL    HW230171   5.594   3.726   4.020
 9758SOL     OW30172   2.078   6.332   6.722
 9758SOL    HW130173   2.085   6.429   6.696
 9758SOL    HW230174   1.983   6.310   6.743
 9759SOL     OW30175   1.629   0.071   0.024
 9759SOL    HW130176   1.599   0.165   0.038
 9759SOL    HW230177   1.674   0.063   6.956
 9760SOL     OW30178   4.453   2.415   4.966
 9760SOL    HW130179   4.499   2.489   5.015
 9760SOL    HW230180   4.355   2.421   4.981
 9761SOL     OW30181   5.513   1.381   2.728
 9761SOL    HW130182   5.558   1.438   2.798
 9761SOL    HW230183   5.575   1.369   2.651
 9762SOL     OW30184   3.103   1.218   4.676
 9762SOL    HW130185   3.148   1.190   4.591
 9762SOL    HW230186   3.027   1.156   4.695
 9763SOL     OW30187   5.213   2.042   2.067
 9763SOL    HW130188   5.288   2.008   2.011
 9763SOL    HW230189   5.233   2.134   2.099
 9764SOL     OW30190   7.002   2.754   2.477
 9764SOL    HW130191   0.036   2.827   2.434
 9764SOL    HW230192   0.043   2.680   2.506
 9765SOL     OW30193   6.857   1.102   3.913
 9765SOL    HW130194   6.832   1.005   3.914
 9765SOL    HW230195   6.793   1.152   3.855
 9766SOL     OW30196   2.835   0.216   3.022
 9766SOL    HW130197   2.869   0.310   3.022
 9766SOL    HW230198   2.736   0.217   3.009
 9767SOL     OW30199   5.086   1.053   4.958
 9767SOL    HW130200   5.049   0.963   4.935
 9767SOL    HW230201   5.034   1.124   4.912
 9768SOL     OW30202   5.640   1.880   2.795
 9768SOL    HW130203   5.568   1.942   2.763
 9768SOL    HW230204   5.729   1.920   2.775
 9769SOL     OW30205   3.479   1.071   3.071
 9769SOL    HW130206   3.420   1.089   3.149
 9769SOL    HW230207   3.544   1.146   3.061
 9770SOL     OW30208   5.338   7.001   6.828
 9770SOL    HW130209   5.429   0.020   6.835
 9770SOL    HW230210   5.337   6.911   6.874
 9771SOL     OW30211   2.820   5.651   0.528
 9771SOL    HW130212   2.788   5.647   0.622
 9771SOL    HW230213   2.917   5.628   0.524
 9772SOL     OW30214   1.188   6.057   2.651
 9772SOL    HW130215   1.197   6.153   2.625
 9772SOL    HW230216   1.261   6.033   2.715
 9773SOL     OW30217   6.074   5.256   4.412
 9773SOL    HW130218   6.033   5.298   4.331
 9773SOL    HW230219   6.109   5.327   4.474
 9774SOL     OW30220   0.386   5.037   2.061
 9774SOL    HW130221   0.474   4.990   2.056
 9774SOL    HW230222   0.371   5.087   1.976
 9775SOL     OW30223   2.329   0.448   3.241
 9775SOL    HW130224   2.261   0.388   3.198
 9775SOL    HW230225   2.420   0.411   3.224
 9776SOL     OW30226   1.454   4.563   4.392
 9776SOL    HW130227   1.380   4.495   4.394
 9776SOL    HW230228   1.496   4.569   4.482
 9777SOL     OW30229   6.087   5.129   6.229
 9777SOL    HW130230   6.178   5.171   6.226
 9777SOL    HW230231   6.057   5.109   6.136
 9778SOL     OW30232   0.309   0.676   3.672
 9778SOL    HW130233   0.390   0.736   3.675
 9778SOL    HW230234   0.318   0.606   3.743
 9779SOL     OW30235   1.481   1.457   5.275
 9779SOL    HW130236   1.512   1.369   5.241
 9779SOL    HW230237   1.393   1.446   5.321
 9780SOL     OW30238   2.917   1.633   1.456
 9780SOL    HW130239   2.875   1.547   1.487
 9780SOL    HW230240   2.934   1.692   1.535
 9781SOL     OW30241   1.749   3.996   4.316
 9781SOL    HW130242   1.754   3.911   4.265
 9781SOL    HW230243   1.791   3.982   4.406
 9782SOL     OW30244   6.718   1.166   1.218
 9782SOL    HW130245   6.699   1.241   1.155
 9782SOL    HW230246   6.636   1.145   1.270
 9783SOL     OW30247   4.573   2.249   3.383
 9783SOL    HW130248   4.574   2.185   3.460
 9783SOL    HW230249   4.573   2.198   3.297
 9784SOL     OW30250   4.174   1.221   4.410
 9784SOL    HW130251   4.181   1.241   4.508
 9784SOL    HW230252   4.141   1.128   4.398
 9785SOL     OW30253   0.831   3.335   5.915
 9785SOL    HW130254   0.808   3.427   5.946
 9785SOL    HW230255   0.900   3.340   5.843
 9786SOL     OW30256   2.287   4.181   6.731
 9786SOL    HW130257   2.210   4.207   6.672
 9786SOL    HW230258   2.369   4.169   6.676
 9787SOL     OW30259   4.544   3.988   1.668
 9787SOL    HW130260   4.617   3.990   1.736
 9787SOL    HW230261   4.481   4.064   1.684
 9788SOL     OW30262   0.579   0.302   3.628
 9788SOL    HW130263   0.503   0.238   3.613
 9788SOL    HW230264   0.653   0.255   3.676
 9789SOL     OW30265   1.296   5.298   0.589
 9789SOL    HW130266   1.326   5.244   0.667
 9789SOL    HW230267   1.266   5.237   0.515
 9790SOL     OW30268   5.738   4.178   6.240
 9790SOL    HW130269   5.691   4.104   6.193
 9790SOL    HW230270   5.799   4.226   6.176
 9791SOL     OW30271   0.826   0.679   2.933
 9791SOL    HW130272   0.867   0.588   2.926
 9791SOL    HW230273   0.828   0.724   2.844
 9792SOL     OW30274   4.942   5.401   1.311
 9792SOL    HW130275   4.963   5.490   1.350
 9792SOL    HW230276   4.849   5.400   1.276
 9793SOL     OW30277   4.690   5.905   3.759
 9793SOL    HW130278   4.766   5.875   3.701
 9793SOL    HW230279   4.727   5.946   3.842
 9794SOL     OW30280   6.861   4.451   0.898
 9794SOL    HW130281   6.945   4.444   0.953
 9794SOL    HW230282   6.819   4.541   0.913
 9795SOL     OW30283   2.087   1.810   4.367
 9795SOL    HW130284   2.068   1.795   4.270
 9795SOL    HW230285   2.003   1.837   4.414
 9796SOL     OW30286   4.028   2.362   1.130
 9796SOL    HW130287   4.126   2.362   1.152
 9796SOL    HW230288   3.976   2.359   1.215
 9797SOL     OW30289   2.371   5.139   6.437
 9797SOL    HW130290   2.302   5.083   6.391
 9797SOL    HW230291   2.454   5.141   6.381
 9798SOL     OW30292   2.871   0.394   1.096
 9798SOL    HW130293   2.855   0.373   1.192
 9798SOL    HW230294   2.917   0.483   1.088
 9799SOL     OW30295   3.928   3.977   3.949
 9799SOL    HW130296   3.943   4.030   3.865
 9799SOL    HW230297   3.849   4.015   3.998
 9800SOL     OW30298   3.824   6.468   4.491
 9800SOL    HW130299   3.855   6.389   4.544
 9800SOL    HW230300   3.724   6.469   4.488
 9801SOL     OW30301   4.652   3.957   0.499
 9801SOL    HW130302   4.573   3.924   0.448
 9801SOL    HW230303   4.702   4.024   0.444
 9802SOL     OW30304   0.703   3.229   1.366
 9802SOL    HW130305   0.763   3.168   1.418
 9802SOL    HW230306   0.648   3.284   1.429
 9803SOL     OW30307   0.103   2.552   6.643
 9803SOL    HW130308   0.167   2.519   6.712
 9803SOL    HW230309   0.153   2.599   6.570
 9804SOL     OW30310   0.753   6.649   3.306
 9804SOL    HW130311   0.804   6.735   3.310
 9804SOL    HW230312   0.746   6.618   3.212
 9805SOL     OW30313   1.048   0.913   5.207
 9805SOL    HW130314   1.141   0.899   5.173
 9805SOL    HW230315   1.047   0.903   5.307
 9806SOL     OW30316   1.882   1.145   0.472
 9806SOL    HW130317   1.844   1.114   0.559
 9806SOL    HW230318   1.822   1.118   0.397
 9807SOL     OW30319   2.351   3.414   0.130
 9807SOL    HW130320   2.269   3.450   0.175
 9807SOL    HW230321   2.337   3.414   0.031
 9808SOL     OW30322   4.641   0.638   5.576
 9808SOL    HW130323   4.547   0.661   5.599
 9808SOL    HW230324   4.700   0.717   5.596
 9809SOL     OW30325   0.440   2.048   0.036
 9809SOL    HW130326   0.379   1.970   0.033
 9809SOL    HW230327   0.447   2.081   0.131
 9810SOL     OW30328   2.176   2.953   3.464
 9810SOL    HW130329   2.183   3.050   3.486
 9810SOL    HW230330   2.211   2.937   3.372
 9811SOL     OW30331   5.495   4.893   3.873
 9811SOL    HW130332   5.579   4.876   3.821
 9811SOL    HW230333   5.461   4.807   3.912
 9812SOL     OW30334   3.701   2.019   5.755
 9812SOL    HW130335   3.623   1.973   5.712
 9812SOL    HW230336   3.715   2.108   5.713
 9813SOL     OW30337   5.623   0.406   0.056
 9813SOL    HW130338   5.565   0.488   0.055
 9813SOL    HW230339   5.718   0.433   0.074
 9814SOL     OW30340   0.772   0.412   0.566
 9814SOL    HW130341   0.849   0.349   0.571
 9814SOL    HW230342   0.700   0.383   0.629
 9815SOL     OW30343   5.688   3.992   3.271
 9815SOL    HW130344   5.637   3.920   3.225
 9815SOL    HW230345   5.641   4.079   3.258
 9816SOL     OW30346   6.769   1.220   6.312
 9816SOL    HW130347   6.825   1.138   6.302
 9816SOL    HW230348   6.706   1.208   6.389
 9817SOL     OW30349   2.284   6.171   2.367
 9817SOL    HW130350   2.379   6.148   2.346
 9817SOL    HW230351   2.267   6.266   2.344
 9818SOL     OW30352   1.347   0.725   4.725
 9818SOL    HW130353   1.301   0.666   4.792
 9818SOL    HW230354   1.398   0.797   4.774
 9819SOL     OW30355   4.919   3.122   3.963
 9819SOL    HW130356   4.980   3.201   3.971
 9819SOL    HW230357   4.907   3.080   4.054
 9820SOL     OW30358   4.610   3.130   6.048
 9820SOL    HW130359   4.527   3.185   6.044
 9820SOL    HW230360   4.608   3.061   5.976
 9821SOL     OW30361   5.226   0.467   0.831
 9821SOL    HW130362   5.169   0.501   0.756
 9821SOL    HW230363   5.248   0.542   0.893
 9822SOL     OW30364   2.818   6.011   3.422
 9822SOL    HW130365   2.872   6.031   3.504
 9822SOL    HW230366   2.725   5.988   3.449
 9823SOL     OW30367   2.813   0.358   1.366
 9823SOL    HW130368   2.864   0.336   1.449
 9823SOL    HW230369   2.721   0.318   1.372
 9824SOL     OW30370   1.726   5.638   4.296
 9824SOL    HW130371   1.759   5.731   4.280
 9824SOL    HW230372   1.708   5.593   4.208
 9825SOL     OW30373   5.338   6.478   4.098
 9825SOL    HW130374   5.431   6.443   4.107
 9825SOL    HW230375   5.298   6.493   4.188
 9826SOL     OW30376   4.127   5.844   5.163
 9826SOL    HW130377   4.037   5.884   5.173
 9826SOL    HW230378   4.119   5.744   5.157
 9827SOL     OW30379   1.613   3.677   3.571
 9827SOL    HW130380   1.561   3.667   3.486
 9827SOL    HW230381   1.596   3.598   3.630
 9828SOL     OW30382   3.057   2.488   5.389
 9828SOL    HW130383   3.104   2.455   5.307
 9828SOL    HW230384   2.958   2.475   5.378
 9829SOL     OW30385   4.607   5.817   6.498
 9829SOL    HW130386   4.599   5.717   6.497
 9829SOL    HW230387   4.699   5.843   6.470
 9830SOL     OW30388   5.318   1.325   1.858
 9830SOL    HW130389   5.271   1.412   1.840
 9830SOL    HW230390   5.299   1.261   1.784
 9831SOL     OW30391   1.214   4.960   2.945
 9831SOL    HW130392   1.122   4.921   2.937
 9831SOL    HW230393   1.216   5.025   3.021
 9832SOL     OW30394   5.105   5.399   2.467
 9832SOL    HW130395   5.150   5.409   2.555
 9832SOL    HW230396   5.040   5.474   2.453
 9833SOL     OW30397   3.555   3.535   3.903
 9833SOL    HW130398   3.522   3.472   3.973
 9833SOL    HW230399   3.495   3.532   3.823
 9834SOL     OW30400   2.071   4.583   5.140
 9834SOL    HW130401   1.999   4.546   5.082
 9834SOL    HW230402   2.100   4.671   5.105
 9835SOL     OW30403   3.686   3.449   4.325
 9835SOL    HW130404   3.644   3.372   4.374
 9835SOL    HW230405   3.619   3.521   4.311
 9836SOL     OW30406   0.350   4.054   3.903
 9836SOL    HW130407   0.376   4.082   3.995
 9836SOL    HW230408   0.380   4.124   3.837
 9837SOL     OW30409   4.060   0.858   2.360
 9837SOL    HW130410   4.043   0.772   2.311
 9837SOL    HW230411   3.972   0.901   2.382
 9838SOL     OW30412   1.800   6.726   0.221
 9838SOL    HW130413   1.769   6.815   0.254
 9838SOL    HW230414   1.849   6.739   0.135
 9839SOL     OW30415   5.042   6.595   3.633
 9839SOL    HW130416   4.958   6.632   3.672
 9839SOL    HW230417   5.118   6.657   3.652
 9840SOL     OW30418   5.497   1.985   0.636
 9840SOL    HW130419   5.496   2.054   0.709
 9840SOL    HW230420   5.558   1.910   0.662
 9841SOL     OW30421   1.000   4.432   4.565
 9841SOL    HW130422   1.091   4.424   4.606
 9841SOL    HW230423   0.990   4.363   4.493
 9842SOL     OW30424   3.532   3.626   1.158
 9842SOL    HW130425   3.571   3.656   1.245
 9842SOL    HW230426   3.496   3.533   1.167
 9843SOL     OW30427   6.352   0.213   2.408
 9843SOL    HW130428   6.304   0.163   2.335
 9843SOL    HW230429   6.295   0.214   2.490
 9844SOL     OW30430   5.877   1.315   3.326
 9844SOL    HW130431   5.846   1.410   3.337
 9844SOL    HW230432   5.842   1.279   3.240
 9845SOL     OW30433   1.495   1.620   3.950
 9845SOL    HW130434   1.461   1.526   3.959
 9845SOL    HW230435   1.560   1.624   3.874
 9846SOL     OW30436   3.753   2.576   1.332
 9846SOL    HW130437   3.719   2.500   1.278
 9846SOL    HW230438   3.700   2.584   1.416
 9847SOL     OW30439   3.725   3.203   2.534
 9847SOL    HW130440   3.821   3.230   2.526
 9847SOL    HW230441   3.719   3.119   2.589
 9848SOL     OW30442   4.408   4.548   5.867
 9848SOL    HW130443   4.365   4.599   5.942
 9848SOL    HW230444   4.507   4.558   5.874
 9849SOL     OW30445   1.110   0.389   6.568
 9849SOL    HW130446   1.188   0.355   6.621
 9849SOL    HW230447   1.025   0.353   6.606
 9850SOL     OW30448   6.748   0.854   3.871
 9850SOL    HW130449   6.800   0.768   3.872
 9850SOL    HW230450   6.668   0.844   3.811
 9851SOL     OW30451   1.693   0.404   4.273
 9851SOL    HW130452   1.662   0.456   4.352
 9851SOL    HW230453   1.653   0.442   4.190
 9852SOL     OW30454   2.205   1.745   4.614
 9852SOL    HW130455   2.183   1.650   4.595
 9852SOL    HW230456   2.170   1.803   4.539
 9853SOL     OW30457   6.190   3.394   5.309
 9853SOL    HW130458   6.253   3.369   5.383
 9853SOL    HW230459   6.187   3.320   5.241
 9854SOL     OW30460   0.426   6.132   4.475
 9854SOL    HW130461   0.407   6.217   4.426
 9854SOL    HW230462   0.377   6.056   4.432
 9855SOL     OW30463   2.255   3.392   1.253
 9855SOL    HW130464   2.177   3.452   1.235
 9855SOL    HW230465   2.338   3.447   1.261
 9856SOL     OW30466   5.173   4.436   3.846
 9856SOL    HW130467   5.187   4.391   3.934
 9856SOL    HW230468   5.191   4.534   3.856
 9857SOL     OW30469   5.061   2.560   3.032
 9857SOL    HW130470   5.095   2.467   3.013
 9857SOL    HW230471   5.095   2.590   3.122
 9858SOL     OW30472   0.460   6.448   1.405
 9858SOL    HW130473   0.510   6.398   1.334
 9858SOL    HW230474   0.433   6.538   1.370
 9859SOL     OW30475   6.611   5.562   3.487
 9859SOL    HW130476   6.607   5.638   3.422
 9859SOL    HW230477   6.593   5.596   3.579
 9860SOL     OW30478   2.450   2.057   4.676
 9860SOL    HW130479   2.401   1.981   4.632
 9860SOL    HW230480   2.411   2.143   4.644
 9861SOL     OW30481   2.639   6.977   3.446
 9861SOL    HW130482   2.600   6.911   3.383
 9861SOL    HW230483   2.738   6.966   3.448
 9862SOL     OW30484   2.493   3.446   6.871
 9862SOL    HW130485   2.441   3.367   6.837
 9862SOL    HW230486   2.581   3.452   6.824
 9863SOL     OW30487   2.577   6.028   1.293
 9863SOL    HW130488   2.554   6.125   1.291
 9863SOL    HW230489   2.648   6.013   1.362
 9864SOL     OW30490   3.317   0.478   4.479
 9864SOL    HW130491   3.222   0.509   4.486
 9864SOL    HW230492   3.336   0.451   4.384
 9865SOL     OW30493   1.345   6.470   4.528
 9865SOL    HW130494   1.375   6.382   4.563
 9865SOL    HW230495   1.424   6.531   4.519
 9866SOL     OW30496   5.996   4.533   6.072
 9866SOL    HW130497   5.907   4.533   6.116
 9866SOL    HW230498   6.003   4.613   6.011
 9867SOL     OW30499   6.968   1.553   1.767
 9867SOL    HW130500   0.008   1.611   1.821
 9867SOL    HW230501   7.007   1.539   1.676
 9868SOL     OW30502   0.280   3.340   4.509
 9868SOL    HW130503   0.254   3.298   4.422
 9868SOL    HW230504   0.349   3.411   4.493
 9869SOL     OW30505   6.981   2.543   1.495
 9869SOL    HW130506   0.051   2.541   1.454
 9869SOL    HW230507   6.914   2.503   1.432
 9870SOL     OW30508   4.200   5.801   2.555
 9870SOL    HW130509   4.101   5.792   2.547
 9870SOL    HW230510   4.243   5.714   2.532
 9871SOL     OW30511   6.507   4.677   5.682
 9871SOL    HW130512   6.532   4.612   5.610
 9871SOL    HW230513   6.529   4.639   5.771
 9872SOL     OW30514   3.248   5.436   4.600
 9872SOL    HW130515   3.209   5.375   4.531
 9872SOL    HW230516   3.210   5.528   4.589
 9873SOL     OW30517   2.009   2.663   0.767
 9873SOL    HW130518   2.040   2.581   0.817
 9873SOL    HW230519   1.993   2.639   0.672
 9874SOL     OW30520   0.083   2.956   5.767
 9874SOL    HW130521   0.024   2.957   5.687
 9874SOL    HW230522   0.166   2.904   5.747
 9875SOL     OW30523   6.162   5.975   3.001
 9875SOL    HW130524   6.230   6.044   2.975
 9875SOL    HW230525   6.143   5.983   3.098
 9876SOL     OW30526   5.415   0.249   4.057
 9876SOL    HW130527   5.514   0.262   4.053
 9876SOL    HW230528   5.394   0.184   4.129
 9877SOL     OW30529   0.182   4.488   4.242
 9877SOL    HW130530   0.126   4.475   4.324
 9877SOL    HW230531   0.181   4.584   4.216
 9878SOL     OW30532   3.158   3.210   5.857
 9878SOL    HW130533   3.224   3.162   5.915
 9878SOL    HW230534   3.080   3.150   5.839
 9879SOL     OW30535   5.543   4.822   5.536
 9879SOL    HW130536   5.578   4.857   5.623
 9879SOL    HW230537   5.488   4.893   5.491
 9880SOL     OW30538   2.753   1.119   0.819
 9880SOL    HW130539   2.738   1.079   0.910
 9880SOL    HW230540   2.841   1.087   0.783
 9881SOL     OW30541   6.931   2.045   4.551
 9881SOL    HW130542   6.915   1.950   4.527
 9881SOL    HW230543   6.995   2.050   4.628
 9882SOL     OW30544   2.914   3.801   5.770
 9882SOL    HW130545   2.860   3.782   5.688
 9882SOL    HW230546   3.006   3.828   5.743
 9883SOL     OW30547   0.856   6.660   1.250
 9883SOL    HW130548   0.827   6.754   1.230
 9883SOL    HW230549   0.821   6.633   1.340
 9884SOL     OW30550   4.423   1.409   0.836
 9884SOL    HW130551   4.337   1.359   0.837
 9884SOL    HW230552   4.417   1.488   0.897
 9885SOL     OW30553   0.503   3.347   4.754
 9885SOL    HW130554   0.554   3.265   4.728
 9885SOL    HW230555   0.547   3.389   4.834
 9886SOL     OW30556   0.785   6.256   1.611
 9886SOL    HW130557   0.885   6.264   1.610
 9886SOL    HW230558   0.753   6.258   1.705
 9887SOL     OW30559   3.665   0.211   7.013
 9887SOL    HW130560   3.686   0.178   6.921
 9887SOL    HW230561   3.667   0.311   7.014
 9888SOL     OW30562   5.834   5.117   3.284
 9888SOL    HW130563   5.816   5.159   3.373
 9888SOL    HW230564   5.932   5.122   3.264
 9889SOL     OW30565   0.286   4.742   1.782
 9889SOL    HW130566   0.220   4.674   1.751
 9889SOL    HW230567   0.329   4.710   1.866
 9890SOL     OW30568   0.442   2.835   0.790
 9890SOL    HW130569   0.477   2.837   0.884
 9890SOL    HW230570   0.397   2.748   0.772
 9891SOL     OW30571   6.006   4.469   1.300
 9891SOL    HW130572   5.986   4.372   1.290
 9891SOL    HW230573   5.940   4.510   1.363
 9892SOL     OW30574   1.445   5.402   3.200
 9892SOL    HW130575   1.416   5.413   3.105
 9892SOL    HW230576   1.495   5.317   3.209
 9893SOL     OW30577   6.317   7.006   2.170
 9893SOL    HW130578   6.261   6.942   2.117
 9893SOL    HW230579   6.414   6.988   2.152
 9894SOL     OW30580   2.914   1.800   6.214
 9894SOL    HW130581   2.974   1.793   6.134
 9894SOL    HW230582   2.950   1.870   6.276
 9895SOL     OW30583   6.243   2.640   5.376
 9895SOL    HW130584   6.238   2.620   5.474
 9895SOL    HW230585   6.157   2.613   5.333
 9896SOL     OW30586   5.193   1.847   1.024
 9896SOL    HW130587   5.222   1.783   1.095
 9896SOL    HW230588   5.147   1.925   1.066
 9897SOL     OW30589   4.704   0.600   2.879
 9897SOL    HW130590   4.695   0.545   2.962
 9897SOL    HW230591   4.630   0.667   2.876
 9898SOL     OW30592   6.855   4.628   5.327
 9898SOL    HW130593   6.854   4.529   5.311
 9898SOL    HW230594   6.831   4.676   5.242
 9899SOL     OW30595   6.751   5.670   2.504
 9899SOL    HW130596   6.681   5.647   2.571
 9899SOL    HW230597   6.711   5.726   2.431
 9900SOL     OW30598   1.589   2.441   2.684
 9900SOL    HW130599   1.589   2.509   2.610
 9900SOL    HW230600   1.505   2.387   2.680
 9901SOL     OW30601   2.003   1.066   0.065
 9901SOL    HW130602   2.049   1.132   0.124
 9901SOL    HW230603   1.996   0.978   0.111
 9902SOL     OW30604   4.123   3.912   1.320
 9902SOL    HW130605   4.208   3.865   1.343
 9902SOL    HW230606   4.119   3.926   1.221
 9903SOL     OW30607   4.980   6.903   2.143
 9903SOL    HW130608   4.926   6.970   2.195
 9903SOL    HW230609   5.004   6.942   2.054
 9904SOL     OW30610   0.339   3.877   6.726
 9904SOL    HW130611   0.319   3.866   6.823
 9904SOL    HW230612   0.299   3.963   6.693
 9905SOL     OW30613   1.397   6.748   6.622
 9905SOL    HW130614   1.325   6.736   6.691
 9905SOL    HW230615   1.362   6.806   6.548
 9906SOL     OW30616   2.125   3.458   6.888
 9906SOL    HW130617   2.154   3.553   6.896
 9906SOL    HW230618   2.061   3.437   6.962
 9907SOL     OW30619   1.483   0.513   3.649
 9907SOL    HW130620   1.515   0.607   3.661
 9907SOL    HW230621   1.519   0.475   3.564
 9908SOL     OW30622   0.645   3.596   5.787
 9908SOL    HW130623   0.696   3.549   5.715
 9908SOL    HW230624   0.690   3.580   5.875
 9909SOL     OW30625   3.164   0.275   3.174
 9909SOL    HW130626   3.074   0.304   3.206
 9909SOL    HW230627   3.189   0.327   3.092
 9910SOL     OW30628   1.453   5.091   1.560
 9910SOL    HW130629   1.493   5.110   1.471
 9910SOL    HW230630   1.390   5.164   1.585
 9911SOL     OW30631   4.223   6.062   2.468
 9911SOL    HW130632   4.188   6.125   2.536
 9911SOL    HW230633   4.192   5.969   2.489
 9912SOL     OW30634   4.011   0.885   1.227
 9912SOL    HW130635   3.933   0.825   1.246
 9912SOL    HW230636   4.095   0.839   1.254
 9913SOL     OW30637   6.012   3.980   1.747
 9913SOL    HW130638   6.081   4.008   1.680
 9913SOL    HW230639   5.958   3.904   1.709
 9914SOL     OW30640   0.848   0.776   5.570
 9914SOL    HW130641   0.939   0.768   5.529
 9914SOL    HW230642   0.840   0.864   5.616
 9915SOL     OW30643   4.913   2.869   4.168
 9915SOL    HW130644   4.999   2.868   4.116
 9915SOL    HW230645   4.836   2.877   4.104
 9916SOL     OW30646   1.883   2.459   3.522
 9916SOL    HW130647   1.955   2.498   3.579
 9916SOL    HW230648   1.914   2.373   3.482
 9917SOL     OW30649   3.274   3.648   4.523
 9917SOL    HW130650   3.342   3.654   4.596
 9917SOL    HW230651   3.198   3.710   4.543
 9918SOL     OW30652   0.702   2.148   1.630
 9918SOL    HW130653   0.681   2.220   1.696
 9918SOL    HW230654   0.776   2.091   1.666
 9919SOL     OW30655   2.480   5.756   1.152
 9919SOL    HW130656   2.481   5.715   1.243
 9919SOL    HW230657   2.407   5.824   1.147
 9920SOL     OW30658   3.357   0.056   2.467
 9920SOL    HW130659   3.269   0.076   2.424
 9920SOL    HW230660   3.354   6.986   2.509
 9921SOL     OW30661   4.731   6.580   4.647
 9921SOL    HW130662   4.671   6.510   4.610
 9921SOL    HW230663   4.723   6.663   4.592
 9922SOL     OW30664   4.759   4.735   0.880
 9922SOL    HW130665   4.703   4.678   0.940
 9922SOL    HW230666   4.710   4.820   0.859
 9923SOL     OW30667   6.917   3.313   6.590
 9923SOL    HW130668   6.942   3.240   6.653
 9923SOL    HW230669   6.822   3.303   6.563
 9924SOL     OW30670   4.823   2.251   3.636
 9924SOL    HW130671   4.816   2.230   3.734
 9924SOL    HW230672   4.850   2.168   3.586
 9925SOL     OW30673   1.525   4.456   4.137
 9925SOL    HW130674   1.449   4.476   4.076
 9925SOL    HW230675   1.510   4.501   4.225
 9926SOL     OW30676   3.533   2.470   0.599
 9926SOL    HW130677   3.511   2.493   0.504
 9926SOL    HW230678   3.481   2.529   0.661
 9927SOL     OW30679   0.914   2.086   0.592
 9927SOL    HW130680   0.840   2.040   0.641
 9927SOL    HW230681   0.954   2.157   0.650
 9928SOL     OW30682   5.415   3.660   2.597
 9928SOL    HW130683   5.367   3.700   2.518
 9928SOL    HW230684   5.364   3.680   2.681
 9929SOL     OW30685   3.851   4.281   5.151
 9929SOL    HW130686   3.932   4.282   5.093
 9929SOL    HW230687   3.820   4.186   5.164
 9930SOL     OW30688   0.613   0.284   5.962
 9930SOL    HW130689   0.577   0.222   5.893
 9930SOL    HW230690   0.602   0.244   6.053
 9931SOL     OW30691   6.876   5.486   4.677
 9931SOL    HW130692   6.852   5.431   4.597
 9931SOL    HW230693   6.966   5.527   4.664
 9932SOL     OW30694   1.541   1.396   6.863
 9932SOL    HW130695   1.577   1.304   6.846
 9932SOL    HW230696   1.617   1.458   6.882
 9933SOL     OW30697   1.607   1.175   4.275
 9933SOL    HW130698   1.674   1.248   4.286
 9933SOL    HW230699   1.519   1.214   4.248
 9934SOL     OW30700   6.001   1.560   6.766
 9934SOL    HW130701   6.061   1.515   6.832
 9934SOL    HW230702   6.029   1.656   6.755
 9935SOL     OW30703   2.317   0.801   0.373
 9935SOL    HW130704   2.296   0.898   0.387
 9935SOL    HW230705   2.375   0.791   0.293
 9936SOL     OW30706   6.838   5.345   6.836
 9936SOL    HW130707   6.911   5.300   6.887
 9936SOL    HW230708   6.779   5.395   6.899
 9937SOL     OW30709   1.672   0.998   3.496
 9937SOL    HW130710   1.744   0.979   3.429
 9937SOL    HW230711   1.708   1.060   3.566
 9938SOL     OW30712   6.035   0.251   3.919
 9938SOL    HW130713   6.084   0.176   3.964
 9938SOL    HW230714   5.990   0.216   3.837
 9939SOL     OW30715   2.212   2.476   1.104
 9939SOL    HW130716   2.166   2.558   1.136
 9939SOL    HW230717   2.304   2.472   1.143
 9940SOL     OW30718   0.776   0.712   3.685
 9940SOL    HW130719   0.779   0.643   3.757
 9940SOL    HW230720   0.865   0.718   3.640
 9941SOL     OW30721   3.005   5.727   5.454
 9941SOL    HW130722   2.978   5.646   5.506
 9941SOL    HW230723   3.092   5.710   5.407
 9942SOL     OW30724   4.909   5.678   1.657
 9942SOL    HW130725   4.854   5.755   1.688
 9942SOL    HW230726   5.003   5.688   1.689
 9943SOL     OW30727   1.081   4.118   6.690
 9943SOL    HW130728   1.093   4.141   6.593
 9943SOL    HW230729   1.024   4.036   6.697
 9944SOL     OW30730   0.366   5.604   6.553
 9944SOL    HW130731   0.320   5.634   6.469
 9944SOL    HW230732   0.307   5.622   6.631
 9945SOL     OW30733   5.513   4.197   6.607
 9945SOL    HW130734   5.500   4.105   6.572
 9945SOL    HW230735   5.442   4.257   6.570
 9946SOL     OW30736   6.050   0.286   2.931
 9946SOL    HW130737   6.041   0.187   2.920
 9946SOL    HW230738   6.061   0.308   3.028
 9947SOL     OW30739   2.283   1.627   4.315
 9947SOL    HW130740   2.377   1.662   4.314
 9947SOL    HW230741   2.220   1.700   4.342
 9948SOL     OW30742   6.798   5.605   5.637
 9948SOL    HW130743   6.766   5.684   5.689
 9948SOL    HW230744   6.877   5.564   5.683
 9949SOL     OW30745   6.893   4.934   4.192
 9949SOL    HW130746   6.820   4.986   4.148
 9949SOL    HW230747   6.854   4.871   4.259
 9950SOL     OW30748   6.881   6.068   5.793
 9950SOL    HW130749   6.890   5.983   5.845
 9950SOL    HW230750   6.904   6.052   5.697
 9951SOL     OW30751   1.927   2.410   2.587
 9951SOL    HW130752   1.995   2.353   2.542
 9951SOL    HW230753   1.881   2.357   2.658
 9952SOL     OW30754   1.759   3.779   0.627
 9952SOL    HW130755   1.699   3.733   0.692
 9952SOL    HW230756   1.758   3.878   0.645
 9953SOL     OW30757   5.249   3.120   3.789
 9953SOL    HW130758   5.220   3.146   3.881
 9953SOL    HW230759   5.346   3.096   3.791
 9954SOL     OW30760   1.538   7.002   4.998
 9954SOL    HW130761   1.505   6.992   4.905
 9954SOL    HW230762   1.630   0.021   4.997
 9955SOL     OW30763   3.912   3.723   6.703
 9955SOL    HW130764   3.894   3.635   6.659
 9955SOL    HW230765   3.928   3.793   6.634
 9956SOL     OW30766   0.461   3.746   2.429
 9956SOL    HW130767   0.364   3.738   2.449
 9956SOL    HW230768   0.512   3.757   2.514
 9957SOL     OW30769   5.850   6.972   2.006
 9957SOL    HW130770   5.859   0.011   1.926
 9957SOL    HW230771   5.870   0.004   2.089
 9958SOL     OW30772   3.371   6.284   5.843
 9958SOL    HW130773   3.394   6.198   5.890
 9958SOL    HW230774   3.366   6.358   5.910
 9959SOL     OW30775   4.143   3.312   2.333
 9959SOL    HW130776   4.175   3.386   2.274
 9959SOL    HW230777   4.115   3.234   2.278
 9960SOL     OW30778   0.784   6.235   1.320
 9960SOL    HW130779   0.879   6.206   1.316
 9960SOL    HW230780   0.750   6.227   1.414
 9961SOL     OW30781   2.146   4.458   3.183
 9961SOL    HW130782   2.165   4.555   3.195
 9961SOL    HW230783   2.223   4.414   3.137
 9962SOL     OW30784   3.886   0.527   2.324
 9962SOL    HW130785   3.793   0.508   2.295
 9962SOL    HW230786   3.936   0.572   2.251
 9963SOL     OW30787   2.719   3.135   6.223
 9963SOL    HW130788   2.739   3.232   6.215
 9963SOL    HW230789   2.701   3.096   6.133
 9964SOL     OW30790   4.304   5.216   5.783
 9964SOL    HW130791   4.298   5.211   5.883
 9964SOL    HW230792   4.332   5.127   5.746
 9965SOL     OW30793   3.191   4.905   5.101
 9965SOL    HW130794   3.095   4.906   5.129
 9965SOL    HW230795   3.198   4.929   5.004
 9966SOL     OW30796   2.050   4.722   1.710
 9966SOL    HW130797   2.117   4.675   1.653
 9966SOL    HW230798   1.990   4.777   1.653
 9967SOL     OW30799   6.258   4.971   2.511
 9967SOL    HW130800   6.159   4.969   2.504
 9967SOL    HW230801   6.287   5.057   2.555
 9968SOL     OW30802   3.807   5.868   6.396
 9968SOL    HW130803   3.839   5.885   6.303
 9968SOL    HW230804   3.712   5.840   6.394
 9969SOL     OW30805   1.335   3.310   3.573
 9969SOL    HW130806   1.346   3.237   3.640
 9969SOL    HW230807   1.410   3.306   3.506
 9970SOL     OW30808   0.262   4.744   2.337
 9970SOL    HW130809   0.211   4.666   2.301
 9970SOL    HW230810   0.226   4.768   2.427
 9971SOL     OW30811   2.478   3.954   0.570
 9971SOL    HW130812   2.465   3.903   0.655
 9971SOL    HW230813   2.405   3.931   0.505
 9972SOL     OW30814   3.495   4.711   0.865
 9972SOL    HW130815   3.510   4.614   0.883
 9972SOL    HW230816   3.498   4.762   0.952
 9973SOL     OW30817   4.133   1.831   4.715
 9973SOL    HW130818   4.039   1.811   4.743
 9973SOL    HW230819   4.176   1.889   4.785
 9974SOL     OW30820   6.447   2.920   3.044
 9974SOL    HW130821   6.474   3.016   3.051
 9974SOL    HW230822   6.375   2.910   2.975
 9975SOL     OW30823   0.169   4.731   6.880
 9975SOL    HW130824   0.125   4.668   6.816
 9975SOL    HW230825   0.266   4.740   6.856
 9976SOL     OW30826   0.073   5.076   5.101
 9976SOL    HW130827   0.169   5.061   5.124
 9976SOL    HW230828   0.031   5.138   5.167
 9977SOL     OW30829   6.649   5.368   6.105
 9977SOL    HW130830   6.628   5.435   6.176
 9977SOL    HW230831   6.660   5.278   6.146
 9978SOL     OW30832   6.361   1.757   5.189
 9978SOL    HW130833   6.390   1.759   5.285
 9978SOL    HW230834   6.270   1.716   5.183
 9979SOL     OW30835   6.331   4.321   5.949
 9979SOL    HW130836   6.233   4.313   5.932
 9979SOL    HW230837   6.362   4.412   5.924
 9980SOL     OW30838   1.458   0.880   0.265
 9980SOL    HW130839   1.419   0.923   0.183
 9980SOL    HW230840   1.498   0.951   0.323
 9981SOL     OW30841   2.950   1.635   0.299
 9981SOL    HW130842   2.908   1.718   0.335
 9981SOL    HW230843   3.041   1.656   0.262
 9982SOL     OW30844   0.658   1.894   3.862
 9982SOL    HW130845   0.755   1.871   3.859
 9982SOL    HW230846   0.626   1.915   3.770
 9983SOL     OW30847   1.145   0.985   1.672
 9983SOL    HW130848   1.173   0.890   1.657
 9983SOL    HW230849   1.198   1.024   1.748
 9984SOL     OW30850   0.475   0.096   0.339
 9984SOL    HW130851   0.468   0.180   0.393
 9984SOL    HW230852   0.554   0.044   0.371
 9985SOL     OW30853   3.573   0.077   1.439
 9985SOL    HW130854   3.529   7.017   1.400
 9985SOL    HW230855   3.666   0.053   1.467
 9986SOL     OW30856   5.235   4.438   6.896
 9986SOL    HW130857   5.289   4.503   6.842
 9986SOL    HW230858   5.266   4.345   6.876
 9987SOL     OW30859   6.275   1.838   2.138
 9987SOL    HW130860   6.336   1.902   2.092
 9987SOL    HW230861   6.299   1.745   2.113
 9988SOL     OW30862   0.126   4.799   4.437
 9988SOL    HW130863   0.114   4.874   4.502
 9988SOL    HW230864   0.143   4.714   4.487
 9989SOL     OW30865   5.728   3.646   3.304
 9989SOL    HW130866   5.684   3.576   3.248
 9989SOL    HW230867   5.813   3.676   3.260
 9990SOL     OW30868   2.513   0.518   3.582
 9990SOL    HW130869   2.576   0.508   3.505
 9990SOL    HW230870   2.499   0.429   3.625
 9991SOL     OW30871   1.409   3.000   4.484
 9991SOL    HW130872   1.476   2.937   4.521
 9991SOL    HW230873   1.373   3.058   4.558
 9992SOL     OW30874   3.743   3.575   0.674
 9992SOL    HW130875   3.678   3.556   0.601
 9992SOL    HW230876   3.694   3.599   0.758
 9993SOL     OW30877   3.846   6.292   3.018
 9993SOL    HW130878   3.812   6.332   3.103
 9993SOL    HW230879   3.797   6.331   2.941
 9994SOL     OW30880   0.095   3.689   3.374
 9994SOL    HW130881   0.177   3.683   3.317
 9994SOL    HW230882   0.020   3.730   3.321
 9995SOL     OW30883   3.090   0.034   3.621
 9995SOL    HW130884   3.117   0.106   3.685
 9995SOL    HW230885   3.131   0.052   3.531
 9996SOL     OW30886   3.069   3.118   1.018
 9996SOL    HW130887   2.989   3.071   1.057
 9996SOL    HW230888   3.105   3.182   1.085
 9997SOL     OW30889   5.004   1.316   1.257
 9997SOL    HW130890   5.093   1.355   1.280
 9997SOL    HW230891   5.011   1.216   1.256
 9998SOL     OW30892   5.220   3.995   2.627
 9998SOL    HW130893   5.124   4.004   2.655
 9998SOL    HW230894   5.234   3.904   2.588
 9999SOL     OW30895   6.670   5.741   5.322
 9999SOL    HW130896   6.578   5.712   5.347
 9999SOL    HW230897   6.664   5.829   5.273
10000SOL     OW30898   6.068   2.151   6.583
10000SOL    HW130899   6.022   2.063   6.566
10000SOL    HW230900   6.034   2.190   6.668
10001SOL     OW30901   4.308   0.531   1.457
10001SOL    HW130902   4.280   0.616   1.502
10001SOL    HW230903   4.227   0.482   1.425
10002SOL     OW30904   1.332   1.277   2.108
10002SOL    HW130905   1.377   1.230   2.184
10002SOL    HW230906   1.294   1.363   2.141
10003SOL     OW30907   3.024   2.186   2.321
10003SOL    HW130908   2.938   2.231   2.345
10003SOL    HW230909   3.025   2.168   2.223
10004SOL     OW30910   5.314   3.010   4.890
10004SOL    HW130911   5.318   3.099   4.844
10004SOL    HW230912   5.332   2.937   4.823
10005SOL     OW30913   3.744   5.366   3.094
10005SOL    HW130914   3.797   5.443   3.130
10005SOL    HW230915   3.804   5.308   3.039
10006SOL     OW30916   5.388   1.568   5.460
10006SOL    HW130917   5.340   1.497   5.511
10006SOL    HW230918   5.360   1.658   5.494
10007SOL     OW30919   0.985   3.310   4.441
10007SOL    HW130920   1.034   3.251   4.377
10007SOL    HW230921   0.890   3.279   4.448
10008SOL     OW30922   4.062   1.372   2.855
10008SOL    HW130923   4.161   1.365   2.840
10008SOL    HW230924   4.032   1.466   2.836
10009SOL     OW30925   2.150   4.213   1.696
10009SOL    HW130926   2.129   4.157   1.776
10009SOL    HW230927   2.098   4.299   1.701
10010SOL     OW30928   2.194   5.972   0.299
10010SOL    HW130929   2.164   5.883   0.264
10010SOL    HW230930   2.144   5.995   0.382
10011SOL     OW30931   0.777   3.583   6.663
10011SOL    HW130932   0.849   3.542   6.720
10011SOL    HW230933   0.721   3.643   6.720
10012SOL     OW30934   5.140   6.579   2.306
10012SOL    HW130935   5.128   6.615   2.213
10012SOL    HW230936   5.121   6.481   2.306
10013SOL     OW30937   1.840   1.832   4.474
10013SOL    HW130938   1.757   1.867   4.517
10013SOL    HW230939   1.851   1.735   4.498
10014SOL     OW30940   0.291   2.012   1.385
10014SOL    HW130941   0.367   1.972   1.334
10014SOL    HW230942   0.316   2.020   1.482
10015SOL     OW30943   4.047   5.006   0.255
10015SOL    HW130944   3.986   4.934   0.221
10015SOL    HW230945   4.068   4.989   0.351
10016SOL     OW30946   1.580   0.218   4.828
10016SOL    HW130947   1.516   0.142   4.822
10016SOL    HW230948   1.565   0.268   4.914
10017SOL     OW30949   1.977   1.426   2.496
10017SOL    HW130950   1.974   1.493   2.422
10017SOL    HW230951   2.071   1.417   2.529
10018SOL     OW30952   6.501   4.762   6.118
10018SOL    HW130953   6.561   4.800   6.047
10018SOL    HW230954   6.423   4.823   6.131
10019SOL     OW30955   0.392   1.992   3.105
10019SOL    HW130956   0.412   1.904   3.148
10019SOL    HW230957   0.477   2.034   3.073
10020SOL     OW30958   0.633   0.974   1.294
10020SOL    HW130959   0.557   0.927   1.248
10020SOL    HW230960   0.596   1.037   1.362
10021SOL     OW30961   1.041   2.053   2.539
10021SOL    HW130962   1.113   2.094   2.594
10021SOL    HW230963   0.996   1.980   2.591
10022SOL     OW30964   3.894   6.884   1.064
10022SOL    HW130965   3.967   6.884   0.996
10022SOL    HW230966   3.816   6.937   1.031
10023SOL     OW30967   2.163   4.830   5.277
10023SOL    HW130968   2.233   4.785   5.332
10023SOL    HW230969   2.204   4.870   5.195
10024SOL     OW30970   1.645   6.224   1.791
10024SOL    HW130971   1.567   6.283   1.771
10024SOL    HW230972   1.614   6.129   1.799
10025SOL     OW30973   2.203   2.273   1.782
10025SOL    HW130974   2.302   2.258   1.776
10025SOL    HW230975   2.157   2.222   1.709
10026SOL     OW30976   4.417   6.335   3.230
10026SOL    HW130977   4.319   6.314   3.226
10026SOL    HW230978   4.470   6.254   3.205
10027SOL     OW30979   1.151   3.783   5.021
10027SOL    HW130980   1.105   3.870   5.004
10027SOL    HW230981   1.243   3.800   5.056
10028SOL     OW30982   0.924   1.188   2.087
10028SOL    HW130983   0.911   1.176   2.185
10028SOL    HW230984   0.941   1.284   2.067
10029SOL     OW30985   2.338   1.823   4.002
10029SOL    HW130986   2.380   1.747   4.053
10029SOL    HW230987   2.381   1.830   3.912
10030SOL     OW30988   2.003   0.324   4.588
10030SOL    HW130989   1.908   0.308   4.563
10030SOL    HW230990   2.018   0.292   4.682
10031SOL     OW30991   5.818   4.744   3.905
10031SOL    HW130992   5.767   4.707   3.982
10031SOL    HW230993   5.864   4.828   3.932
10032SOL     OW30994   3.664   0.547   5.357
10032SOL    HW130995   3.707   0.557   5.268
10032SOL    HW230996   3.676   0.453   5.390
10033SOL     OW30997   4.275   1.524   4.176
10033SOL    HW130998   4.185   1.557   4.149
10033SOL    HW230999   4.284   1.428   4.151
10034SOL     OW31000   3.849   0.299   4.193
10034SOL    HW131001   3.783   0.223   4.202
10034SOL    HW231002   3.822   0.374   4.253
10035SOL     OW31003   0.159   4.556   2.731
10035SOL    HW131004   0.180   4.650   2.703
10035SOL    HW231005   0.177   4.546   2.829
10036SOL     OW31006   6.061   0.440   1.234
10036SOL    HW131007   5.977   0.427   1.181
10036SOL    HW231008   6.108   0.352   1.243
10037SOL     OW31009   5.708   1.726   1.088
10037SOL    HW131010   5.656   1.743   1.004
10037SOL    HW231011   5.682   1.794   1.157
10038SOL     OW31012   4.419   1.222   6.295
10038SOL    HW131013   4.475   1.139   6.296
10038SOL    HW231014   4.470   1.298   6.334
10039SOL     OW31015   4.227   6.908   5.073
10039SOL    HW131016   4.299   6.851   5.033
10039SOL    HW231017   4.173   6.854   5.138
10040SOL     OW31018   4.385   5.715   6.325
10040SOL    HW131019   4.476   5.747   6.299
10040SOL    HW231020   4.339   5.787   6.377
10041SOL     OW31021   4.244   5.888   6.464
10041SOL    HW131022   4.291   5.972   6.492
10041SOL    HW231023   4.217   5.835   6.545
10042SOL     OW31024   1.279   2.063   4.819
10042SOL    HW131025   1.316   2.151   4.789
10042SOL    HW231026   1.354   1.997   4.828
10043SOL     OW31027   0.220   2.672   4.329
10043SOL    HW131028   0.145   2.699   4.268
10043SOL    HW231029   0.203   2.580   4.363
10044SOL     OW31030   2.726   1.467   4.914
10044SOL    HW131031   2.734   1.446   4.817
10044SOL    HW231032   2.672   1.397   4.959
10045SOL     OW31033   4.869   0.171   3.443
10045SOL    HW131034   4.910   0.081   3.461
10045SOL    HW231035   4.794   0.160   3.378
10046SOL     OW31036   1.969   3.557   1.512
10046SOL    HW131037   1.973   3.626   1.439
10046SOL    HW231038   2.061   3.540   1.547
10047SOL     OW31039   6.599   3.773   5.145
10047SOL    HW131040   6.582   3.702   5.077
10047SOL    HW231041   6.517   3.830   5.154
10048SOL     OW31042   6.107   1.119   2.736
10048SOL    HW131043   6.056   1.036   2.715
10048SOL    HW231044   6.178   1.134   2.667
10049SOL     OW31045   0.062   0.384   6.604
10049SOL    HW131046   6.996   0.356   6.647
10049SOL    HW231047   0.134   0.320   6.630
10050SOL     OW31048   6.027   3.327   4.557
10050SOL    HW131049   6.115   3.355   4.596
10050SOL    HW231050   6.030   3.338   4.458
10051SOL     OW31051   5.166   2.391   5.007
10051SOL    HW131052   5.173   2.483   5.047
10051SOL    HW231053   5.088   2.389   4.944
10052SOL     OW31054   2.426   1.871   2.571
10052SOL    HW131055   2.443   1.956   2.523
10052SOL    HW231056   2.368   1.812   2.515
10053SOL     OW31057   3.144   5.868   2.505
10053SOL    HW131058   3.118   5.785   2.554
10053SOL    HW231059   3.165   5.846   2.410
10054SOL     OW31060   5.393   5.706   6.373
10054SOL    HW131061   5.318   5.680   6.313
10054SOL    HW231062   5.474   5.651   6.352
10055SOL     OW31063   5.826   2.281   4.815
10055SOL    HW131064   5.779   2.208   4.764
10055SOL    HW231065   5.924   2.261   4.819
10056SOL     OW31066   5.505   4.168   3.314
10056SOL    HW131067   5.434   4.234   3.340
10056SOL    HW231068   5.536   4.120   3.396
10057SOL     OW31069   4.108   1.883   5.024
10057SOL    HW131070   4.049   1.963   5.010
10057SOL    HW231071   4.192   1.912   5.070
10058SOL     OW31072   0.420   3.683   4.341
10058SOL    HW131073   0.353   3.628   4.291
10058SOL    HW231074   0.474   3.624   4.400
10059SOL     OW31075   6.211   0.080   1.581
10059SOL    HW131076   6.291   0.117   1.533
10059SOL    HW231077   6.231   0.075   1.679
10060SOL     OW31078   1.392   2.163   1.492
10060SOL    HW131079   1.400   2.147   1.393
10060SOL    HW231080   1.300   2.196   1.513
10061SOL     OW31081   4.323   1.323   3.637
10061SOL    HW131082   4.412   1.288   3.608
10061SOL    HW231083   4.266   1.342   3.557
10062SOL     OW31084   5.989   0.090   4.584
10062SOL    HW131085   5.949   0.011   4.539
10062SOL    HW231086   6.087   0.095   4.562
10063SOL     OW31087   2.362   0.943   3.885
10063SOL    HW131088   2.403   0.859   3.852
10063SOL    HW231089   2.370   1.014   3.815
10064SOL     OW31090   4.770   6.791   0.165
10064SOL    HW131091   4.801   6.708   0.120
10064SOL    HW231092   4.679   6.777   0.202
10065SOL     OW31093   2.269   0.443   2.215
10065SOL    HW131094   2.322   0.442   2.130
10065SOL    HW231095   2.223   0.531   2.224
10066SOL     OW31096   0.470   2.562   4.172
10066SOL    HW131097   0.412   2.537   4.249
10066SOL    HW231098   0.525   2.483   4.144
10067SOL     OW31099   7.012   4.003   5.456
10067SOL    HW131100   6.916   4.016   5.430
10067SOL    HW231101   0.009   3.905   5.468
10068SOL     OW31102   0.254   3.094   3.038
10068SOL    HW131103   0.177   3.039   3.070
10068SOL    HW231104   0.300   3.135   3.116
10069SOL     OW31105   2.349   4.920   2.457
10069SOL    HW131106   2.317   4.937   2.364
10069SOL    HW231107   2.324   4.828   2.484
10070SOL     OW31108   6.778   6.233   4.923
10070SOL    HW131109   6.752   6.146   4.881
10070SOL    HW231110   6.861   6.267   4.880
10071SOL     OW31111   6.115   5.913   4.626
10071SOL    HW131112   6.082   5.961   4.708
10071SOL    HW231113   6.157   5.979   4.564
10072SOL     OW31114   6.908   6.576   3.979
10072SOL    HW131115   6.948   6.509   3.916
10072SOL    HW231116   6.887   6.660   3.929
10073SOL     OW31117   5.883   4.618   5.158
10073SOL    HW131118   5.812   4.688   5.159
10073SOL    HW231119   5.963   4.650   5.209
10074SOL     OW31120   2.085   0.508   5.395
10074SOL    HW131121   2.085   0.492   5.296
10074SOL    HW231122   2.176   0.487   5.432
10075SOL     OW31123   1.981   2.728   2.870
10075SOL    HW131124   1.975   2.828   2.869
10075SOL    HW231125   2.035   2.697   2.791
10076SOL     OW31126   6.551   0.652   4.487
10076SOL    HW131127   6.520   0.666   4.393
10076SOL    HW231128   6.651   0.641   4.487
10077SOL     OW31129   4.059   2.750   5.996
10077SOL    HW131130   4.102   2.685   6.059
10077SOL    HW231131   3.960   2.734   5.993
10078SOL     OW31132   0.384   6.012   3.491
10078SOL    HW131133   0.411   6.028   3.397
10078SOL    HW231134   0.465   5.995   3.547
10079SOL     OW31135   5.818   3.511   4.079
10079SOL    HW131136   5.813   3.605   4.046
10079SOL    HW231137   5.732   3.486   4.124
10080SOL     OW31138   4.425   0.617   5.271
10080SOL    HW131139   4.389   0.539   5.220
10080SOL    HW231140   4.524   0.606   5.283
10081SOL     OW31141   6.727   0.591   0.545
10081SOL    HW131142   6.672   0.572   0.463
10081SOL    HW231143   6.701   0.527   0.618
10082SOL     OW31144   0.481   5.310   1.529
10082SOL    HW131145   0.486   5.384   1.461
10082SOL    HW231146   0.559   5.248   1.516
10083SOL     OW31147   3.658   0.622   3.664
10083SOL    HW131148   3.669   0.617   3.565
10083SOL    HW231149   3.745   0.604   3.709
10084SOL     OW31150   2.116   1.032   5.795
10084SOL    HW131151   2.109   1.119   5.844
10084SOL    HW231152   2.171   0.968   5.849
10085SOL     OW31153   2.375   5.300   0.841
10085SOL    HW131154   2.450   5.236   0.823
10085SOL    HW231155   2.407   5.372   0.903
10086SOL     OW31156   4.884   5.919   2.635
10086SOL    HW131157   4.864   5.956   2.545
10086SOL    HW231158   4.816   5.951   2.701
10087SOL     OW31159   6.897   6.845   4.484
10087SOL    HW131160   6.945   6.785   4.548
10087SOL    HW231161   6.801   6.855   4.513
10088SOL     OW31162   6.516   0.330   2.114
10088SOL    HW131163   6.419   0.336   2.136
10088SOL    HW231164   6.529   0.346   2.016
10089SOL     OW31165   3.104   1.880   2.744
10089SOL    HW131166   3.055   1.835   2.818
10089SOL    HW231167   3.072   1.845   2.656
10090SOL     OW31168   1.167   4.909   1.910
10090SOL    HW131169   1.150   4.978   1.839
10090SOL    HW231170   1.175   4.819   1.868
10091SOL     OW31171   0.083   4.713   6.396
10091SOL    HW131172   7.004   4.704   6.396
10091SOL    HW231173   0.113   4.742   6.305
10092SOL     OW31174   2.278   2.667   5.731
10092SOL    HW131175   2.251   2.719   5.650
10092SOL    HW231176   2.232   2.578   5.730
10093SOL     OW31177   5.924   3.215   5.116
10093SOL    HW131178   5.916   3.211   5.017
10093SOL    HW231179   6.021   3.208   5.142
10094SOL     OW31180   3.295   5.488   1.597
10094SOL    HW131181   3.200   5.457   1.599
10094SOL    HW231182   3.336   5.475   1.687
10095SOL     OW31183   5.928   2.209   5.114
10095SOL    HW131184   5.941   2.297   5.068
10095SOL    HW231185   5.931   2.223   5.213
10096SOL     OW31186   4.422   5.222   2.824
10096SOL    HW131187   4.512   5.265   2.826
10096SOL    HW231188   4.384   5.230   2.732
10097SOL     OW31189   0.633   1.527   7.020
10097SOL    HW131190   0.678   1.548   0.085
10097SOL    HW231191   0.629   1.609   6.963
10098SOL     OW31192   2.941   0.289   5.038
10098SOL    HW131193   2.970   0.373   5.085
10098SOL    HW231194   3.020   0.228   5.028
10099SOL     OW31195   0.474   5.121   1.159
10099SOL    HW131196   0.571   5.148   1.162
10099SOL    HW231197   0.457   5.070   1.075
10100SOL     OW31198   4.762   6.308   5.192
10100SOL    HW131199   4.726   6.259   5.272
10100SOL    HW231200   4.765   6.406   5.212
10101SOL     OW31201   6.128   3.758   2.148
10101SOL    HW131202   6.200   3.726   2.209
10101SOL    HW231203   6.143   3.722   2.056
10102SOL     OW31204   0.355   1.328   2.002
10102SOL    HW131205   0.413   1.291   1.929
10102SOL    HW231206   0.275   1.269   2.013
10103SOL     OW31207   3.328   0.602   5.792
10103SOL    HW131208   3.427   0.606   5.776
10103SOL    HW231209   3.283   0.560   5.714
10104SOL     OW31210   1.859   1.647   4.821
10104SOL    HW131211   1.871   1.745   4.804
10104SOL    HW231212   1.864   1.597   4.734
10105SOL     OW31213   1.688   0.742   6.718
10105SOL    HW131214   1.782   0.738   6.752
10105SOL    HW231215   1.644   0.825   6.750
10106SOL     OW31216   3.774   6.104   0.482
10106SOL    HW131217   3.871   6.122   0.498
10106SOL    HW231218   3.765   6.026   0.421
10107SOL     OW31219   5.843   1.659   5.709
10107SOL    HW131220   5.774   1.619   5.648
10107SOL    HW231221   5.821   1.756   5.724
10108SOL     OW31222   6.255   0.436   0.183
10108SOL    HW131223   6.278   0.530   0.208
10108SOL    HW231224   6.278   0.420   0.087
10109SOL     OW31225   5.703   0.933   0.497
10109SOL    HW131226   5.688   1.032   0.502
10109SOL    HW231227   5.793   0.911   0.533
10110SOL     OW31228   4.524   4.500   4.778
10110SOL    HW131229   4.565   4.440   4.709
10110SOL    HW231230   4.558   4.475   4.869
10111SOL     OW31231   5.968   3.744   4.021
10111SOL    HW131232   5.932   3.816   3.960
10111SOL    HW231233   6.034   3.688   3.970
10112SOL     OW31234   5.766   3.889   3.767
10112SOL    HW131235   5.699   3.853   3.831
10112SOL    HW231236   5.740   3.864   3.674
10113SOL     OW31237   4.385   6.837   6.557
10113SOL    HW131238   4.390   6.907   6.485
10113SOL    HW231239   4.392   6.746   6.515
10114SOL     OW31240   4.582   2.532   1.387
10114SOL    HW131241   4.574   2.499   1.481
10114SOL    HW231242   4.526   2.614   1.375
10115SOL     OW31243   3.631   0.666   4.971
10115SOL    HW131244   3.623   0.567   4.982
10115SOL    HW231245   3.687   0.686   4.891
10116SOL     OW31246   0.504   6.810   0.559
10116SOL    HW131247   0.562   6.868   0.501
10116SOL    HW231248   0.549   6.795   0.647
10117SOL     OW31249   6.975   6.238   6.013
10117SOL    HW131250   7.012   6.320   5.970
10117SOL    HW231251   6.937   6.178   5.942
10118SOL     OW31252   2.341   4.315   3.007
10118SOL    HW131253   2.339   4.226   3.052
10118SOL    HW231254   2.301   4.306   2.916
10119SOL     OW31255   0.098   5.745   4.959
10119SOL    HW131256   0.080   5.745   4.860
10119SOL    HW231257   0.037   5.680   5.004
10120SOL     OW31258   2.159   3.173   4.328
10120SOL    HW131259   2.082   3.111   4.316
10120SOL    HW231260   2.140   3.259   4.281
10121SOL     OW31261   5.876   3.793   6.886
10121SOL    HW131262   5.782   3.816   6.910
10121SOL    HW231263   5.937   3.819   6.961
10122SOL     OW31264   5.571   3.114   2.428
10122SOL    HW131265   5.542   3.067   2.344
10122SOL    HW231266   5.571   3.048   2.504
10123SOL     OW31267   5.721   5.740   0.775
10123SOL    HW131268   5.636   5.726   0.825
10123SOL    HW231269   5.723   5.680   0.695
10124SOL     OW31270   1.318   4.519   0.611
10124SOL    HW131271   1.338   4.566   0.697
10124SOL    HW231272   1.377   4.439   0.602
10125SOL     OW31273   1.617   1.429   1.952
10125SOL    HW131274   1.581   1.500   2.012
10125SOL    HW231275   1.542   1.386   1.903
10126SOL     OW31276   6.598   0.180   0.242
10126SOL    HW131277   6.516   0.219   0.284
10126SOL    HW231278   6.679   0.231   0.271
10127SOL     OW31279   2.531   3.832   6.952
10127SOL    HW131280   2.555   3.754   7.009
10127SOL    HW231281   2.607   3.853   6.890
10128SOL     OW31282   3.138   1.224   6.895
10128SOL    HW131283   3.224   1.214   6.945
10128SOL    HW231284   3.157   1.244   6.799
10129SOL     OW31285   6.388   1.392   2.717
10129SOL    HW131286   6.401   1.307   2.768
10129SOL    HW231287   6.477   1.436   2.704
10130SOL     OW31288   1.172   2.222   1.169
10130SOL    HW131289   1.271   2.215   1.170
10130SOL    HW231290   1.145   2.317   1.183
10131SOL     OW31291   1.960   6.719   4.578
10131SOL    HW131292   2.021   6.641   4.561
10131SOL    HW231293   2.014   6.803   4.584
10132SOL     OW31294   3.357   0.432   3.729
10132SOL    HW131295   3.332   0.499   3.799
10132SOL    HW231296   3.425   0.472   3.668
10133SOL     OW31297   4.024   6.169   0.576
10133SOL    HW131298   4.045   6.265   0.554
10133SOL    HW231299   3.957   6.165   0.650
10134SOL     OW31300   6.416   0.487   2.612
10134SOL    HW131301   6.380   0.576   2.638
10134SOL    HW231302   6.352   0.416   2.642
10135SOL     OW31303   4.920   3.484   3.413
10135SOL    HW131304   4.890   3.395   3.378
10135SOL    HW231305   4.910   3.553   3.342
10136SOL     OW31306   5.064   1.928   2.606
10136SOL    HW131307   5.006   1.980   2.543
10136SOL    HW231308   5.031   1.941   2.699
10137SOL     OW31309   0.329   3.894   4.201
10137SOL    HW131310   0.230   3.893   4.216
10137SOL    HW231311   0.371   3.818   4.251
10138SOL     OW31312   5.422   3.685   0.507
10138SOL    HW131313   5.406   3.596   0.464
10138SOL    HW231314   5.476   3.674   0.590
10139SOL     OW31315   3.154   3.508   3.218
10139SOL    HW131316   3.061   3.472   3.220
10139SOL    HW231317   3.213   3.451   3.274
10140SOL     OW31318   0.126   6.510   0.105
10140SOL    HW131319   0.073   6.594   0.108
10140SOL    HW231320   0.128   6.475   0.011
10141SOL     OW31321   4.218   1.065   5.762
10141SOL    HW131322   4.191   1.041   5.668
10141SOL    HW231323   4.145   1.119   5.804
10142SOL     OW31324   6.349   6.950   5.908
10142SOL    HW131325   6.308   6.882   5.847
10142SOL    HW231326   6.436   6.981   5.869
10143SOL     OW31327   5.612   1.911   0.371
10143SOL    HW131328   5.574   1.948   0.456
10143SOL    HW231329   5.611   1.811   0.375
10144SOL     OW31330   3.953   6.976   6.489
10144SOL    HW131331   4.003   6.914   6.550
10144SOL    HW231332   4.005   6.989   6.405
10145SOL     OW31333   2.971   5.666   2.798
10145SOL    HW131334   2.947   5.751   2.751
10145SOL    HW231335   2.940   5.671   2.893
10146SOL     OW31336   4.751   4.056   5.005
10146SOL    HW131337   4.739   4.062   4.906
10146SOL    HW231338   4.803   3.974   5.027
10147SOL     OW31339   5.016   4.395   6.481
10147SOL    HW131340   4.935   4.364   6.529
10147SOL    HW231341   5.029   4.493   6.497
10148SOL     OW31342   4.760   4.938   6.563
10148SOL    HW131343   4.857   4.926   6.587
10148SOL    HW231344   4.703   4.912   6.641
10149SOL     OW31345   5.350   3.808   1.829
10149SOL    HW131346   5.283   3.733   1.828
10149SOL    HW231347   5.409   3.799   1.909
10150SOL     OW31348   3.687   3.166   1.036
10150SOL    HW131349   3.739   3.251   1.026
10150SOL    HW231350   3.698   3.130   1.129
10151SOL     OW31351   0.810   5.856   0.315
10151SOL    HW131352   0.792   5.761   0.291
10151SOL    HW231353   0.893   5.863   0.369
10152SOL     OW31354   6.633   6.516   4.031
10152SOL    HW131355   6.631   6.450   4.107
10152SOL    HW231356   6.723   6.559   4.026
10153SOL     OW31357   4.520   5.765   3.354
10153SOL    HW131358   4.577   5.845   3.373
10153SOL    HW231359   4.571   5.702   3.295
10154SOL     OW31360   3.675   5.971   4.637
10154SOL    HW131361   3.682   5.902   4.709
10154SOL    HW231362   3.598   5.950   4.577
10155SOL     OW31363   4.299   2.347   6.426
10155SOL    HW131364   4.305   2.425   6.488
10155SOL    HW231365   4.301   2.262   6.479
10156SOL     OW31366   4.919   0.697   2.323
10156SOL    HW131367   4.983   0.754   2.271
10156SOL    HW231368   4.842   0.753   2.353
10157SOL     OW31369   6.832   2.375   0.152
10157SOL    HW131370   6.776   2.443   0.105
10157SOL    HW231371   6.772   2.302   0.186
10158SOL     OW31372   6.410   5.866   0.716
10158SOL    HW131373   6.509   5.880   0.707
10158SOL    HW231374   6.384   5.870   0.812
10159SOL     OW31375   2.782   2.420   1.182
10159SOL    HW131376   2.864   2.465   1.148
10159SOL    HW231377   2.795   2.391   1.277
10160SOL     OW31378   1.413   2.761   2.273
10160SOL    HW131379   1.321   2.783   2.240
10160SOL    HW231380   1.456   2.844   2.308
10161SOL     OW31381   3.598   4.053   0.474
10161SOL    HW131382   3.564   3.979   0.534
10161SOL    HW231383   3.530   4.126   0.469
10162SOL     OW31384   3.748   4.944   0.661
10162SOL    HW131385   3.693   4.995   0.728
10162SOL    HW231386   3.843   4.940   0.692
10163SOL     OW31387   6.821   3.741   0.282
10163SOL    HW131388   6.892   3.701   0.224
10163SOL    HW231389   6.755   3.671   0.307
10164SOL     OW31390   6.205   3.867   4.930
10164SOL    HW131391   6.198   3.801   5.005
10164SOL    HW231392   6.217   3.959   4.967
10165SOL     OW31393   6.586   1.374   3.652
10165SOL    HW131394   6.521   1.450   3.640
10165SOL    HW231395   6.679   1.408   3.641
10166SOL     OW31396   3.186   2.133   1.510
10166SOL    HW131397   3.098   2.094   1.538
10166SOL    HW231398   3.223   2.188   1.585
10167SOL     OW31399   0.963   5.059   0.169
10167SOL    HW131400   0.940   5.012   0.084
10167SOL    HW231401   1.019   4.999   0.226
10168SOL     OW31402   6.155   2.422   6.526
10168SOL    HW131403   6.100   2.449   6.447
10168SOL    HW231404   6.124   2.333   6.559
10169SOL     OW31405   0.391   4.177   3.337
10169SOL    HW131406   0.292   4.186   3.320
10169SOL    HW231407   0.425   4.259   3.382
10170SOL     OW31408   6.676   5.810   6.120
10170SOL    HW131409   6.659   5.861   6.204
10170SOL    HW231410   6.599   5.750   6.100
10171SOL     OW31411   0.782   2.580   4.849
10171SOL    HW131412   0.876   2.546   4.852
10171SOL    HW231413   0.749   2.577   4.754
10172SOL     OW31414   1.087   5.438   5.006
10172SOL    HW131415   1.098   5.460   4.909
10172SOL    HW231416   0.993   5.406   5.022
10173SOL     OW31417   1.838   2.242   0.566
10173SOL    HW131418   1.862   2.162   0.620
10173SOL    HW231419   1.867   2.325   0.615
10174SOL     OW31420   5.238   5.199   3.459
10174SOL    HW131421   5.265   5.216   3.365
10174SOL    HW231422   5.318   5.202   3.519
10175SOL     OW31423   5.214   3.038   2.895
10175SOL    HW131424   5.280   2.965   2.916
10175SOL    HW231425   5.209   3.102   2.972
10176SOL     OW31426   0.377   3.028   5.192
10176SOL    HW131427   0.304   3.097   5.195
10176SOL    HW231428   0.431   3.040   5.109
10177SOL     OW31429   1.887   0.760   1.247
10177SOL    HW131430   1.915   0.770   1.152
10177SOL    HW231431   1.927   0.677   1.285
10178SOL     OW31432   0.028   0.544   6.965
10178SOL    HW131433   0.111   0.581   6.923
10178SOL    HW231434   6.969   0.575   6.913
10179SOL     OW31435   0.487   2.628   6.989
10179SOL    HW131436   0.501   2.530   7.003
10179SOL    HW231437   0.394   2.643   6.954
10180SOL     OW31438   4.280   0.284   6.558
10180SOL    HW131439   4.236   0.373   6.566
10180SOL    HW231440   4.329   0.278   6.471
10181SOL     OW31441   6.587   3.302   1.230
10181SOL    HW131442   6.664   3.300   1.167
10181SOL    HW231443   6.614   3.260   1.317
10182SOL     OW31444   4.361   1.036   0.866
10182SOL    HW131445   4.413   1.086   0.796
10182SOL    HW231446   4.331   0.948   0.829
10183SOL     OW31447   6.451   2.638   5.891
10183SOL    HW131448   6.393   2.577   5.838
10183SOL    HW231449   6.417   2.643   5.985
10184SOL     OW31450   4.535   1.453   6.392
10184SOL    HW131451   4.514   1.449   6.489
10184SOL    HW231452   4.470   1.513   6.345
10185SOL     OW31453   6.031   6.325   2.968
10185SOL    HW131454   5.950   6.384   2.966
10185SOL    HW231455   6.108   6.376   3.006
10186SOL     OW31456   5.063   3.936   4.564
10186SOL    HW131457   5.146   3.884   4.584
10186SOL    HW231458   5.001   3.880   4.510
10187SOL     OW31459   1.399   3.927   6.861
10187SOL    HW131460   1.369   3.901   6.769
10187SOL    HW231461   1.456   4.009   6.856
10188SOL     OW31462   3.708   4.291   6.865
10188SOL    HW131463   3.712   4.285   6.765
10188SOL    HW231464   3.636   4.356   6.891
10189SOL     OW31465   6.930   1.498   6.885
10189SOL    HW131466   6.975   1.442   6.955
10189SOL    HW231467   6.906   1.440   6.807
10190SOL     OW31468   3.808   3.434   1.074
10190SOL    HW131469   3.888   3.481   1.036
10190SOL    HW231470   3.808   3.444   1.173
10191SOL     OW31471   4.645   5.519   6.499
10191SOL    HW131472   4.683   5.517   6.591
10191SOL    HW231473   4.588   5.438   6.485
10192SOL     OW31474   4.169   1.011   5.469
10192SOL    HW131475   4.199   0.956   5.390
10192SOL    HW231476   4.197   1.106   5.456
10193SOL     OW31477   3.773   3.267   2.179
10193SOL    HW131478   3.771   3.364   2.202
10193SOL    HW231479   3.761   3.213   2.262
10194SOL     OW31480   5.018   0.633   5.685
10194SOL    HW131481   5.034   0.552   5.628
10194SOL    HW231482   4.980   0.706   5.630
10195SOL     OW31483   6.828   6.685   0.467
10195SOL    HW131484   6.753   6.670   0.531
10195SOL    HW231485   6.829   6.611   0.399
10196SOL     OW31486   3.507   2.151   4.115
10196SOL    HW131487   3.606   2.163   4.127
10196SOL    HW231488   3.486   2.146   4.018
10197SOL     OW31489   5.719   2.101   4.634
10197SOL    HW131490   5.659   2.026   4.664
10197SOL    HW231491   5.775   2.070   4.558
10198SOL     OW31492   3.462   6.754   2.236
10198SOL    HW131493   3.446   6.762   2.138
10198SOL    HW231494   3.444   6.660   2.265
10199SOL     OW31495   1.027   2.287   0.735
10199SOL    HW131496   1.007   2.371   0.784
10199SOL    HW231497   1.042   2.213   0.800
10200SOL     OW31498   4.714   3.377   5.328
10200SOL    HW131499   4.633   3.337   5.371
10200SOL    HW231500   4.687   3.457   5.274
10201SOL     OW31501   1.209   5.635   0.189
10201SOL    HW131502   1.235   5.693   0.112
10201SOL    HW231503   1.269   5.555   0.192
10202SOL     OW31504   3.063   4.391   0.172
10202SOL    HW131505   3.037   4.475   0.221
10202SOL    HW231506   3.073   4.316   0.237
10203SOL     OW31507   6.475   3.095   2.112
10203SOL    HW131508   6.515   3.024   2.055
10203SOL    HW231509   6.534   3.112   2.191
10204SOL     OW31510   4.083   5.386   6.490
10204SOL    HW131511   4.109   5.396   6.586
10204SOL    HW231512   4.068   5.476   6.450
10205SOL     OW31513   2.583   0.622   2.144
10205SOL    HW131514   2.658   0.592   2.086
10205SOL    HW231515   2.511   0.662   2.088
10206SOL     OW31516   6.760   0.251   6.414
10206SOL    HW131517   6.816   0.320   6.368
10206SOL    HW231518   6.664   0.276   6.405
10207SOL     OW31519   1.211   1.869   0.110
10207SOL    HW131520   1.156   1.923   0.173
10207SOL    HW231521   1.155   1.793   0.074
10208SOL     OW31522   6.579   5.649   3.741
10208SOL    HW131523   6.660   5.617   3.790
10208SOL    HW231524   6.508   5.578   3.745
10209SOL     OW31525   6.971   6.758   6.431
10209SOL    HW131526   0.048   6.750   6.449
10209SOL    HW231527   6.942   6.853   6.443
10210SOL     OW31528   4.984   6.375   0.570
10210SOL    HW131529   4.995   6.424   0.656
10210SOL    HW231530   4.890   6.342   0.562
10211SOL     OW31531   4.128   6.248   4.764
10211SOL    HW131532   4.172   6.337   4.777
10211SOL    HW231533   4.190   6.176   4.794
10212SOL     OW31534   6.931   6.667   5.652
10212SOL    HW131535   6.833   6.651   5.663
10212SOL    HW231536   6.952   6.676   5.555
10213SOL     OW31537   5.184   3.237   2.116
10213SOL    HW131538   5.228   3.168   2.173
10213SOL    HW231539   5.084   3.228   2.124
10214SOL     OW31540   0.767   1.738   1.456
10214SOL    HW131541   0.799   1.769   1.546
10214SOL    HW231542   0.804   1.797   1.385
10215SOL     OW31543   3.516   2.905   3.723
10215SOL    HW131544   3.421   2.922   3.750
10215SOL    HW231545   3.575   2.911   3.803
10216SOL     OW31546   0.566   1.179   0.796
10216SOL    HW131547   0.520   1.267   0.808
10216SOL    HW231548   0.498   1.107   0.782
10217SOL     OW31549   1.811   2.341   3.871
10217SOL    HW131550   1.743   2.293   3.815
10217SOL    HW231551   1.812   2.438   3.846
10218SOL     OW31552   1.502   0.694   1.667
10218SOL    HW131553   1.591   0.700   1.622
10218SOL    HW231554   1.506   0.737   1.757
10219SOL     OW31555   0.321   2.307   2.691
10219SOL    HW131556   0.303   2.271   2.599
10219SOL    HW231557   0.360   2.234   2.748
10220SOL     OW31558   3.827   1.486   1.830
10220SOL    HW131559   3.904   1.431   1.797
10220SOL    HW231560   3.856   1.541   1.908
10221SOL     OW31561   1.718   3.560   4.606
10221SOL    HW131562   1.793   3.502   4.640
10221SOL    HW231563   1.669   3.512   4.534
10222SOL     OW31564   2.741   3.790   5.549
10222SOL    HW131565   2.766   3.800   5.453
10222SOL    HW231566   2.642   3.790   5.559
10223SOL     OW31567   2.620   5.017   0.282
10223SOL    HW131568   2.623   4.921   0.311
10223SOL    HW231569   2.602   5.021   0.184
10224SOL     OW31570   6.452   2.135   5.639
10224SOL    HW131571   6.499   2.051   5.665
10224SOL    HW231572   6.354   2.116   5.627
10225SOL     OW31573   2.185   5.727   6.236
10225SOL    HW131574   2.280   5.698   6.225
10225SOL    HW231575   2.179   5.797   6.307
10226SOL     OW31576   2.058   0.511   6.170
10226SOL    HW131577   2.079   0.420   6.132
10226SOL    HW231578   1.961   0.532   6.153
10227SOL     OW31579   4.881   4.344   0.439
10227SOL    HW131580   4.824   4.368   0.517
10227SOL    HW231581   4.902   4.426   0.385
10228SOL     OW31582   1.458   5.684   1.999
10228SOL    HW131583   1.440   5.729   2.086
10228SOL    HW231584   1.459   5.585   2.012
10229SOL     OW31585   1.680   2.037   4.313
10229SOL    HW131586   1.629   1.963   4.268
10229SOL    HW231587   1.768   2.050   4.266
10230SOL     OW31588   6.526   6.857   3.494
10230SOL    HW131589   6.506   6.760   3.504
10230SOL    HW231590   6.523   6.882   3.397
10231SOL     OW31591   6.062   5.180   5.680
10231SOL    HW131592   6.127   5.107   5.660
10231SOL    HW231593   6.108   5.252   5.732
10232SOL     OW31594   2.968   1.996   4.286
10232SOL    HW131595   3.017   2.083   4.292
10232SOL    HW231596   2.907   1.987   4.364
10233SOL     OW31597   4.469   3.782   5.821
10233SOL    HW131598   4.470   3.846   5.898
10233SOL    HW231599   4.557   3.735   5.816
10234SOL     OW31600   6.327   0.617   6.765
10234SOL    HW131601   6.389   0.588   6.693
10234SOL    HW231602   6.254   0.673   6.726
10235SOL     OW31603   3.320   2.259   0.603
10235SOL    HW131604   3.394   2.325   0.591
10235SOL    HW231605   3.358   2.173   0.637
10236SOL     OW31606   1.726   1.035   1.601
10236SOL    HW131607   1.819   1.005   1.578
10236SOL    HW231608   1.712   1.128   1.567
10237SOL     OW31609   0.204   4.155   6.590
10237SOL    HW131610   0.161   4.118   6.672
10237SOL    HW231611   0.136   4.204   6.536
10238SOL     OW31612   4.010   3.922   2.429
10238SOL    HW131613   4.099   3.965   2.418
10238SOL    HW231614   3.939   3.992   2.436
10239SOL     OW31615   2.239   3.612   5.466
10239SOL    HW131616   2.303   3.598   5.390
10239SOL    HW231617   2.148   3.631   5.430
10240SOL     OW31618   2.009   4.545   2.879
10240SOL    HW131619   1.956   4.483   2.821
10240SOL    HW231620   2.086   4.495   2.920
10241SOL     OW31621   6.719   6.606   2.813
10241SOL    HW131622   6.651   6.542   2.847
10241SOL    HW231623   6.680   6.698   2.810
10242SOL     OW31624   0.428   1.403   1.422
10242SOL    HW131625   0.468   1.489   1.388
10242SOL    HW231626   0.403   1.414   1.518
10243SOL     OW31627   2.016   4.880   1.958
10243SOL    HW131628   1.955   4.816   2.005
10243SOL    HW231629   2.084   4.829   1.906
10244SOL     OW31630   1.509   4.330   0.556
10244SOL    HW131631   1.537   4.363   0.466
10244SOL    HW231632   1.494   4.231   0.553
10245SOL     OW31633   3.282   5.032   0.489
10245SOL    HW131634   3.299   4.958   0.554
10245SOL    HW231635   3.365   5.085   0.477
10246SOL     OW31636   3.437   3.553   3.351
10246SOL    HW131637   3.525   3.595   3.333
10246SOL    HW231638   3.429   3.468   3.300
10247SOL     OW31639   6.513   4.538   5.952
10247SOL    HW131640   6.594   4.502   5.999
10247SOL    HW231641   6.467   4.603   6.012
10248SOL     OW31642   1.647   6.974   3.125
10248SOL    HW131643   1.643   6.875   3.140
10248SOL    HW231644   1.697   6.993   3.040
10249SOL     OW31645   2.522   6.805   6.824
10249SOL    HW131646   2.550   6.794   6.728
10249SOL    HW231647   2.590   6.762   6.883
10250SOL     OW31648   6.158   3.377   1.833
10250SOL    HW131649   6.080   3.322   1.862
10250SOL    HW231650   6.228   3.376   1.905
10251SOL     OW31651   2.387   1.347   4.622
10251SOL    HW131652   2.487   1.346   4.631
10251SOL    HW231653   2.347   1.338   4.713
10252SOL     OW31654   4.086   4.976   6.933
10252SOL    HW131655   4.082   4.886   6.890
10252SOL    HW231656   4.022   4.980   7.009
10253SOL     OW31657   2.938   6.830   0.598
10253SOL    HW131658   2.923   6.833   0.500
10253SOL    HW231659   2.909   6.742   0.635
10254SOL     OW31660   5.226   0.786   5.410
10254SOL    HW131661   5.213   0.738   5.324
10254SOL    HW231662   5.271   0.726   5.476
10255SOL     OW31663   1.631   6.463   0.885
10255SOL    HW131664   1.597   6.455   0.978
10255SOL    HW231665   1.696   6.538   0.879
10256SOL     OW31666   5.544   0.968   1.686
10256SOL    HW131667   5.620   0.963   1.621
10256SOL    HW231668   5.561   1.042   1.751
10257SOL     OW31669   2.272   4.842   4.793
10257SOL    HW131670   2.291   4.845   4.695
10257SOL    HW231671   2.347   4.794   4.839
10258SOL     OW31672   3.497   1.006   3.909
10258SOL    HW131673   3.473   0.999   4.006
10258SOL    HW231674   3.596   1.017   3.901
10259SOL     OW31675   0.897   4.622   3.193
10259SOL    HW131676   0.802   4.650   3.205
10259SOL    HW231677   0.931   4.582   3.279
10260SOL     OW31678   0.925   1.078   3.977
10260SOL    HW131679   0.837   1.045   4.009
10260SOL    HW231680   0.975   1.120   4.053
10261SOL     OW31681   0.126   5.340   3.333
10261SOL    HW131682   0.221   5.316   3.315
10261SOL    HW231683   0.077   5.348   3.246
10262SOL     OW31684   2.118   0.076   5.279
10262SOL    HW131685   2.160   0.038   5.196
10262SOL    HW231686   2.036   0.127   5.253
10263SOL     OW31687   5.254   0.827   6.806
10263SOL    HW131688   5.327   0.887   6.839
10263SOL    HW231689   5.290   0.767   6.735
10264SOL     OW31690   5.832   0.779   6.688
10264SOL    HW131691   5.800   0.729   6.768
10264SOL    HW231692   5.785   0.746   6.606
10265SOL     OW31693   2.032   2.316   2.122
10265SOL    HW131694   2.045   2.411   2.091
10265SOL    HW231695   2.056   2.309   2.218
10266SOL     OW31696   3.917   3.040   3.713
10266SOL    HW131697   4.014   3.060   3.728
10266SOL    HW231698   3.871   3.121   3.676
10267SOL     OW31699   5.945   2.223   6.814
10267SOL    HW131700   5.921   2.139   6.863
10267SOL    HW231701   5.946   2.300   6.877
10268SOL     OW31702   5.999   5.802   2.377
10268SOL    HW131703   6.098   5.797   2.367
10268SOL    HW231704   5.956   5.764   2.295
10269SOL     OW31705   0.704   3.205   6.894
10269SOL    HW131706   0.792   3.233   6.930
10269SOL    HW231707   0.641   3.282   6.895
10270SOL     OW31708   3.852   4.911   2.984
10270SOL    HW131709   3.901   4.847   2.924
10270SOL    HW231710   3.842   4.999   2.937
10271SOL     OW31711   3.511   2.600   5.708
10271SOL    HW131712   3.581   2.649   5.655
10271SOL    HW231713   3.425   2.599   5.656
10272SOL     OW31714   0.819   1.346   4.618
10272SOL    HW131715   0.898   1.286   4.629
10272SOL    HW231716   0.753   1.304   4.556
10273SOL     OW31717   2.914   5.939   2.650
10273SOL    HW131718   2.924   6.037   2.667
10273SOL    HW231719   2.987   5.909   2.588
10274SOL     OW31720   0.078   5.636   4.590
10274SOL    HW131721   0.165   5.682   4.609
10274SOL    HW231722   0.076   5.606   4.495
10275SOL     OW31723   0.244   6.726   1.575
10275SOL    HW131724   0.201   6.747   1.488
10275SOL    HW231725   0.282   6.810   1.615
10276SOL     OW31726   5.664   5.065   5.254
10276SOL    HW131727   5.638   5.098   5.345
10276SOL    HW231728   5.761   5.084   5.238
10277SOL     OW31729   2.013   5.044   3.667
10277SOL    HW131730   2.044   4.960   3.621
10277SOL    HW231731   1.994   5.114   3.598
10278SOL     OW31732   0.247   1.574   4.680
10278SOL    HW131733   0.202   1.497   4.634
10278SOL    HW231734   0.243   1.561   4.779
10279SOL     OW31735   3.147   5.234   3.616
10279SOL    HW131736   3.225   5.263   3.672
10279SOL    HW231737   3.155   5.136   3.596
10280SOL     OW31738   0.151   2.914   0.836
10280SOL    HW131739   0.243   2.877   0.847
10280SOL    HW231740   0.132   2.979   0.910
10281SOL     OW31741   6.003   1.607   2.531
10281SOL    HW131742   6.033   1.701   2.519
10281SOL    HW231743   6.069   1.559   2.589
10282SOL     OW31744   5.079   4.094   4.781
10282SOL    HW131745   5.057   4.022   4.715
10282SOL    HW231746   5.113   4.053   4.865
10283SOL     OW31747   1.085   3.195   0.429
10283SOL    HW131748   1.130   3.120   0.478
10283SOL    HW231749   1.027   3.158   0.357
10284SOL     OW31750   4.788   3.012   5.103
10284SOL    HW131751   4.871   3.032   5.050
10284SOL    HW231752   4.779   3.079   5.176
10285SOL     OW31753   5.709   0.335   2.392
10285SOL    HW131754   5.695   0.404   2.321
10285SOL    HW231755   5.633   0.270   2.391
10286SOL     OW31756   3.124   1.871   3.985
10286SOL    HW131757   3.204   1.826   4.025
10286SOL    HW231758   3.104   1.955   4.035
10287SOL     OW31759   1.916   0.150   1.090
10287SOL    HW131760   1.926   0.066   1.142
10287SOL    HW231761   1.930   0.131   0.993
10288SOL     OW31762   4.616   6.728   3.582
10288SOL    HW131763   4.564   6.808   3.613
10288SOL    HW231764   4.561   6.675   3.518
10289SOL     OW31765   1.669   6.435   1.376
10289SOL    HW131766   1.643   6.427   1.280
10289SOL    HW231767   1.586   6.436   1.433
10290SOL     OW31768   3.555   3.921   2.374
10290SOL    HW131769   3.572   3.906   2.277
10290SOL    HW231770   3.517   3.838   2.414
10291SOL     OW31771   3.981   1.652   2.859
10291SOL    HW131772   3.996   1.692   2.769
10291SOL    HW231773   3.892   1.606   2.861
10292SOL     OW31774   1.376   0.534   5.203
10292SOL    HW131775   1.317   0.462   5.243
10292SOL    HW231776   1.441   0.565   5.272
10293SOL     OW31777   2.271   4.101   3.146
10293SOL    HW131778   2.179   4.106   3.108
10293SOL    HW231779   2.293   4.006   3.169
10294SOL     OW31780   5.375   2.834   2.942
10294SOL    HW131781   5.343   2.746   2.906
10294SOL    HW231782   5.380   2.829   3.041
10295SOL     OW31783   6.056   4.786   5.965
10295SOL    HW131784   6.153   4.811   5.959
10295SOL    HW231785   6.005   4.860   6.008
10296SOL     OW31786   4.864   1.925   0.681
10296SOL    HW131787   4.864   1.923   0.781
10296SOL    HW231788   4.927   1.996   0.649
10297SOL     OW31789   2.088   6.559   6.535
10297SOL    HW131790   2.093   6.470   6.489
10297SOL    HW231791   2.051   6.627   6.472
10298SOL     OW31792   2.978   4.429   1.319
10298SOL    HW131793   3.037   4.383   1.254
10298SOL    HW231794   2.929   4.361   1.374
10299SOL     OW31795   4.902   5.358   3.172
10299SOL    HW131796   4.858   5.378   3.260
10299SOL    HW231797   4.998   5.384   3.177
10300SOL     OW31798   1.090   4.002   3.517
10300SOL    HW131799   1.083   3.907   3.549
10300SOL    HW231800   1.029   4.060   3.572
10301SOL     OW31801   5.548   2.740   4.485
10301SOL    HW131802   5.590   2.820   4.442
10301SOL    HW231803   5.541   2.666   4.418
10302SOL     OW31804   2.538   6.325   4.310
10302SOL    HW131805   2.534   6.387   4.388
10302SOL    HW231806   2.604   6.361   4.243
10303SOL     OW31807   1.827   6.198   2.404
10303SOL    HW131808   1.903   6.198   2.469
10303SOL    HW231809   1.817   6.290   2.366
10304SOL     OW31810   5.500   6.895   1.882
10304SOL    HW131811   5.493   6.931   1.975
10304SOL    HW231812   5.467   6.964   1.817
10305SOL     OW31813   0.752   4.422   6.889
10305SOL    HW131814   0.839   4.440   6.842
10305SOL    HW231815   0.723   4.328   6.871
10306SOL     OW31816   4.849   7.018   6.146
10306SOL    HW131817   4.785   6.957   6.192
10306SOL    HW231818   4.806   0.087   6.133
10307SOL     OW31819   2.821   2.168   5.418
10307SOL    HW131820   2.891   2.191   5.350
10307SOL    HW231821   2.812   2.245   5.482
10308SOL     OW31822   2.667   4.926   3.608
10308SOL    HW131823   2.685   4.993   3.680
10308SOL    HW231824   2.735   4.853   3.614
10309SOL     OW31825   6.982   1.658   5.056
10309SOL    HW131826   0.055   1.625   5.048
10309SOL    HW231827   6.979   1.756   5.036
10310SOL     OW31828   3.350   4.030   1.454
10310SOL    HW131829   3.261   4.013   1.498
10310SOL    HW231830   3.359   4.128   1.435
10311SOL     OW31831   0.691   6.387   0.512
10311SOL    HW131832   0.602   6.426   0.488
10311SOL    HW231833   0.719   6.321   0.442
10312SOL     OW31834   3.200   6.164   2.335
10312SOL    HW131835   3.139   6.216   2.274
10312SOL    HW231836   3.245   6.091   2.284
10313SOL     OW31837   4.890   6.719   1.552
10313SOL    HW131838   4.799   6.678   1.549
10313SOL    HW231839   4.919   6.742   1.459
10314SOL     OW31840   6.348   0.619   1.768
10314SOL    HW131841   6.323   0.627   1.864
10314SOL    HW231842   6.375   0.709   1.733
10315SOL     OW31843   5.496   6.104   4.804
10315SOL    HW131844   5.501   6.023   4.863
10315SOL    HW231845   5.419   6.093   4.740
10316SOL     OW31846   6.847   2.724   4.246
10316SOL    HW131847   6.855   2.699   4.342
10316SOL    HW231848   6.938   2.721   4.203
10317SOL     OW31849   3.663   5.421   5.116
10317SOL    HW131850   3.621   5.396   5.028
10317SOL    HW231851   3.645   5.349   5.183
10318SOL     OW31852   5.221   5.912   6.058
10318SOL    HW131853   5.318   5.939   6.066
10318SOL    HW231854   5.207   5.824   6.103
10319SOL     OW31855   1.716   2.200   5.803
10319SOL    HW131856   1.789   2.266   5.783
10319SOL    HW231857   1.627   2.241   5.785
10320SOL     OW31858   0.308   0.412   3.262
10320SOL    HW131859   0.303   0.509   3.237
10320SOL    HW231860   0.393   0.395   3.312
10321SOL     OW31861   3.783   1.095   2.618
10321SOL    HW131862   3.771   1.012   2.672
10321SOL    HW231863   3.863   1.145   2.652
10322SOL     OW31864   6.548   5.933   6.325
10322SOL    HW131865   6.466   5.877   6.331
10322SOL    HW231866   6.523   6.030   6.332
10323SOL     OW31867   6.275   3.777   5.826
10323SOL    HW131868   6.241   3.855   5.773
10323SOL    HW231869   6.265   3.796   5.923
10324SOL     OW31870   3.238   2.938   2.630
10324SOL    HW131871   3.150   2.892   2.643
10324SOL    HW231872   3.300   2.913   2.704
10325SOL     OW31873   0.051   3.659   2.995
10325SOL    HW131874   6.995   3.693   2.940
10325SOL    HW231875   0.016   3.625   3.083
10326SOL     OW31876   4.264   3.374   0.466
10326SOL    HW131877   4.310   3.306   0.408
10326SOL    HW231878   4.173   3.392   0.430
10327SOL     OW31879   2.713   2.425   1.753
10327SOL    HW131880   2.780   2.451   1.822
10327SOL    HW231881   2.712   2.326   1.743
10328SOL     OW31882   5.919   2.280   1.540
10328SOL    HW131883   5.930   2.370   1.582
10328SOL    HW231884   6.007   2.231   1.541
10329SOL     OW31885   3.277   0.427   3.454
10329SOL    HW131886   3.322   0.509   3.417
10329SOL    HW231887   3.249   0.445   3.548
10330SOL     OW31888   4.204   6.827   2.266
10330SOL    HW131889   4.160   6.887   2.333
10330SOL    HW231890   4.261   6.882   2.204
10331SOL     OW31891   6.936   1.513   4.767
10331SOL    HW131892   6.928   1.480   4.861
10331SOL    HW231893   7.004   1.458   4.718
10332SOL     OW31894   6.223   0.948   1.112
10332SOL    HW131895   6.147   1.007   1.140
10332SOL    HW231896   6.192   0.853   1.109
10333SOL     OW31897   6.497   4.535   4.890
10333SOL    HW131898   6.411   4.485   4.897
10333SOL    HW231899   6.511   4.590   4.973
10334SOL     OW31900   3.812   6.316   3.741
10334SOL    HW131901   3.811   6.254   3.663
10334SOL    HW231902   3.783   6.408   3.712
10335SOL     OW31903   2.777   4.177   6.734
10335SOL    HW131904   2.753   4.237   6.658
10335SOL    HW231905   2.852   4.117   6.707
10336SOL     OW31906   6.112   0.020   2.930
10336SOL    HW131907   6.206   0.005   2.961
10336SOL    HW231908   6.086   6.968   2.866
10337SOL     OW31909   6.931   6.527   5.929
10337SOL    HW131910   6.886   6.532   5.840
10337SOL    HW231911   6.862   6.521   6.002
10338SOL     OW31912   2.409   6.263   1.827
10338SOL    HW131913   2.377   6.321   1.752
10338SOL    HW231914   2.425   6.319   1.908
10339SOL     OW31915   2.860   5.469   0.240
10339SOL    HW131916   2.773   5.472   0.289
10339SOL    HW231917   2.882   5.374   0.216
10340SOL     OW31918   1.170   5.541   1.019
10340SOL    HW131919   1.268   5.522   1.026
10340SOL    HW231920   1.154   5.640   1.025
10341SOL     OW31921   1.966   3.430   2.001
10341SOL    HW131922   2.061   3.400   1.993
10341SOL    HW231923   1.916   3.366   2.060
10342SOL     OW31924   1.135   6.714   4.902
10342SOL    HW131925   1.129   6.680   4.808
10342SOL    HW231926   1.175   6.644   4.961
10343SOL     OW31927   2.988   4.991   0.132
10343SOL    HW131928   2.967   5.089   0.135
10343SOL    HW231929   3.080   4.975   0.169
10344SOL     OW31930   4.024   4.583   1.707
10344SOL    HW131931   4.087   4.629   1.769
10344SOL    HW231932   3.930   4.614   1.726
10345SOL     OW31933   1.902   1.095   6.822
10345SOL    HW131934   1.958   1.090   6.904
10345SOL    HW231935   1.908   1.187   6.783
10346SOL     OW31936   5.906   0.042   1.323
10346SOL    HW131937   5.863   6.987   1.371
10346SOL    HW231938   5.889   0.127   1.372
10347SOL     OW31939   5.297   2.230   2.376
10347SOL    HW131940   5.273   2.171   2.453
10347SOL    HW231941   5.392   2.257   2.383
10348SOL     OW31942   6.459   1.285   0.314
10348SOL    HW131943   6.487   1.283   0.410
10348SOL    HW231944   6.496   1.367   0.270
10349SOL     OW31945   6.678   1.449   1.561
10349SOL    HW131946   6.709   1.509   1.488
10349SOL    HW231947   6.724   1.360   1.553
10350SOL     OW31948   2.330   6.113   5.591
10350SOL    HW131949   2.242   6.071   5.612
10350SOL    HW231950   2.350   6.102   5.493
10351SOL     OW31951   4.542   5.228   6.251
10351SOL    HW131952   4.498   5.317   6.262
10351SOL    HW231953   4.506   5.183   6.169
10352SOL     OW31954   4.855   2.117   0.145
10352SOL    HW131955   4.846   2.051   0.220
10352SOL    HW231956   4.778   2.106   0.082
10353SOL     OW31957   6.653   2.538   5.675
10353SOL    HW131958   6.574   2.519   5.616
10353SOL    HW231959   6.641   2.628   5.717
10354SOL     OW31960   5.979   2.036   2.157
10354SOL    HW131961   5.920   2.099   2.107
10354SOL    HW231962   6.039   1.988   2.093
10355SOL     OW31963   2.040   0.614   2.052
10355SOL    HW131964   2.094   0.566   1.982
10355SOL    HW231965   1.947   0.627   2.018
10356SOL     OW31966   6.724   4.197   5.761
10356SOL    HW131967   6.805   4.254   5.748
10356SOL    HW231968   6.658   4.246   5.819
10357SOL     OW31969   2.982   2.867   6.612
10357SOL    HW131970   2.887   2.895   6.628
10357SOL    HW231971   3.012   2.900   6.523
10358SOL     OW31972   6.150   3.613   3.860
10358SOL    HW131973   6.194   3.526   3.838
10358SOL    HW231974   6.148   3.671   3.779
10359SOL     OW31975   6.207   1.442   1.786
10359SOL    HW131976   6.130   1.470   1.729
10359SOL    HW231977   6.291   1.443   1.732
10360SOL     OW31978   4.695   5.490   1.622
10360SOL    HW131979   4.771   5.554   1.628
10360SOL    HW231980   4.622   5.519   1.684
10361SOL     OW31981   2.764   1.303   2.937
10361SOL    HW131982   2.851   1.333   2.974
10361SOL    HW231983   2.777   1.266   2.845
10362SOL     OW31984   0.484   5.748   3.872
10362SOL    HW131985   0.424   5.673   3.899
10362SOL    HW231986   0.551   5.765   3.945
10363SOL     OW31987   4.587   2.704   0.781
10363SOL    HW131988   4.651   2.689   0.705
10363SOL    HW231989   4.637   2.738   0.860
10364SOL     OW31990   3.452   3.734   1.785
10364SOL    HW131991   3.529   3.672   1.803
10364SOL    HW231992   3.453   3.760   1.688
10365SOL     OW31993   5.102   4.299   5.497
10365SOL    HW131994   5.090   4.395   5.471
10365SOL    HW231995   5.077   4.287   5.593
10366SOL     OW31996   4.064   0.179   4.320
10366SOL    HW131997   3.990   0.227   4.272
10366SOL    HW231998   4.028   0.138   4.403
10367SOL     OW31999   6.876   2.092   2.399
10367SOL    HW132000   6.818   2.068   2.321
10367SOL    HW232001   6.954   2.146   2.366
10368SOL     OW32002   2.398   1.018   2.424
10368SOL    HW132003   2.466   0.971   2.368
10368SOL    HW232004   2.338   0.952   2.467
10369SOL     OW32005   3.052   1.350   5.652
10369SOL    HW132006   2.985   1.280   5.628
10369SOL    HW232007   3.110   1.370   5.573
10370SOL     OW32008   5.586   1.265   5.168
10370SOL    HW132009   5.516   1.225   5.110
10370SOL    HW232010   5.586   1.220   5.257
10371SOL     OW32011   2.373   5.941   4.747
10371SOL    HW132012   2.323   5.952   4.833
10371SOL    HW232013   2.451   5.881   4.762
10372SOL     OW32014   1.757   1.095   0.248
10372SOL    HW132015   1.821   1.018   0.240
10372SOL    HW232016   1.677   1.078   0.191
10373SOL     OW32017   1.773   6.511   5.284
10373SOL    HW132018   1.821   6.426   5.303
10373SOL    HW232019   1.680   6.491   5.253
10374SOL     OW32020   2.825   1.204   3.416
10374SOL    HW132021   2.876   1.254   3.487
10374SOL    HW232022   2.749   1.261   3.384
10375SOL     OW32023   2.460   1.998   6.306
10375SOL    HW132024   2.507   2.039   6.228
10375SOL    HW232025   2.506   2.026   6.391
10376SOL     OW32026   1.238   5.648   3.640
10376SOL    HW132027   1.332   5.613   3.650
10376SOL    HW232028   1.175   5.589   3.690
10377SOL     OW32029   6.170   1.047   3.414
10377SOL    HW132030   6.264   1.016   3.398
10377SOL    HW232031   6.108   0.969   3.405
10378SOL     OW32032   5.613   6.811   5.274
10378SOL    HW132033   5.685   6.865   5.232
10378SOL    HW232034   5.590   6.733   5.214
10379SOL     OW32035   3.645   6.773   4.140
10379SOL    HW132036   3.567   6.779   4.203
10379SOL    HW232037   3.619   6.811   4.051
10380SOL     OW32038   0.731   2.124   5.104
10380SOL    HW132039   0.706   2.219   5.087
10380SOL    HW232040   0.756   2.080   5.018
10381SOL     OW32041   3.969   4.885   0.830
10381SOL    HW132042   3.990   4.969   0.880
10381SOL    HW232043   4.053   4.830   0.820
10382SOL     OW32044   2.193   4.747   1.188
10382SOL    HW132045   2.220   4.843   1.187
10382SOL    HW232046   2.124   4.732   1.259
10383SOL     OW32047   0.616   3.998   1.080
10383SOL    HW132048   0.538   3.998   1.018
10383SOL    HW232049   0.656   3.906   1.082
10384SOL     OW32050   6.927   0.381   1.118
10384SOL    HW132051   6.992   0.452   1.142
10384SOL    HW232052   6.975   0.296   1.099
10385SOL     OW32053   3.939   6.301   5.620
10385SOL    HW132054   3.872   6.294   5.694
10385SOL    HW232055   4.030   6.280   5.656
10386SOL     OW32056   6.642   1.810   5.371
10386SOL    HW132057   6.549   1.847   5.365
10386SOL    HW232058   6.639   1.720   5.414
10387SOL     OW32059   4.793   1.741   2.202
10387SOL    HW132060   4.724   1.781   2.261
10387SOL    HW232061   4.838   1.665   2.250
10388SOL     OW32062   2.000   5.590   2.238
10388SOL    HW132063   1.989   5.492   2.218
10388SOL    HW232064   1.935   5.642   2.183
10389SOL     OW32065   6.949   6.446   1.374
10389SOL    HW132066   0.015   6.408   1.409
10389SOL    HW232067   6.884   6.371   1.358
10390SOL     OW32068   1.867   2.472   1.288
10390SOL    HW132069   1.837   2.565   1.268
10390SOL    HW232070   1.945   2.475   1.351
10391SOL     OW32071   0.273   6.471   4.086
10391SOL    HW132072   0.314   6.489   3.997
10391SOL    HW232073   0.244   6.557   4.128
10392SOL     OW32074   6.699   4.359   6.208
10392SOL    HW132075   6.647   4.430   6.254
10392SOL    HW232076   6.652   4.271   6.219
10393SOL     OW32077   2.623   2.351   2.756
10393SOL    HW132078   2.599   2.448   2.765
10393SOL    HW232079   2.695   2.329   2.821
10394SOL     OW32080   2.209   5.953   5.004
10394SOL    HW132081   2.307   5.963   5.025
10394SOL    HW232082   2.182   5.858   5.019
10395SOL     OW32083   6.997   0.991   3.637
10395SOL    HW132084   6.906   0.985   3.677
10395SOL    HW232085   0.045   0.968   3.707
10396SOL     OW32086   3.271   1.178   3.893
10396SOL    HW132087   3.193   1.114   3.888
10396SOL    HW232088   3.356   1.126   3.889
10397SOL     OW32089   2.868   1.584   4.482
10397SOL    HW132090   2.947   1.563   4.539
10397SOL    HW232091   2.898   1.637   4.402
10398SOL     OW32092   5.002   2.146   0.571
10398SOL    HW132093   5.062   2.187   0.503
10398SOL    HW232094   5.015   2.193   0.659
10399SOL     OW32095   4.328   1.558   4.453
10399SOL    HW132096   4.277   1.555   4.368
10399SOL    HW232097   4.271   1.598   4.525
10400SOL     OW32098   4.158   5.687   0.330
10400SOL    HW132099   4.147   5.614   0.263
10400SOL    HW232100   4.255   5.694   0.356
10401SOL     OW32101   6.941   0.043   2.337
10401SOL    HW132102   6.878   0.120   2.326
10401SOL    HW232103   6.988   0.050   2.425
10402SOL     OW32104   0.234   2.186   6.029
10402SOL    HW132105   0.223   2.190   5.929
10402SOL    HW232106   0.255   2.277   6.064
10403SOL     OW32107   4.332   1.451   3.028
10403SOL    HW132108   4.255   1.515   3.025
10403SOL    HW232109   4.390   1.473   3.106
10404SOL     OW32110   6.858   0.103   4.451
10404SOL    HW132111   6.868   0.004   4.451
10404SOL    HW232112   6.832   0.134   4.543
10405SOL     OW32113   1.409   5.618   4.813
10405SOL    HW132114   1.477   5.636   4.883
10405SOL    HW232115   1.452   5.572   4.735
10406SOL     OW32116   2.040   3.262   5.281
10406SOL    HW132117   2.075   3.351   5.252
10406SOL    HW232118   1.968   3.275   5.349
10407SOL     OW32119   2.250   0.630   6.517
10407SOL    HW132120   2.287   0.712   6.475
10407SOL    HW232121   2.152   0.641   6.531
10408SOL     OW32122   4.236   5.920   2.025
10408SOL    HW132123   4.228   5.986   2.100
10408SOL    HW232124   4.209   5.964   1.939
10409SOL     OW32125   0.990   3.960   0.743
10409SOL    HW132126   0.939   4.035   0.701
10409SOL    HW232127   0.970   3.875   0.695
10410SOL     OW32128   5.513   2.383   1.466
10410SOL    HW132129   5.447   2.422   1.401
10410SOL    HW232130   5.547   2.296   1.431
10411SOL     OW32131   3.706   5.784   4.862
10411SOL    HW132132   3.633   5.746   4.805
10411SOL    HW232133   3.762   5.709   4.898
10412SOL     OW32134   6.837   1.078   0.633
10412SOL    HW132135   6.866   0.982   0.629
10412SOL    HW232136   6.914   1.134   0.665
10413SOL     OW32137   0.131   1.620   1.571
10413SOL    HW132138   0.090   1.710   1.588
10413SOL    HW232139   0.215   1.611   1.624
10414SOL     OW32140   3.836   5.785   5.773
10414SOL    HW132141   3.834   5.695   5.816
10414SOL    HW232142   3.930   5.817   5.766
10415SOL     OW32143   1.628   4.440   3.858
10415SOL    HW132144   1.676   4.358   3.827
10415SOL    HW232145   1.610   4.433   3.956
10416SOL     OW32146   6.075   0.080   5.398
10416SOL    HW132147   6.032   0.141   5.464
10416SOL    HW232148   6.019   7.018   5.387
10417SOL     OW32149   4.833   5.447   4.663
10417SOL    HW132150   4.745   5.494   4.670
10417SOL    HW232151   4.894   5.479   4.735
10418SOL     OW32152   6.063   3.955   5.959
10418SOL    HW132153   6.024   3.979   6.049
10418SOL    HW232154   6.141   4.015   5.940
10419SOL     OW32155   3.441   0.076   5.316
10419SOL    HW132156   3.479   0.103   5.227
10419SOL    HW232157   3.482   7.011   5.346
10420SOL     OW32158   6.866   4.224   3.984
10420SOL    HW132159   6.933   4.150   3.970
10420SOL    HW232160   6.857   4.277   3.900
10421SOL     OW32161   1.847   3.159   4.556
10421SOL    HW132162   1.760   3.110   4.560
10421SOL    HW232163   1.839   3.235   4.491
10422SOL     OW32164   6.884   3.575   4.814
10422SOL    HW132165   6.785   3.581   4.802
10422SOL    HW232166   6.908   3.482   4.843
10423SOL     OW32167   4.564   5.267   5.147
10423SOL    HW132168   4.516   5.195   5.197
10423SOL    HW232169   4.660   5.268   5.173
10424SOL     OW32170   3.922   3.104   0.264
10424SOL    HW132171   3.924   3.012   0.225
10424SOL    HW232172   3.844   3.113   0.326
10425SOL     OW32173   0.987   5.772   2.424
10425SOL    HW132174   1.000   5.796   2.520
10425SOL    HW232175   1.002   5.853   2.367
10426SOL     OW32176   5.468   4.556   6.115
10426SOL    HW132177   5.539   4.497   6.077
10426SOL    HW232178   5.392   4.500   6.148
10427SOL     OW32179   5.205   0.836   0.279
10427SOL    HW132180   5.190   0.796   0.188
10427SOL    HW232181   5.220   0.764   0.346
10428SOL     OW32182   3.130   1.528   4.130
10428SOL    HW132183   3.078   1.502   4.048
10428SOL    HW232184   3.074   1.587   4.188
10429SOL     OW32185   0.919   3.819   2.952
10429SOL    HW132186   0.929   3.893   2.886
10429SOL    HW232187   0.859   3.749   2.914
10430SOL     OW32188   3.537   6.683   4.994
10430SOL    HW132189   3.566   6.623   4.920
10430SOL    HW232190   3.439   6.675   5.008
10431SOL     OW32191   2.873   6.587   4.377
10431SOL    HW132192   2.886   6.612   4.281
10431SOL    HW232193   2.961   6.579   4.422
10432SOL     OW32194   6.769   1.541   5.159
10432SOL    HW132195   6.855   1.585   5.132
10432SOL    HW232196   6.783   1.442   5.167
10433SOL     OW32197   0.357   6.636   2.640
10433SOL    HW132198   0.329   6.653   2.734
10433SOL    HW232199   0.351   6.721   2.587
10434SOL     OW32200   3.072   6.385   4.155
10434SOL    HW132201   3.083   6.484   4.156
10434SOL    HW232202   3.151   6.342   4.197
10435SOL     OW32203   2.040   2.224   6.005
10435SOL    HW132204   1.984   2.146   5.974
10435SOL    HW232205   2.137   2.203   5.993
10436SOL     OW32206   6.365   3.848   4.696
10436SOL    HW132207   6.416   3.934   4.689
10436SOL    HW232208   6.329   3.838   4.788
10437SOL     OW32209   6.290   4.932   5.982
10437SOL    HW132210   6.369   4.936   5.922
10437SOL    HW232211   6.294   5.007   6.048
10438SOL     OW32212   1.067   6.403   5.746
10438SOL    HW132213   1.038   6.355   5.829
10438SOL    HW232214   1.143   6.465   5.768
10439SOL     OW32215   5.291   1.443   4.983
10439SOL    HW132216   5.303   1.481   5.074
10439SOL    HW232217   5.313   1.346   4.984
10440SOL     OW32218   0.242   0.124   0.151
10440SOL    HW132219   0.338   0.134   0.178
10440SOL    HW232220   0.232   0.044   0.093
10441SOL     OW32221   2.703   1.450   1.424
10441SOL    HW132222   2.721   1.390   1.346
10441SOL    HW232223   2.605   1.467   1.431
10442SOL     OW32224   4.408   6.661   5.106
10442SOL    HW132225   4.393   6.582   5.167
10442SOL    HW232226   4.474   6.723   5.147
10443SOL     OW32227   5.269   2.278   3.083
10443SOL    HW132228   5.317   2.292   3.170
10443SOL    HW232229   5.283   2.183   3.053
10444SOL     OW32230   3.819   5.787   2.196
10444SOL    HW132231   3.778   5.843   2.268
10444SOL    HW232232   3.831   5.841   2.113
10445SOL     OW32233   0.699   3.566   3.077
10445SOL    HW132234   0.700   3.625   3.158
10445SOL    HW232235   0.667   3.617   2.998
10446SOL     OW32236   2.234   3.435   6.166
10446SOL    HW132237   2.214   3.392   6.078
10446SOL    HW232238   2.266   3.365   6.230
10447SOL     OW32239   0.379   0.365   2.994
10447SOL    HW132240   0.372   0.436   2.924
10447SOL    HW232241   0.370   0.405   3.085
10448SOL     OW32242   3.995   0.688   2.118
10448SOL    HW132243   4.005   0.602   2.068
10448SOL    HW232244   3.974   0.761   2.053
10449SOL     OW32245   1.799   5.496   6.253
10449SOL    HW132246   1.795   5.459   6.161
10449SOL    HW232247   1.713   5.478   6.300
10450SOL     OW32248   7.015   1.758   6.889
10450SOL    HW132249   6.996   1.660   6.891
10450SOL    HW232250   6.978   1.798   6.805
10451SOL     OW32251   2.532   6.001   3.183
10451SOL    HW132252   2.498   6.094   3.170
10451SOL    HW232253   2.568   5.967   3.096
10452SOL     OW32254   6.135   2.796   3.020
10452SOL    HW132255   6.103   2.875   3.072
10452SOL    HW232256   6.137   2.716   3.079
10453SOL     OW32257   5.956   6.316   1.792
10453SOL    HW132258   6.031   6.365   1.836
10453SOL    HW232259   5.938   6.356   1.702
10454SOL     OW32260   5.741   2.418   0.244
10454SOL    HW132261   5.740   2.318   0.248
10454SOL    HW232262   5.749   2.455   0.337
10455SOL     OW32263   6.962   6.398   3.462
10455SOL    HW132264   6.870   6.406   3.502
10455SOL    HW232265   7.019   6.343   3.522
10456SOL     OW32266   1.150   4.911   0.848
10456SOL    HW132267   1.213   4.834   0.860
10456SOL    HW232268   1.199   4.990   0.811
10457SOL     OW32269   3.928   2.828   0.193
10457SOL    HW132270   3.853   2.762   0.191
10457SOL    HW232271   3.958   2.847   0.099
10458SOL     OW32272   6.286   0.204   5.754
10458SOL    HW132273   6.380   0.174   5.774
10458SOL    HW232274   6.223   0.155   5.814
10459SOL     OW32275   4.886   6.000   1.132
10459SOL    HW132276   4.815   6.040   1.074
10459SOL    HW232277   4.866   5.903   1.147
10460SOL     OW32278   1.501   4.351   1.564
10460SOL    HW132279   1.434   4.365   1.637
10460SOL    HW232280   1.587   4.397   1.590
10461SOL     OW32281   6.039   4.850   5.248
10461SOL    HW132282   5.985   4.848   5.333
10461SOL    HW232283   6.002   4.921   5.187
10462SOL     OW32284   5.470   2.413   2.922
10462SOL    HW132285   5.380   2.389   2.959
10462SOL    HW232286   5.469   2.403   2.823
10463SOL     OW32287   4.310   2.509   5.966
10463SOL    HW132288   4.273   2.554   6.047
10463SOL    HW232289   4.317   2.410   5.983
10464SOL     OW32290   6.466   6.593   2.214
10464SOL    HW132291   6.520   6.517   2.177
10464SOL    HW232292   6.372   6.562   2.227
10465SOL     OW32293   5.815   5.695   1.185
10465SOL    HW132294   5.811   5.793   1.168
10465SOL    HW232295   5.737   5.668   1.242
10466SOL     OW32296   4.557   4.645   5.383
10466SOL    HW132297   4.648   4.672   5.414
10466SOL    HW232298   4.524   4.711   5.315
10467SOL     OW32299   2.314   2.055   0.193
10467SOL    HW132300   2.377   2.053   0.270
10467SOL    HW232301   2.255   2.135   0.199
10468SOL     OW32302   3.911   4.929   3.342
10468SOL    HW132303   3.827   4.929   3.287
10468SOL    HW232304   3.895   4.980   3.426
10469SOL     OW32305   3.692   4.205   5.490
10469SOL    HW132306   3.773   4.147   5.479
10469SOL    HW232307   3.708   4.271   5.563
10470SOL     OW32308   1.696   1.951   3.430
10470SOL    HW132309   1.772   1.896   3.465
10470SOL    HW232310   1.704   2.044   3.465
10471SOL     OW32311   2.238   0.347   0.335
10471SOL    HW132312   2.317   0.398   0.367
10471SOL    HW232313   2.257   0.249   0.339
10472SOL     OW32314   2.897   5.922   0.385
10472SOL    HW132315   2.969   5.888   0.445
10472SOL    HW232316   2.809   5.884   0.414
10473SOL     OW32317   5.993   6.962   6.407
10473SOL    HW132318   5.995   6.881   6.464
10473SOL    HW232319   6.032   6.941   6.317
10474SOL     OW32320   4.347   1.219   4.194
10474SOL    HW132321   4.369   1.126   4.162
10474SOL    HW232322   4.269   1.215   4.256
10475SOL     OW32323   4.289   6.441   1.615
10475SOL    HW132324   4.259   6.449   1.520
10475SOL    HW232325   4.231   6.498   1.674
10476SOL     OW32326   6.321   6.302   6.645
10476SOL    HW132327   6.418   6.288   6.665
10476SOL    HW232328   6.277   6.213   6.632
10477SOL     OW32329   6.805   1.285   4.675
10477SOL    HW132330   6.871   1.357   4.697
10477SOL    HW232331   6.827   1.203   4.728
10478SOL     OW32332   6.440   0.703   0.684
10478SOL    HW132333   6.377   0.779   0.698
10478SOL    HW232334   6.508   0.728   0.615
10479SOL     OW32335   7.003   1.393   2.574
10479SOL    HW132336   6.995   1.493   2.569
10479SOL    HW232337   6.914   1.354   2.599
10480SOL     OW32338   0.915   0.512   2.217
10480SOL    HW132339   0.836   0.474   2.264
10480SOL    HW232340   0.979   0.550   2.283
10481SOL     OW32341   2.083   5.763   3.948
10481SOL    HW132342   2.137   5.839   3.911
10481SOL    HW232343   2.143   5.686   3.970
10482SOL     OW32344   6.554   5.132   4.503
10482SOL    HW132345   6.563   5.062   4.574
10482SOL    HW232346   6.498   5.096   4.428
10483SOL     OW32347   6.303   5.306   0.115
10483SOL    HW132348   6.289   5.328   0.211
10483SOL    HW232349   6.284   5.208   0.100
10484SOL     OW32350   5.450   1.604   1.683
10484SOL    HW132351   5.512   1.525   1.683
10484SOL    HW232352   5.440   1.638   1.776
10485SOL     OW32353   3.219   3.966   0.717
10485SOL    HW132354   3.231   3.870   0.693
10485SOL    HW232355   3.243   4.023   0.639
10486SOL     OW32356   0.156   0.599   0.302
10486SOL    HW132357   0.173   0.519   0.245
10486SOL    HW232358   0.064   0.635   0.283
10487SOL     OW32359   4.914   0.642   1.247
10487SOL    HW132360   4.893   0.621   1.151
10487SOL    HW232361   4.913   0.741   1.260
10488SOL     OW32362   3.428   1.117   6.298
10488SOL    HW132363   3.497   1.186   6.276
10488SOL    HW232364   3.423   1.051   6.224
10489SOL     OW32365   1.039   6.688   5.565
10489SOL    HW132366   1.068   6.764   5.623
10489SOL    HW232367   0.971   6.633   5.614
10490SOL     OW32368   5.763   1.286   1.422
10490SOL    HW132369   5.781   1.349   1.346
10490SOL    HW232370   5.756   1.192   1.387
10491SOL     OW32371   1.972   2.620   0.501
10491SOL    HW132372   2.056   2.574   0.471
10491SOL    HW232373   1.895   2.587   0.446
10492SOL     OW32374   5.791   4.945   6.019
10492SOL    HW132375   5.801   4.856   6.063
10492SOL    HW232376   5.700   4.952   5.977
10493SOL     OW32377   3.047   0.692   2.267
10493SOL    HW132378   3.070   0.771   2.324
10493SOL    HW232379   3.013   0.618   2.325
10494SOL     OW32380   5.503   4.087   6.048
10494SOL    HW132381   5.411   4.073   6.010
10494SOL    HW232382   5.560   4.135   5.981
10495SOL     OW32383   1.515   6.836   6.981
10495SOL    HW132384   1.566   6.914   7.017
10495SOL    HW232385   1.418   6.859   6.974
10496SOL     OW32386   0.219   3.998   6.154
10496SOL    HW132387   0.308   4.042   6.168
10496SOL    HW232388   0.202   3.989   6.056
10497SOL     OW32389   2.125   6.766   2.021
10497SOL    HW132390   2.203   6.772   2.083
10497SOL    HW232391   2.156   6.738   1.931
10498SOL     OW32392   3.396   5.688   0.758
10498SOL    HW132393   3.300   5.664   0.776
10498SOL    HW232394   3.454   5.612   0.786
10499SOL     OW32395   3.768   0.103   2.298
10499SOL    HW132396   3.694   0.171   2.299
10499SOL    HW232397   3.729   0.012   2.314
10500SOL     OW32398   5.979   1.516   6.457
10500SOL    HW132399   5.960   1.422   6.427
10500SOL    HW232400   5.952   1.527   6.552
10501SOL     OW32401   2.040   5.609   2.502
10501SOL    HW132402   2.029   5.581   2.407
10501SOL    HW232403   2.006   5.702   2.513
10502SOL     OW32404   2.273   0.322   1.604
10502SOL    HW132405   2.352   0.308   1.663
10502SOL    HW232406   2.267   0.419   1.579
10503SOL     OW32407   4.364   2.558   0.573
10503SOL    HW132408   4.398   2.567   0.667
10503SOL    HW232409   4.427   2.502   0.520
10504SOL     OW32410   0.598   2.230   5.453
10504SOL    HW132411   0.547   2.153   5.416
10504SOL    HW232412   0.694   2.204   5.465
10505SOL     OW32413   5.705   5.099   0.515
10505SOL    HW132414   5.800   5.120   0.493
10505SOL    HW232415   5.656   5.074   0.432
10506SOL     OW32416   0.242   4.444   0.660
10506SOL    HW132417   0.306   4.496   0.716
10506SOL    HW232418   0.149   4.476   0.677
10507SOL     OW32419   2.226   6.652   0.371
10507SOL    HW132420   2.133   6.623   0.391
10507SOL    HW232421   2.233   6.682   0.276
10508SOL     OW32422   6.073   6.460   4.796
10508SOL    HW132423   6.005   6.516   4.843
10508SOL    HW232424   6.040   6.438   4.704
10509SOL     OW32425   1.138   5.316   4.129
10509SOL    HW132426   1.170   5.394   4.074
10509SOL    HW232427   1.050   5.340   4.171
10510SOL     OW32428   4.478   6.193   6.023
10510SOL    HW132429   4.525   6.133   5.958
10510SOL    HW232430   4.452   6.141   6.104
10511SOL     OW32431   4.073   1.319   2.458
10511SOL    HW132432   4.101   1.259   2.533
10511SOL    HW232433   3.979   1.296   2.431
10512SOL     OW32434   4.167   0.243   6.041
10512SOL    HW132435   4.156   0.227   5.943
10512SOL    HW232436   4.126   0.330   6.065
10513SOL     OW32437   6.210   2.491   4.847
10513SOL    HW132438   6.156   2.413   4.812
10513SOL    HW232439   6.153   2.573   4.846
10514SOL     OW32440   0.548   4.089   0.582
10514SOL    HW132441   0.564   4.108   0.484
10514SOL    HW232442   0.450   4.084   0.600
10515SOL     OW32443   0.875   3.362   3.135
10515SOL    HW132444   0.822   3.277   3.143
10515SOL    HW232445   0.814   3.439   3.120
10516SOL     OW32446   3.794   1.284   0.051
10516SOL    HW132447   3.887   1.248   0.063
10516SOL    HW232448   3.759   1.315   0.139
10517SOL     OW32449   1.185   2.484   2.495
10517SOL    HW132450   1.138   2.570   2.477
10517SOL    HW232451   1.250   2.465   2.421
10518SOL     OW32452   0.913   5.932   6.454
10518SOL    HW132453   0.882   5.877   6.376
10518SOL    HW232454   0.991   5.886   6.498
10519SOL     OW32455   2.633   3.588   0.087
10519SOL    HW132456   2.636   3.589   0.187
10519SOL    HW232457   2.596   3.500   0.056
10520SOL     OW32458   0.622   2.622   6.271
10520SOL    HW132459   0.593   2.683   6.344
10520SOL    HW232460   0.720   2.634   6.255
10521SOL     OW32461   6.636   6.518   2.462
10521SOL    HW132462   6.587   6.539   2.377
10521SOL    HW232463   6.676   6.427   2.455
10522SOL     OW32464   0.491   0.407   5.582
10522SOL    HW132465   0.540   0.325   5.553
10522SOL    HW232466   0.464   0.398   5.677
10523SOL     OW32467   0.027   4.895   3.657
10523SOL    HW132468   0.101   4.873   3.720
10523SOL    HW232469   0.064   4.928   3.571
10524SOL     OW32470   1.599   0.392   5.047
10524SOL    HW132471   1.509   0.436   5.043
10524SOL    HW232472   1.656   0.438   5.115
10525SOL     OW32473   3.378   6.194   6.690
10525SOL    HW132474   3.362   6.278   6.742
10525SOL    HW232475   3.469   6.196   6.649
10526SOL     OW32476   1.546   6.953   3.913
10526SOL    HW132477   1.451   6.930   3.937
10526SOL    HW232478   1.596   6.979   3.996
10527SOL     OW32479   0.456   1.735   4.736
10527SOL    HW132480   0.406   1.821   4.739
10527SOL    HW232481   0.398   1.663   4.698
10528SOL     OW32482   1.605   3.434   6.181
10528SOL    HW132483   1.584   3.489   6.261
10528SOL    HW232484   1.666   3.484   6.120
10529SOL     OW32485   3.414   5.550   3.680
10529SOL    HW132486   3.334   5.611   3.671
10529SOL    HW232487   3.383   5.460   3.710
10530SOL     OW32488   2.019   6.921   6.649
10530SOL    HW132489   2.061   6.865   6.720
10530SOL    HW232490   2.073   6.914   6.565
10531SOL     OW32491   1.404   2.947   3.932
10531SOL    HW132492   1.462   3.008   3.878
10531SOL    HW232493   1.434   2.949   4.027
10532SOL     OW32494   1.118   5.731   5.296
10532SOL    HW132495   1.135   5.713   5.199
10532SOL    HW232496   1.112   5.830   5.311
10533SOL     OW32497   2.991   0.724   5.020
10533SOL    HW132498   2.988   0.800   5.084
10533SOL    HW232499   3.017   0.757   4.930
10534SOL     OW32500   6.999   6.008   1.385
10534SOL    HW132501   0.053   6.049   1.436
10534SOL    HW232502   7.008   5.908   1.388
10535SOL     OW32503   1.000   1.939   1.505
10535SOL    HW132504   1.040   1.922   1.415
10535SOL    HW232505   1.048   1.886   1.574
10536SOL     OW32506   4.161   0.428   2.899
10536SOL    HW132507   4.172   0.459   2.994
10536SOL    HW232508   4.248   0.433   2.852
10537SOL     OW32509   3.963   5.522   4.066
10537SOL    HW132510   3.899   5.563   4.131
10537SOL    HW232511   3.930   5.535   3.973
10538SOL     OW32512   5.203   2.144   0.896
10538SOL    HW132513   5.124   2.198   0.867
10538SOL    HW232514   5.171   2.056   0.931
10539SOL     OW32515   0.712   4.399   0.164
10539SOL    HW132516   0.751   4.308   0.152
10539SOL    HW232517   0.740   4.458   0.089
10540SOL     OW32518   1.679   2.521   4.980
10540SOL    HW132519   1.725   2.597   5.026
10540SOL    HW232520   1.633   2.464   5.048
10541SOL     OW32521   3.781   4.068   2.460
10541SOL    HW132522   3.691   4.034   2.432
10541SOL    HW232523   3.791   4.164   2.432
10542SOL     OW32524   6.761   0.112   5.611
10542SOL    HW132525   6.796   0.051   5.541
10542SOL    HW232526   6.782   0.207   5.586
10543SOL     OW32527   0.404   0.717   4.932
10543SOL    HW132528   0.331   0.734   4.866
10543SOL    HW232529   0.366   0.671   5.012
10544SOL     OW32530   2.383   6.457   1.654
10544SOL    HW132531   2.466   6.508   1.631
10544SOL    HW232532   2.318   6.464   1.579
10545SOL     OW32533   6.581   1.115   2.110
10545SOL    HW132534   6.586   1.080   2.204
10545SOL    HW232535   6.590   1.214   2.110
10546SOL     OW32536   2.031   0.839   6.759
10546SOL    HW132537   2.040   0.788   6.845
10546SOL    HW232538   1.972   0.918   6.773
10547SOL     OW32539   5.375   2.512   2.486
10547SOL    HW132540   5.303   2.581   2.475
10547SOL    HW232541   5.418   2.496   2.397
10548SOL     OW32542   5.555   4.611   4.575
10548SOL    HW132543   5.653   4.632   4.587
10548SOL    HW232544   5.543   4.512   4.564
10549SOL     OW32545   0.068   7.016   1.918
10549SOL    HW132546   0.126   6.940   1.948
10549SOL    HW232547   7.019   6.982   1.854
10550SOL     OW32548   4.113   6.299   3.960
10550SOL    HW132549   4.035   6.238   3.943
10550SOL    HW232550   4.194   6.244   3.981
10551SOL     OW32551   1.126   2.472   5.943
10551SOL    HW132552   1.126   2.556   5.888
10551SOL    HW232553   1.144   2.495   6.039
10552SOL     OW32554   3.297   1.442   6.319
10552SOL    HW132555   3.327   1.370   6.256
10552SOL    HW232556   3.207   1.419   6.356
10553SOL     OW32557   0.980   4.611   1.999
10553SOL    HW132558   1.076   4.638   2.001
10553SOL    HW232559   0.962   4.558   1.917
10554SOL     OW32560   5.592   5.062   0.242
10554SOL    HW132561   5.516   5.127   0.235
10554SOL    HW232562   5.598   5.007   0.158
10555SOL     OW32563   1.939   2.912   0.432
10555SOL    HW132564   1.967   2.965   0.352
10555SOL    HW232565   1.980   2.821   0.428
10556SOL     OW32566   2.106   1.841   5.697
10556SOL    HW132567   2.033   1.772   5.696
10556SOL    HW232568   2.102   1.894   5.613
10557SOL     OW32569   2.177   2.636   3.237
10557SOL    HW132570   2.091   2.628   3.288
10557SOL    HW232571   2.251   2.660   3.300
10558SOL     OW32572   3.512   1.239   3.501
10558SOL    HW132573   3.421   1.251   3.540
10558SOL    HW232574   3.581   1.280   3.561
10559SOL     OW32575   5.229   0.460   1.223
10559SOL    HW132576   5.199   0.533   1.161
10559SOL    HW232577   5.254   0.379   1.170
10560SOL     OW32578   3.482   6.358   2.657
10560SOL    HW132579   3.435   6.446   2.655
10560SOL    HW232580   3.497   6.326   2.563
10561SOL     OW32581   2.962   3.877   0.848
10561SOL    HW132582   2.890   3.937   0.813
10561SOL    HW232583   3.051   3.913   0.823
10562SOL     OW32584   4.617   5.473   0.157
10562SOL    HW132585   4.643   5.404   0.225
10562SOL    HW232586   4.517   5.474   0.147
10563SOL     OW32587   0.756   1.638   3.601
10563SOL    HW132588   0.683   1.573   3.577
10563SOL    HW232589   0.716   1.729   3.615
10564SOL     OW32590   6.095   5.908   1.972
10564SOL    HW132591   6.012   5.963   1.977
10564SOL    HW232592   6.109   5.860   2.058
10565SOL     OW32593   0.404   0.439   5.833
10565SOL    HW132594   0.454   0.422   5.918
10565SOL    HW232595   0.317   0.484   5.854
10566SOL     OW32596   3.555   2.078   6.880
10566SOL    HW132597   3.514   2.022   6.807
10566SOL    HW232598   3.645   2.110   6.849
10567SOL     OW32599   3.111   1.599   4.615
10567SOL    HW132600   3.202   1.576   4.579
10567SOL    HW232601   3.099   1.557   4.705
10568SOL     OW32602   6.386   3.099   1.767
10568SOL    HW132603   6.386   3.143   1.677
10568SOL    HW232604   6.457   3.140   1.824
10569SOL     OW32605   5.444   1.699   1.951
10569SOL    HW132606   5.371   1.690   2.019
10569SOL    HW232607   5.437   1.788   1.906
10570SOL     OW32608   1.665   5.111   3.594
10570SOL    HW132609   1.760   5.128   3.568
10570SOL    HW232610   1.662   5.042   3.667
10571SOL     OW32611   0.160   4.541   5.611
10571SOL    HW132612   0.081   4.602   5.600
10571SOL    HW232613   0.186   4.504   5.522
10572SOL     OW32614   0.302   4.384   3.057
10572SOL    HW132615   0.315   4.300   3.004
10572SOL    HW232616   0.241   4.366   3.133
10573SOL     OW32617   4.664   0.379   5.094
10573SOL    HW132618   4.631   0.353   5.185
10573SOL    HW232619   4.639   0.307   5.029
10574SOL     OW32620   1.838   1.429   3.835
10574SOL    HW132621   1.795   1.360   3.894
10574SOL    HW232622   1.781   1.445   3.755
10575SOL     OW32623   0.053   1.115   3.263
10575SOL    HW132624   0.043   1.053   3.185
10575SOL    HW232625   0.136   1.090   3.314
10576SOL     OW32626   0.057   5.966   4.716
10576SOL    HW132627   0.102   6.009   4.794
10576SOL    HW232628   0.095   6.002   4.631
10577SOL     OW32629   2.084   3.710   0.107
10577SOL    HW132630   2.028   3.756   0.175
10577SOL    HW232631   2.076   3.758   0.019
10578SOL     OW32632   5.555   2.071   3.039
10578SOL    HW132633   5.601   1.989   3.007
10578SOL    HW232634   5.475   2.089   2.980
10579SOL     OW32635   4.042   2.482   1.692
10579SOL    HW132636   3.953   2.439   1.709
10579SOL    HW232637   4.089   2.432   1.620
10580SOL     OW32638   6.318   0.135   6.824
10580SOL    HW132639   6.237   0.096   6.868
10580SOL    HW232640   6.338   0.084   6.740
10581SOL     OW32641   6.900   6.697   3.180
10581SOL    HW132642   6.989   6.696   3.226
10581SOL    HW232643   6.831   6.654   3.239
10582SOL     OW32644   5.961   5.401   6.415
10582SOL    HW132645   5.874   5.367   6.451
10582SOL    HW232646   5.994   5.340   6.343
10583SOL     OW32647   3.831   1.078   4.560
10583SOL    HW132648   3.913   1.123   4.526
10583SOL    HW232649   3.750   1.131   4.535
10584SOL     OW32650   6.864   6.701   1.444
10584SOL    HW132651   6.776   6.705   1.491
10584SOL    HW232652   6.898   6.607   1.443
10585SOL     OW32653   2.377   2.289   5.708
10585SOL    HW132654   2.407   2.213   5.650
10585SOL    HW232655   2.303   2.338   5.661
10586SOL     OW32656   6.327   5.116   5.282
10586SOL    HW132657   6.318   5.017   5.269
10586SOL    HW232658   6.417   5.137   5.320
10587SOL     OW32659   6.280   4.606   0.248
10587SOL    HW132660   6.191   4.567   0.224
10587SOL    HW232661   6.323   4.640   0.165
10588SOL     OW32662   0.658   3.248   3.795
10588SOL    HW132663   0.610   3.301   3.865
10588SOL    HW232664   0.753   3.236   3.824
10589SOL     OW32665   5.702   1.983   4.038
10589SOL    HW132666   5.645   2.063   4.057
10589SOL    HW232667   5.704   1.923   4.117
10590SOL     OW32668   0.669   0.433   1.931
10590SOL    HW132669   0.654   0.399   1.838
10590SOL    HW232670   0.753   0.487   1.933
10591SOL     OW32671   0.947   1.673   6.961
10591SOL    HW132672   0.920   1.758   6.915
10591SOL    HW232673   0.914   1.676   0.035
10592SOL     OW32674   5.562   4.082   1.772
10592SOL    HW132675   5.621   4.012   1.811
10592SOL    HW232676   5.545   4.062   1.675
10593SOL     OW32677   2.332   5.670   0.283
10593SOL    HW132678   2.286   5.708   0.362
10593SOL    HW232679   2.431   5.671   0.299
10594SOL     OW32680   4.584   0.190   2.332
10594SOL    HW132681   4.677   0.178   2.298
10594SOL    HW232682   4.543   0.101   2.351
10595SOL     OW32683   4.091   6.768   6.604
10595SOL    HW132684   4.153   6.779   6.526
10595SOL    HW232685   4.032   6.689   6.588
10596SOL     OW32686   4.579   0.234   0.191
10596SOL    HW132687   4.660   0.193   0.150
10596SOL    HW232688   4.577   0.214   0.289
10597SOL     OW32689   3.674   0.864   5.155
10597SOL    HW132690   3.642   0.784   5.104
10597SOL    HW232691   3.774   0.862   5.161
10598SOL     OW32692   2.853   2.504   0.756
10598SOL    HW132693   2.797   2.547   0.685
10598SOL    HW232694   2.946   2.491   0.722
10599SOL     OW32695   5.700   2.745   5.657
10599SOL    HW132696   5.665   2.804   5.584
10599SOL    HW232697   5.675   2.785   5.745
10600SOL     OW32698   2.216   2.199   0.760
10600SOL    HW132699   2.257   2.280   0.803
10600SOL    HW232700   2.180   2.139   0.832
10601SOL     OW32701   1.467   4.579   5.177
10601SOL    HW132702   1.455   4.493   5.228
10601SOL    HW232703   1.381   4.605   5.135
10602SOL     OW32704   3.777   1.479   2.164
10602SOL    HW132705   3.692   1.504   2.117
10602SOL    HW232706   3.757   1.418   2.240
10603SOL     OW32707   3.138   5.950   3.114
10603SOL    HW132708   3.179   6.019   3.054
10603SOL    HW232709   3.098   5.995   3.193
10604SOL     OW32710   5.787   5.204   5.638
10604SOL    HW132711   5.794   5.129   5.573
10604SOL    HW232712   5.877   5.223   5.677
10605SOL     OW32713   1.366   5.910   0.469
10605SOL    HW132714   1.446   5.862   0.435
10605SOL    HW232715   1.371   6.006   0.443
10606SOL     OW32716   6.758   0.763   2.621
10606SOL    HW132717   6.792   0.686   2.675
10606SOL    HW232718   6.707   0.727   2.542
10607SOL     OW32719   4.139   4.677   5.394
10607SOL    HW132720   4.057   4.643   5.441
10607SOL    HW232721   4.129   4.774   5.376
10608SOL     OW32722   5.138   2.462   5.670
10608SOL    HW132723   5.162   2.423   5.581
10608SOL    HW232724   5.222   2.481   5.721
10609SOL     OW32725   2.851   6.828   0.332
10609SOL    HW132726   2.925   6.826   0.265
10609SOL    HW232727   2.811   6.920   0.334
10610SOL     OW32728   1.252   2.473   5.550
10610SOL    HW132729   1.261   2.387   5.601
10610SOL    HW232730   1.203   2.540   5.605
10611SOL     OW32731   4.037   3.702   5.979
10611SOL    HW132732   4.048   3.791   6.022
10611SOL    HW232733   3.940   3.681   5.970
10612SOL     OW32734   3.050   0.811   4.777
10612SOL    HW132735   2.983   0.879   4.747
10612SOL    HW232736   3.136   0.826   4.728
10613SOL     OW32737   6.153   0.063   4.922
10613SOL    HW132738   6.053   0.063   4.932
10613SOL    HW232739   6.179   0.128   4.851
10614SOL     OW32740   6.157   2.240   3.825
10614SOL    HW132741   6.249   2.271   3.800
10614SOL    HW232742   6.132   2.162   3.769
10615SOL     OW32743   3.546   6.543   5.660
10615SOL    HW132744   3.459   6.494   5.652
10615SOL    HW232745   3.605   6.496   5.725
10616SOL     OW32746   2.727   5.902   0.769
10616SOL    HW132747   2.799   5.968   0.790
10616SOL    HW232748   2.670   5.938   0.694
10617SOL     OW32749   2.180   2.525   1.515
10617SOL    HW132750   2.207   2.611   1.471
10617SOL    HW232751   2.083   2.529   1.538
10618SOL     OW32752   0.194   3.690   6.574
10618SOL    HW132753   0.159   3.753   6.505
10618SOL    HW232754   0.266   3.734   6.627
10619SOL     OW32755   0.224   4.284   2.237
10619SOL    HW132756   0.155   4.220   2.270
10619SOL    HW232757   0.282   4.239   2.169
10620SOL     OW32758   1.680   5.351   4.949
10620SOL    HW132759   1.714   5.371   4.857
10620SOL    HW232760   1.633   5.263   4.949
10621SOL     OW32761   1.341   6.202   2.149
10621SOL    HW132762   1.414   6.135   2.143
10621SOL    HW232763   1.333   6.252   2.063
10622SOL     OW32764   4.937   1.712   1.255
10622SOL    HW132765   4.939   1.802   1.297
10622SOL    HW232766   5.004   1.708   1.181
10623SOL     OW32767   0.249   4.811   5.380
10623SOL    HW132768   0.174   4.778   5.436
10623SOL    HW232769   0.334   4.766   5.408
10624SOL     OW32770   0.352   3.077   4.808
10624SOL    HW132771   0.314   3.151   4.753
10624SOL    HW232772   0.435   3.042   4.764
10625SOL     OW32773   0.609   4.134   0.314
10625SOL    HW132774   0.516   4.122   0.279
10625SOL    HW232775   0.663   4.052   0.295
10626SOL     OW32776   2.816   3.417   0.960
10626SOL    HW132777   2.782   3.381   0.873
10626SOL    HW232778   2.758   3.382   1.034
10627SOL     OW32779   5.298   6.769   0.429
10627SOL    HW132780   5.207   6.749   0.394
10627SOL    HW232781   5.367   6.735   0.365
10628SOL     OW32782   4.571   6.103   0.354
10628SOL    HW132783   4.543   6.008   0.367
10628SOL    HW232784   4.526   6.141   0.273
10629SOL     OW32785   2.574   4.889   5.217
10629SOL    HW132786   2.590   4.795   5.187
10629SOL    HW232787   2.653   4.946   5.193
10630SOL     OW32788   6.554   1.171   3.823
10630SOL    HW132789   6.566   1.251   3.765
10630SOL    HW232790   6.483   1.190   3.891
10631SOL     OW32791   2.370   4.515   4.476
10631SOL    HW132792   2.445   4.541   4.416
10631SOL    HW232793   2.295   4.580   4.466
10632SOL     OW32794   6.031   2.033   3.691
10632SOL    HW132795   5.945   2.040   3.741
10632SOL    HW232796   6.014   2.043   3.593
10633SOL     OW32797   2.697   3.382   1.198
10633SOL    HW132798   2.644   3.322   1.139
10633SOL    HW232799   2.744   3.328   1.268
10634SOL     OW32800   3.028   6.004   0.767
10634SOL    HW132801   3.022   6.040   0.675
10634SOL    HW232802   3.007   6.076   0.833
10635SOL     OW32803   3.436   1.996   1.005
10635SOL    HW132804   3.416   1.902   0.980
10635SOL    HW232805   3.354   2.053   0.994
10636SOL     OW32806   1.007   1.437   1.736
10636SOL    HW132807   1.033   1.392   1.821
10636SOL    HW232808   0.931   1.387   1.694
10637SOL     OW32809   2.496   4.301   5.946
10637SOL    HW132810   2.566   4.243   5.903
10637SOL    HW232811   2.444   4.247   6.012
10638SOL     OW32812   0.072   5.602   2.980
10638SOL    HW132813   0.069   5.503   2.996
10638SOL    HW232814   0.004   5.627   2.911
10639SOL     OW32815   1.066   3.544   3.063
10639SOL    HW132816   1.015   3.462   3.089
10639SOL    HW232817   1.042   3.620   3.123
10640SOL     OW32818   3.731   0.240   5.383
10640SOL    HW132819   3.698   0.240   5.288
10640SOL    HW232820   3.780   0.154   5.400
10641SOL     OW32821   3.072   1.830   1.296
10641SOL    HW132822   3.043   1.751   1.350
10641SOL    HW232823   3.172   1.835   1.296
10642SOL     OW32824   0.095   3.165   1.917
10642SOL    HW132825   0.029   3.225   1.872
10642SOL    HW232826   0.124   3.094   1.853
10643SOL     OW32827   1.953   4.852   5.419
10643SOL    HW132828   2.030   4.832   5.358
10643SOL    HW232829   1.968   4.807   5.507
10644SOL     OW32830   5.352   2.778   3.213
10644SOL    HW132831   5.362   2.839   3.292
10644SOL    HW232832   5.290   2.703   3.236
10645SOL     OW32833   1.283   1.993   5.122
10645SOL    HW132834   1.378   2.022   5.130
10645SOL    HW232835   1.243   2.033   5.039
10646SOL     OW32836   6.904   0.490   6.369
10646SOL    HW132837   6.875   0.521   6.459
10646SOL    HW232838   6.835   0.513   6.301
10647SOL     OW32839   2.876   5.204   5.643
10647SOL    HW132840   2.864   5.106   5.629
10647SOL    HW232841   2.973   5.224   5.655
10648SOL     OW32842   5.051   4.621   6.218
10648SOL    HW132843   5.126   4.589   6.276
10648SOL    HW232844   5.078   4.705   6.171
10649SOL     OW32845   0.012   4.161   3.060
10649SOL    HW132846   7.019   4.191   3.154
10649SOL    HW232847   0.090   4.099   3.055
10650SOL     OW32848   1.207   6.118   3.586
10650SOL    HW132849   1.145   6.196   3.591
10650SOL    HW232850   1.160   6.036   3.618
10651SOL     OW32851   4.407   6.553   6.441
10651SOL    HW132852   4.495   6.509   6.425
10651SOL    HW232853   4.380   6.541   6.536
10652SOL     OW32854   3.516   6.686   6.176
10652SOL    HW132855   3.416   6.686   6.172
10652SOL    HW232856   3.546   6.716   6.267
10653SOL     OW32857   4.760   4.143   3.869
10653SOL    HW132858   4.772   4.047   3.892
10653SOL    HW232859   4.785   4.159   3.773
10654SOL     OW32860   4.762   0.999   0.863
10654SOL    HW132861   4.742   1.094   0.889
10654SOL    HW232862   4.718   0.937   0.928
10655SOL     OW32863   2.537   5.275   0.395
10655SOL    HW132864   2.576   5.189   0.361
10655SOL    HW232865   2.587   5.304   0.476
10656SOL     OW32866   6.441   2.002   1.968
10656SOL    HW132867   6.510   1.937   1.998
10656SOL    HW232868   6.435   1.999   1.868
10657SOL     OW32869   6.638   0.769   6.200
10657SOL    HW132870   6.653   0.670   6.200
10657SOL    HW232871   6.581   0.795   6.122
10658SOL     OW32872   6.235   4.429   4.994
10658SOL    HW132873   6.155   4.475   4.955
10658SOL    HW232874   6.248   4.459   5.089
10659SOL     OW32875   6.853   6.221   1.175
10659SOL    HW132876   6.799   6.176   1.104
10659SOL    HW232877   6.912   6.154   1.220
10660SOL     OW32878   5.335   3.560   6.866
10660SOL    HW132879   5.246   3.528   6.900
10660SOL    HW232880   5.404   3.549   6.938
10661SOL     OW32881   0.164   6.613   2.316
10661SOL    HW132882   0.152   6.712   2.312
10661SOL    HW232883   0.078   6.569   2.341
10662SOL     OW32884   5.260   0.827   3.408
10662SOL    HW132885   5.267   0.800   3.504
10662SOL    HW232886   5.295   0.753   3.350
10663SOL     OW32887   0.828   0.907   1.850
10663SOL    HW132888   0.861   0.920   1.943
10663SOL    HW232889   0.899   0.864   1.795
10664SOL     OW32890   0.829   4.925   5.061
10664SOL    HW132891   0.819   4.879   4.972
10664SOL    HW232892   0.924   4.919   5.090
10665SOL     OW32893   0.848   1.252   0.834
10665SOL    HW132894   0.750   1.235   0.843
10665SOL    HW232895   0.880   1.306   0.911
10666SOL     OW32896   2.851   4.125   0.687
10666SOL    HW132897   2.839   4.096   0.592
10666SOL    HW232898   2.762   4.140   0.730
10667SOL     OW32899   3.988   3.077   5.200
10667SOL    HW132900   3.943   3.050   5.115
10667SOL    HW232901   3.919   3.092   5.271
10668SOL     OW32902   1.748   1.152   5.491
10668SOL    HW132903   1.750   1.062   5.447
10668SOL    HW232904   1.704   1.144   5.581
10669SOL     OW32905   5.997   6.012   0.618
10669SOL    HW132906   5.956   6.100   0.595
10669SOL    HW232907   6.023   5.963   0.535
10670SOL     OW32908   5.510   3.946   5.062
10670SOL    HW132909   5.560   4.023   5.024
10670SOL    HW232910   5.573   3.886   5.112
10671SOL     OW32911   2.551   2.242   3.144
10671SOL    HW132912   2.639   2.248   3.098
10671SOL    HW232913   2.490   2.313   3.108
10672SOL     OW32914   6.311   2.573   0.616
10672SOL    HW132915   6.337   2.487   0.572
10672SOL    HW232916   6.321   2.563   0.715
10673SOL     OW32917   0.733   1.245   6.962
10673SOL    HW132918   0.713   1.342   6.975
10673SOL    HW232919   0.760   1.230   6.867
10674SOL     OW32920   3.088   4.204   0.801
10674SOL    HW132921   2.995   4.182   0.771
10674SOL    HW232922   3.144   4.121   0.802
10675SOL     OW32923   2.167   6.928   6.397
10675SOL    HW132924   2.135   7.004   6.341
10675SOL    HW232925   2.102   6.852   6.390
10676SOL     OW32926   6.255   6.794   5.677
10676SOL    HW132927   6.318   6.734   5.626
10676SOL    HW232928   6.253   6.883   5.633
10677SOL     OW32929   0.548   0.603   2.232
10677SOL    HW132930   0.573   0.696   2.208
10677SOL    HW232931   0.559   0.543   2.152
10678SOL     OW32932   3.883   5.469   2.708
10678SOL    HW132933   3.952   5.470   2.781
10678SOL    HW232934   3.793   5.453   2.748
10679SOL     OW32935   5.285   5.056   6.085
10679SOL    HW132936   5.246   5.148   6.091
10679SOL    HW232937   5.314   5.038   5.991
10680SOL     OW32938   2.431   1.811   3.743
10680SOL    HW132939   2.374   1.738   3.703
10680SOL    HW232940   2.417   1.896   3.692
10681SOL     OW32941   0.537   4.051   7.004
10681SOL    HW132942   0.550   4.118   0.057
10681SOL    HW232943   0.620   3.998   6.993
10682SOL     OW32944   1.534   1.743   3.541
10682SOL    HW132945   1.589   1.732   3.623
10682SOL    HW232946   1.567   1.821   3.489
10683SOL     OW32947   3.476   1.674   3.882
10683SOL    HW132948   3.529   1.751   3.919
10683SOL    HW232949   3.470   1.602   3.951
10684SOL     OW32950   4.906   4.097   1.136
10684SOL    HW132951   4.864   4.101   1.046
10684SOL    HW232952   4.928   4.002   1.159
10685SOL     OW32953   0.386   5.087   3.024
10685SOL    HW132954   0.381   5.144   2.942
10685SOL    HW232955   0.466   5.027   3.018
10686SOL     OW32956   1.629   4.354   6.189
10686SOL    HW132957   1.629   4.329   6.092
10686SOL    HW232958   1.583   4.442   6.201
10687SOL     OW32959   6.978   5.584   2.176
10687SOL    HW132960   0.014   5.662   2.148
10687SOL    HW232961   0.011   5.500   2.168
10688SOL     OW32962   6.786   4.074   2.946
10688SOL    HW132963   6.872   4.082   2.996
10688SOL    HW232964   6.728   4.153   2.967
10689SOL     OW32965   0.838   6.746   3.982
10689SOL    HW132966   0.865   6.739   3.886
10689SOL    HW232967   0.738   6.742   3.988
10690SOL     OW32968   6.908   5.773   3.357
10690SOL    HW132969   6.876   5.679   3.346
10690SOL    HW232970   6.846   5.823   3.417
10691SOL     OW32971   0.964   1.110   2.719
10691SOL    HW132972   0.993   1.186   2.778
10691SOL    HW232973   0.864   1.109   2.713
10692SOL     OW32974   3.669   4.886   2.562
10692SOL    HW132975   3.571   4.870   2.572
10692SOL    HW232976   3.699   4.851   2.474
10693SOL     OW32977   2.293   0.156   1.388
10693SOL    HW132978   2.249   0.201   1.310
10693SOL    HW232979   2.278   0.210   1.470
10694SOL     OW32980   4.681   6.476   1.287
10694SOL    HW132981   4.770   6.436   1.308
10694SOL    HW232982   4.654   6.452   1.194
10695SOL     OW32983   5.245   2.593   2.763
10695SOL    HW132984   5.208   2.655   2.695
10695SOL    HW232985   5.261   2.503   2.722
10696SOL     OW32986   6.892   4.168   3.323
10696SOL    HW132987   6.904   4.123   3.411
10696SOL    HW232988   6.804   4.216   3.322
10697SOL     OW32989   0.216   6.029   4.929
10697SOL    HW132990   0.295   5.973   4.907
10697SOL    HW232991   0.213   6.045   5.028
10698SOL     OW32992   4.284   6.161   4.314
10698SOL    HW132993   4.335   6.177   4.399
10698SOL    HW232994   4.191   6.194   4.326
10699SOL     OW32995   4.274   2.279   2.148
10699SOL    HW132996   4.205   2.244   2.212
10699SOL    HW232997   4.242   2.267   2.054
10700SOL     OW32998   1.038   6.939   0.994
10700SOL    HW132999   1.014   6.850   1.033
10700SOL    HW233000   1.003   7.012   1.052
10701SOL     OW33001   3.545   5.863   0.126
10701SOL    HW133002   3.470   5.929   0.133
10701SOL    HW233003   3.562   5.844   0.029
10702SOL     OW33004   6.303   2.372   2.981
10702SOL    HW133005   6.292   2.273   2.969
10702SOL    HW233006   6.369   2.389   3.054
10703SOL     OW33007   3.573   2.977   4.254
10703SOL    HW133008   3.506   2.942   4.188
10703SOL    HW233009   3.662   2.936   4.236
10704SOL     OW33010   6.103   5.383   1.885
10704SOL    HW133011   6.111   5.325   1.804
10704SOL    HW233012   6.069   5.473   1.859
10705SOL     OW33013   0.019   4.149   2.327
10705SOL    HW133014   6.979   4.226   2.349
10705SOL    HW233015   6.984   4.068   2.307
10706SOL     OW33016   4.681   6.743   1.866
10706SOL    HW133017   4.689   6.837   1.900
10706SOL    HW233018   4.765   6.693   1.885
10707SOL     OW33019   0.941   6.682   4.234
10707SOL    HW133020   0.873   6.620   4.273
10707SOL    HW233021   0.910   6.713   4.144
10708SOL     OW33022   4.558   0.438   2.415
10708SOL    HW133023   4.547   0.485   2.327
10708SOL    HW233024   4.554   0.339   2.400
10709SOL     OW33025   6.017   0.831   4.750
10709SOL    HW133026   5.973   0.759   4.696
10709SOL    HW233027   6.110   0.845   4.715
10710SOL     OW33028   0.773   6.234   4.117
10710SOL    HW133029   0.779   6.260   4.021
10710SOL    HW233030   0.723   6.304   4.167
10711SOL     OW33031   1.870   6.613   4.152
10711SOL    HW133032   1.860   6.515   4.169
10711SOL    HW233033   1.836   6.636   4.061
10712SOL     OW33034   3.667   0.667   2.040
10712SOL    HW133035   3.761   0.694   2.019
10712SOL    HW233036   3.605   0.712   1.976
10713SOL     OW33037   1.282   3.339   1.740
10713SOL    HW133038   1.312   3.382   1.655
10713SOL    HW233039   1.354   3.277   1.773
10714SOL     OW33040   6.043   3.081   5.374
10714SOL    HW133041   5.984   3.013   5.329
10714SOL    HW233042   6.070   3.150   5.307
10715SOL     OW33043   4.118   0.166   2.683
10715SOL    HW133044   4.192   0.098   2.686
10715SOL    HW233045   4.148   0.246   2.631
10716SOL     OW33046   6.962   2.658   3.400
10716SOL    HW133047   6.937   2.736   3.458
10716SOL    HW233048   6.890   2.643   3.333
10717SOL     OW33049   0.295   2.587   0.360
10717SOL    HW133050   0.320   2.521   0.430
10717SOL    HW233051   0.271   2.539   0.276
10718SOL     OW33052   0.060   4.061   0.329
10718SOL    HW133053   0.028   4.154   0.316
10718SOL    HW233054   0.011   4.018   0.405
10719SOL     OW33055   4.476   5.887   1.011
10719SOL    HW133056   4.430   5.799   0.997
10719SOL    HW233057   4.441   5.931   1.093
10720SOL     OW33058   0.279   3.389   5.881
10720SOL    HW133059   0.312   3.307   5.927
10720SOL    HW233060   0.327   3.399   5.794
10721SOL     OW33061   5.982   2.474   5.031
10721SOL    HW133062   5.965   2.562   4.988
10721SOL    HW233063   6.064   2.433   4.992
10722SOL     OW33064   0.076   3.004   0.438
10722SOL    HW133065   0.021   3.017   0.355
10722SOL    HW233066   0.087   2.906   0.455
10723SOL     OW33067   6.794   4.409   6.602
10723SOL    HW133068   6.862   4.426   6.531
10723SOL    HW233069   6.703   4.431   6.568
10724SOL     OW33070   3.446   0.111   6.335
10724SOL    HW133071   3.543   0.090   6.334
10724SOL    HW233072   3.414   0.120   6.430
10725SOL     OW33073   6.880   4.990   3.850
10725SOL    HW133074   6.938   4.986   3.931
10725SOL    HW233075   6.930   4.954   3.771
10726SOL     OW33076   5.832   6.374   5.285
10726SOL    HW133077   5.932   6.381   5.287
10726SOL    HW233078   5.794   6.410   5.370
10727SOL     OW33079   1.826   4.507   4.344
10727SOL    HW133080   1.881   4.579   4.301
10727SOL    HW233081   1.791   4.446   4.273
10728SOL     OW33082   6.145   6.770   2.377
10728SOL    HW133083   6.234   6.814   2.388
10728SOL    HW233084   6.153   6.673   2.400
10729SOL     OW33085   6.450   1.169   2.887
10729SOL    HW133086   6.361   1.125   2.900
10729SOL    HW233087   6.477   1.215   2.971
10730SOL     OW33088   2.655   6.906   0.925
10730SOL    HW133089   2.603   6.823   0.946
10730SOL    HW233090   2.711   6.931   1.004
10731SOL     OW33091   1.811   5.415   6.702
10731SOL    HW133092   1.776   5.441   6.791
10731SOL    HW233093   1.881   5.481   6.673
10732SOL     OW33094   5.634   6.909   2.620
10732SOL    HW133095   5.628   6.844   2.695
10732SOL    HW233096   5.730   6.921   2.594
10733SOL     OW33097   5.793   2.740   6.964
10733SOL    HW133098   5.851   2.795   6.904
10733SOL    HW233099   5.816   2.760   0.039
10734SOL     OW33100   1.491   0.542   6.621
10734SOL    HW133101   1.569   0.582   6.669
10734SOL    HW233102   1.468   0.454   6.662
10735SOL     OW33103   1.189   4.359   2.190
10735SOL    HW133104   1.118   4.319   2.248
10735SOL    HW233105   1.191   4.458   2.203
10736SOL     OW33106   0.501   1.096   3.482
10736SOL    HW133107   0.531   1.175   3.428
10736SOL    HW233108   0.581   1.048   3.518
10737SOL     OW33109   0.823   2.195   0.351
10737SOL    HW133110   0.833   2.148   0.439
10737SOL    HW233111   0.912   2.226   0.320
10738SOL     OW33112   2.790   7.019   1.698
10738SOL    HW133113   2.717   0.025   1.762
10738SOL    HW233114   2.866   6.978   1.748
10739SOL     OW33115   0.342   0.678   3.217
10739SOL    HW133116   0.408   0.748   3.244
10739SOL    HW233117   0.271   0.719   3.160
10740SOL     OW33118   0.927   5.234   6.011
10740SOL    HW133119   0.852   5.300   6.005
10740SOL    HW233120   1.013   5.282   6.026
10741SOL     OW33121   1.183   1.303   3.522
10741SOL    HW133122   1.218   1.368   3.590
10741SOL    HW233123   1.228   1.214   3.535
10742SOL     OW33124   6.007   0.390   2.191
10742SOL    HW133125   6.022   0.414   2.095
10742SOL    HW233126   6.013   0.473   2.247
10743SOL     OW33127   2.580   2.458   3.436
10743SOL    HW133128   2.674   2.425   3.445
10743SOL    HW233129   2.553   2.455   3.340
10744SOL     OW33130   3.202   1.530   2.227
10744SOL    HW133131   3.221   1.601   2.295
10744SOL    HW233132   3.228   1.563   2.136
10745SOL     OW33133   1.586   4.672   0.172
10745SOL    HW133134   1.558   4.578   0.152
10745SOL    HW233135   1.650   4.671   0.249
10746SOL     OW33136   2.047   4.828   0.977
10746SOL    HW133137   2.113   4.865   0.911
10746SOL    HW233138   2.094   4.763   1.037
10747SOL     OW33139   5.047   1.335   3.508
10747SOL    HW133140   5.147   1.330   3.506
10747SOL    HW233141   5.009   1.277   3.436
10748SOL     OW33142   6.008   6.625   0.921
10748SOL    HW133143   5.979   6.532   0.897
10748SOL    HW233144   6.059   6.623   1.006
10749SOL     OW33145   0.212   4.967   3.181
10749SOL    HW133146   0.252   5.043   3.131
10749SOL    HW233147   0.240   4.881   3.139
10750SOL     OW33148   4.818   4.582   4.575
10750SOL    HW133149   4.811   4.625   4.665
10750SOL    HW233150   4.729   4.589   4.528
10751SOL     OW33151   0.609   3.437   4.985
10751SOL    HW133152   0.628   3.536   4.979
10751SOL    HW233153   0.541   3.421   5.057
10752SOL     OW33154   5.963   3.633   6.564
10752SOL    HW133155   6.051   3.674   6.588
10752SOL    HW233156   5.918   3.600   6.647
10753SOL     OW33157   6.118   0.184   3.459
10753SOL    HW133158   6.136   0.124   3.381
10753SOL    HW233159   6.141   0.278   3.433
10754SOL     OW33160   2.018   2.245   2.941
10754SOL    HW133161   1.942   2.265   2.880
10754SOL    HW233162   2.036   2.324   3.000
10755SOL     OW33163   0.082   1.654   0.863
10755SOL    HW133164   0.172   1.653   0.908
10755SOL    HW233165   0.019   1.711   0.916
10756SOL     OW33166   6.169   3.881   0.503
10756SOL    HW133167   6.220   3.842   0.426
10756SOL    HW233168   6.234   3.919   0.570
10757SOL     OW33169   6.864   3.920   0.457
10757SOL    HW133170   6.784   3.924   0.518
10757SOL    HW233171   6.850   3.847   0.390
10758SOL     OW33172   1.413   6.100   4.974
10758SOL    HW133173   1.380   6.018   4.928
10758SOL    HW233174   1.347   6.174   4.963
10759SOL     OW33175   2.013   3.095   6.816
10759SOL    HW133176   1.942   3.068   6.752
10759SOL    HW233177   1.971   3.133   6.899
10760SOL     OW33178   6.617   7.001   1.095
10760SOL    HW133179   6.544   6.974   1.158
10760SOL    HW233180   6.617   0.080   1.085
10761SOL     OW33181   0.401   1.970   6.100
10761SOL    HW133182   0.347   2.053   6.088
10761SOL    HW233183   0.375   1.925   6.186
10762SOL     OW33184   4.802   1.080   4.953
10762SOL    HW133185   4.739   1.049   4.882
10762SOL    HW233186   4.752   1.134   5.020
10763SOL     OW33187   4.673   6.093   0.976
10763SOL    HW133188   4.634   6.182   1.000
10763SOL    HW233189   4.600   6.028   0.957
10764SOL     OW33190   5.375   2.003   6.346
10764SOL    HW133191   5.469   2.004   6.381
10764SOL    HW233192   5.376   1.986   6.247
10765SOL     OW33193   5.637   2.327   1.012
10765SOL    HW133194   5.591   2.292   1.094
10765SOL    HW233195   5.720   2.376   1.038
10766SOL     OW33196   2.663   3.541   0.363
10766SOL    HW133197   2.679   3.444   0.350
10766SOL    HW233198   2.712   3.573   0.444
10767SOL     OW33199   1.342   0.911   0.769
10767SOL    HW133200   1.402   0.854   0.714
10767SOL    HW233201   1.384   1.002   0.781
10768SOL     OW33202   5.632   5.820   0.137
10768SOL    HW133203   5.532   5.809   0.135
10768SOL    HW233204   5.659   5.858   0.225
10769SOL     OW33205   2.512   5.276   5.087
10769SOL    HW133206   2.513   5.375   5.099
10769SOL    HW233207   2.571   5.233   5.155
10770SOL     OW33208   5.660   0.114   4.362
10770SOL    HW133209   5.665   0.205   4.402
10770SOL    HW233210   5.724   0.053   4.409
10771SOL     OW33211   4.799   0.020   5.500
10771SOL    HW133212   4.800   0.005   5.599
10771SOL    HW233213   4.862   0.094   5.476
10772SOL     OW33214   6.214   0.027   3.936
10772SOL    HW133215   6.279   0.092   3.977
10772SOL    HW233216   6.154   7.012   4.007
10773SOL     OW33217   0.071   5.227   6.933
10773SOL    HW133218   0.062   5.188   0.005
10773SOL    HW233219   0.135   5.171   6.880
10774SOL     OW33220   1.621   2.157   0.154
10774SOL    HW133221   1.654   2.171   0.247
10774SOL    HW233222   1.541   2.213   0.137
10775SOL     OW33223   1.893   4.111   0.406
10775SOL    HW133224   1.952   4.183   0.443
10775SOL    HW233225   1.812   4.102   0.464
10776SOL     OW33226   1.063   6.188   0.903
10776SOL    HW133227   0.971   6.152   0.885
10776SOL    HW233228   1.120   6.176   0.821
10777SOL     OW33229   4.555   0.534   3.845
10777SOL    HW133230   4.606   0.620   3.839
10777SOL    HW233231   4.459   0.554   3.864
10778SOL     OW33232   5.854   6.940   4.405
10778SOL    HW133233   5.940   6.930   4.355
10778SOL    HW233234   5.777   6.925   4.343
10779SOL     OW33235   6.910   4.506   3.177
10779SOL    HW133236   6.944   4.465   3.092
10779SOL    HW233237   6.970   4.581   3.204
10780SOL     OW33238   1.335   6.546   3.035
10780SOL    HW133239   1.325   6.636   2.994
10780SOL    HW233240   1.371   6.482   2.967
10781SOL     OW33241   4.209   1.728   3.877
10781SOL    HW133242   4.207   1.826   3.898
10781SOL    HW233243   4.232   1.715   3.781
10782SOL     OW33244   6.091   2.652   3.731
10782SOL    HW133245   6.097   2.575   3.667
10782SOL    HW233246   5.995   2.664   3.758
10783SOL     OW33247   1.518   2.911   2.683
10783SOL    HW133248   1.485   3.005   2.678
10783SOL    HW233249   1.617   2.911   2.700
10784SOL     OW33250   2.261   6.643   1.839
10784SOL    HW133251   2.236   6.558   1.792
10784SOL    HW233252   2.334   6.689   1.789
10785SOL     OW33253   1.768   4.296   1.306
10785SOL    HW133254   1.817   4.243   1.375
10785SOL    HW233255   1.679   4.253   1.288
10786SOL     OW33256   5.279   3.268   1.229
10786SOL    HW133257   5.192   3.250   1.276
10786SOL    HW233258   5.290   3.204   1.154
10787SOL     OW33259   3.397   1.501   5.025
10787SOL    HW133260   3.320   1.461   4.976
10787SOL    HW233261   3.367   1.583   5.073
10788SOL     OW33262   2.376   4.301   6.951
10788SOL    HW133263   2.344   4.266   6.863
10788SOL    HW233264   2.340   4.245   0.005
10789SOL     OW33265   5.432   1.617   0.775
10789SOL    HW133266   5.420   1.556   0.854
10789SOL    HW233267   5.346   1.626   0.727
10790SOL     OW33268   0.616   0.728   5.105
10790SOL    HW133269   0.530   0.722   5.053
10790SOL    HW233270   0.661   0.639   5.104
10791SOL     OW33271   0.838   1.255   1.595
10791SOL    HW133272   0.784   1.221   1.672
10791SOL    HW233273   0.881   1.178   1.548
10792SOL     OW33274   2.895   3.138   1.772
10792SOL    HW133275   2.940   3.131   1.861
10792SOL    HW233276   2.952   3.094   1.702
10793SOL     OW33277   5.517   2.468   4.269
10793SOL    HW133278   5.573   2.492   4.190
10793SOL    HW233279   5.437   2.528   4.273
10794SOL     OW33280   3.473   3.700   2.489
10794SOL    HW133281   3.464   3.661   2.581
10794SOL    HW233282   3.384   3.734   2.459
10795SOL     OW33283   6.118   4.186   3.929
10795SOL    HW133284   6.058   4.180   3.850
10795SOL    HW233285   6.141   4.282   3.946
10796SOL     OW33286   3.334   6.502   6.779
10796SOL    HW133287   3.349   6.601   6.781
10796SOL    HW233288   3.237   6.483   6.789
10797SOL     OW33289   4.388   2.774   0.984
10797SOL    HW133290   4.396   2.694   1.043
10797SOL    HW233291   4.427   2.753   0.895
10798SOL     OW33292   1.944   0.059   0.450
10798SOL    HW133293   1.876   0.080   0.380
10798SOL    HW233294   1.899   0.013   0.527
10799SOL     OW33295   3.443   1.627   1.770
10799SOL    HW133296   3.393   1.701   1.724
10799SOL    HW233297   3.508   1.586   1.706
10800SOL     OW33298   1.441   6.638   0.181
10800SOL    HW133299   1.353   6.686   0.175
10800SOL    HW233300   1.503   6.674   0.111
10801SOL     OW33301   0.867   0.088   4.939
10801SOL    HW133302   0.895   0.078   5.034
10801SOL    HW233303   0.855   7.019   4.897
10802SOL     OW33304   2.172   3.199   4.950
10802SOL    HW133305   2.234   3.122   4.961
10802SOL    HW233306   2.222   3.284   4.967
10803SOL     OW33307   5.133   4.590   4.914
10803SOL    HW133308   5.129   4.633   4.824
10803SOL    HW233309   5.215   4.532   4.920
10804SOL     OW33310   0.064   4.597   1.613
10804SOL    HW133311   0.005   4.664   1.569
10804SOL    HW233312   0.033   4.505   1.590
10805SOL     OW33313   3.633   6.673   6.686
10805SOL    HW133314   3.544   6.701   6.721
10805SOL    HW233315   3.705   6.700   6.751
10806SOL     OW33316   5.150   4.440   0.139
10806SOL    HW133317   5.141   4.341   0.142
10806SOL    HW233318   5.154   4.471   0.044
10807SOL     OW33319   3.215   6.656   3.712
10807SOL    HW133320   3.213   6.583   3.780
10807SOL    HW233321   3.247   6.619   3.625
10808SOL     OW33322   0.661   3.791   0.635
10808SOL    HW133323   0.601   3.871   0.640
10808SOL    HW233324   0.750   3.819   0.600
10809SOL     OW33325   2.613   0.007   4.036
10809SOL    HW133326   2.656   0.060   3.963
10809SOL    HW233327   2.640   0.044   4.125
10810SOL     OW33328   1.182   1.078   5.620
10810SOL    HW133329   1.135   1.116   5.539
10810SOL    HW233330   1.196   1.151   5.687
10811SOL     OW33331   4.193   5.218   4.995
10811SOL    HW133332   4.093   5.216   4.997
10811SOL    HW233333   4.226   5.157   4.923
10812SOL     OW33334   0.414   3.407   2.435
10812SOL    HW133335   0.405   3.310   2.411
10812SOL    HW233336   0.333   3.457   2.404
10813SOL     OW33337   1.847   5.838   6.796
10813SOL    HW133338   1.831   5.934   6.774
10813SOL    HW233339   1.826   5.822   6.893
10814SOL     OW33340   1.676   6.896   5.871
10814SOL    HW133341   1.693   6.910   5.773
10814SOL    HW233342   1.755   6.928   5.923
10815SOL     OW33343   4.835   5.254   3.860
10815SOL    HW133344   4.815   5.231   3.765
10815SOL    HW233345   4.931   5.235   3.879
10816SOL     OW33346   1.569   1.117   2.491
10816SOL    HW133347   1.529   1.032   2.456
10816SOL    HW233348   1.667   1.119   2.468
10817SOL     OW33349   5.784   6.578   2.445
10817SOL    HW133350   5.797   6.536   2.355
10817SOL    HW233351   5.836   6.527   2.513
10818SOL     OW33352   5.145   3.945   5.630
10818SOL    HW133353   5.081   3.947   5.553
10818SOL    HW233354   5.203   3.864   5.622
10819SOL     OW33355   0.524   4.456   0.351
10819SOL    HW133356   0.481   4.367   0.362
10819SOL    HW233357   0.582   4.456   0.270
10820SOL     OW33358   6.624   6.793   4.083
10820SOL    HW133359   6.686   6.857   4.129
10820SOL    HW233360   6.649   6.699   4.108
10821SOL     OW33361   5.160   6.009   2.413
10821SOL    HW133362   5.142   6.050   2.323
10821SOL    HW233363   5.117   6.066   2.483
10822SOL     OW33364   1.184   2.166   3.024
10822SOL    HW133365   1.109   2.151   3.089
10822SOL    HW233366   1.148   2.170   2.931
10823SOL     OW33367   1.829   4.967   0.954
10823SOL    HW133368   1.748   4.941   1.007
10823SOL    HW233369   1.897   4.894   0.959
10824SOL     OW33370   4.879   0.150   4.300
10824SOL    HW133371   4.785   0.119   4.314
10824SOL    HW233372   4.880   0.218   4.226
10825SOL     OW33373   2.290   0.621   0.674
10825SOL    HW133374   2.300   0.641   0.772
10825SOL    HW233375   2.276   0.706   0.624
10826SOL     OW33376   0.015   3.850   3.581
10826SOL    HW133377   0.049   3.801   3.501
10826SOL    HW233378   0.017   3.790   3.661
10827SOL     OW33379   6.119   3.895   4.530
10827SOL    HW133380   6.086   3.816   4.479
10827SOL    HW233381   6.213   3.878   4.560
10828SOL     OW33382   1.421   5.725   2.626
10828SOL    HW133383   1.457   5.721   2.720
10828SOL    HW233384   1.330   5.765   2.627
10829SOL     OW33385   3.530   2.991   0.291
10829SOL    HW133386   3.511   3.014   0.196
10829SOL    HW233387   3.572   3.070   0.336
10830SOL     OW33388   4.926   1.811   3.239
10830SOL    HW133389   4.958   1.892   3.188
10830SOL    HW233390   4.832   1.790   3.213
10831SOL     OW33391   4.648   6.085   2.062
10831SOL    HW133392   4.627   6.182   2.055
10831SOL    HW233393   4.571   6.032   2.028
10832SOL     OW33394   7.000   1.974   0.668
10832SOL    HW133395   0.044   1.940   0.736
10832SOL    HW233396   6.911   1.930   0.682
10833SOL     OW33397   1.693   0.975   4.116
10833SOL    HW133398   1.647   1.043   4.174
10833SOL    HW233399   1.729   0.902   4.174
10834SOL     OW33400   0.594   2.123   6.261
10834SOL    HW133401   0.519   2.071   6.218
10834SOL    HW233402   0.632   2.069   6.337
10835SOL     OW33403   5.340   2.218   1.128
10835SOL    HW133404   5.292   2.218   1.041
10835SOL    HW233405   5.338   2.310   1.168
10836SOL     OW33406   5.968   1.356   5.339
10836SOL    HW133407   5.908   1.297   5.286
10836SOL    HW233408   6.039   1.300   5.383
10837SOL     OW33409   0.528   5.155   0.307
10837SOL    HW133410   0.487   5.089   0.243
10837SOL    HW233411   0.466   5.169   0.384
10838SOL     OW33412   5.693   6.897   4.183
10838SOL    HW133413   5.686   6.797   4.182
10838SOL    HW233414   5.605   6.937   4.155
10839SOL     OW33415   3.300   2.973   0.702
10839SOL    HW133416   3.398   2.978   0.721
10839SOL    HW233417   3.273   2.877   0.694
10840SOL     OW33418   4.127   6.094   1.789
10840SOL    HW133419   4.110   6.052   1.699
10840SOL    HW233420   4.049   6.152   1.813
10841SOL     OW33421   3.800   6.424   6.761
10841SOL    HW133422   3.748   6.355   6.713
10841SOL    HW233423   3.744   6.464   6.834
10842SOL     OW33424   6.274   3.569   0.709
10842SOL    HW133425   6.209   3.553   0.635
10842SOL    HW233426   6.264   3.663   0.742
10843SOL     OW33427   0.811   1.873   2.153
10843SOL    HW133428   0.815   1.928   2.237
10843SOL    HW233429   0.902   1.867   2.113
10844SOL     OW33430   0.253   6.783   4.072
10844SOL    HW133431   0.335   6.801   4.017
10844SOL    HW233432   0.206   6.869   4.090
10845SOL     OW33433   2.017   0.783   0.978
10845SOL    HW133434   1.984   0.849   0.911
10845SOL    HW233435   2.039   0.697   0.933
10846SOL     OW33436   4.649   3.062   0.407
10846SOL    HW133437   4.616   3.014   0.326
10846SOL    HW233438   4.604   3.027   0.489
10847SOL     OW33439   2.780   2.202   6.252
10847SOL    HW133440   2.832   2.161   6.177
10847SOL    HW233441   2.823   2.288   6.280
10848SOL     OW33442   3.178   2.299   6.447
10848SOL    HW133443   3.190   2.354   6.364
10848SOL    HW233444   3.168   2.360   6.525
10849SOL     OW33445   3.316   4.974   3.619
10849SOL    HW133446   3.413   4.997   3.626
10849SOL    HW233447   3.288   4.973   3.523
10850SOL     OW33448   4.606   6.126   6.300
10850SOL    HW133449   4.518   6.154   6.340
10850SOL    HW233450   4.673   6.113   6.373
10851SOL     OW33451   2.528   2.757   6.542
10851SOL    HW133452   2.515   2.817   6.463
10851SOL    HW233453   2.439   2.726   6.576
10852SOL     OW33454   0.295   6.921   6.171
10852SOL    HW133455   0.280   6.823   6.161
10852SOL    HW233456   0.389   6.944   6.146
10853SOL     OW33457   3.782   1.785   5.304
10853SOL    HW133458   3.687   1.803   5.278
10853SOL    HW233459   3.785   1.702   5.361
10854SOL     OW33460   6.465   0.396   5.609
10854SOL    HW133461   6.418   0.323   5.658
10854SOL    HW233462   6.531   0.356   5.545
10855SOL     OW33463   2.591   6.163   2.320
10855SOL    HW133464   2.663   6.141   2.254
10855SOL    HW233465   2.560   6.080   2.366
10856SOL     OW33466   5.978   0.953   1.977
10856SOL    HW133467   6.035   0.976   2.056
10856SOL    HW233468   6.021   0.988   1.894
10857SOL     OW33469   5.441   2.494   3.525
10857SOL    HW133470   5.538   2.512   3.508
10857SOL    HW233471   5.404   2.568   3.581
10858SOL     OW33472   1.118   2.856   6.444
10858SOL    HW133473   1.034   2.807   6.468
10858SOL    HW233474   1.104   2.954   6.454
10859SOL     OW33475   2.365   4.502   4.016
10859SOL    HW133476   2.394   4.471   3.926
10859SOL    HW233477   2.370   4.426   4.081
10860SOL     OW33478   6.525   1.140   5.741
10860SOL    HW133479   6.442   1.121   5.688
10860SOL    HW233480   6.569   1.222   5.705
10861SOL     OW33481   3.822   2.738   1.747
10861SOL    HW133482   3.908   2.770   1.708
10861SOL    HW233483   3.840   2.697   1.837
10862SOL     OW33484   2.686   1.514   6.431
10862SOL    HW133485   2.718   1.457   6.507
10862SOL    HW233486   2.691   1.610   6.458
10863SOL     OW33487   3.620   0.553   2.418
10863SOL    HW133488   3.643   0.647   2.446
10863SOL    HW233489   3.530   0.529   2.453
10864SOL     OW33490   2.838   4.667   1.184
10864SOL    HW133491   2.827   4.577   1.227
10864SOL    HW233492   2.858   4.735   1.254
10865SOL     OW33493   5.562   2.166   3.689
10865SOL    HW133494   5.489   2.215   3.737
10865SOL    HW233495   5.649   2.184   3.734
10866SOL     OW33496   6.253   3.787   0.887
10866SOL    HW133497   6.277   3.873   0.843
10866SOL    HW233498   6.157   3.790   0.915
10867SOL     OW33499   3.050   3.379   0.354
10867SOL    HW133500   3.073   3.463   0.306
10867SOL    HW233501   2.955   3.353   0.333
10868SOL     OW33502   1.745   1.522   3.189
10868SOL    HW133503   1.666   1.513   3.249
10868SOL    HW233504   1.715   1.539   3.095
10869NA      NA33505   0.448   2.514   6.163
10870NA      NA33506   4.323   4.530   5.355
10871NA      NA33507   2.275   4.292   2.295
10872NA      NA33508   5.148   4.731   3.486
10873NA      NA33509   4.233   2.365   5.270
10874NA      NA33510   3.500   4.579   1.369
10875NA      NA33511   0.922   4.503   0.370
10876NA      NA33512   4.117   4.379   1.637
10877NA      NA33513   4.974   4.813   0.924
10878NA      NA33514   3.460   0.239   5.497
10879NA      NA33515   5.963   5.558   1.057
10880NA      NA33516   1.751   0.911   6.091
10881NA      NA33517   4.855   5.080   2.252
10882NA      NA33518   3.781   3.050   0.848
   7.02066   7.02066   7.02066
