Generated by trjconv : CNT in water t= 445.00000
33518
    1C        C    1   2.840   2.769   4.746
    1C        C    2   2.897   2.722   4.867
    1C        C    3   2.840   2.772   4.984
    1C        C    4   2.849   2.774   4.259
    1C        C    5   2.900   2.727   4.382
    1C        C    6   2.847   2.774   4.504
    1C        C    7   3.012   2.642   4.625
    1C        C    8   2.897   2.723   4.626
    1C        C    9   3.076   2.607   4.746
    1C        C   10   3.006   2.632   4.866
    1C        C   11   3.177   2.491   4.974
    1C        C   12   3.059   2.565   4.977
    1C        C   13   2.844   2.765   3.769
    1C        C   14   2.893   2.716   3.892
    1C        C   15   2.840   2.764   4.014
    1C        C   16   3.018   2.650   4.135
    1C        C   17   2.897   2.724   4.136
    1C        C   18   3.079   2.616   4.258
    1C        C   19   3.016   2.647   4.381
    1C        C   20   3.206   2.555   4.500
    1C        C   21   3.075   2.608   4.503
    1C        C   22   3.276   2.539   4.622
    1C        C   23   3.207   2.553   4.745
    1C        C   24   3.409   2.483   4.863
    1C        C   25   3.267   2.503   4.864
    1C        C   26   3.488   2.477   4.979
    1C        C   27   2.844   2.763   3.280
    1C        C   28   2.899   2.721   3.403
    1C        C   29   2.847   2.770   3.525
    1C        C   30   3.017   2.641   3.644
    1C        C   31   2.899   2.720   3.647
    1C        C   32   3.075   2.609   3.768
    1C        C   33   3.011   2.639   3.890
    1C        C   34   3.208   2.558   4.014
    1C        C   35   3.077   2.610   4.012
    1C        C   36   3.276   2.540   4.136
    1C        C   37   3.207   2.557   4.258
    1C        C   38   3.415   2.516   4.380
    1C        C   39   3.275   2.532   4.379
    1C        C   40   3.485   2.507   4.502
    1C        C   41   3.415   2.513   4.624
    1C        C   42   3.627   2.489   4.743
    1C        C   43   3.485   2.483   4.743
    1C        C   44   3.706   2.489   4.861
    1C        C   45   3.626   2.482   4.976
    1C        C   46   2.834   2.748   2.792
    1C        C   47   2.891   2.710   2.915
    1C        C   48   2.839   2.757   3.038
    1C        C   49   3.018   2.640   3.159
    1C        C   50   2.897   2.714   3.159
    1C        C   51   3.081   2.605   3.280
    1C        C   52   3.016   2.642   3.400
    1C        C   53   3.209   2.552   3.526
    1C        C   54   3.079   2.607   3.522
    1C        C   55   3.275   2.533   3.649
    1C        C   56   3.205   2.554   3.771
    1C        C   57   3.414   2.511   3.892
    1C        C   58   3.275   2.533   3.892
    1C        C   59   3.486   2.507   4.013
    1C        C   60   3.416   2.515   4.136
    1C        C   61   3.626   2.498   4.259
    1C        C   62   3.485   2.503   4.258
    1C        C   63   3.698   2.504   4.381
    1C        C   64   3.626   2.502   4.503
    1C        C   65   3.836   2.541   4.620
    1C        C   66   3.700   2.504   4.623
    1C        C   67   3.907   2.561   4.740
    1C        C   68   3.842   2.524   4.860
    1C        C   69   4.048   2.590   4.981
    1C        C   70   3.922   2.529   4.975
    1C        C   71   2.821   2.734   2.306
    1C        C   72   2.878   2.689   2.428
    1C        C   73   2.829   2.741   2.549
    1C        C   74   3.006   2.622   2.672
    1C        C   75   2.885   2.695   2.671
    1C        C   76   3.066   2.586   2.794
    1C        C   77   3.011   2.635   2.914
    1C        C   78   3.207   2.550   3.036
    1C        C   79   3.077   2.605   3.036
    1C        C   80   3.275   2.524   3.157
    1C        C   81   3.211   2.549   3.281
    1C        C   82   3.416   2.499   3.403
    1C        C   83   3.277   2.527   3.404
    1C        C   84   3.485   2.492   3.526
    1C        C   85   3.413   2.504   3.647
    1C        C   86   3.626   2.500   3.768
    1C        C   87   3.485   2.501   3.769
    1C        C   88   3.695   2.509   3.891
    1C        C   89   3.627   2.501   4.015
    1C        C   90   3.834   2.546   4.136
    1C        C   91   3.697   2.509   4.137
    1C        C   92   3.900   2.571   4.258
    1C        C   93   3.833   2.544   4.379
    1C        C   94   4.030   2.631   4.499
    1C        C   95   3.904   2.567   4.499
    1C        C   96   4.092   2.670   4.619
    1C        C   97   4.035   2.624   4.740
    1C        C   98   4.191   2.763   4.861
    1C        C   99   4.099   2.653   4.864
    1C        C  100   4.216   2.842   4.975
    1C        C  101   2.818   2.728   2.071
    1C        C  102   2.989   2.589   2.189
    1C        C  103   2.873   2.674   2.188
    1C        C  104   3.061   2.571   2.310
    1C        C  105   2.999   2.615   2.429
    1C        C  106   3.200   2.539   2.550
    1C        C  107   3.068   2.590   2.549
    1C        C  108   3.270   2.521   2.671
    1C        C  109   3.199   2.537   2.793
    1C        C  110   3.412   2.506   2.915
    1C        C  111   3.273   2.530   2.913
    1C        C  112   3.485   2.502   3.036
    1C        C  113   3.414   2.500   3.159
    1C        C  114   3.626   2.492   3.279
    1C        C  115   3.485   2.491   3.280
    1C        C  116   3.695   2.503   3.402
    1C        C  117   3.626   2.499   3.525
    1C        C  118   3.834   2.542   3.646
    1C        C  119   3.697   2.506   3.647
    1C        C  120   3.897   2.569   3.769
    1C        C  121   3.832   2.544   3.892
    1C        C  122   4.027   2.632   4.012
    1C        C  123   3.901   2.568   4.013
    1C        C  124   4.085   2.673   4.133
    1C        C  125   4.028   2.631   4.255
    1C        C  126   4.192   2.767   4.375
    1C        C  127   4.090   2.669   4.377
    1C        C  128   4.241   2.817   4.497
    1C        C  129   4.196   2.765   4.621
    1C        C  130   4.329   2.933   4.738
    1C        C  131   4.244   2.819   4.742
    1C        C  132   4.362   2.999   4.859
    1C        C  133   4.288   2.960   4.972
    1C        C  134   3.173   2.466   2.080
    1C        C  135   3.039   2.507   2.083
    1C        C  136   3.257   2.477   2.191
    1C        C  137   3.194   2.520   2.309
    1C        C  138   3.407   2.487   2.426
    1C        C  139   3.268   2.510   2.430
    1C        C  140   3.479   2.487   2.548
    1C        C  141   3.409   2.498   2.670
    1C        C  142   3.622   2.495   2.789
    1C        C  143   3.480   2.493   2.792
    1C        C  144   3.694   2.501   2.911
    1C        C  145   3.626   2.497   3.035
    1C        C  146   3.834   2.536   3.154
    1C        C  147   3.697   2.499   3.157
    1C        C  148   3.898   2.561   3.278
    1C        C  149   3.833   2.536   3.401
    1C        C  150   4.027   2.624   3.522
    1C        C  151   3.899   2.562   3.522
    1C        C  152   4.085   2.666   3.643
    1C        C  153   4.024   2.631   3.766
    1C        C  154   4.191   2.762   3.887
    1C        C  155   4.083   2.670   3.888
    1C        C  156   4.244   2.811   4.008
    1C        C  157   4.195   2.762   4.132
    1C        C  158   4.335   2.923   4.251
    1C        C  159   4.246   2.813   4.253
    1C        C  160   4.374   2.983   4.373
    1C        C  161   4.330   2.927   4.495
    1C        C  162   4.437   3.113   4.614
    1C        C  163   4.367   2.991   4.615
    1C        C  164   4.465   3.183   4.734
    1C        C  165   4.435   3.119   4.856
    1C        C  166   4.508   3.319   4.973
    1C        C  167   4.476   3.184   4.974
    1C        C  168   3.478   2.437   2.075
    1C        C  169   3.397   2.459   2.187
    1C        C  170   3.618   2.469   2.303
    1C        C  171   3.476   2.466   2.304
    1C        C  172   3.692   2.484   2.422
    1C        C  173   3.621   2.482   2.544
    1C        C  174   3.826   2.536   2.664
    1C        C  175   3.691   2.497   2.666
    1C        C  176   3.893   2.562   2.786
    1C        C  177   3.830   2.536   2.911
    1C        C  178   4.025   2.623   3.030
    1C        C  179   3.900   2.559   3.032
    1C        C  180   4.086   2.658   3.153
    1C        C  181   4.025   2.622   3.276
    1C        C  182   4.199   2.743   3.399
    1C        C  183   4.087   2.657   3.398
    1C        C  184   4.249   2.800   3.519
    1C        C  185   4.194   2.755   3.641
    1C        C  186   4.334   2.915   3.762
    1C        C  187   4.244   2.806   3.764
    1C        C  188   4.373   2.975   3.884
    1C        C  189   4.334   2.920   4.008
    1C        C  190   4.445   3.103   4.126
    1C        C  191   4.379   2.978   4.128
    1C        C  192   4.470   3.172   4.247
    1C        C  193   4.442   3.107   4.369
    1C        C  194   4.499   3.313   4.489
    1C        C  195   4.463   3.176   4.490
    1C        C  196   4.516   3.387   4.608
    1C        C  197   4.505   3.319   4.732
    1C        C  198   4.551   3.531   4.850
    1C        C  199   4.529   3.389   4.853
    1C        C  200   4.574   3.616   4.963
    1C        C  201   3.616   2.413   2.072
    1C        C  202   3.826   2.512   2.182
    1C        C  203   3.693   2.460   2.182
    1C        C  204   3.897   2.543   2.301
    1C        C  205   3.828   2.520   2.423
    1C        C  206   4.024   2.610   2.542
    1C        C  207   3.897   2.550   2.543
    1C        C  208   4.086   2.650   2.663
    1C        C  209   4.020   2.623   2.785
    1C        C  210   4.196   2.744   2.906
    1C        C  211   4.081   2.663   2.906
    1C        C  212   4.250   2.789   3.029
    1C        C  213   4.199   2.742   3.152
    1C        C  214   4.334   2.902   3.271
    1C        C  215   4.247   2.791   3.276
    1C        C  216   4.371   2.967   3.392
    1C        C  217   4.332   2.914   3.517
    1C        C  218   4.437   3.099   3.638
    1C        C  219   4.372   2.973   3.639
    1C        C  220   4.461   3.165   3.760
    1C        C  221   4.442   3.098   3.883
    1C        C  222   4.501   3.305   4.003
    1C        C  223   4.473   3.166   4.003
    1C        C  224   4.512   3.379   4.123
    1C        C  225   4.505   3.309   4.245
    1C        C  226   4.511   3.523   4.367
    1C        C  227   4.506   3.382   4.366
    1C        C  228   4.510   3.596   4.488
    1C        C  229   4.524   3.528   4.610
    1C        C  230   4.491   3.740   4.727
    1C        C  231   4.527   3.603   4.730
    1C        C  232   4.492   3.819   4.844
    1C        C  233   4.540   3.752   4.957
    1C        C  234   4.019   2.609   2.060
    1C        C  235   3.900   2.537   2.066
    1C        C  236   4.083   2.651   2.178
    1C        C  237   4.025   2.605   2.298
    1C        C  238   4.198   2.731   2.421
    1C        C  239   4.086   2.644   2.420
    1C        C  240   4.254   2.780   2.541
    1C        C  241   4.198   2.736   2.663
    1C        C  242   4.336   2.899   2.785
    1C        C  243   4.253   2.785   2.783
    1C        C  244   4.374   2.959   2.907
    1C        C  245   4.336   2.901   3.030
    1C        C  246   4.436   3.091   3.148
    1C        C  247   4.373   2.964   3.151
    1C        C  248   4.457   3.160   3.269
    1C        C  249   4.433   3.094   3.392
    1C        C  250   4.490   3.299   3.513
    1C        C  251   4.460   3.161   3.513
    1C        C  252   4.501   3.371   3.635
    1C        C  253   4.490   3.303   3.759
    1C        C  254   4.518   3.515   3.877
    1C        C  255   4.510   3.374   3.880
    1C        C  256   4.512   3.588   3.998
    1C        C  257   4.514   3.521   4.122
    1C        C  258   4.490   3.731   4.239
    1C        C  259   4.515   3.592   4.244
    1C        C  260   4.469   3.801   4.360
    1C        C  261   4.481   3.734   4.484
    1C        C  262   4.419   3.939   4.603
    1C        C  263   4.462   3.805   4.605
    1C        C  264   4.396   4.011   4.722
    1C        C  265   4.429   3.945   4.843
    1C        C  266   4.316   4.132   4.959
    1C        C  267   4.388   4.013   4.959
    1C        C  268   4.257   2.777   2.060
    1C        C  269   4.200   2.730   2.178
    1C        C  270   4.348   2.885   2.298
    1C        C  271   4.254   2.778   2.300
    1C        C  272   4.386   2.947   2.419
    1C        C  273   4.342   2.890   2.541
    1C        C  274   4.434   3.084   2.660
    1C        C  275   4.375   2.956   2.662
    1C        C  276   4.463   3.152   2.781
    1C        C  277   4.441   3.084   2.903
    1C        C  278   4.494   3.291   3.022
    1C        C  279   4.465   3.153   3.024
    1C        C  280   4.500   3.363   3.144
    1C        C  281   4.486   3.298   3.268
    1C        C  282   4.508   3.509   3.390
    1C        C  283   4.496   3.368   3.390
    1C        C  284   4.510   3.582   3.511
    1C        C  285   4.511   3.511   3.634
    1C        C  286   4.488   3.724   3.753
    1C        C  287   4.513   3.585   3.755
    1C        C  288   4.468   3.794   3.874
    1C        C  289   4.484   3.726   3.997
    1C        C  290   4.424   3.933   4.116
    1C        C  291   4.470   3.799   4.117
    1C        C  292   4.399   4.002   4.237
    1C        C  293   4.424   3.935   4.358
    1C        C  294   4.322   4.124   4.475
    1C        C  295   4.390   4.001   4.479
    1C        C  296   4.281   4.185   4.596
    1C        C  297   4.325   4.134   4.720
    1C        C  298   4.199   4.313   4.836
    1C        C  299   4.284   4.198   4.840
    1C        C  300   4.164   4.399   4.945
    1C        C  301   4.346   2.884   2.062
    1C        C  302   4.466   3.070   2.173
    1C        C  303   4.396   2.945   2.178
    1C        C  304   4.479   3.140   2.296
    1C        C  305   4.448   3.073   2.417
    1C        C  306   4.500   3.282   2.534
    1C        C  307   4.467   3.145   2.537
    1C        C  308   4.509   3.356   2.654
    1C        C  309   4.496   3.289   2.778
    1C        C  310   4.514   3.500   2.898
    1C        C  311   4.513   3.358   2.899
    1C        C  312   4.507   3.572   3.019
    1C        C  313   4.505   3.504   3.142
    1C        C  314   4.489   3.714   3.262
    1C        C  315   4.507   3.574   3.265
    1C        C  316   4.474   3.787   3.382
    1C        C  317   4.492   3.722   3.506
    1C        C  318   4.421   3.922   3.627
    1C        C  319   4.470   3.789   3.629
    1C        C  320   4.394   3.988   3.748
    1C        C  321   4.420   3.927   3.873
    1C        C  322   4.319   4.115   3.989
    1C        C  323   4.393   3.995   3.993
    1C        C  324   4.278   4.174   4.110
    1C        C  325   4.325   4.123   4.233
    1C        C  326   4.187   4.288   4.352
    1C        C  327   4.283   4.184   4.353
    1C        C  328   4.135   4.339   4.473
    1C        C  329   4.185   4.289   4.595
    1C        C  330   4.022   4.433   4.712
    1C        C  331   4.135   4.348   4.713
    1C        C  332   3.966   4.487   4.830
    1C        C  333   4.048   4.478   4.943
    1C        C  334   4.549   3.268   2.059
    1C        C  335   4.535   3.128   2.063
    1C        C  336   4.536   3.349   2.173
    1C        C  337   4.507   3.280   2.293
    1C        C  338   4.518   3.495   2.411
    1C        C  339   4.514   3.354   2.413
    1C        C  340   4.516   3.569   2.531
    1C        C  341   4.514   3.497   2.653
    1C        C  342   4.491   3.709   2.774
    1C        C  343   4.506   3.568   2.775
    1C        C  344   4.474   3.781   2.894
    1C        C  345   4.485   3.712   3.017
    1C        C  346   4.422   3.914   3.137
    1C        C  347   4.470   3.781   3.139
    1C        C  348   4.391   3.981   3.257
    1C        C  349   4.420   3.918   3.379
    1C        C  350   4.320   4.103   3.503
    1C        C  351   4.390   3.981   3.502
    1C        C  352   4.273   4.163   3.622
    1C        C  353   4.318   4.107   3.744
    1C        C  354   4.175   4.267   3.864
    1C        C  355   4.276   4.168   3.865
    1C        C  356   4.123   4.320   3.984
    1C        C  357   4.179   4.275   4.106
    1C        C  358   4.012   4.403   4.229
    1C        C  359   4.130   4.325   4.229
    1C        C  360   3.951   4.444   4.350
    1C        C  361   4.014   4.411   4.472
    1C        C  362   3.824   4.514   4.593
    1C        C  363   3.954   4.459   4.591
    1C        C  364   3.759   4.546   4.714
    1C        C  365   3.835   4.540   4.832
    1C        C  366   3.627   4.601   4.946
    1C        C  367   3.763   4.571   4.948
    1C        C  368   4.501   3.561   2.053
    1C        C  369   4.526   3.490   2.172
    1C        C  370   4.506   3.707   2.286
    1C        C  371   4.522   3.567   2.290
    1C        C  372   4.486   3.778   2.406
    1C        C  373   4.498   3.709   2.529
    1C        C  374   4.424   3.908   2.648
    1C        C  375   4.478   3.777   2.651
    1C        C  376   4.394   3.974   2.769
    1C        C  377   4.424   3.913   2.893
    1C        C  378   4.320   4.098   3.012
    1C        C  379   4.396   3.979   3.014
    1C        C  380   4.277   4.156   3.133
    1C        C  381   4.316   4.101   3.257
    1C        C  382   4.175   4.257   3.376
    1C        C  383   4.275   4.157   3.380
    1C        C  384   4.121   4.308   3.496
    1C        C  385   4.175   4.265   3.619
    1C        C  386   4.004   4.389   3.742
    1C        C  387   4.120   4.309   3.741
    1C        C  388   3.942   4.428   3.863
    1C        C  389   4.006   4.399   3.986
    1C        C  390   3.812   4.482   4.105
    1C        C  391   3.944   4.432   4.109
    1C        C  392   3.750   4.508   4.229
    1C        C  393   3.821   4.500   4.351
    1C        C  394   3.616   4.553   4.474
    1C        C  395   3.756   4.535   4.471
    1C        C  396   3.543   4.569   4.594
    1C        C  397   3.619   4.567   4.713
    1C        C  398   3.407   4.554   4.836
    1C        C  399   3.547   4.573   4.835
    1C        C  400   3.340   4.517   4.953
    1C        C  401   4.501   3.700   2.049
    1C        C  402   4.455   3.915   2.165
    1C        C  403   4.491   3.779   2.165
    1C        C  404   4.410   3.977   2.284
    1C        C  405   4.437   3.911   2.406
    1C        C  406   4.328   4.097   2.522
    1C        C  407   4.399   3.975   2.526
    1C        C  408   4.273   4.143   2.643
    1C        C  409   4.313   4.089   2.767
    1C        C  410   4.173   4.249   2.884
    1C        C  411   4.274   4.151   2.889
    1C        C  412   4.123   4.297   3.008
    1C        C  413   4.179   4.258   3.131
    1C        C  414   4.001   4.376   3.251
    1C        C  415   4.122   4.302   3.253
    1C        C  416   3.937   4.408   3.373
    1C        C  417   3.999   4.380   3.497
    1C        C  418   3.811   4.474   3.618
    1C        C  419   3.942   4.421   3.619
    1C        C  420   3.745   4.501   3.739
    1C        C  421   3.810   4.477   3.863
    1C        C  422   3.604   4.529   3.985
    1C        C  423   3.743   4.504   3.984
    1C        C  424   3.538   4.533   4.110
    1C        C  425   3.611   4.533   4.231
    1C        C  426   3.401   4.547   4.354
    1C        C  427   3.542   4.550   4.353
    1C        C  428   3.330   4.547   4.476
    1C        C  429   3.403   4.554   4.597
    1C        C  430   3.191   4.523   4.722
    1C        C  431   3.331   4.547   4.718
    1C        C  432   3.122   4.498   4.843
    1C        C  433   3.202   4.501   4.958
    1C        C  434   4.388   4.124   2.050
    1C        C  435   4.447   3.996   2.052
    1C        C  436   4.302   4.162   2.157
    1C        C  437   4.329   4.094   2.279
    1C        C  438   4.180   4.249   2.399
    1C        C  439   4.283   4.151   2.400
    1C        C  440   4.123   4.292   2.521
    1C        C  441   4.174   4.244   2.643
    1C        C  442   4.000   4.372   2.763
    1C        C  443   4.120   4.297   2.763
    1C        C  444   3.937   4.404   2.886
    1C        C  445   4.004   4.373   3.007
    1C        C  446   3.809   4.460   3.130
    1C        C  447   3.939   4.406   3.128
    1C        C  448   3.741   4.485   3.252
    1C        C  449   3.808   4.466   3.375
    1C        C  450   3.604   4.523   3.496
    1C        C  451   3.742   4.494   3.496
    1C        C  452   3.534   4.536   3.618
    1C        C  453   3.607   4.533   3.739
    1C        C  454   3.397   4.547   3.864
    1C        C  455   3.538   4.546   3.862
    1C        C  456   3.328   4.534   3.987
    1C        C  457   3.397   4.532   4.110
    1C        C  458   3.190   4.503   4.235
    1C        C  459   3.329   4.530   4.234
    1C        C  460   3.125   4.488   4.360
    1C        C  461   3.192   4.516   4.481
    1C        C  462   2.992   4.441   4.602
    1C        C  463   3.121   4.499   4.601
    1C        C  464   2.927   4.404   4.722
    1C        C  465   2.990   4.442   4.845
    1C        C  466   2.803   4.338   4.959
    1C        C  467   2.909   4.429   4.962
    1C        C  468   4.120   4.284   2.040
    1C        C  469   4.186   4.245   2.157
    1C        C  470   4.005   4.369   2.276
    1C        C  471   4.126   4.294   2.277
    1C        C  472   3.939   4.399   2.397
    1C        C  473   4.005   4.369   2.519
    1C        C  474   3.807   4.453   2.641
    1C        C  475   3.939   4.402   2.639
    1C        C  476   3.740   4.483   2.761
    1C        C  477   3.807   4.458   2.883
    1C        C  478   3.604   4.509   3.008
    1C        C  479   3.743   4.480   3.007
    1C        C  480   3.532   4.522   3.129
    1C        C  481   3.603   4.515   3.251
    1C        C  482   3.392   4.526   3.375
    1C        C  483   3.534   4.526   3.373
    1C        C  484   3.323   4.529   3.498
    1C        C  485   3.393   4.541   3.620
    1C        C  486   3.188   4.501   3.744
    1C        C  487   3.324   4.539   3.743
    1C        C  488   3.121   4.479   3.866
    1C        C  489   3.190   4.501   3.988
    1C        C  490   3.000   4.416   4.115
    1C        C  491   3.125   4.481   4.111
    1C        C  492   2.939   4.385   4.239
    1C        C  493   2.998   4.427   4.360
    1C        C  494   2.830   4.299   4.483
    1C        C  495   2.936   4.392   4.482
    1C        C  496   2.770   4.256   4.604
    1C        C  497   2.818   4.313   4.724
    1C        C  498   2.664   4.166   4.845
    1C        C  499   2.753   4.275   4.844
    1C        C  500   2.598   4.116   4.958
    1C        C  501   4.001   4.356   2.039
    1C        C  502   3.809   4.458   2.154
    1C        C  503   3.938   4.399   2.156
    1C        C  504   3.741   4.476   2.276
    1C        C  505   3.807   4.451   2.399
    1C        C  506   3.601   4.510   2.520
    1C        C  507   3.738   4.473   2.520
    1C        C  508   3.529   4.518   2.641
    1C        C  509   3.601   4.512   2.762
    1C        C  510   3.393   4.524   2.885
    1C        C  511   3.534   4.521   2.886
    1C        C  512   3.321   4.518   3.006
    1C        C  513   3.391   4.521   3.129
    1C        C  514   3.183   4.493   3.252
    1C        C  515   3.323   4.517   3.253
    1C        C  516   3.116   4.475   3.375
    1C        C  517   3.185   4.496   3.497
    1C        C  518   2.995   4.413   3.623
    1C        C  519   3.123   4.473   3.621
    1C        C  520   2.935   4.378   3.746
    1C        C  521   2.996   4.415   3.868
    1C        C  522   2.837   4.282   3.996
    1C        C  523   2.941   4.377   3.992
    1C        C  524   2.790   4.231   4.119
    1C        C  525   2.836   4.288   4.239
    1C        C  526   2.698   4.130   4.363
    1C        C  527   2.784   4.242   4.362
    1C        C  528   2.656   4.075   4.486
    1C        C  529   2.689   4.141   4.607
    1C        C  530   2.582   3.960   4.731
    1C        C  531   2.640   4.090   4.729
    1C        C  532   2.540   3.901   4.854
    1C        C  533   2.529   3.994   4.962
    1C        C  534   3.612   4.555   2.038
    1C        C  535   3.746   4.516   2.043
    1C        C  536   3.533   4.532   2.155
    1C        C  537   3.603   4.508   2.277
    1C        C  538   3.389   4.514   2.399
    1C        C  539   3.530   4.517   2.398
    1C        C  540   3.317   4.514   2.520
    1C        C  541   3.388   4.517   2.642
    1C        C  542   3.179   4.489   2.765
    1C        C  543   3.319   4.509   2.766
    1C        C  544   3.113   4.468   2.889
    1C        C  545   3.184   4.485   3.010
    1C        C  546   2.988   4.405   3.133
    1C        C  547   3.114   4.468   3.132
    1C        C  548   2.932   4.366   3.258
    1C        C  549   2.992   4.407   3.379
    1C        C  550   2.826   4.281   3.504
    1C        C  551   2.934   4.371   3.502
    1C        C  552   2.774   4.235   3.628
    1C        C  553   2.826   4.288   3.748
    1C        C  554   2.699   4.123   3.874
    1C        C  555   2.787   4.234   3.872
    1C        C  556   2.662   4.062   3.996
    1C        C  557   2.700   4.122   4.118
    1C        C  558   2.603   3.938   4.246
    1C        C  559   2.663   4.066   4.242
    1C        C  560   2.575   3.875   4.369
    1C        C  561   2.597   3.947   4.489
    1C        C  562   2.531   3.750   4.615
    1C        C  563   2.559   3.888   4.611
    1C        C  564   2.516   3.681   4.737
    1C        C  565   2.523   3.759   4.855
    1C        C  566   2.523   3.546   4.978
    1C        C  567   2.522   3.685   4.974
    1C        C  568   3.316   4.484   2.042
    1C        C  569   3.392   4.510   2.156
    1C        C  570   3.178   4.483   2.278
    1C        C  571   3.317   4.512   2.277
    1C        C  572   3.109   4.464   2.400
    1C        C  573   3.178   4.487   2.521
    1C        C  574   2.984   4.404   2.645
    1C        C  575   3.111   4.466   2.644
    1C        C  576   2.926   4.365   2.767
    1C        C  577   2.988   4.402   2.888
    1C        C  578   2.822   4.274   3.013
    1C        C  579   2.930   4.365   3.011
    1C        C  580   2.776   4.224   3.137
    1C        C  581   2.823   4.277   3.259
    1C        C  582   2.693   4.113   3.384
    1C        C  583   2.777   4.227   3.383
    1C        C  584   2.659   4.056   3.508
    1C        C  585   2.695   4.119   3.630
    1C        C  586   2.600   3.932   3.756
    1C        C  587   2.658   4.061   3.754
    1C        C  588   2.573   3.868   3.879
    1C        C  589   2.606   3.932   4.001
    1C        C  590   2.543   3.734   4.126
    1C        C  591   2.579   3.871   4.125
    1C        C  592   2.530   3.669   4.251
    1C        C  593   2.537   3.739   4.373
    1C        C  594   2.511   3.532   4.497
    1C        C  595   2.519   3.673   4.497
    1C        C  596   2.512   3.464   4.621
    1C        C  597   2.512   3.538   4.741
    1C        C  598   2.528   3.326   4.862
    1C        C  599   2.518   3.467   4.862
    1C        C  600   2.536   3.250   4.980
    1C        C  601   3.187   4.434   2.043
    1C        C  602   2.975   4.397   2.158
    1C        C  603   3.109   4.447   2.159
    1C        C  604   2.917   4.363   2.284
    1C        C  605   2.982   4.404   2.403
    1C        C  606   2.816   4.271   2.526
    1C        C  607   2.921   4.365   2.524
    1C        C  608   2.767   4.220   2.648
    1C        C  609   2.818   4.273   2.769
    1C        C  610   2.686   4.110   2.894
    1C        C  611   2.767   4.225   2.892
    1C        C  612   2.652   4.050   3.018
    1C        C  613   2.693   4.109   3.140
    1C        C  614   2.594   3.924   3.267
    1C        C  615   2.658   4.050   3.263
    1C        C  616   2.571   3.860   3.391
    1C        C  617   2.602   3.927   3.512
    1C        C  618   2.540   3.726   3.637
    1C        C  619   2.583   3.861   3.635
    1C        C  620   2.520   3.662   3.762
    1C        C  621   2.534   3.733   3.883
    1C        C  622   2.514   3.521   4.008
    1C        C  623   2.530   3.662   4.005
    1C        C  624   2.511   3.456   4.134
    1C        C  625   2.510   3.529   4.255
    1C        C  626   2.540   3.319   4.379
    1C        C  627   2.515   3.458   4.377
    1C        C  628   2.555   3.252   4.503
    1C        C  629   2.535   3.325   4.623
    1C        C  630   2.593   3.118   4.743
    1C        C  631   2.549   3.253   4.743
    1C        C  632   2.613   3.047   4.864
    1C        C  633   2.556   3.112   4.979
    1C        C  634   2.778   4.306   2.050
    1C        C  635   2.887   4.394   2.045
    1C        C  636   2.746   4.232   2.164
    1C        C  637   2.803   4.278   2.285
    1C        C  638   2.673   4.109   2.407
    1C        C  639   2.760   4.220   2.406
    1C        C  640   2.638   4.048   2.529
    1C        C  641   2.683   4.107   2.650
    1C        C  642   2.597   3.915   2.773
    1C        C  643   2.651   4.046   2.773
    1C        C  644   2.569   3.854   2.897
    1C        C  645   2.595   3.921   3.019
    1C        C  646   2.534   3.722   3.146
    1C        C  647   2.574   3.858   3.143
    1C        C  648   2.521   3.655   3.270
    1C        C  649   2.540   3.723   3.393
    1C        C  650   2.507   3.516   3.518
    1C        C  651   2.523   3.656   3.516
    1C        C  652   2.511   3.447   3.642
    1C        C  653   2.512   3.521   3.762
    1C        C  654   2.534   3.312   3.889
    1C        C  655   2.513   3.452   3.886
    1C        C  656   2.550   3.247   4.014
    1C        C  657   2.538   3.317   4.135
    1C        C  658   2.602   3.115   4.256
    1C        C  659   2.556   3.249   4.257
    1C        C  660   2.630   3.054   4.380
    1C        C  661   2.596   3.117   4.501
    1C        C  662   2.700   2.932   4.621
    1C        C  663   2.622   3.050   4.622
    1C        C  664   2.748   2.878   4.743
    1C        C  665   2.695   2.930   4.864
    1C        C  666   2.737   2.866   4.982
    1C        C  667   2.680   4.024   2.054
    1C        C  668   2.678   4.108   2.165
    1C        C  669   2.592   3.910   2.287
    1C        C  670   2.643   4.043   2.285
    1C        C  671   2.563   3.846   2.410
    1C        C  672   2.586   3.917   2.530
    1C        C  673   2.524   3.714   2.656
    1C        C  674   2.569   3.848   2.652
    1C        C  675   2.515   3.648   2.781
    1C        C  676   2.533   3.718   2.902
    1C        C  677   2.512   3.509   3.028
    1C        C  678   2.525   3.650   3.025
    1C        C  679   2.517   3.442   3.153
    1C        C  680   2.514   3.514   3.274
    1C        C  681   2.532   3.304   3.400
    1C        C  682   2.507   3.443   3.396
    1C        C  683   2.552   3.238   3.523
    1C        C  684   2.532   3.308   3.644
    1C        C  685   2.598   3.109   3.771
    1C        C  686   2.549   3.242   3.768
    1C        C  687   2.633   3.047   3.893
    1C        C  688   2.599   3.114   4.013
    1C        C  689   2.710   2.933   4.137
    1C        C  690   2.632   3.050   4.134
    1C        C  691   2.750   2.875   4.259
    1C        C  692   2.705   2.934   4.380
    1C        C  693   2.750   2.877   4.501
    1C        C  694   2.632   3.892   2.054
    1C        C  695   2.528   3.701   2.173
    1C        C  696   2.579   3.833   2.170
    1C        C  697   2.516   3.636   2.298
    1C        C  698   2.528   3.709   2.418
    1C        C  699   2.490   3.499   2.542
    1C        C  700   2.501   3.640   2.538
    1C        C  701   2.508   3.433   2.665
    1C        C  702   2.503   3.507   2.785
    1C        C  703   2.524   3.296   2.910
    1C        C  704   2.509   3.437   2.907
    1C        C  705   2.544   3.232   3.034
    1C        C  706   2.535   3.302   3.156
    1C        C  707   2.596   3.100   3.277
    1C        C  708   2.550   3.234   3.279
    1C        C  709   2.624   3.038   3.401
    1C        C  710   2.598   3.104   3.523
    1C        C  711   2.706   2.928   3.648
    1C        C  712   2.626   3.045   3.648
    1C        C  713   2.750   2.871   3.769
    1C        C  714   2.711   2.929   3.892
    1C        C  715   2.748   2.871   4.015
    1C        C  716   2.449   3.499   2.060
    1C        C  717   2.488   3.634   2.057
    1C        C  718   2.468   3.422   2.179
    1C        C  719   2.490   3.496   2.299
    1C        C  720   2.523   3.287   2.422
    1C        C  721   2.496   3.426   2.421
    1C        C  722   2.536   3.221   2.546
    1C        C  723   2.524   3.292   2.667
    1C        C  724   2.589   3.092   2.788
    1C        C  725   2.536   3.223   2.789
    1C        C  726   2.620   3.031   2.912
    1C        C  727   2.591   3.098   3.032
    1C        C  728   2.704   2.920   3.156
    1C        C  729   2.624   3.036   3.154
    1C        C  730   2.746   2.865   3.280
    1C        C  731   2.705   2.923   3.402
    1C        C  732   2.748   2.871   3.526
    1C        C  733   2.487   3.199   2.068
    1C        C  734   2.489   3.280   2.182
    1C        C  735   2.581   3.083   2.301
    1C        C  736   2.524   3.213   2.302
    1C        C  737   2.614   3.019   2.423
    1C        C  738   2.587   3.089   2.543
    1C        C  739   2.693   2.907   2.667
    1C        C  740   2.618   3.027   2.666
    1C        C  741   2.741   2.854   2.789
    1C        C  742   2.699   2.914   2.910
    1C        C  743   2.746   2.863   3.033
    1C        C  744   2.545   3.073   2.068
    1C        C  745   2.683   2.896   2.183
    1C        C  746   2.608   3.016   2.179
    1C        C  747   2.723   2.836   2.304
    1C        C  748   2.685   2.897   2.426
    1C        C  749   2.730   2.842   2.547
    1C        C  750   2.737   2.841   2.066
    1C        C  751   3.648   2.282   2.011
    1C        O  752   3.644   2.170   2.070
    1C        O  753   3.657   2.253   1.874
    1C        C  754   4.644   3.053   1.996
    1C        O  755   4.622   2.980   1.895
    1C        O  756   4.764   3.023   2.061
    1C        C  757   4.467   4.227   1.978
    1C        O  758   4.509   4.337   2.021
    1C        O  759   4.436   4.242   1.842
    1C        C  760   3.586   4.667   1.945
    1C        O  761   3.579   4.788   1.982
    1C        O  762   3.616   4.661   1.809
    1C        C  763   2.886   4.471   1.918
    1C        O  764   2.918   4.416   1.809
    1C        O  765   2.792   4.573   1.902
    1C        C  766   2.328   3.473   1.980
    1C        O  767   2.327   3.468   1.854
    1C        O  768   2.198   3.511   2.016
    1C        C  769   4.673   3.582   5.067
    1C        O  770   4.648   3.519   5.174
    1C        O  771   4.809   3.613   5.053
    1C        C  772   4.270   4.425   5.045
    1C        O  773   4.256   4.403   5.168
    1C        O  774   4.348   4.540   5.034
    1C        C  775   4.146   2.543   5.082
    1C        O  776   4.171   2.420   5.074
    1C        O  777   4.127   2.587   5.213
    1C        C  778   2.886   4.543   5.054
    1C        O  779   2.817   4.645   5.031
    1C        O  780   2.911   4.534   5.192
    1C        C  781   2.454   3.049   5.065
    1C        O  782   2.343   3.009   5.019
    1C        O  783   2.471   3.015   5.198
    1C        C  784   2.420   3.974   5.061
    1C        O  785   2.297   3.976   5.035
    1C        O  786   2.449   3.967   5.198
    1C        C  787   2.955   2.401   2.022
    1C        O  788   2.928   2.405   1.899
    1C        O  789   2.921   2.289   2.098
    1C        C  790   3.166   2.356   5.034
    1C        O  791   3.113   2.258   4.975
    1C        O  792   3.156   2.339   5.173
    1C        H  793   4.313   3.003   5.067
    1C        H  794   4.178   2.812   5.070
    1C        H  795   4.502   3.128   5.062
    1C        H  796   4.472   3.371   5.059
    1C        H  797   4.584   3.813   5.034
    1C        H  798   4.409   3.966   5.053
    1C        H  799   4.259   4.161   5.045
    1C        H  800   4.005   4.504   5.038
    1C        H  801   3.812   4.568   5.043
    1C        H  802   3.589   4.664   5.024
    1C        H  803   3.392   4.474   5.036
    1C        H  804   3.154   4.541   5.046
    1C        H  805   3.890   2.478   5.063
    1C        H  806   3.674   2.498   5.070
    1C        H  807   2.985   2.534   5.048
    1C        H  808   3.443   2.469   5.076
    1C        H  809   2.865   2.728   5.078
    1C        H  810   2.682   2.883   5.072
    1C        H  811   2.506   3.291   5.075
    1C        H  812   2.462   3.499   5.052
    1C        H  813   2.501   3.734   5.067
    1C        H  814   2.554   4.187   5.025
    1C        H  815   2.743   4.329   5.047
    1C        H  816   2.706   2.877   1.970
    1C        H  817   2.821   2.667   1.983
    1C        H  818   3.200   2.389   2.011
    1C        H  819   3.427   2.403   1.987
    1C        H  820   3.868   2.491   1.975
    1C        H  821   4.061   2.624   1.963
    1C        H  822   4.227   2.740   1.964
    1C        H  823   4.411   2.886   1.977
    1C        H  824   4.619   3.302   1.987
    1C        H  825   4.460   3.509   1.969
    1C        H  826   4.548   3.745   1.964
    1C        H  827   3.810   4.559   1.969
    1C        H  828   3.965   4.392   1.945
    1C        H  829   4.169   4.264   1.947
    1C        H  830   4.466   3.951   1.957
    1C        H  831   2.670   3.829   1.977
    1C        H  832   2.734   4.051   1.965
    1C        H  833   2.707   4.320   1.971
    1C        H  834   3.348   4.530   1.950
    1C        H  835   3.155   4.373   1.962
    1C        H  836   2.503   3.008   1.994
    1C        H  837   2.387   3.195   2.028
    1C        H  838   2.467   3.686   1.966
    2V3OU   H29  839   2.798   3.547   5.055
    2V3OU   C27  840   2.783   3.503   5.157
    2V3OU   H27  841   2.724   3.574   5.220
    2V3OU   H28  842   2.726   3.407   5.150
    2V3OU   O11  843   2.904   3.474   5.227
    2V3OU   C15  844   2.919   3.402   5.344
    2V3OU   C13  845   3.051   3.375   5.386
    2V3OU   C14  846   3.073   3.266   5.471
    2V3OU   C16  847   2.968   3.187   5.515
    2V3OU    H6  848   2.986   3.102   5.583
    2V3OU   C12  849   3.214   3.234   5.506
    2V3OU    O2  850   3.234   3.129   5.571
    2V3OU   C10  851   3.325   3.309   5.446
    2V3OU    C8  852   3.457   3.269   5.464
    2V3OU   O10  853   3.484   3.149   5.523
    2V3OU   H26  854   3.402   3.109   5.556
    2V3OU    C6  855   3.565   3.346   5.409
    2V3OU    C5  856   3.536   3.465   5.343
    2V3OU    C4  857   3.703   3.292   5.410
    2V3OU    H4  858   3.717   3.220   5.496
    2V3OU    H5  859   3.714   3.226   5.319
    2V3OU    C2  860   3.815   3.396   5.406
    2V3OU    O6  861   3.805   3.468   5.529
    2V3OU   H21  862   3.765   3.553   5.504
    2V3OU    C3  863   3.779   3.493   5.293
    2V3OU    H2  864   3.859   3.570   5.276
    2V3OU    H3  865   3.781   3.436   5.197
    2V3OU   C25  866   3.949   3.326   5.381
    2V3OU    O7  867   3.999   3.296   5.273
    2V3OU   C26  868   4.033   3.290   5.503
    2V3OU   H22  869   4.064   3.382   5.558
    2V3OU   H23  870   4.116   3.221   5.472
    2V3OU    O8  871   3.964   3.208   5.595
    2V3OU   H24  872   3.916   3.268   5.654
    2V3OU    C1  873   3.644   3.562   5.303
    2V3OU    H1  874   3.623   3.615   5.205
    2V3OU    O3  875   3.655   3.658   5.409
    2V3OU   C19  876   3.614   3.794   5.390
    2V3OU    H9  877   3.518   3.805   5.331
    2V3OU    O4  878   3.710   3.844   5.299
    2V3OU   C20  879   3.840   3.869   5.353
    2V3OU   H10  880   3.891   3.769   5.363
    2V3OU   C24  881   3.608   3.854   5.531
    2V3OU   H16  882   3.541   3.792   5.595
    2V3OU   H17  883   3.560   3.954   5.516
    2V3OU   C23  884   3.750   3.873   5.586
    2V3OU   H15  885   3.791   3.768   5.601
    2V3OU    N1  886   3.730   3.959   5.701
    2V3OU   H19  887   3.805   3.926   5.758
    2V3OU   H20  888   3.642   3.931   5.739
    2V3OU   C21  889   3.845   3.945   5.485
    2V3OU   H11  890   3.949   3.927   5.526
    2V3OU    O5  891   3.821   4.085   5.476
    2V3OU   H18  892   3.785   4.104   5.564
    2V3OU   C22  893   3.912   3.946   5.244
    2V3OU   H12  894   3.863   4.045   5.229
    2V3OU   H13  895   3.906   3.890   5.147
    2V3OU   H14  896   4.021   3.960   5.267
    2V3OU   C11  897   3.156   3.474   5.360
    2V3OU    O1  898   3.129   3.586   5.311
    2V3OU    C9  899   3.295   3.427   5.374
    2V3OU    C7  900   3.400   3.501   5.319
    2V3OU    O9  901   3.386   3.617   5.247
    2V3OU   H25  902   3.289   3.630   5.244
    2V3OU   C17  903   2.816   3.314   5.385
    2V3OU    H7  904   2.711   3.341   5.371
    2V3OU   C18  905   2.839   3.203   5.465
    2V3OU    H8  906   2.753   3.144   5.499
    3SOL     OW  907   3.770   4.064   4.109
    3SOL    HW1  908   3.728   4.122   4.179
    3SOL    HW2  909   3.711   4.061   4.028
    4SOL     OW  910   6.554   0.312   0.653
    4SOL    HW1  911   6.636   0.304   0.709
    4SOL    HW2  912   6.473   0.308   0.712
    5SOL     OW  913   4.835   1.737   1.598
    5SOL    HW1  914   4.908   1.796   1.629
    5SOL    HW2  915   4.809   1.674   1.671
    6SOL     OW  916   5.640   0.481   2.484
    6SOL    HW1  917   5.577   0.420   2.532
    6SOL    HW2  918   5.681   0.544   2.549
    7SOL     OW  919   2.307   4.187   4.250
    7SOL    HW1  920   2.273   4.136   4.171
    7SOL    HW2  921   2.331   4.280   4.221
    8SOL     OW  922   2.038   3.445   5.430
    8SOL    HW1  923   2.017   3.377   5.500
    8SOL    HW2  924   2.074   3.528   5.472
    9SOL     OW  925   6.693   1.010   6.461
    9SOL    HW1  926   6.733   1.094   6.498
    9SOL    HW2  927   6.621   1.033   6.395
   10SOL     OW  928   4.940   4.462   2.718
   10SOL    HW1  929   4.858   4.406   2.725
   10SOL    HW2  930   5.001   4.423   2.648
   11SOL     OW  931   2.712   1.507   0.406
   11SOL    HW1  932   2.777   1.466   0.342
   11SOL    HW2  933   2.700   1.448   0.485
   12SOL     OW  934   2.881   4.815   3.049
   12SOL    HW1  935   2.981   4.805   3.051
   12SOL    HW2  936   2.842   4.783   3.135
   13SOL     OW  937   4.854   6.420   1.212
   13SOL    HW1  938   4.938   6.379   1.248
   13SOL    HW2  939   4.876   6.473   1.130
   14SOL     OW  940   4.403   5.218   4.974
   14SOL    HW1  941   4.467   5.264   5.036
   14SOL    HW2  942   4.319   5.271   4.967
   15SOL     OW  943   6.495   5.937   5.880
   15SOL    HW1  944   6.416   5.926   5.820
   15SOL    HW2  945   6.537   5.848   5.898
   16SOL     OW  946   1.088   3.824   5.126
   16SOL    HW1  947   1.007   3.777   5.093
   16SOL    HW2  948   1.169   3.785   5.082
   17SOL     OW  949   6.310   1.813   5.204
   17SOL    HW1  950   6.243   1.872   5.159
   17SOL    HW2  951   6.281   1.718   5.197
   18SOL     OW  952   2.593   1.210   5.795
   18SOL    HW1  953   2.550   1.208   5.885
   18SOL    HW2  954   2.684   1.251   5.803
   19SOL     OW  955   2.190   1.011   2.932
   19SOL    HW1  956   2.289   1.014   2.919
   19SOL    HW2  957   2.147   0.964   2.854
   20SOL     OW  958   6.406   1.577   5.447
   20SOL    HW1  959   6.443   1.659   5.491
   20SOL    HW2  960   6.307   1.577   5.455
   21SOL     OW  961   2.496   4.620   3.006
   21SOL    HW1  962   2.588   4.652   2.983
   21SOL    HW2  963   2.446   4.602   2.921
   22SOL     OW  964   1.929   6.792   6.527
   22SOL    HW1  965   1.987   6.726   6.574
   22SOL    HW2  966   1.856   6.744   6.478
   23SOL     OW  967   5.894   4.518   1.357
   23SOL    HW1  968   5.816   4.580   1.351
   23SOL    HW2  969   5.864   4.425   1.334
   24SOL     OW  970   4.426   1.087   1.083
   24SOL    HW1  971   4.519   1.051   1.092
   24SOL    HW2  972   4.426   1.168   1.026
   25SOL     OW  973   1.494   0.932   4.574
   25SOL    HW1  974   1.535   0.976   4.654
   25SOL    HW2  975   1.483   0.999   4.501
   26SOL     OW  976   1.101   2.827   6.769
   26SOL    HW1  977   1.131   2.742   6.812
   26SOL    HW2  978   1.149   2.840   6.682
   27SOL     OW  979   6.249   1.003   0.936
   27SOL    HW1  980   6.340   1.039   0.956
   27SOL    HW2  981   6.245   0.972   0.841
   28SOL     OW  982   2.807   0.798   5.259
   28SOL    HW1  983   2.781   0.715   5.209
   28SOL    HW2  984   2.896   0.830   5.227
   29SOL     OW  985   0.535   0.666   1.175
   29SOL    HW1  986   0.511   0.730   1.102
   29SOL    HW2  987   0.628   0.633   1.160
   30SOL     OW  988   4.506   0.448   5.266
   30SOL    HW1  989   4.587   0.505   5.279
   30SOL    HW2  990   4.496   0.426   5.169
   31SOL     OW  991   0.979   4.079   5.557
   31SOL    HW1  992   1.015   4.097   5.466
   31SOL    HW2  993   0.924   3.996   5.556
   32SOL     OW  994   3.030   0.782   1.173
   32SOL    HW1  995   2.980   0.765   1.258
   32SOL    HW2  996   3.075   0.698   1.143
   33SOL     OW  997   0.849   5.065   5.719
   33SOL    HW1  998   0.825   5.162   5.731
   33SOL    HW2  999   0.903   5.034   5.797
   34SOL     OW 1000   1.975   5.551   5.580
   34SOL    HW1 1001   1.975   5.455   5.606
   34SOL    HW2 1002   2.019   5.562   5.490
   35SOL     OW 1003   2.834   3.478   6.852
   35SOL    HW1 1004   2.749   3.512   6.813
   35SOL    HW2 1005   2.816   3.394   6.904
   36SOL     OW 1006   4.510   1.014   4.919
   36SOL    HW1 1007   4.469   1.015   4.828
   36SOL    HW2 1008   4.505   1.106   4.958
   37SOL     OW 1009   2.917   0.649   4.302
   37SOL    HW1 1010   2.901   0.634   4.399
   37SOL    HW2 1011   2.946   0.744   4.287
   38SOL     OW 1012   0.034   4.197   2.771
   38SOL    HW1 1013   0.083   4.126   2.822
   38SOL    HW2 1014   6.981   4.235   2.827
   39SOL     OW 1015   6.800   5.666   6.584
   39SOL    HW1 1016   6.871   5.611   6.541
   39SOL    HW2 1017   6.795   5.645   6.682
   40SOL     OW 1018   3.909   1.009   6.253
   40SOL    HW1 1019   4.007   1.010   6.274
   40SOL    HW2 1020   3.894   0.970   6.162
   41SOL     OW 1021   5.676   4.268   1.495
   41SOL    HW1 1022   5.742   4.237   1.426
   41SOL    HW2 1023   5.589   4.222   1.480
   42SOL     OW 1024   2.399   5.486   6.203
   42SOL    HW1 1025   2.314   5.444   6.236
   42SOL    HW2 1026   2.477   5.439   6.242
   43SOL     OW 1027   3.769   7.014   4.325
   43SOL    HW1 1028   3.700   6.978   4.263
   43SOL    HW2 1029   3.814   0.072   4.282
   44SOL     OW 1030   6.887   1.412   6.212
   44SOL    HW1 1031   6.844   1.393   6.124
   44SOL    HW2 1032   6.950   1.490   6.202
   45SOL     OW 1033   3.034   5.269   0.048
   45SOL    HW1 1034   2.937   5.252   0.028
   45SOL    HW2 1035   3.067   5.345   7.013
   46SOL     OW 1036   0.589   2.585   4.207
   46SOL    HW1 1037   0.638   2.570   4.121
   46SOL    HW2 1038   0.492   2.563   4.194
   47SOL     OW 1039   5.459   3.069   0.823
   47SOL    HW1 1040   5.479   3.080   0.920
   47SOL    HW2 1041   5.469   2.973   0.797
   48SOL     OW 1042   0.058   3.544   0.948
   48SOL    HW1 1043   0.130   3.539   1.017
   48SOL    HW2 1044   6.989   3.541   0.992
   49SOL     OW 1045   3.959   3.933   0.218
   49SOL    HW1 1046   3.955   3.871   0.297
   49SOL    HW2 1047   4.053   3.938   0.184
   50SOL     OW 1048   6.198   3.110   0.041
   50SOL    HW1 1049   6.296   3.116   0.062
   50SOL    HW2 1050   6.181   3.152   6.972
   51SOL     OW 1051   2.558   5.966   3.052
   51SOL    HW1 1052   2.532   5.873   3.080
   51SOL    HW2 1053   2.525   5.982   2.959
   52SOL     OW 1054   5.605   2.482   1.106
   52SOL    HW1 1055   5.553   2.515   1.028
   52SOL    HW2 1056   5.702   2.501   1.092
   53SOL     OW 1057   4.139   0.206   2.301
   53SOL    HW1 1058   4.130   0.108   2.285
   53SOL    HW2 1059   4.234   0.228   2.323
   54SOL     OW 1060   5.588   6.705   6.553
   54SOL    HW1 1061   5.672   6.678   6.599
   54SOL    HW2 1062   5.598   6.797   6.516
   55SOL     OW 1063   0.761   3.428   6.886
   55SOL    HW1 1064   0.842   3.410   6.830
   55SOL    HW2 1065   0.760   3.523   6.915
   56SOL     OW 1066   0.852   2.863   6.868
   56SOL    HW1 1067   0.926   2.856   6.801
   56SOL    HW2 1068   0.887   2.905   6.952
   57SOL     OW 1069   4.591   6.864   6.948
   57SOL    HW1 1070   4.605   6.795   6.877
   57SOL    HW2 1071   4.502   6.851   6.991
   58SOL     OW 1072   0.951   0.288   6.423
   58SOL    HW1 1073   0.987   0.251   6.337
   58SOL    HW2 1074   1.016   0.271   6.497
   59SOL     OW 1075   5.142   2.985   5.630
   59SOL    HW1 1076   5.168   2.959   5.537
   59SOL    HW2 1077   5.150   3.085   5.640
   60SOL     OW 1078   5.483   0.794   3.384
   60SOL    HW1 1079   5.484   0.708   3.435
   60SOL    HW2 1080   5.570   0.842   3.398
   61SOL     OW 1081   6.219   5.758   4.901
   61SOL    HW1 1082   6.271   5.697   4.842
   61SOL    HW2 1083   6.279   5.799   4.969
   62SOL     OW 1084   6.147   2.611   1.855
   62SOL    HW1 1085   6.240   2.607   1.819
   62SOL    HW2 1086   6.147   2.587   1.952
   63SOL     OW 1087   4.315   6.268   5.013
   63SOL    HW1 1088   4.294   6.173   4.991
   63SOL    HW2 1089   4.310   6.323   4.930
   64SOL     OW 1090   0.505   4.350   6.170
   64SOL    HW1 1091   0.602   4.327   6.171
   64SOL    HW2 1092   0.481   4.401   6.253
   65SOL     OW 1093   0.840   6.929   5.439
   65SOL    HW1 1094   0.817   6.984   5.519
   65SOL    HW2 1095   0.925   6.878   5.457
   66SOL     OW 1096   4.281   0.951   2.323
   66SOL    HW1 1097   4.333   0.961   2.408
   66SOL    HW2 1098   4.299   1.030   2.264
   67SOL     OW 1099   0.747   2.710   1.228
   67SOL    HW1 1100   0.648   2.697   1.232
   67SOL    HW2 1101   0.768   2.807   1.226
   68SOL     OW 1102   0.035   1.919   4.938
   68SOL    HW1 1103   7.007   1.970   5.008
   68SOL    HW2 1104   0.105   1.978   4.896
   69SOL     OW 1105   1.035   6.426   6.069
   69SOL    HW1 1106   0.945   6.470   6.059
   69SOL    HW2 1107   1.044   6.389   6.162
   70SOL     OW 1108   4.902   3.528   4.123
   70SOL    HW1 1109   4.967   3.479   4.182
   70SOL    HW2 1110   4.905   3.490   4.031
   71SOL     OW 1111   4.583   1.865   4.946
   71SOL    HW1 1112   4.655   1.796   4.937
   71SOL    HW2 1113   4.571   1.911   4.858
   72SOL     OW 1114   0.475   0.910   3.340
   72SOL    HW1 1115   0.386   0.947   3.365
   72SOL    HW2 1116   0.512   0.961   3.263
   73SOL     OW 1117   2.937   0.991   1.068
   73SOL    HW1 1118   2.965   0.902   1.102
   73SOL    HW2 1119   2.860   1.025   1.121
   74SOL     OW 1120   1.774   2.296   0.513
   74SOL    HW1 1121   1.723   2.360   0.456
   74SOL    HW2 1122   1.739   2.204   0.500
   75SOL     OW 1123   3.509   3.680   0.272
   75SOL    HW1 1124   3.439   3.666   0.202
   75SOL    HW2 1125   3.486   3.627   0.354
   76SOL     OW 1126   3.513   4.839   5.273
   76SOL    HW1 1127   3.571   4.775   5.322
   76SOL    HW2 1128   3.417   4.819   5.292
   77SOL     OW 1129   0.938   4.416   4.587
   77SOL    HW1 1130   1.037   4.422   4.583
   77SOL    HW2 1131   0.898   4.480   4.522
   78SOL     OW 1132   4.666   1.467   1.038
   78SOL    HW1 1133   4.612   1.543   1.072
   78SOL    HW2 1134   4.746   1.453   1.096
   79SOL     OW 1135   1.508   4.750   3.155
   79SOL    HW1 1136   1.580   4.687   3.125
   79SOL    HW2 1137   1.522   4.774   3.251
   80SOL     OW 1138   4.471   1.146   5.234
   80SOL    HW1 1139   4.372   1.158   5.229
   80SOL    HW2 1140   4.493   1.050   5.217
   81SOL     OW 1141   4.181   6.031   1.258
   81SOL    HW1 1142   4.159   6.104   1.322
   81SOL    HW2 1143   4.164   5.942   1.301
   82SOL     OW 1144   2.408   6.232   1.770
   82SOL    HW1 1145   2.419   6.183   1.857
   82SOL    HW2 1146   2.384   6.327   1.788
   83SOL     OW 1147   5.252   0.846   4.998
   83SOL    HW1 1148   5.316   0.899   5.053
   83SOL    HW2 1149   5.298   0.766   4.960
   84SOL     OW 1150   5.415   2.227   1.762
   84SOL    HW1 1151   5.400   2.140   1.808
   84SOL    HW2 1152   5.402   2.216   1.663
   85SOL     OW 1153   1.987   0.398   4.085
   85SOL    HW1 1154   1.978   0.319   4.024
   85SOL    HW2 1155   1.966   0.370   4.178
   86SOL     OW 1156   6.002   0.202   6.512
   86SOL    HW1 1157   6.085   0.246   6.543
   86SOL    HW2 1158   5.964   0.146   6.586
   87SOL     OW 1159   2.673   4.721   6.842
   87SOL    HW1 1160   2.741   4.680   6.903
   87SOL    HW2 1161   2.593   4.661   6.836
   88SOL     OW 1162   3.393   4.006   6.877
   88SOL    HW1 1163   3.383   4.005   6.777
   88SOL    HW2 1164   3.318   3.954   6.918
   89SOL     OW 1165   3.112   3.714   3.907
   89SOL    HW1 1166   3.107   3.812   3.891
   89SOL    HW2 1167   3.166   3.697   3.990
   90SOL     OW 1168   4.903   4.075   2.532
   90SOL    HW1 1169   4.879   3.987   2.493
   90SOL    HW2 1170   4.835   4.144   2.505
   91SOL     OW 1171   4.508   4.835   5.681
   91SOL    HW1 1172   4.589   4.891   5.663
   91SOL    HW2 1173   4.426   4.893   5.676
   92SOL     OW 1174   5.919   3.444   6.237
   92SOL    HW1 1175   5.855   3.380   6.279
   92SOL    HW2 1176   5.882   3.537   6.243
   93SOL     OW 1177   2.831   3.568   2.034
   93SOL    HW1 1178   2.869   3.476   2.044
   93SOL    HW2 1179   2.731   3.564   2.041
   94SOL     OW 1180   2.562   1.824   5.207
   94SOL    HW1 1181   2.660   1.810   5.193
   94SOL    HW2 1182   2.534   1.784   5.294
   95SOL     OW 1183   0.566   0.824   4.109
   95SOL    HW1 1184   0.575   0.730   4.077
   95SOL    HW2 1185   0.588   0.887   4.035
   96SOL     OW 1186   6.189   4.839   0.782
   96SOL    HW1 1187   6.179   4.741   0.801
   96SOL    HW2 1188   6.232   4.852   0.693
   97SOL     OW 1189   2.168   5.111   5.933
   97SOL    HW1 1190   2.246   5.173   5.933
   97SOL    HW2 1191   2.100   5.143   5.999
   98SOL     OW 1192   1.569   2.308   3.329
   98SOL    HW1 1193   1.664   2.330   3.306
   98SOL    HW2 1194   1.541   2.227   3.277
   99SOL     OW 1195   4.111   3.278   5.045
   99SOL    HW1 1196   4.140   3.185   5.025
   99SOL    HW2 1197   4.057   3.280   5.129
  100SOL     OW 1198   6.905   0.865   4.440
  100SOL    HW1 1199   6.828   0.928   4.456
  100SOL    HW2 1200   6.917   0.853   4.342
  101SOL     OW 1201   6.548   3.584   2.472
  101SOL    HW1 1202   6.459   3.561   2.433
  101SOL    HW2 1203   6.559   3.538   2.561
  102SOL     OW 1204   3.669   0.238   6.964
  102SOL    HW1 1205   3.769   0.246   6.964
  102SOL    HW2 1206   3.633   0.272   0.030
  103SOL     OW 1207   3.178   0.905   2.134
  103SOL    HW1 1208   3.108   0.965   2.172
  103SOL    HW2 1209   3.191   0.826   2.194
  104SOL     OW 1210   6.866   4.237   2.136
  104SOL    HW1 1211   6.869   4.145   2.176
  104SOL    HW2 1212   6.934   4.244   2.063
  105SOL     OW 1213   5.764   1.002   5.500
  105SOL    HW1 1214   5.718   1.069   5.441
  105SOL    HW2 1215   5.860   0.997   5.474
  106SOL     OW 1216   5.374   4.736   1.777
  106SOL    HW1 1217   5.286   4.771   1.809
  106SOL    HW2 1218   5.421   4.690   1.852
  107SOL     OW 1219   5.888   6.982   1.132
  107SOL    HW1 1220   5.941   7.012   1.211
  107SOL    HW2 1221   5.903   6.884   1.117
  108SOL     OW 1222   1.884   1.215   4.739
  108SOL    HW1 1223   1.906   1.133   4.793
  108SOL    HW2 1224   1.948   1.224   4.663
  109SOL     OW 1225   1.737   0.709   3.954
  109SOL    HW1 1226   1.694   0.742   4.038
  109SOL    HW2 1227   1.668   0.668   3.894
  110SOL     OW 1228   3.454   4.400   5.501
  110SOL    HW1 1229   3.508   4.362   5.426
  110SOL    HW2 1230   3.367   4.435   5.464
  111SOL     OW 1231   6.571   1.821   1.414
  111SOL    HW1 1232   6.478   1.837   1.381
  111SOL    HW2 1233   6.609   1.906   1.451
  112SOL     OW 1234   4.819   6.312   0.005
  112SOL    HW1 1235   4.918   6.302   0.020
  112SOL    HW2 1236   4.804   6.373   6.947
  113SOL     OW 1237   0.306   6.290   2.317
  113SOL    HW1 1238   0.256   6.346   2.384
  113SOL    HW2 1239   0.267   6.198   2.314
  114SOL     OW 1240   0.443   3.603   2.971
  114SOL    HW1 1241   0.487   3.652   2.895
  114SOL    HW2 1242   0.424   3.667   3.045
  115SOL     OW 1243   5.801   0.441   4.076
  115SOL    HW1 1244   5.720   0.496   4.059
  115SOL    HW2 1245   5.807   0.367   4.009
  116SOL     OW 1246   0.243   4.905   0.319
  116SOL    HW1 1247   0.240   5.001   0.291
  116SOL    HW2 1248   0.261   4.900   0.418
  117SOL     OW 1249   2.402   2.528   0.083
  117SOL    HW1 1250   2.455   2.584   0.020
  117SOL    HW2 1251   2.446   2.439   0.095
  118SOL     OW 1252   1.537   1.843   3.979
  118SOL    HW1 1253   1.442   1.874   3.972
  118SOL    HW2 1254   1.564   1.801   3.893
  119SOL     OW 1255   6.625   6.407   6.535
  119SOL    HW1 1256   6.704   6.347   6.523
  119SOL    HW2 1257   6.656   6.496   6.569
  120SOL     OW 1258   4.812   2.255   4.848
  120SOL    HW1 1259   4.785   2.279   4.754
  120SOL    HW2 1260   4.741   2.286   4.911
  121SOL     OW 1261   1.460   4.915   6.682
  121SOL    HW1 1262   1.396   4.838   6.673
  121SOL    HW2 1263   1.435   4.970   6.761
  122SOL     OW 1264   0.273   4.029   6.335
  122SOL    HW1 1265   0.350   4.077   6.375
  122SOL    HW2 1266   0.241   4.079   6.254
  123SOL     OW 1267   1.474   1.485   1.476
  123SOL    HW1 1268   1.475   1.585   1.488
  123SOL    HW2 1269   1.415   1.444   1.546
  124SOL     OW 1270   2.084   2.540   0.750
  124SOL    HW1 1271   2.079   2.529   0.849
  124SOL    HW2 1272   2.177   2.566   0.724
  125SOL     OW 1273   3.995   3.718   0.373
  125SOL    HW1 1274   4.045   3.692   0.456
  125SOL    HW2 1275   3.992   3.641   0.310
  126SOL     OW 1276   4.026   3.833   4.438
  126SOL    HW1 1277   4.050   3.744   4.399
  126SOL    HW2 1278   4.103   3.867   4.491
  127SOL     OW 1279   0.590   5.770   5.335
  127SOL    HW1 1280   0.589   5.849   5.274
  127SOL    HW2 1281   0.510   5.773   5.395
  128SOL     OW 1282   4.163   3.048   7.018
  128SOL    HW1 1283   4.228   3.090   0.061
  128SOL    HW2 1284   4.080   3.104   7.013
  129SOL     OW 1285   1.152   5.609   1.470
  129SOL    HW1 1286   1.092   5.672   1.421
  129SOL    HW2 1287   1.246   5.621   1.439
  130SOL     OW 1288   6.117   3.117   4.855
  130SOL    HW1 1289   6.033   3.113   4.801
  130SOL    HW2 1290   6.115   3.045   4.925
  131SOL     OW 1291   0.362   2.242   3.821
  131SOL    HW1 1292   0.303   2.310   3.779
  131SOL    HW2 1293   0.371   2.163   3.761
  132SOL     OW 1294   4.055   3.619   2.142
  132SOL    HW1 1295   4.031   3.716   2.153
  132SOL    HW2 1296   4.150   3.605   2.168
  133SOL     OW 1297   5.614   5.932   6.173
  133SOL    HW1 1298   5.705   5.915   6.137
  133SOL    HW2 1299   5.598   6.031   6.178
  134SOL     OW 1300   5.214   1.452   1.712
  134SOL    HW1 1301   5.149   1.404   1.653
  134SOL    HW2 1302   5.168   1.479   1.797
  135SOL     OW 1303   4.868   3.238   3.392
  135SOL    HW1 1304   4.918   3.161   3.433
  135SOL    HW2 1305   4.908   3.324   3.423
  136SOL     OW 1306   3.646   0.027   6.136
  136SOL    HW1 1307   3.631   6.973   6.201
  136SOL    HW2 1308   3.557   0.060   6.102
  137SOL     OW 1309   3.344   2.865   5.820
  137SOL    HW1 1310   3.272   2.924   5.856
  137SOL    HW2 1311   3.337   2.860   5.721
  138SOL     OW 1312   0.831   5.671   6.521
  138SOL    HW1 1313   0.871   5.746   6.470
  138SOL    HW2 1314   0.888   5.589   6.511
  139SOL     OW 1315   2.389   5.866   0.624
  139SOL    HW1 1316   2.476   5.894   0.664
  139SOL    HW2 1317   2.343   5.947   0.586
  140SOL     OW 1318   3.003   0.374   1.270
  140SOL    HW1 1319   2.913   0.331   1.267
  140SOL    HW2 1320   3.030   0.387   1.365
  141SOL     OW 1321   6.643   3.103   0.528
  141SOL    HW1 1322   6.555   3.076   0.569
  141SOL    HW2 1323   6.637   3.197   0.494
  142SOL     OW 1324   1.504   4.096   2.363
  142SOL    HW1 1325   1.560   4.177   2.385
  142SOL    HW2 1326   1.543   4.016   2.408
  143SOL     OW 1327   4.935   6.360   2.137
  143SOL    HW1 1328   5.002   6.395   2.202
  143SOL    HW2 1329   4.981   6.330   2.054
  144SOL     OW 1330   3.426   5.303   3.821
  144SOL    HW1 1331   3.479   5.219   3.839
  144SOL    HW2 1332   3.374   5.292   3.737
  145SOL     OW 1333   6.622   4.934   3.237
  145SOL    HW1 1334   6.715   4.959   3.263
  145SOL    HW2 1335   6.626   4.859   3.170
  146SOL     OW 1336   5.814   1.315   6.345
  146SOL    HW1 1337   5.871   1.396   6.355
  146SOL    HW2 1338   5.857   1.252   6.280
  147SOL     OW 1339   5.002   0.809   5.105
  147SOL    HW1 1340   5.091   0.845   5.076
  147SOL    HW2 1341   5.007   0.709   5.110
  148SOL     OW 1342   1.117   5.454   0.733
  148SOL    HW1 1343   1.173   5.458   0.649
  148SOL    HW2 1344   1.055   5.376   0.728
  149SOL     OW 1345   2.287   2.602   5.386
  149SOL    HW1 1346   2.253   2.508   5.387
  149SOL    HW2 1347   2.244   2.654   5.460
  150SOL     OW 1348   4.293   1.723   4.918
  150SOL    HW1 1349   4.366   1.791   4.907
  150SOL    HW2 1350   4.332   1.639   4.956
  151SOL     OW 1351   3.661   2.611   0.689
  151SOL    HW1 1352   3.655   2.681   0.760
  151SOL    HW2 1353   3.600   2.535   0.712
  152SOL     OW 1354   1.032   1.929   0.695
  152SOL    HW1 1355   1.107   1.995   0.683
  152SOL    HW2 1356   1.013   1.884   0.608
  153SOL     OW 1357   3.265   1.239   3.487
  153SOL    HW1 1358   3.364   1.252   3.488
  153SOL    HW2 1359   3.231   1.233   3.581
  154SOL     OW 1360   6.530   1.572   2.268
  154SOL    HW1 1361   6.518   1.482   2.311
  154SOL    HW2 1362   6.518   1.644   2.336
  155SOL     OW 1363   1.033   6.867   1.906
  155SOL    HW1 1364   0.974   6.903   1.979
  155SOL    HW2 1365   1.034   6.932   1.830
  156SOL     OW 1366   5.075   2.117   0.451
  156SOL    HW1 1367   5.028   2.054   0.514
  156SOL    HW2 1368   5.019   2.130   0.369
  157SOL     OW 1369   4.113   5.195   0.215
  157SOL    HW1 1370   4.050   5.251   0.160
  157SOL    HW2 1371   4.132   5.110   0.166
  158SOL     OW 1372   0.110   2.747   3.324
  158SOL    HW1 1373   0.183   2.773   3.261
  158SOL    HW2 1374   0.147   2.687   3.394
  159SOL     OW 1375   6.108   5.072   0.860
  159SOL    HW1 1376   6.079   5.057   0.955
  159SOL    HW2 1377   6.163   4.994   0.830
  160SOL     OW 1378   6.332   6.949   1.809
  160SOL    HW1 1379   6.287   6.876   1.757
  160SOL    HW2 1380   6.397   6.995   1.750
  161SOL     OW 1381   7.018   6.651   0.716
  161SOL    HW1 1382   0.086   6.678   0.755
  161SOL    HW2 1383   0.009   6.632   0.618
  162SOL     OW 1384   4.687   6.952   0.174
  162SOL    HW1 1385   4.685   6.937   0.075
  162SOL    HW2 1386   4.593   6.956   0.209
  163SOL     OW 1387   0.108   3.729   2.874
  163SOL    HW1 1388   0.098   3.709   2.971
  163SOL    HW2 1389   0.155   3.816   2.862
  164SOL     OW 1390   2.335   2.217   3.861
  164SOL    HW1 1391   2.328   2.118   3.845
  164SOL    HW2 1392   2.338   2.265   3.773
  165SOL     OW 1393   0.201   6.397   3.525
  165SOL    HW1 1394   0.191   6.301   3.498
  165SOL    HW2 1395   0.193   6.456   3.445
  166SOL     OW 1396   6.850   4.119   3.756
  166SOL    HW1 1397   6.876   4.152   3.847
  166SOL    HW2 1398   6.866   4.192   3.689
  167SOL     OW 1399   3.437   1.761   0.115
  167SOL    HW1 1400   3.424   1.823   0.038
  167SOL    HW2 1401   3.370   1.687   0.109
  168SOL     OW 1402   5.201   4.189   2.099
  168SOL    HW1 1403   5.293   4.210   2.132
  168SOL    HW2 1404   5.202   4.104   2.048
  169SOL     OW 1405   5.025   2.480   1.020
  169SOL    HW1 1406   5.030   2.578   1.038
  169SOL    HW2 1407   4.960   2.438   1.084
  170SOL     OW 1408   0.450   6.335   2.981
  170SOL    HW1 1409   0.443   6.369   2.887
  170SOL    HW2 1410   0.372   6.366   3.034
  171SOL     OW 1411   3.367   4.010   0.565
  171SOL    HW1 1412   3.387   4.020   0.468
  171SOL    HW2 1413   3.453   4.012   0.617
  172SOL     OW 1414   6.857   2.390   6.607
  172SOL    HW1 1415   6.893   2.307   6.648
  172SOL    HW2 1416   6.760   2.400   6.631
  173SOL     OW 1417   0.012   1.706   4.264
  173SOL    HW1 1418   0.047   1.660   4.346
  173SOL    HW2 1419   6.934   1.725   4.277
  174SOL     OW 1420   5.606   5.100   5.135
  174SOL    HW1 1421   5.520   5.054   5.158
  174SOL    HW2 1422   5.592   5.159   5.056
  175SOL     OW 1423   0.579   0.319   0.938
  175SOL    HW1 1424   0.557   0.410   0.902
  175SOL    HW2 1425   0.670   0.321   0.981
  176SOL     OW 1426   5.519   4.312   1.840
  176SOL    HW1 1427   5.618   4.319   1.827
  176SOL    HW2 1428   5.472   4.353   1.762
  177SOL     OW 1429   5.930   2.847   4.443
  177SOL    HW1 1430   5.991   2.782   4.489
  177SOL    HW2 1431   5.940   2.837   4.344
  178SOL     OW 1432   2.056   5.913   4.987
  178SOL    HW1 1433   2.127   5.848   4.957
  178SOL    HW2 1434   2.089   6.006   4.974
  179SOL     OW 1435   3.573   4.926   1.413
  179SOL    HW1 1436   3.502   4.861   1.387
  179SOL    HW2 1437   3.532   5.014   1.437
  180SOL     OW 1438   3.983   1.368   0.563
  180SOL    HW1 1439   4.004   1.404   0.473
  180SOL    HW2 1440   3.912   1.424   0.606
  181SOL     OW 1441   3.192   2.599   5.590
  181SOL    HW1 1442   3.148   2.574   5.504
  181SOL    HW2 1443   3.220   2.695   5.587
  182SOL     OW 1444   4.219   2.094   0.417
  182SOL    HW1 1445   4.196   2.161   0.347
  182SOL    HW2 1446   4.152   2.099   0.491
  183SOL     OW 1447   3.581   1.448   3.340
  183SOL    HW1 1448   3.587   1.486   3.248
  183SOL    HW2 1449   3.557   1.351   3.334
  184SOL     OW 1450   5.510   6.056   3.677
  184SOL    HW1 1451   5.581   6.027   3.613
  184SOL    HW2 1452   5.427   6.003   3.661
  185SOL     OW 1453   6.483   1.124   4.336
  185SOL    HW1 1454   6.427   1.045   4.310
  185SOL    HW2 1455   6.480   1.193   4.263
  186SOL     OW 1456   4.831   6.322   4.113
  186SOL    HW1 1457   4.808   6.356   4.022
  186SOL    HW2 1458   4.847   6.223   4.108
  187SOL     OW 1459   4.555   6.359   1.978
  187SOL    HW1 1460   4.536   6.456   1.964
  187SOL    HW2 1461   4.469   6.310   1.990
  188SOL     OW 1462   1.259   3.479   3.664
  188SOL    HW1 1463   1.298   3.490   3.573
  188SOL    HW2 1464   1.305   3.404   3.711
  189SOL     OW 1465   6.291   5.030   6.369
  189SOL    HW1 1466   6.309   4.933   6.356
  189SOL    HW2 1467   6.370   5.083   6.337
  190SOL     OW 1468   5.890   0.357   0.207
  190SOL    HW1 1469   5.953   0.344   0.130
  190SOL    HW2 1470   5.926   0.429   0.267
  191SOL     OW 1471   6.927   1.651   5.222
  191SOL    HW1 1472   6.860   1.590   5.263
  191SOL    HW2 1473   7.018   1.609   5.229
  192SOL     OW 1474   0.719   5.438   0.935
  192SOL    HW1 1475   0.645   5.465   0.874
  192SOL    HW2 1476   0.681   5.395   1.017
  193SOL     OW 1477   2.266   6.089   6.972
  193SOL    HW1 1478   2.187   6.052   7.020
  193SOL    HW2 1479   2.307   6.017   6.915
  194SOL     OW 1480   4.033   6.541   2.483
  194SOL    HW1 1481   4.075   6.496   2.405
  194SOL    HW2 1482   4.037   6.640   2.471
  195SOL     OW 1483   3.639   0.696   1.009
  195SOL    HW1 1484   3.621   0.635   0.932
  195SOL    HW2 1485   3.572   0.678   1.081
  196SOL     OW 1486   2.496   1.461   0.641
  196SOL    HW1 1487   2.449   1.548   0.644
  196SOL    HW2 1488   2.478   1.415   0.554
  197SOL     OW 1489   1.969   6.576   0.613
  197SOL    HW1 1490   1.961   6.571   0.713
  197SOL    HW2 1491   1.889   6.622   0.576
  198SOL     OW 1492   4.549   0.330   6.601
  198SOL    HW1 1493   4.496   0.331   6.686
  198SOL    HW2 1494   4.501   0.275   6.532
  199SOL     OW 1495   6.978   0.056   3.331
  199SOL    HW1 1496   6.984   6.981   3.301
  199SOL    HW2 1497   0.037   0.077   3.389
  200SOL     OW 1498   0.420   4.222   3.430
  200SOL    HW1 1499   0.480   4.283   3.481
  200SOL    HW2 1500   0.461   4.131   3.425
  201SOL     OW 1501   4.018   0.640   6.055
  201SOL    HW1 1502   3.926   0.677   6.043
  201SOL    HW2 1503   4.021   0.579   6.134
  202SOL     OW 1504   2.966   0.352   2.870
  202SOL    HW1 1505   2.983   0.410   2.951
  202SOL    HW2 1506   2.989   0.404   2.788
  203SOL     OW 1507   5.719   3.268   6.363
  203SOL    HW1 1508   5.670   3.277   6.449
  203SOL    HW2 1509   5.735   3.171   6.343
  204SOL     OW 1510   2.381   6.736   1.291
  204SOL    HW1 1511   2.309   6.686   1.339
  204SOL    HW2 1512   2.367   6.729   1.193
  205SOL     OW 1513   6.338   1.639   0.404
  205SOL    HW1 1514   6.343   1.721   0.347
  205SOL    HW2 1515   6.268   1.577   0.369
  206SOL     OW 1516   1.102   4.004   1.966
  206SOL    HW1 1517   1.043   4.002   2.046
  206SOL    HW2 1518   1.106   3.913   1.924
  207SOL     OW 1519   4.763   0.385   5.458
  207SOL    HW1 1520   4.827   0.309   5.442
  207SOL    HW2 1521   4.766   0.448   5.381
  208SOL     OW 1522   4.261   5.104   6.416
  208SOL    HW1 1523   4.212   5.017   6.424
  208SOL    HW2 1524   4.229   5.167   6.486
  209SOL     OW 1525   6.996   5.705   5.509
  209SOL    HW1 1526   0.071   5.708   5.538
  209SOL    HW2 1527   6.969   5.610   5.492
  210SOL     OW 1528   3.943   3.400   0.993
  210SOL    HW1 1529   3.956   3.433   1.086
  210SOL    HW2 1530   4.032   3.385   0.950
  211SOL     OW 1531   1.390   1.746   1.018
  211SOL    HW1 1532   1.480   1.713   0.989
  211SOL    HW2 1533   1.334   1.669   1.048
  212SOL     OW 1534   0.308   5.415   3.687
  212SOL    HW1 1535   0.282   5.499   3.735
  212SOL    HW2 1536   0.229   5.355   3.679
  213SOL     OW 1537   4.849   2.118   0.264
  213SOL    HW1 1538   4.877   2.165   0.179
  213SOL    HW2 1539   4.811   2.029   0.241
  214SOL     OW 1540   1.191   0.543   3.053
  214SOL    HW1 1541   1.250   0.597   2.992
  214SOL    HW2 1542   1.141   0.475   3.000
  215SOL     OW 1543   3.662   3.344   2.736
  215SOL    HW1 1544   3.743   3.391   2.703
  215SOL    HW2 1545   3.688   3.272   2.801
  216SOL     OW 1546   0.658   6.798   5.722
  216SOL    HW1 1547   0.741   6.785   5.776
  216SOL    HW2 1548   0.629   6.710   5.685
  217SOL     OW 1549   0.968   2.700   3.009
  217SOL    HW1 1550   1.005   2.751   3.087
  217SOL    HW2 1551   0.938   2.763   2.938
  218SOL     OW 1552   1.368   4.115   5.248
  218SOL    HW1 1553   1.269   4.104   5.250
  218SOL    HW2 1554   1.405   4.109   5.341
  219SOL     OW 1555   4.685   5.072   0.117
  219SOL    HW1 1556   4.747   5.038   0.046
  219SOL    HW2 1557   4.666   4.998   0.182
  220SOL     OW 1558   3.059   5.041   0.453
  220SOL    HW1 1559   3.115   5.010   0.530
  220SOL    HW2 1560   2.982   5.094   0.488
  221SOL     OW 1561   5.781   2.351   4.833
  221SOL    HW1 1562   5.818   2.414   4.765
  221SOL    HW2 1563   5.687   2.328   4.810
  222SOL     OW 1564   1.401   6.561   5.363
  222SOL    HW1 1565   1.325   6.502   5.337
  222SOL    HW2 1566   1.438   6.606   5.281
  223SOL     OW 1567   6.603   3.434   1.615
  223SOL    HW1 1568   6.653   3.489   1.681
  223SOL    HW2 1569   6.520   3.398   1.657
  224SOL     OW 1570   3.070   2.180   1.806
  224SOL    HW1 1571   3.011   2.104   1.832
  224SOL    HW2 1572   3.034   2.265   1.844
  225SOL     OW 1573   6.254   0.342   6.574
  225SOL    HW1 1574   6.325   0.352   6.505
  225SOL    HW2 1575   6.248   0.426   6.628
  226SOL     OW 1576   6.513   5.972   0.898
  226SOL    HW1 1577   6.552   6.051   0.852
  226SOL    HW2 1578   6.510   5.894   0.836
  227SOL     OW 1579   1.367   3.246   3.792
  227SOL    HW1 1580   1.439   3.256   3.861
  227SOL    HW2 1581   1.379   3.159   3.744
  228SOL     OW 1582   4.130   6.907   3.888
  228SOL    HW1 1583   4.105   6.810   3.888
  228SOL    HW2 1584   4.220   6.919   3.847
  229SOL     OW 1585   5.938   5.460   2.482
  229SOL    HW1 1586   5.878   5.457   2.562
  229SOL    HW2 1587   5.953   5.367   2.449
  230SOL     OW 1588   2.162   4.101   4.872
  230SOL    HW1 1589   2.172   4.063   4.780
  230SOL    HW2 1590   2.209   4.042   4.938
  231SOL     OW 1591   0.207   2.197   6.272
  231SOL    HW1 1592   0.111   2.170   6.270
  231SOL    HW2 1593   0.220   2.267   6.343
  232SOL     OW 1594   1.761   4.875   6.765
  232SOL    HW1 1595   1.820   4.941   6.718
  232SOL    HW2 1596   1.665   4.895   6.743
  233SOL     OW 1597   2.111   0.896   6.146
  233SOL    HW1 1598   2.148   0.889   6.239
  233SOL    HW2 1599   2.052   0.817   6.128
  234SOL     OW 1600   2.655   5.705   0.136
  234SOL    HW1 1601   2.592   5.727   0.210
  234SOL    HW2 1602   2.690   5.789   0.094
  235SOL     OW 1603   3.132   3.406   4.966
  235SOL    HW1 1604   3.118   3.502   4.990
  235SOL    HW2 1605   3.048   3.354   4.984
  236SOL     OW 1606   0.069   2.213   5.033
  236SOL    HW1 1607   0.039   2.183   5.123
  236SOL    HW2 1608   0.169   2.224   5.033
  237SOL     OW 1609   0.396   0.396   1.309
  237SOL    HW1 1610   0.478   0.446   1.334
  237SOL    HW2 1611   0.421   0.305   1.275
  238SOL     OW 1612   5.765   2.388   2.682
  238SOL    HW1 1613   5.706   2.422   2.756
  238SOL    HW2 1614   5.825   2.462   2.651
  239SOL     OW 1615   6.970   5.968   0.219
  239SOL    HW1 1616   0.003   6.024   0.282
  239SOL    HW2 1617   6.888   5.934   0.265
  240SOL     OW 1618   0.122   3.593   5.941
  240SOL    HW1 1619   0.082   3.516   5.891
  240SOL    HW2 1620   0.150   3.664   5.877
  241SOL     OW 1621   0.627   0.717   3.186
  241SOL    HW1 1622   0.703   0.689   3.245
  241SOL    HW2 1623   0.568   0.782   3.234
  242SOL     OW 1624   1.669   3.888   4.240
  242SOL    HW1 1625   1.613   3.863   4.162
  242SOL    HW2 1626   1.657   3.985   4.261
  243SOL     OW 1627   4.950   6.790   5.341
  243SOL    HW1 1628   4.900   6.708   5.367
  243SOL    HW2 1629   4.886   6.863   5.318
  244SOL     OW 1630   6.392   2.097   5.822
  244SOL    HW1 1631   6.316   2.093   5.887
  244SOL    HW2 1632   6.380   2.177   5.763
  245SOL     OW 1633   6.050   1.454   4.074
  245SOL    HW1 1634   6.038   1.414   4.165
  245SOL    HW2 1635   6.127   1.518   4.075
  246SOL     OW 1636   5.401   3.173   3.374
  246SOL    HW1 1637   5.366   3.106   3.440
  246SOL    HW2 1638   5.463   3.236   3.421
  247SOL     OW 1639   2.511   1.602   3.366
  247SOL    HW1 1640   2.544   1.658   3.290
  247SOL    HW2 1641   2.464   1.661   3.432
  248SOL     OW 1642   6.239   1.385   2.977
  248SOL    HW1 1643   6.305   1.380   2.902
  248SOL    HW2 1644   6.212   1.480   2.991
  249SOL     OW 1645   3.305   0.043   4.039
  249SOL    HW1 1646   3.357   0.100   4.103
  249SOL    HW2 1647   3.267   6.984   4.088
  250SOL     OW 1648   4.978   2.687   5.910
  250SOL    HW1 1649   5.070   2.663   5.940
  250SOL    HW2 1650   4.981   2.720   5.815
  251SOL     OW 1651   3.218   2.494   1.014
  251SOL    HW1 1652   3.184   2.423   0.953
  251SOL    HW2 1653   3.169   2.490   1.101
  252SOL     OW 1654   0.174   1.220   5.717
  252SOL    HW1 1655   0.157   1.233   5.619
  252SOL    HW2 1656   0.090   1.187   5.761
  253SOL     OW 1657   3.047   3.735   6.273
  253SOL    HW1 1658   2.988   3.738   6.192
  253SOL    HW2 1659   3.132   3.687   6.250
  254SOL     OW 1660   5.734   3.319   5.301
  254SOL    HW1 1661   5.710   3.223   5.320
  254SOL    HW2 1662   5.735   3.370   5.387
  255SOL     OW 1663   3.042   2.023   4.194
  255SOL    HW1 1664   2.999   2.050   4.281
  255SOL    HW2 1665   3.066   1.926   4.197
  256SOL     OW 1666   6.383   5.050   6.652
  256SOL    HW1 1667   6.393   4.998   6.567
  256SOL    HW2 1668   6.298   5.102   6.650
  257SOL     OW 1669   3.471   6.150   6.062
  257SOL    HW1 1670   3.536   6.130   6.135
  257SOL    HW2 1671   3.387   6.098   6.077
  258SOL     OW 1672   5.113   4.450   4.155
  258SOL    HW1 1673   5.143   4.482   4.245
  258SOL    HW2 1674   5.144   4.356   4.140
  259SOL     OW 1675   1.354   2.348   2.498
  259SOL    HW1 1676   1.387   2.396   2.579
  259SOL    HW2 1677   1.374   2.402   2.416
  260SOL     OW 1678   5.756   0.443   5.840
  260SOL    HW1 1679   5.845   0.445   5.886
  260SOL    HW2 1680   5.723   0.349   5.833
  261SOL     OW 1681   0.671   3.217   2.230
  261SOL    HW1 1682   0.592   3.204   2.170
  261SOL    HW2 1683   0.662   3.158   2.311
  262SOL     OW 1684   0.458   4.797   1.944
  262SOL    HW1 1685   0.400   4.851   2.004
  262SOL    HW2 1686   0.486   4.713   1.991
  263SOL     OW 1687   1.352   2.049   4.206
  263SOL    HW1 1688   1.343   2.134   4.154
  263SOL    HW2 1689   1.359   1.972   4.142
  264SOL     OW 1690   2.602   4.719   6.364
  264SOL    HW1 1691   2.569   4.717   6.459
  264SOL    HW2 1692   2.702   4.728   6.364
  265SOL     OW 1693   5.460   4.252   4.834
  265SOL    HW1 1694   5.446   4.165   4.882
  265SOL    HW2 1695   5.418   4.246   4.743
  266SOL     OW 1696   3.642   1.960   0.505
  266SOL    HW1 1697   3.668   1.995   0.415
  266SOL    HW2 1698   3.723   1.929   0.553
  267SOL     OW 1699   1.051   2.461   5.786
  267SOL    HW1 1700   0.995   2.463   5.703
  267SOL    HW2 1701   0.996   2.490   5.864
  268SOL     OW 1702   3.561   4.905   4.427
  268SOL    HW1 1703   3.631   4.890   4.497
  268SOL    HW2 1704   3.599   4.961   4.353
  269SOL     OW 1705   1.005   1.253   5.236
  269SOL    HW1 1706   1.087   1.237   5.289
  269SOL    HW2 1707   0.928   1.269   5.298
  270SOL     OW 1708   5.011   1.118   3.846
  270SOL    HW1 1709   5.083   1.052   3.826
  270SOL    HW2 1710   4.945   1.119   3.771
  271SOL     OW 1711   1.944   0.812   0.146
  271SOL    HW1 1712   1.995   0.873   0.085
  271SOL    HW2 1713   2.004   0.783   0.222
  272SOL     OW 1714   3.779   5.236   3.161
  272SOL    HW1 1715   3.722   5.303   3.209
  272SOL    HW2 1716   3.721   5.164   3.124
  273SOL     OW 1717   2.698   6.653   5.601
  273SOL    HW1 1718   2.683   6.635   5.503
  273SOL    HW2 1719   2.724   6.568   5.646
  274SOL     OW 1720   6.043   2.188   1.382
  274SOL    HW1 1721   6.050   2.283   1.353
  274SOL    HW2 1722   5.949   2.156   1.373
  275SOL     OW 1723   6.167   6.246   5.563
  275SOL    HW1 1724   6.226   6.268   5.640
  275SOL    HW2 1725   6.076   6.283   5.579
  276SOL     OW 1726   6.560   6.027   3.747
  276SOL    HW1 1727   6.652   6.028   3.787
  276SOL    HW2 1728   6.562   6.074   3.658
  277SOL     OW 1729   5.080   0.926   5.337
  277SOL    HW1 1730   5.134   1.006   5.312
  277SOL    HW2 1731   5.033   0.891   5.256
  278SOL     OW 1732   6.042   2.965   2.854
  278SOL    HW1 1733   6.122   2.995   2.802
  278SOL    HW2 1734   6.069   2.943   2.948
  279SOL     OW 1735   0.120   3.031   4.055
  279SOL    HW1 1736   0.162   2.941   4.046
  279SOL    HW2 1737   0.034   3.023   4.107
  280SOL     OW 1738   3.425   0.912   3.811
  280SOL    HW1 1739   3.459   0.818   3.798
  280SOL    HW2 1740   3.475   0.974   3.750
  281SOL     OW 1741   5.156   6.159   3.707
  281SOL    HW1 1742   5.231   6.207   3.661
  281SOL    HW2 1743   5.093   6.123   3.638
  282SOL     OW 1744   3.101   1.580   0.416
  282SOL    HW1 1745   3.199   1.564   0.410
  282SOL    HW2 1746   3.072   1.639   0.341
  283SOL     OW 1747   6.555   1.670   4.872
  283SOL    HW1 1748   6.641   1.661   4.821
  283SOL    HW2 1749   6.485   1.612   4.830
  284SOL     OW 1750   5.434   5.788   3.501
  284SOL    HW1 1751   5.492   5.771   3.421
  284SOL    HW2 1752   5.489   5.775   3.584
  285SOL     OW 1753   4.696   0.034   6.024
  285SOL    HW1 1754   4.713   0.086   5.940
  285SOL    HW2 1755   4.739   0.081   6.101
  286SOL     OW 1756   2.200   5.382   5.034
  286SOL    HW1 1757   2.287   5.416   4.998
  286SOL    HW2 1758   2.212   5.354   5.129
  287SOL     OW 1759   3.156   0.327   6.190
  287SOL    HW1 1760   3.165   0.230   6.209
  287SOL    HW2 1761   3.189   0.347   6.098
  288SOL     OW 1762   4.062   0.968   1.000
  288SOL    HW1 1763   3.993   1.035   1.026
  288SOL    HW2 1764   4.121   0.949   1.078
  289SOL     OW 1765   6.036   5.976   3.817
  289SOL    HW1 1766   5.996   6.055   3.864
  289SOL    HW2 1767   6.098   5.928   3.879
  290SOL     OW 1768   3.788   0.704   5.567
  290SOL    HW1 1769   3.707   0.712   5.625
  290SOL    HW2 1770   3.759   0.687   5.473
  291SOL     OW 1771   3.512   6.669   5.131
  291SOL    HW1 1772   3.492   6.691   5.036
  291SOL    HW2 1773   3.555   6.748   5.175
  292SOL     OW 1774   4.761   6.820   3.521
  292SOL    HW1 1775   4.793   6.892   3.459
  292SOL    HW2 1776   4.785   6.844   3.615
  293SOL     OW 1777   5.826   6.752   2.565
  293SOL    HW1 1778   5.878   6.835   2.583
  293SOL    HW2 1779   5.834   6.690   2.643
  294SOL     OW 1780   6.207   0.850   5.770
  294SOL    HW1 1781   6.126   0.794   5.753
  294SOL    HW2 1782   6.274   0.836   5.697
  295SOL     OW 1783   1.600   1.464   5.070
  295SOL    HW1 1784   1.698   1.447   5.072
  295SOL    HW2 1785   1.557   1.403   5.002
  296SOL     OW 1786   6.609   2.157   1.230
  296SOL    HW1 1787   6.628   2.113   1.142
  296SOL    HW2 1788   6.598   2.088   1.301
  297SOL     OW 1789   5.115   3.072   3.976
  297SOL    HW1 1790   5.025   3.088   4.017
  297SOL    HW2 1791   5.178   3.040   4.046
  298SOL     OW 1792   4.126   0.792   6.426
  298SOL    HW1 1793   4.163   0.753   6.510
  298SOL    HW2 1794   4.196   0.849   6.382
  299SOL     OW 1795   1.464   0.781   6.886
  299SOL    HW1 1796   1.548   0.813   6.929
  299SOL    HW2 1797   1.411   0.859   6.853
  300SOL     OW 1798   4.137   6.919   3.610
  300SOL    HW1 1799   4.207   6.972   3.561
  300SOL    HW2 1800   4.097   6.976   3.682
  301SOL     OW 1801   6.494   5.497   1.165
  301SOL    HW1 1802   6.471   5.590   1.194
  301SOL    HW2 1803   6.455   5.432   1.230
  302SOL     OW 1804   0.088   5.630   1.797
  302SOL    HW1 1805   0.062   5.538   1.767
  302SOL    HW2 1806   0.172   5.658   1.750
  303SOL     OW 1807   5.208   5.427   2.450
  303SOL    HW1 1808   5.248   5.458   2.363
  303SOL    HW2 1809   5.264   5.460   2.526
  304SOL     OW 1810   2.669   5.726   4.578
  304SOL    HW1 1811   2.645   5.776   4.494
  304SOL    HW2 1812   2.711   5.639   4.554
  305SOL     OW 1813   1.163   3.407   1.925
  305SOL    HW1 1814   1.137   3.445   2.014
  305SOL    HW2 1815   1.123   3.316   1.916
  306SOL     OW 1816   6.935   6.757   2.450
  306SOL    HW1 1817   6.971   6.836   2.499
  306SOL    HW2 1818   6.842   6.737   2.482
  307SOL     OW 1819   3.308   2.893   3.254
  307SOL    HW1 1820   3.260   2.807   3.238
  307SOL    HW2 1821   3.265   2.943   3.329
  308SOL     OW 1822   5.307   2.207   3.997
  308SOL    HW1 1823   5.358   2.209   3.911
  308SOL    HW2 1824   5.299   2.300   4.033
  309SOL     OW 1825   1.359   6.371   6.227
  309SOL    HW1 1826   1.278   6.425   6.249
  309SOL    HW2 1827   1.392   6.324   6.309
  310SOL     OW 1828   5.259   6.201   4.865
  310SOL    HW1 1829   5.280   6.290   4.904
  310SOL    HW2 1830   5.281   6.200   4.768
  311SOL     OW 1831   1.878   5.595   2.768
  311SOL    HW1 1832   1.870   5.595   2.868
  311SOL    HW2 1833   1.936   5.518   2.740
  312SOL     OW 1834   4.553   1.948   2.925
  312SOL    HW1 1835   4.592   2.012   2.991
  312SOL    HW2 1836   4.466   1.914   2.959
  313SOL     OW 1837   4.092   3.779   3.090
  313SOL    HW1 1838   4.145   3.864   3.092
  313SOL    HW2 1839   4.099   3.737   3.000
  314SOL     OW 1840   2.704   6.172   5.865
  314SOL    HW1 1841   2.660   6.155   5.954
  314SOL    HW2 1842   2.665   6.255   5.825
  315SOL     OW 1843   6.366   1.682   3.166
  315SOL    HW1 1844   6.419   1.605   3.204
  315SOL    HW2 1845   6.380   1.686   3.067
  316SOL     OW 1846   3.688   1.421   5.356
  316SOL    HW1 1847   3.619   1.440   5.426
  316SOL    HW2 1848   3.643   1.402   5.269
  317SOL     OW 1849   1.257   1.582   1.842
  317SOL    HW1 1850   1.286   1.675   1.865
  317SOL    HW2 1851   1.189   1.586   1.769
  318SOL     OW 1852   0.520   0.665   5.263
  318SOL    HW1 1853   0.617   0.650   5.240
  318SOL    HW2 1854   0.502   0.628   5.355
  319SOL     OW 1855   1.755   1.510   2.619
  319SOL    HW1 1856   1.807   1.464   2.546
  319SOL    HW2 1857   1.733   1.603   2.590
  320SOL     OW 1858   5.888   1.906   6.038
  320SOL    HW1 1859   5.901   1.997   6.077
  320SOL    HW2 1860   5.967   1.849   6.060
  321SOL     OW 1861   4.253   3.196   0.602
  321SOL    HW1 1862   4.164   3.152   0.613
  321SOL    HW2 1863   4.326   3.131   0.626
  322SOL     OW 1864   3.446   3.387   5.920
  322SOL    HW1 1865   3.445   3.333   6.004
  322SOL    HW2 1866   3.352   3.400   5.888
  323SOL     OW 1867   0.175   3.251   2.597
  323SOL    HW1 1868   0.265   3.295   2.603
  323SOL    HW2 1869   0.148   3.243   2.501
  324SOL     OW 1870   7.004   6.599   3.930
  324SOL    HW1 1871   0.028   6.513   3.954
  324SOL    HW2 1872   0.053   6.663   3.895
  325SOL     OW 1873   0.345   3.975   2.562
  325SOL    HW1 1874   0.441   3.977   2.532
  325SOL    HW2 1875   0.301   3.894   2.525
  326SOL     OW 1876   0.904   6.593   6.330
  326SOL    HW1 1877   0.973   6.529   6.364
  326SOL    HW2 1878   0.886   6.663   6.400
  327SOL     OW 1879   4.473   5.089   3.924
  327SOL    HW1 1880   4.446   4.999   3.960
  327SOL    HW2 1881   4.564   5.083   3.884
  328SOL     OW 1882   2.097   3.628   2.877
  328SOL    HW1 1883   2.130   3.578   2.957
  328SOL    HW2 1884   2.036   3.570   2.824
  329SOL     OW 1885   3.307   3.946   2.223
  329SOL    HW1 1886   3.372   3.930   2.298
  329SOL    HW2 1887   3.358   3.963   2.139
  330SOL     OW 1888   3.755   5.478   0.760
  330SOL    HW1 1889   3.777   5.397   0.814
  330SOL    HW2 1890   3.660   5.505   0.778
  331SOL     OW 1891   5.468   5.087   0.073
  331SOL    HW1 1892   5.506   5.020   0.009
  331SOL    HW2 1893   5.372   5.103   0.050
  332SOL     OW 1894   5.265   2.240   2.909
  332SOL    HW1 1895   5.318   2.156   2.899
  332SOL    HW2 1896   5.204   2.232   2.988
  333SOL     OW 1897   3.334   1.150   6.034
  333SOL    HW1 1898   3.385   1.120   5.953
  333SOL    HW2 1899   3.378   1.114   6.116
  334SOL     OW 1900   3.737   3.506   2.966
  334SOL    HW1 1901   3.657   3.447   2.974
  334SOL    HW2 1902   3.708   3.598   2.942
  335SOL     OW 1903   3.640   0.347   6.186
  335SOL    HW1 1904   3.594   0.269   6.229
  335SOL    HW2 1905   3.590   0.431   6.208
  336SOL     OW 1906   2.615   2.100   3.919
  336SOL    HW1 1907   2.666   2.175   3.878
  336SOL    HW2 1908   2.539   2.137   3.974
  337SOL     OW 1909   2.375   0.057   6.128
  337SOL    HW1 1910   2.344   0.148   6.099
  337SOL    HW2 1911   2.472   0.047   6.109
  338SOL     OW 1912   4.462   1.935   1.285
  338SOL    HW1 1913   4.492   1.970   1.373
  338SOL    HW2 1914   4.373   1.974   1.262
  339SOL     OW 1915   4.133   5.231   5.184
  339SOL    HW1 1916   4.122   5.136   5.155
  339SOL    HW2 1917   4.159   5.287   5.105
  340SOL     OW 1918   4.813   2.291   3.660
  340SOL    HW1 1919   4.727   2.251   3.627
  340SOL    HW2 1920   4.805   2.311   3.757
  341SOL     OW 1921   5.725   0.057   3.376
  341SOL    HW1 1922   5.669   0.000   3.436
  341SOL    HW2 1923   5.749   0.142   3.423
  342SOL     OW 1924   4.542   2.247   1.871
  342SOL    HW1 1925   4.497   2.331   1.843
  342SOL    HW2 1926   4.476   2.190   1.922
  343SOL     OW 1927   0.273   6.063   3.079
  343SOL    HW1 1928   0.311   6.135   3.137
  343SOL    HW2 1929   0.246   6.101   2.991
  344SOL     OW 1930   2.313   1.433   1.423
  344SOL    HW1 1931   2.408   1.454   1.400
  344SOL    HW2 1932   2.253   1.500   1.378
  345SOL     OW 1933   6.139   3.801   4.275
  345SOL    HW1 1934   6.085   3.718   4.284
  345SOL    HW2 1935   6.188   3.819   4.361
  346SOL     OW 1936   1.925   6.991   3.262
  346SOL    HW1 1937   2.013   6.973   3.305
  346SOL    HW2 1938   1.929   0.056   3.211
  347SOL     OW 1939   2.878   5.202   0.561
  347SOL    HW1 1940   2.889   5.238   0.654
  347SOL    HW2 1941   2.780   5.199   0.539
  348SOL     OW 1942   4.558   5.448   2.199
  348SOL    HW1 1943   4.505   5.388   2.139
  348SOL    HW2 1944   4.546   5.543   2.172
  349SOL     OW 1945   5.976   4.343   1.017
  349SOL    HW1 1946   5.938   4.303   1.100
  349SOL    HW2 1947   6.075   4.335   1.018
  350SOL     OW 1948   3.337   3.174   0.422
  350SOL    HW1 1949   3.426   3.208   0.450
  350SOL    HW2 1950   3.298   3.234   0.352
  351SOL     OW 1951   3.092   4.403   0.962
  351SOL    HW1 1952   3.028   4.414   0.886
  351SOL    HW2 1953   3.097   4.488   1.015
  352SOL     OW 1954   3.734   6.871   3.298
  352SOL    HW1 1955   3.828   6.888   3.269
  352SOL    HW2 1956   3.719   6.773   3.307
  353SOL     OW 1957   1.899   6.191   6.953
  353SOL    HW1 1958   1.916   6.240   6.867
  353SOL    HW2 1959   1.813   6.222   6.993
  354SOL     OW 1960   6.899   2.648   0.422
  354SOL    HW1 1961   6.947   2.640   0.334
  354SOL    HW2 1962   6.879   2.557   0.458
  355SOL     OW 1963   2.075   1.903   2.490
  355SOL    HW1 1964   2.093   1.990   2.535
  355SOL    HW2 1965   2.151   1.879   2.430
  356SOL     OW 1966   0.805   6.550   5.803
  356SOL    HW1 1967   0.854   6.510   5.725
  356SOL    HW2 1968   0.870   6.600   5.861
  357SOL     OW 1969   5.894   6.423   4.727
  357SOL    HW1 1970   5.842   6.453   4.648
  357SOL    HW2 1971   5.866   6.330   4.751
  358SOL     OW 1972   4.536   5.450   0.528
  358SOL    HW1 1973   4.496   5.515   0.462
  358SOL    HW2 1974   4.539   5.359   0.487
  359SOL     OW 1975   2.886   2.231   2.516
  359SOL    HW1 1976   2.985   2.219   2.507
  359SOL    HW2 1977   2.842   2.217   2.428
  360SOL     OW 1978   1.198   4.652   4.311
  360SOL    HW1 1979   1.268   4.721   4.293
  360SOL    HW2 1980   1.218   4.569   4.261
  361SOL     OW 1981   6.580   6.853   3.077
  361SOL    HW1 1982   6.651   6.857   3.007
  361SOL    HW2 1983   6.546   6.760   3.086
  362SOL     OW 1984   3.752   4.557   1.360
  362SOL    HW1 1985   3.746   4.535   1.263
  362SOL    HW2 1986   3.678   4.509   1.409
  363SOL     OW 1987   5.257   5.509   2.186
  363SOL    HW1 1988   5.230   5.461   2.103
  363SOL    HW2 1989   5.354   5.533   2.181
  364SOL     OW 1990   0.523   5.873   6.434
  364SOL    HW1 1991   0.433   5.895   6.396
  364SOL    HW2 1992   0.568   5.807   6.373
  365SOL     OW 1993   4.691   1.783   2.698
  365SOL    HW1 1994   4.752   1.822   2.630
  365SOL    HW2 1995   4.656   1.855   2.757
  366SOL     OW 1996   6.162   2.421   0.709
  366SOL    HW1 1997   6.237   2.356   0.715
  366SOL    HW2 1998   6.130   2.426   0.615
  367SOL     OW 1999   4.391   2.160   5.503
  367SOL    HW1 2000   4.325   2.164   5.578
  367SOL    HW2 2001   4.343   2.135   5.418
  368SOL     OW 2002   6.537   2.223   6.009
  368SOL    HW1 2003   6.483   2.174   5.941
  368SOL    HW2 2004   6.627   2.245   5.972
  369SOL     OW 2005   5.658   3.148   2.187
  369SOL    HW1 2006   5.579   3.097   2.153
  369SOL    HW2 2007   5.713   3.181   2.110
  370SOL     OW 2008   2.044   3.182   4.236
  370SOL    HW1 2009   2.085   3.166   4.326
  370SOL    HW2 2010   2.008   3.276   4.233
  371SOL     OW 2011   1.218   4.372   6.507
  371SOL    HW1 2012   1.185   4.277   6.509
  371SOL    HW2 2013   1.314   4.374   6.532
  372SOL     OW 2014   2.929   6.515   6.706
  372SOL    HW1 2015   2.889   6.463   6.782
  372SOL    HW2 2016   2.863   6.522   6.632
  373SOL     OW 2017   5.818   6.077   4.376
  373SOL    HW1 2018   5.808   5.987   4.333
  373SOL    HW2 2019   5.908   6.115   4.352
  374SOL     OW 2020   2.858   1.809   2.933
  374SOL    HW1 2021   2.850   1.890   2.991
  374SOL    HW2 2022   2.940   1.758   2.959
  375SOL     OW 2023   1.234   4.580   5.052
  375SOL    HW1 2024   1.282   4.515   5.111
  375SOL    HW2 2025   1.164   4.532   4.999
  376SOL     OW 2026   2.200   0.701   4.607
  376SOL    HW1 2027   2.164   0.689   4.514
  376SOL    HW2 2028   2.173   0.791   4.642
  377SOL     OW 2029   0.968   2.497   6.451
  377SOL    HW1 2030   1.006   2.420   6.401
  377SOL    HW2 2031   0.975   2.479   6.550
  378SOL     OW 2032   3.476   1.831   1.785
  378SOL    HW1 2033   3.420   1.779   1.850
  378SOL    HW2 2034   3.417   1.890   1.730
  379SOL     OW 2035   6.193   1.688   5.715
  379SOL    HW1 2036   6.111   1.645   5.752
  379SOL    HW2 2037   6.175   1.785   5.698
  380SOL     OW 2038   3.854   1.666   0.880
  380SOL    HW1 2039   3.931   1.715   0.839
  380SOL    HW2 2040   3.822   1.595   0.817
  381SOL     OW 2041   1.102   4.432   3.488
  381SOL    HW1 2042   1.188   4.481   3.475
  381SOL    HW2 2043   1.030   4.476   3.433
  382SOL     OW 2044   5.701   0.640   0.438
  382SOL    HW1 2045   5.642   0.607   0.365
  382SOL    HW2 2046   5.794   0.607   0.423
  383SOL     OW 2047   4.228   2.940   0.859
  383SOL    HW1 2048   4.180   2.859   0.826
  383SOL    HW2 2049   4.298   2.966   0.792
  384SOL     OW 2050   6.283   4.045   4.764
  384SOL    HW1 2051   6.284   4.121   4.829
  384SOL    HW2 2052   6.236   4.074   4.680
  385SOL     OW 2053   4.757   4.828   0.314
  385SOL    HW1 2054   4.809   4.910   0.335
  385SOL    HW2 2055   4.766   4.762   0.390
  386SOL     OW 2056   3.204   0.032   3.791
  386SOL    HW1 2057   3.238   0.061   3.880
  386SOL    HW2 2058   3.136   0.097   3.757
  387SOL     OW 2059   2.283   6.097   3.998
  387SOL    HW1 2060   2.324   6.006   4.001
  387SOL    HW2 2061   2.316   6.151   4.076
  388SOL     OW 2062   2.482   2.855   6.384
  388SOL    HW1 2063   2.443   2.858   6.476
  388SOL    HW2 2064   2.417   2.811   6.322
  389SOL     OW 2065   2.929   3.503   3.580
  389SOL    HW1 2066   2.933   3.597   3.544
  389SOL    HW2 2067   2.942   3.438   3.506
  390SOL     OW 2068   1.819   1.557   4.120
  390SOL    HW1 2069   1.872   1.552   4.205
  390SOL    HW2 2070   1.808   1.465   4.083
  391SOL     OW 2071   0.712   2.649   6.997
  391SOL    HW1 2072   0.774   2.705   6.942
  391SOL    HW2 2073   0.697   2.693   0.065
  392SOL     OW 2074   2.597   5.315   2.201
  392SOL    HW1 2075   2.564   5.409   2.200
  392SOL    HW2 2076   2.592   5.277   2.293
  393SOL     OW 2077   6.026   4.251   5.422
  393SOL    HW1 2078   6.096   4.189   5.458
  393SOL    HW2 2079   5.955   4.265   5.492
  394SOL     OW 2080   0.507   6.431   0.685
  394SOL    HW1 2081   0.562   6.458   0.606
  394SOL    HW2 2082   0.502   6.331   0.689
  395SOL     OW 2083   5.253   3.963   1.924
  395SOL    HW1 2084   5.343   3.986   1.963
  395SOL    HW2 2085   5.232   3.868   1.943
  396SOL     OW 2086   3.103   3.994   3.820
  396SOL    HW1 2087   3.016   4.043   3.815
  396SOL    HW2 2088   3.131   3.967   3.728
  397SOL     OW 2089   4.107   2.466   5.555
  397SOL    HW1 2090   4.142   2.378   5.587
  397SOL    HW2 2091   4.044   2.451   5.478
  398SOL     OW 2092   1.033   4.998   2.281
  398SOL    HW1 2093   1.024   4.908   2.238
  398SOL    HW2 2094   1.130   5.016   2.300
  399SOL     OW 2095   5.316   5.738   1.306
  399SOL    HW1 2096   5.260   5.800   1.252
  399SOL    HW2 2097   5.262   5.656   1.329
  400SOL     OW 2098   0.499   6.297   5.213
  400SOL    HW1 2099   0.492   6.356   5.133
  400SOL    HW2 2100   0.530   6.350   5.292
  401SOL     OW 2101   4.946   1.742   6.591
  401SOL    HW1 2102   4.874   1.694   6.540
  401SOL    HW2 2103   4.910   1.831   6.621
  402SOL     OW 2104   6.386   5.916   2.315
  402SOL    HW1 2105   6.441   5.994   2.343
  402SOL    HW2 2106   6.407   5.838   2.373
  403SOL     OW 2107   4.792   2.107   5.959
  403SOL    HW1 2108   4.889   2.094   5.980
  403SOL    HW2 2109   4.754   2.174   6.022
  404SOL     OW 2110   0.783   0.166   4.502
  404SOL    HW1 2111   0.756   0.122   4.587
  404SOL    HW2 2112   0.797   0.264   4.518
  405SOL     OW 2113   1.673   1.969   0.738
  405SOL    HW1 2114   1.723   1.882   0.737
  405SOL    HW2 2115   1.594   1.961   0.799
  406SOL     OW 2116   1.607   2.319   4.733
  406SOL    HW1 2117   1.594   2.295   4.829
  406SOL    HW2 2118   1.568   2.248   4.674
  407SOL     OW 2119   3.232   0.450   5.366
  407SOL    HW1 2120   3.154   0.507   5.393
  407SOL    HW2 2121   3.315   0.506   5.366
  408SOL     OW 2122   1.756   0.039   3.959
  408SOL    HW1 2123   1.760   0.120   3.900
  408SOL    HW2 2124   1.664   7.019   3.954
  409SOL     OW 2125   5.972   2.688   3.201
  409SOL    HW1 2126   6.060   2.661   3.240
  409SOL    HW2 2127   5.947   2.624   3.128
  410SOL     OW 2128   2.343   0.290   7.020
  410SOL    HW1 2129   2.325   0.274   6.923
  410SOL    HW2 2130   2.332   0.204   0.050
  411SOL     OW 2131   5.760   4.576   5.667
  411SOL    HW1 2132   5.800   4.485   5.661
  411SOL    HW2 2133   5.762   4.608   5.762
  412SOL     OW 2134   3.205   6.666   2.545
  412SOL    HW1 2135   3.139   6.624   2.483
  412SOL    HW2 2136   3.267   6.596   2.580
  413SOL     OW 2137   3.379   5.794   0.973
  413SOL    HW1 2138   3.364   5.890   0.998
  413SOL    HW2 2139   3.473   5.768   0.996
  414SOL     OW 2140   4.654   4.937   1.390
  414SOL    HW1 2141   4.753   4.925   1.392
  414SOL    HW2 2142   4.611   4.868   1.449
  415SOL     OW 2143   1.461   5.936   1.305
  415SOL    HW1 2144   1.374   5.984   1.318
  415SOL    HW2 2145   1.527   5.967   1.373
  416SOL     OW 2146   3.750   6.261   4.550
  416SOL    HW1 2147   3.748   6.174   4.502
  416SOL    HW2 2148   3.749   6.336   4.484
  417SOL     OW 2149   3.410   6.410   2.593
  417SOL    HW1 2150   3.507   6.397   2.570
  417SOL    HW2 2151   3.357   6.420   2.509
  418SOL     OW 2152   5.059   5.813   0.354
  418SOL    HW1 2153   5.010   5.726   0.346
  418SOL    HW2 2154   5.081   5.830   0.449
  419SOL     OW 2155   0.437   0.153   1.169
  419SOL    HW1 2156   0.459   0.056   1.180
  419SOL    HW2 2157   0.504   0.196   1.109
  420SOL     OW 2158   5.390   3.746   0.584
  420SOL    HW1 2159   5.484   3.781   0.586
  420SOL    HW2 2160   5.383   3.665   0.642
  421SOL     OW 2161   2.401   5.589   6.757
  421SOL    HW1 2162   2.473   5.556   6.819
  421SOL    HW2 2163   2.426   5.567   6.662
  422SOL     OW 2164   6.387   4.763   0.098
  422SOL    HW1 2165   6.380   4.780   7.019
  422SOL    HW2 2166   6.295   4.750   0.136
  423SOL     OW 2167   5.990   2.945   6.934
  423SOL    HW1 2168   6.028   2.930   6.843
  423SOL    HW2 2169   6.061   2.980   6.995
  424SOL     OW 2170   3.114   4.237   0.342
  424SOL    HW1 2171   3.183   4.305   0.368
  424SOL    HW2 2172   3.085   4.185   0.423
  425SOL     OW 2173   5.177   1.790   0.910
  425SOL    HW1 2174   5.192   1.825   1.003
  425SOL    HW2 2175   5.179   1.865   0.845
  426SOL     OW 2176   4.873   2.243   5.721
  426SOL    HW1 2177   4.831   2.157   5.747
  426SOL    HW2 2178   4.889   2.299   5.802
  427SOL     OW 2179   5.249   3.986   1.311
  427SOL    HW1 2180   5.184   4.049   1.353
  427SOL    HW2 2181   5.210   3.948   1.227
  428SOL     OW 2182   4.011   0.497   5.362
  428SOL    HW1 2183   3.953   0.421   5.392
  428SOL    HW2 2184   4.045   0.547   5.441
  429SOL     OW 2185   1.576   5.176   0.612
  429SOL    HW1 2186   1.534   5.177   0.521
  429SOL    HW2 2187   1.527   5.239   0.672
  430SOL     OW 2188   1.318   6.905   4.426
  430SOL    HW1 2189   1.285   6.845   4.499
  430SOL    HW2 2190   1.417   6.892   4.416
  431SOL     OW 2191   3.810   1.315   6.806
  431SOL    HW1 2192   3.727   1.356   6.845
  431SOL    HW2 2193   3.784   1.240   6.745
  432SOL     OW 2194   6.534   1.901   0.225
  432SOL    HW1 2195   6.469   1.973   0.197
  432SOL    HW2 2196   6.542   1.834   0.151
  433SOL     OW 2197   2.788   6.701   4.768
  433SOL    HW1 2198   2.769   6.756   4.849
  433SOL    HW2 2199   2.885   6.675   4.766
  434SOL     OW 2200   6.154   3.920   0.849
  434SOL    HW1 2201   6.203   3.972   0.919
  434SOL    HW2 2202   6.069   3.967   0.825
  435SOL     OW 2203   3.181   3.332   5.838
  435SOL    HW1 2204   3.119   3.375   5.904
  435SOL    HW2 2205   3.196   3.236   5.863
  436SOL     OW 2206   1.740   0.291   1.974
  436SOL    HW1 2207   1.734   0.192   1.962
  436SOL    HW2 2208   1.720   0.337   1.887
  437SOL     OW 2209   0.117   0.096   6.327
  437SOL    HW1 2210   0.155   0.024   6.385
  437SOL    HW2 2211   0.191   0.153   6.290
  438SOL     OW 2212   1.709   2.811   1.800
  438SOL    HW1 2213   1.711   2.740   1.870
  438SOL    HW2 2214   1.743   2.897   1.839
  439SOL     OW 2215   6.578   4.853   2.496
  439SOL    HW1 2216   6.561   4.823   2.402
  439SOL    HW2 2217   6.605   4.950   2.495
  440SOL     OW 2218   0.961   2.307   4.280
  440SOL    HW1 2219   0.883   2.318   4.341
  440SOL    HW2 2220   0.980   2.395   4.235
  441SOL     OW 2221   1.954   1.473   3.287
  441SOL    HW1 2222   1.999   1.525   3.214
  441SOL    HW2 2223   1.974   1.515   3.375
  442SOL     OW 2224   0.297   3.999   6.860
  442SOL    HW1 2225   0.371   3.932   6.857
  442SOL    HW2 2226   0.246   3.998   6.774
  443SOL     OW 2227   1.634   4.746   4.844
  443SOL    HW1 2228   1.610   4.762   4.748
  443SOL    HW2 2229   1.554   4.766   4.901
  444SOL     OW 2230   4.373   2.890   6.152
  444SOL    HW1 2231   4.299   2.885   6.085
  444SOL    HW2 2232   4.373   2.806   6.207
  445SOL     OW 2233   1.728   5.584   3.370
  445SOL    HW1 2234   1.643   5.532   3.376
  445SOL    HW2 2235   1.768   5.595   3.461
  446SOL     OW 2236   3.730   4.900   3.923
  446SOL    HW1 2237   3.789   4.829   3.961
  446SOL    HW2 2238   3.740   4.902   3.823
  447SOL     OW 2239   6.939   4.357   6.749
  447SOL    HW1 2240   6.840   4.366   6.763
  447SOL    HW2 2241   6.971   4.427   6.685
  448SOL     OW 2242   3.919   0.529   5.126
  448SOL    HW1 2243   3.960   0.523   5.217
  448SOL    HW2 2244   3.970   0.594   5.070
  449SOL     OW 2245   5.836   1.133   4.958
  449SOL    HW1 2246   5.799   1.091   4.875
  449SOL    HW2 2247   5.897   1.068   5.003
  450SOL     OW 2248   0.129   6.026   3.822
  450SOL    HW1 2249   0.144   5.973   3.739
  450SOL    HW2 2250   0.151   6.122   3.805
  451SOL     OW 2251   0.508   2.509   2.342
  451SOL    HW1 2252   0.504   2.588   2.403
  451SOL    HW2 2253   0.595   2.510   2.292
  452SOL     OW 2254   6.841   5.257   0.551
  452SOL    HW1 2255   6.850   5.354   0.529
  452SOL    HW2 2256   6.927   5.211   0.532
  453SOL     OW 2257   3.361   1.153   6.837
  453SOL    HW1 2258   3.391   1.192   6.750
  453SOL    HW2 2259   3.441   1.119   6.887
  454SOL     OW 2260   0.419   6.224   6.050
  454SOL    HW1 2261   0.517   6.231   6.031
  454SOL    HW2 2262   0.404   6.233   6.148
  455SOL     OW 2263   5.543   6.954   4.223
  455SOL    HW1 2264   5.527   6.985   4.317
  455SOL    HW2 2265   5.464   6.903   4.191
  456SOL     OW 2266   3.933   5.639   6.287
  456SOL    HW1 2267   3.995   5.563   6.268
  456SOL    HW2 2268   3.925   5.697   6.205
  457SOL     OW 2269   2.236   4.097   3.328
  457SOL    HW1 2270   2.265   4.130   3.418
  457SOL    HW2 2271   2.173   4.020   3.339
  458SOL     OW 2272   5.291   5.268   5.632
  458SOL    HW1 2273   5.321   5.189   5.578
  458SOL    HW2 2274   5.281   5.348   5.573
  459SOL     OW 2275   1.311   0.088   3.186
  459SOL    HW1 2276   1.245   0.145   3.234
  459SOL    HW2 2277   1.307   7.015   3.222
  460SOL     OW 2278   0.421   1.828   1.811
  460SOL    HW1 2279   0.417   1.908   1.752
  460SOL    HW2 2280   0.516   1.798   1.822
  461SOL     OW 2281   4.574   0.087   4.674
  461SOL    HW1 2282   4.580   7.018   4.629
  461SOL    HW2 2283   4.582   0.075   4.773
  462SOL     OW 2284   3.743   2.316   5.940
  462SOL    HW1 2285   3.792   2.398   5.911
  462SOL    HW2 2286   3.741   2.313   6.040
  463SOL     OW 2287   6.215   5.440   3.030
  463SOL    HW1 2288   6.249   5.496   3.106
  463SOL    HW2 2289   6.293   5.398   2.982
  464SOL     OW 2290   2.366   1.002   6.581
  464SOL    HW1 2291   2.351   1.081   6.522
  464SOL    HW2 2292   2.316   1.015   6.667
  465SOL     OW 2293   0.964   1.686   4.857
  465SOL    HW1 2294   1.063   1.690   4.872
  465SOL    HW2 2295   0.941   1.737   4.774
  466SOL     OW 2296   6.809   6.759   3.596
  466SOL    HW1 2297   6.746   6.713   3.534
  466SOL    HW2 2298   6.791   6.729   3.690
  467SOL     OW 2299   1.112   0.177   6.225
  467SOL    HW1 2300   1.039   0.110   6.235
  467SOL    HW2 2301   1.194   0.144   6.270
  468SOL     OW 2302   4.110   5.698   0.653
  468SOL    HW1 2303   4.197   5.650   0.659
  468SOL    HW2 2304   4.052   5.654   0.584
  469SOL     OW 2305   2.126   5.119   0.480
  469SOL    HW1 2306   2.089   5.026   0.486
  469SOL    HW2 2307   2.191   5.134   0.555
  470SOL     OW 2308   4.431   0.589   2.021
  470SOL    HW1 2309   4.364   0.629   2.083
  470SOL    HW2 2310   4.439   0.491   2.039
  471SOL     OW 2311   1.571   2.653   3.940
  471SOL    HW1 2312   1.661   2.626   3.905
  471SOL    HW2 2313   1.578   2.675   4.037
  472SOL     OW 2314   4.735   3.930   6.133
  472SOL    HW1 2315   4.665   3.897   6.196
  472SOL    HW2 2316   4.705   3.917   6.039
  473SOL     OW 2317   0.518   2.807   1.552
  473SOL    HW1 2318   0.437   2.785   1.607
  473SOL    HW2 2319   0.495   2.880   1.488
  474SOL     OW 2320   4.510   4.841   4.130
  474SOL    HW1 2321   4.448   4.770   4.098
  474SOL    HW2 2322   4.489   4.864   4.225
  475SOL     OW 2323   6.871   0.119   6.626
  475SOL    HW1 2324   6.789   0.165   6.660
  475SOL    HW2 2325   6.845   0.033   6.581
  476SOL     OW 2326   6.562   3.876   2.606
  476SOL    HW1 2327   6.533   3.781   2.592
  476SOL    HW2 2328   6.487   3.937   2.580
  477SOL     OW 2329   2.061   5.110   4.455
  477SOL    HW1 2330   2.080   5.208   4.463
  477SOL    HW2 2331   2.102   5.062   4.533
  478SOL     OW 2332   3.020   6.341   2.662
  478SOL    HW1 2333   2.933   6.372   2.700
  478SOL    HW2 2334   3.038   6.391   2.577
  479SOL     OW 2335   3.151   2.036   0.336
  479SOL    HW1 2336   3.078   2.103   0.344
  479SOL    HW2 2337   3.240   2.083   0.337
  480SOL     OW 2338   1.390   0.085   1.259
  480SOL    HW1 2339   1.397   0.076   1.358
  480SOL    HW2 2340   1.344   0.004   1.222
  481SOL     OW 2341   2.013   0.816   1.140
  481SOL    HW1 2342   1.914   0.801   1.144
  481SOL    HW2 2343   2.059   0.758   1.207
  482SOL     OW 2344   4.651   4.811   2.512
  482SOL    HW1 2345   4.609   4.892   2.472
  482SOL    HW2 2346   4.633   4.809   2.611
  483SOL     OW 2347   5.617   2.427   1.741
  483SOL    HW1 2348   5.685   2.450   1.811
  483SOL    HW2 2349   5.558   2.354   1.774
  484SOL     OW 2350   0.940   2.983   4.649
  484SOL    HW1 2351   0.903   2.892   4.626
  484SOL    HW2 2352   1.037   2.986   4.625
  485SOL     OW 2353   3.185   5.071   2.236
  485SOL    HW1 2354   3.100   5.036   2.198
  485SOL    HW2 2355   3.230   4.999   2.288
  486SOL     OW 2356   0.924   1.721   1.177
  486SOL    HW1 2357   0.892   1.668   1.256
  486SOL    HW2 2358   0.979   1.798   1.209
  487SOL     OW 2359   0.711   1.820   6.708
  487SOL    HW1 2360   0.656   1.759   6.651
  487SOL    HW2 2361   0.721   1.781   6.799
  488SOL     OW 2362   1.062   1.386   1.155
  488SOL    HW1 2363   1.054   1.365   1.252
  488SOL    HW2 2364   1.155   1.420   1.135
  489SOL     OW 2365   3.406   5.924   0.398
  489SOL    HW1 2366   3.426   5.902   0.303
  489SOL    HW2 2367   3.399   5.839   0.451
  490SOL     OW 2368   6.211   6.066   4.176
  490SOL    HW1 2369   6.287   6.058   4.113
  490SOL    HW2 2370   6.238   6.121   4.255
  491SOL     OW 2371   0.078   2.610   2.856
  491SOL    HW1 2372   0.043   2.587   2.765
  491SOL    HW2 2373   0.165   2.658   2.847
  492SOL     OW 2374   3.253   0.563   5.684
  492SOL    HW1 2375   3.213   0.607   5.764
  492SOL    HW2 2376   3.229   0.466   5.683
  493SOL     OW 2377   6.378   4.786   6.530
  493SOL    HW1 2378   6.447   4.716   6.549
  493SOL    HW2 2379   6.288   4.742   6.521
  494SOL     OW 2380   0.093   6.139   6.797
  494SOL    HW1 2381   0.077   6.152   6.895
  494SOL    HW2 2382   0.133   6.222   6.758
  495SOL     OW 2383   5.048   5.399   2.850
  495SOL    HW1 2384   5.067   5.336   2.774
  495SOL    HW2 2385   4.976   5.463   2.823
  496SOL     OW 2386   5.251   2.780   2.975
  496SOL    HW1 2387   5.243   2.822   2.884
  496SOL    HW2 2388   5.222   2.684   2.970
  497SOL     OW 2389   3.523   1.369   5.156
  497SOL    HW1 2390   3.436   1.387   5.203
  497SOL    HW2 2391   3.542   1.443   5.092
  498SOL     OW 2392   1.469   3.617   1.844
  498SOL    HW1 2393   1.536   3.575   1.905
  498SOL    HW2 2394   1.448   3.709   1.875
  499SOL     OW 2395   2.975   0.916   4.259
  499SOL    HW1 2396   2.893   0.959   4.298
  499SOL    HW2 2397   3.000   0.962   4.174
  500SOL     OW 2398   0.622   4.554   3.953
  500SOL    HW1 2399   0.554   4.532   4.023
  500SOL    HW2 2400   0.577   4.563   3.864
  501SOL     OW 2401   2.789   1.902   0.180
  501SOL    HW1 2402   2.718   1.913   0.111
  501SOL    HW2 2403   2.750   1.857   0.261
  502SOL     OW 2404   5.611   4.279   5.806
  502SOL    HW1 2405   5.550   4.332   5.866
  502SOL    HW2 2406   5.683   4.237   5.861
  503SOL     OW 2407   6.367   4.288   5.795
  503SOL    HW1 2408   6.330   4.197   5.814
  503SOL    HW2 2409   6.391   4.333   5.881
  504SOL     OW 2410   2.430   6.387   4.089
  504SOL    HW1 2411   2.339   6.416   4.060
  504SOL    HW2 2412   2.433   6.382   4.189
  505SOL     OW 2413   3.688   0.618   5.322
  505SOL    HW1 2414   3.759   0.583   5.260
  505SOL    HW2 2415   3.599   0.611   5.278
  506SOL     OW 2416   1.799   5.215   4.470
  506SOL    HW1 2417   1.791   5.247   4.565
  506SOL    HW2 2418   1.884   5.163   4.460
  507SOL     OW 2419   2.742   0.131   4.376
  507SOL    HW1 2420   2.826   0.101   4.422
  507SOL    HW2 2421   2.670   0.064   4.392
  508SOL     OW 2422   5.968   3.265   2.681
  508SOL    HW1 2423   6.059   3.283   2.643
  508SOL    HW2 2424   5.914   3.349   2.679
  509SOL     OW 2425   3.866   0.939   1.401
  509SOL    HW1 2426   3.811   0.923   1.319
  509SOL    HW2 2427   3.870   1.037   1.420
  510SOL     OW 2428   6.778   4.545   5.910
  510SOL    HW1 2429   6.742   4.585   5.826
  510SOL    HW2 2430   6.871   4.580   5.926
  511SOL     OW 2431   0.018   6.679   6.770
  511SOL    HW1 2432   0.021   6.738   6.689
  511SOL    HW2 2433   6.982   6.598   6.749
  512SOL     OW 2434   0.074   3.154   0.185
  512SOL    HW1 2435   7.019   3.201   0.231
  512SOL    HW2 2436   0.099   3.072   0.238
  513SOL     OW 2437   5.793   6.454   2.999
  513SOL    HW1 2438   5.863   6.396   3.041
  513SOL    HW2 2439   5.707   6.403   2.992
  514SOL     OW 2440   6.396   2.155   4.208
  514SOL    HW1 2441   6.482   2.146   4.159
  514SOL    HW2 2442   6.320   2.157   4.142
  515SOL     OW 2443   2.604   6.506   6.047
  515SOL    HW1 2444   2.540   6.514   6.123
  515SOL    HW2 2445   2.679   6.445   6.073
  516SOL     OW 2446   2.785   4.672   1.662
  516SOL    HW1 2447   2.788   4.656   1.760
  516SOL    HW2 2448   2.859   4.621   1.617
  517SOL     OW 2449   4.923   5.920   2.328
  517SOL    HW1 2450   5.003   5.874   2.292
  517SOL    HW2 2451   4.951   5.999   2.384
  518SOL     OW 2452   2.824   2.259   1.367
  518SOL    HW1 2453   2.812   2.212   1.455
  518SOL    HW2 2454   2.735   2.272   1.324
  519SOL     OW 2455   6.952   0.636   5.008
  519SOL    HW1 2456   0.019   0.595   4.983
  519SOL    HW2 2457   6.929   0.708   4.942
  520SOL     OW 2458   5.544   4.669   6.304
  520SOL    HW1 2459   5.565   4.762   6.336
  520SOL    HW2 2460   5.578   4.602   6.371
  521SOL     OW 2461   6.054   1.961   6.310
  521SOL    HW1 2462   5.979   1.908   6.349
  521SOL    HW2 2463   6.141   1.914   6.325
  522SOL     OW 2464   3.854   2.976   5.485
  522SOL    HW1 2465   3.910   2.901   5.450
  522SOL    HW2 2466   3.913   3.044   5.528
  523SOL     OW 2467   6.426   5.409   3.595
  523SOL    HW1 2468   6.399   5.427   3.690
  523SOL    HW2 2469   6.390   5.321   3.566
  524SOL     OW 2470   2.843   0.867   6.826
  524SOL    HW1 2471   2.905   0.899   6.898
  524SOL    HW2 2472   2.761   0.924   6.825
  525SOL     OW 2473   2.390   3.667   6.413
  525SOL    HW1 2474   2.342   3.744   6.371
  525SOL    HW2 2475   2.485   3.692   6.430
  526SOL     OW 2476   2.281   5.768   4.864
  526SOL    HW1 2477   2.214   5.729   4.802
  526SOL    HW2 2478   2.351   5.816   4.812
  527SOL     OW 2479   6.219   2.051   6.022
  527SOL    HW1 2480   6.247   2.037   6.117
  527SOL    HW2 2481   6.125   2.086   6.020
  528SOL     OW 2482   1.564   1.336   4.045
  528SOL    HW1 2483   1.500   1.317   3.970
  528SOL    HW2 2484   1.559   1.434   4.067
  529SOL     OW 2485   1.162   5.133   4.675
  529SOL    HW1 2486   1.090   5.076   4.635
  529SOL    HW2 2487   1.137   5.230   4.666
  530SOL     OW 2488   2.638   2.893   5.412
  530SOL    HW1 2489   2.609   2.800   5.436
  530SOL    HW2 2490   2.591   2.922   5.329
  531SOL     OW 2491   0.420   0.837   1.390
  531SOL    HW1 2492   0.488   0.910   1.383
  531SOL    HW2 2493   0.405   0.796   1.300
  532SOL     OW 2494   0.665   2.276   6.287
  532SOL    HW1 2495   0.631   2.314   6.373
  532SOL    HW2 2496   0.590   2.235   6.236
  533SOL     OW 2497   4.673   6.159   4.411
  533SOL    HW1 2498   4.708   6.149   4.318
  533SOL    HW2 2499   4.650   6.255   4.427
  534SOL     OW 2500   4.650   5.499   4.037
  534SOL    HW1 2501   4.620   5.587   4.000
  534SOL    HW2 2502   4.645   5.502   4.137
  535SOL     OW 2503   0.979   4.682   4.446
  535SOL    HW1 2504   1.008   4.720   4.534
  535SOL    HW2 2505   1.059   4.670   4.387
  536SOL     OW 2506   0.325   5.559   1.316
  536SOL    HW1 2507   0.315   5.570   1.217
  536SOL    HW2 2508   0.253   5.609   1.363
  537SOL     OW 2509   2.297   6.414   3.440
  537SOL    HW1 2510   2.277   6.367   3.526
  537SOL    HW2 2511   2.359   6.490   3.457
  538SOL     OW 2512   1.005   5.944   3.320
  538SOL    HW1 2513   1.044   5.864   3.364
  538SOL    HW2 2514   1.043   5.953   3.228
  539SOL     OW 2515   0.964   5.115   1.260
  539SOL    HW1 2516   0.993   5.203   1.299
  539SOL    HW2 2517   0.873   5.124   1.221
  540SOL     OW 2518   0.403   2.293   2.196
  540SOL    HW1 2519   0.322   2.248   2.234
  540SOL    HW2 2520   0.424   2.375   2.248
  541SOL     OW 2521   3.044   6.558   4.776
  541SOL    HW1 2522   3.124   6.561   4.836
  541SOL    HW2 2523   3.028   6.464   4.746
  542SOL     OW 2524   6.612   6.660   0.444
  542SOL    HW1 2525   6.650   6.749   0.418
  542SOL    HW2 2526   6.686   6.593   0.449
  543SOL     OW 2527   0.647   4.958   6.430
  543SOL    HW1 2528   0.597   5.011   6.362
  543SOL    HW2 2529   0.672   5.016   6.507
  544SOL     OW 2530   1.162   4.468   1.228
  544SOL    HW1 2531   1.223   4.535   1.187
  544SOL    HW2 2532   1.078   4.461   1.174
  545SOL     OW 2533   3.662   1.665   3.512
  545SOL    HW1 2534   3.605   1.740   3.547
  545SOL    HW2 2535   3.603   1.596   3.469
  546SOL     OW 2536   1.614   3.623   1.600
  546SOL    HW1 2537   1.583   3.648   1.692
  546SOL    HW2 2538   1.538   3.632   1.535
  547SOL     OW 2539   2.132   2.043   0.044
  547SOL    HW1 2540   2.222   2.039   0.001
  547SOL    HW2 2541   2.061   2.026   6.996
  548SOL     OW 2542   4.088   3.547   3.246
  548SOL    HW1 2543   4.113   3.632   3.198
  548SOL    HW2 2544   4.013   3.502   3.197
  549SOL     OW 2545   4.719   3.577   1.478
  549SOL    HW1 2546   4.740   3.489   1.436
  549SOL    HW2 2547   4.620   3.595   1.471
  550SOL     OW 2548   6.706   3.117   2.954
  550SOL    HW1 2549   6.729   3.134   2.859
  550SOL    HW2 2550   6.617   3.071   2.960
  551SOL     OW 2551   6.720   1.764   0.611
  551SOL    HW1 2552   6.677   1.835   0.555
  551SOL    HW2 2553   6.664   1.681   0.610
  552SOL     OW 2554   4.301   5.267   1.020
  552SOL    HW1 2555   4.285   5.168   1.017
  552SOL    HW2 2556   4.240   5.309   1.087
  553SOL     OW 2557   1.778   0.127   2.649
  553SOL    HW1 2558   1.707   0.191   2.618
  553SOL    HW2 2559   1.824   0.087   2.569
  554SOL     OW 2560   5.334   6.047   6.094
  554SOL    HW1 2561   5.418   5.998   6.118
  554SOL    HW2 2562   5.351   6.145   6.095
  555SOL     OW 2563   2.145   5.157   4.146
  555SOL    HW1 2564   2.053   5.171   4.184
  555SOL    HW2 2565   2.213   5.172   4.218
  556SOL     OW 2566   5.971   2.003   4.164
  556SOL    HW1 2567   6.044   2.052   4.115
  556SOL    HW2 2568   5.901   2.068   4.193
  557SOL     OW 2569   6.627   5.777   6.378
  557SOL    HW1 2570   6.694   5.760   6.451
  557SOL    HW2 2571   6.644   5.867   6.337
  558SOL     OW 2572   4.170   3.550   5.098
  558SOL    HW1 2573   4.167   3.451   5.084
  558SOL    HW2 2574   4.126   3.596   5.021
  559SOL     OW 2575   6.867   6.035   6.847
  559SOL    HW1 2576   6.958   6.067   6.823
  559SOL    HW2 2577   6.871   5.939   6.877
  560SOL     OW 2578   4.247   6.239   0.352
  560SOL    HW1 2579   4.223   6.246   0.449
  560SOL    HW2 2580   4.336   6.282   0.337
  561SOL     OW 2581   5.922   6.603   0.599
  561SOL    HW1 2582   5.987   6.648   0.537
  561SOL    HW2 2583   5.964   6.519   0.634
  562SOL     OW 2584   5.082   1.046   5.782
  562SOL    HW1 2585   5.181   1.049   5.793
  562SOL    HW2 2586   5.052   0.950   5.783
  563SOL     OW 2587   2.563   6.634   3.736
  563SOL    HW1 2588   2.653   6.676   3.724
  563SOL    HW2 2589   2.565   6.574   3.817
  564SOL     OW 2590   2.184   2.264   6.095
  564SOL    HW1 2591   2.175   2.354   6.137
  564SOL    HW2 2592   2.135   2.196   6.150
  565SOL     OW 2593   4.261   3.441   5.725
  565SOL    HW1 2594   4.170   3.481   5.719
  565SOL    HW2 2595   4.318   3.474   5.650
  566SOL     OW 2596   4.237   4.836   3.250
  566SOL    HW1 2597   4.324   4.876   3.278
  566SOL    HW2 2598   4.249   4.786   3.164
  567SOL     OW 2599   3.393   3.242   4.071
  567SOL    HW1 2600   3.364   3.239   3.976
  567SOL    HW2 2601   3.360   3.161   4.119
  568SOL     OW 2602   3.118   2.504   0.254
  568SOL    HW1 2603   3.112   2.581   0.191
  568SOL    HW2 2604   3.108   2.536   0.348
  569SOL     OW 2605   1.592   2.950   0.333
  569SOL    HW1 2606   1.679   2.903   0.351
  569SOL    HW2 2607   1.527   2.886   0.294
  570SOL     OW 2608   1.194   6.529   0.601
  570SOL    HW1 2609   1.289   6.503   0.615
  570SOL    HW2 2610   1.135   6.478   0.664
  571SOL     OW 2611   3.917   5.325   2.728
  571SOL    HW1 2612   3.843   5.383   2.759
  571SOL    HW2 2613   4.002   5.351   2.775
  572SOL     OW 2614   2.288   4.433   5.630
  572SOL    HW1 2615   2.238   4.348   5.610
  572SOL    HW2 2616   2.386   4.412   5.637
  573SOL     OW 2617   4.467   1.134   5.782
  573SOL    HW1 2618   4.534   1.117   5.710
  573SOL    HW2 2619   4.463   1.232   5.801
  574SOL     OW 2620   2.179   1.705   4.417
  574SOL    HW1 2621   2.165   1.750   4.505
  574SOL    HW2 2622   2.244   1.630   4.428
  575SOL     OW 2623   6.381   3.572   0.557
  575SOL    HW1 2624   6.395   3.665   0.523
  575SOL    HW2 2625   6.300   3.532   0.513
  576SOL     OW 2626   1.296   2.541   1.855
  576SOL    HW1 2627   1.238   2.512   1.779
  576SOL    HW2 2628   1.294   2.471   1.926
  577SOL     OW 2629   2.362   1.675   3.937
  577SOL    HW1 2630   2.331   1.766   3.909
  577SOL    HW2 2631   2.283   1.618   3.959
  578SOL     OW 2632   0.636   3.208   2.959
  578SOL    HW1 2633   0.539   3.190   2.978
  578SOL    HW2 2634   0.656   3.305   2.976
  579SOL     OW 2635   3.788   2.057   0.905
  579SOL    HW1 2636   3.785   2.134   0.842
  579SOL    HW2 2637   3.756   2.086   0.995
  580SOL     OW 2638   1.051   5.053   6.500
  580SOL    HW1 2639   1.047   5.139   6.450
  580SOL    HW2 2640   1.003   4.981   6.449
  581SOL     OW 2641   3.889   3.001   3.153
  581SOL    HW1 2642   3.801   2.959   3.175
  581SOL    HW2 2643   3.963   2.942   3.186
  582SOL     OW 2644   5.544   3.907   2.378
  582SOL    HW1 2645   5.518   3.812   2.398
  582SOL    HW2 2646   5.493   3.968   2.438
  583SOL     OW 2647   2.386   4.978   0.294
  583SOL    HW1 2648   2.343   5.059   0.334
  583SOL    HW2 2649   2.485   4.989   0.297
  584SOL     OW 2650   0.454   4.991   5.198
  584SOL    HW1 2651   0.422   4.961   5.287
  584SOL    HW2 2652   0.530   4.933   5.168
  585SOL     OW 2653   0.397   2.526   5.850
  585SOL    HW1 2654   0.416   2.515   5.948
  585SOL    HW2 2655   0.480   2.505   5.798
  586SOL     OW 2656   2.487   6.866   0.849
  586SOL    HW1 2657   2.545   6.880   0.930
  586SOL    HW2 2658   2.392   6.855   0.878
  587SOL     OW 2659   1.377   2.983   5.614
  587SOL    HW1 2660   1.378   3.082   5.600
  587SOL    HW2 2661   1.412   2.962   5.706
  588SOL     OW 2662   3.810   0.032   1.580
  588SOL    HW1 2663   3.828   6.971   1.636
  588SOL    HW2 2664   3.804   0.113   1.639
  589SOL     OW 2665   3.190   5.355   2.147
  589SOL    HW1 2666   3.187   5.258   2.172
  589SOL    HW2 2667   3.120   5.373   2.078
  590SOL     OW 2668   6.836   2.573   2.090
  590SOL    HW1 2669   6.754   2.547   2.140
  590SOL    HW2 2670   6.902   2.498   2.093
  591SOL     OW 2671   3.827   0.377   3.750
  591SOL    HW1 2672   3.859   0.387   3.656
  591SOL    HW2 2673   3.900   0.402   3.814
  592SOL     OW 2674   4.876   0.702   0.526
  592SOL    HW1 2675   4.958   0.749   0.493
  592SOL    HW2 2676   4.890   0.671   0.620
  593SOL     OW 2677   4.417   2.494   4.118
  593SOL    HW1 2678   4.464   2.580   4.141
  593SOL    HW2 2679   4.405   2.488   4.019
  594SOL     OW 2680   4.102   3.736   0.627
  594SOL    HW1 2681   4.039   3.811   0.648
  594SOL    HW2 2682   4.124   3.688   0.712
  595SOL     OW 2683   3.993   6.068   3.758
  595SOL    HW1 2684   3.988   6.029   3.850
  595SOL    HW2 2685   3.932   6.017   3.697
  596SOL     OW 2686   0.987   4.449   2.486
  596SOL    HW1 2687   0.912   4.449   2.420
  596SOL    HW2 2688   0.964   4.507   2.564
  597SOL     OW 2689   4.199   0.361   6.565
  597SOL    HW1 2690   4.102   0.340   6.578
  597SOL    HW2 2691   4.244   0.281   6.525
  598SOL     OW 2692   3.830   4.995   0.656
  598SOL    HW1 2693   3.871   5.020   0.744
  598SOL    HW2 2694   3.868   5.053   0.584
  599SOL     OW 2695   6.719   0.525   3.128
  599SOL    HW1 2696   6.682   0.551   3.039
  599SOL    HW2 2697   6.813   0.558   3.136
  600SOL     OW 2698   1.369   0.055   0.763
  600SOL    HW1 2699   1.353   0.153   0.778
  600SOL    HW2 2700   1.285   0.012   0.730
  601SOL     OW 2701   2.337   5.468   3.507
  601SOL    HW1 2702   2.239   5.483   3.495
  601SOL    HW2 2703   2.378   5.443   3.419
  602SOL     OW 2704   1.572   0.314   1.179
  602SOL    HW1 2705   1.548   0.351   1.089
  602SOL    HW2 2706   1.494   0.265   1.217
  603SOL     OW 2707   4.599   1.930   3.622
  603SOL    HW1 2708   4.581   1.980   3.707
  603SOL    HW2 2709   4.515   1.927   3.567
  604SOL     OW 2710   0.944   3.308   6.120
  604SOL    HW1 2711   1.018   3.348   6.175
  604SOL    HW2 2712   0.912   3.225   6.165
  605SOL     OW 2713   6.662   6.116   3.303
  605SOL    HW1 2714   6.645   6.019   3.291
  605SOL    HW2 2715   6.760   6.134   3.293
  606SOL     OW 2716   4.063   0.465   4.231
  606SOL    HW1 2717   4.143   0.497   4.282
  606SOL    HW2 2718   4.061   0.510   4.142
  607SOL     OW 2719   5.136   1.279   4.186
  607SOL    HW1 2720   5.080   1.220   4.244
  607SOL    HW2 2721   5.230   1.245   4.184
  608SOL     OW 2722   3.609   0.728   0.663
  608SOL    HW1 2723   3.546   0.665   0.709
  608SOL    HW2 2724   3.677   0.761   0.729
  609SOL     OW 2725   3.507   2.887   3.572
  609SOL    HW1 2726   3.456   2.881   3.658
  609SOL    HW2 2727   3.446   2.918   3.499
  610SOL     OW 2728   5.203   1.980   4.082
  610SOL    HW1 2729   5.231   2.063   4.034
  610SOL    HW2 2730   5.241   1.900   4.035
  611SOL     OW 2731   0.446   0.622   0.388
  611SOL    HW1 2732   0.347   0.637   0.380
  611SOL    HW2 2733   0.488   0.699   0.435
  612SOL     OW 2734   3.653   5.669   6.311
  612SOL    HW1 2735   3.623   5.579   6.279
  612SOL    HW2 2736   3.751   5.678   6.296
  613SOL     OW 2737   4.471   1.426   6.169
  613SOL    HW1 2738   4.440   1.485   6.243
  613SOL    HW2 2739   4.532   1.355   6.205
  614SOL     OW 2740   6.416   4.571   0.431
  614SOL    HW1 2741   6.450   4.545   0.522
  614SOL    HW2 2742   6.471   4.646   0.395
  615SOL     OW 2743   0.749   0.253   0.517
  615SOL    HW1 2744   0.832   0.308   0.512
  615SOL    HW2 2745   0.768   0.167   0.563
  616SOL     OW 2746   5.597   1.785   4.623
  616SOL    HW1 2747   5.593   1.740   4.713
  616SOL    HW2 2748   5.692   1.786   4.591
  617SOL     OW 2749   6.895   5.099   5.160
  617SOL    HW1 2750   6.940   5.135   5.079
  617SOL    HW2 2751   6.956   5.110   5.239
  618SOL     OW 2752   5.662   3.841   0.624
  618SOL    HW1 2753   5.709   3.867   0.708
  618SOL    HW2 2754   5.713   3.766   0.580
  619SOL     OW 2755   3.364   0.578   0.639
  619SOL    HW1 2756   3.289   0.643   0.629
  619SOL    HW2 2757   3.329   0.485   0.629
  620SOL     OW 2758   5.626   3.278   1.928
  620SOL    HW1 2759   5.704   3.272   1.866
  620SOL    HW2 2760   5.548   3.230   1.888
  621SOL     OW 2761   2.640   0.644   6.885
  621SOL    HW1 2762   2.713   0.711   6.886
  621SOL    HW2 2763   2.634   0.602   6.794
  622SOL     OW 2764   0.937   2.544   5.496
  622SOL    HW1 2765   0.859   2.497   5.455
  622SOL    HW2 2766   0.955   2.629   5.447
  623SOL     OW 2767   6.147   6.477   4.278
  623SOL    HW1 2768   6.086   6.552   4.305
  623SOL    HW2 2769   6.177   6.491   4.183
  624SOL     OW 2770   6.389   1.227   6.508
  624SOL    HW1 2771   6.296   1.263   6.498
  624SOL    HW2 2772   6.424   1.250   6.599
  625SOL     OW 2773   2.728   1.032   0.372
  625SOL    HW1 2774   2.788   1.007   0.449
  625SOL    HW2 2775   2.717   0.953   0.312
  626SOL     OW 2776   0.755   5.370   3.684
  626SOL    HW1 2777   0.678   5.311   3.708
  626SOL    HW2 2778   0.796   5.337   3.598
  627SOL     OW 2779   6.195   0.156   6.805
  627SOL    HW1 2780   6.221   0.221   6.733
  627SOL    HW2 2781   6.276   0.123   6.851
  628SOL     OW 2782   5.194   4.214   5.484
  628SOL    HW1 2783   5.285   4.248   5.460
  628SOL    HW2 2784   5.169   4.249   5.574
  629SOL     OW 2785   6.841   0.617   6.686
  629SOL    HW1 2786   6.917   0.679   6.669
  629SOL    HW2 2787   6.876   0.528   6.716
  630SOL     OW 2788   6.806   1.770   1.261
  630SOL    HW1 2789   6.735   1.794   1.327
  630SOL    HW2 2790   6.896   1.775   1.305
  631SOL     OW 2791   2.055   2.871   5.027
  631SOL    HW1 2792   2.023   2.954   4.980
  631SOL    HW2 2793   2.154   2.864   5.019
  632SOL     OW 2794   3.973   3.260   0.272
  632SOL    HW1 2795   3.969   3.353   0.235
  632SOL    HW2 2796   4.063   3.246   0.314
  633SOL     OW 2797   1.556   5.597   1.565
  633SOL    HW1 2798   1.645   5.560   1.539
  633SOL    HW2 2799   1.513   5.640   1.485
  634SOL     OW 2800   3.122   3.311   3.970
  634SOL    HW1 2801   3.076   3.367   3.902
  634SOL    HW2 2802   3.175   3.369   4.032
  635SOL     OW 2803   5.773   1.120   6.572
  635SOL    HW1 2804   5.787   1.186   6.498
  635SOL    HW2 2805   5.845   1.129   6.640
  636SOL     OW 2806   3.464   0.192   6.351
  636SOL    HW1 2807   3.453   0.287   6.383
  636SOL    HW2 2808   3.474   0.132   6.430
  637SOL     OW 2809   6.615   1.295   1.897
  637SOL    HW1 2810   6.683   1.243   1.949
  637SOL    HW2 2811   6.649   1.388   1.881
  638SOL     OW 2812   6.161   3.465   4.317
  638SOL    HW1 2813   6.085   3.418   4.273
  638SOL    HW2 2814   6.141   3.476   4.415
  639SOL     OW 2815   5.005   5.019   3.332
  639SOL    HW1 2816   4.933   5.059   3.275
  639SOL    HW2 2817   5.080   5.084   3.342
  640SOL     OW 2818   0.305   2.889   2.631
  640SOL    HW1 2819   0.218   2.897   2.583
  640SOL    HW2 2820   0.312   2.964   2.697
  641SOL     OW 2821   2.109   4.712   5.158
  641SOL    HW1 2822   2.140   4.625   5.198
  641SOL    HW2 2823   2.155   4.727   5.071
  642SOL     OW 2824   0.877   3.459   4.852
  642SOL    HW1 2825   0.947   3.436   4.785
  642SOL    HW2 2826   0.794   3.487   4.806
  643SOL     OW 2827   4.524   5.624   6.595
  643SOL    HW1 2828   4.617   5.639   6.629
  643SOL    HW2 2829   4.527   5.573   6.509
  644SOL     OW 2830   6.782   6.844   4.605
  644SOL    HW1 2831   6.723   6.822   4.682
  644SOL    HW2 2832   6.807   6.941   4.610
  645SOL     OW 2833   3.721   5.112   2.336
  645SOL    HW1 2834   3.780   5.032   2.333
  645SOL    HW2 2835   3.626   5.085   2.320
  646SOL     OW 2836   4.243   0.939   4.986
  646SOL    HW1 2837   4.267   1.026   5.029
  646SOL    HW2 2838   4.325   0.886   4.966
  647SOL     OW 2839   5.081   2.211   4.740
  647SOL    HW1 2840   5.095   2.155   4.659
  647SOL    HW2 2841   4.984   2.213   4.763
  648SOL     OW 2842   5.814   1.978   2.848
  648SOL    HW1 2843   5.798   1.966   2.946
  648SOL    HW2 2844   5.807   2.075   2.824
  649SOL     OW 2845   2.605   4.925   0.698
  649SOL    HW1 2846   2.609   4.990   0.621
  649SOL    HW2 2847   2.513   4.884   0.701
  650SOL     OW 2848   6.789   5.740   0.896
  650SOL    HW1 2849   6.800   5.669   0.827
  650SOL    HW2 2850   6.803   5.701   0.987
  651SOL     OW 2851   1.372   0.253   5.580
  651SOL    HW1 2852   1.363   0.351   5.599
  651SOL    HW2 2853   1.303   0.226   5.513
  652SOL     OW 2854   4.088   0.363   1.952
  652SOL    HW1 2855   4.105   0.276   1.998
  652SOL    HW2 2856   4.166   0.424   1.967
  653SOL     OW 2857   0.156   6.538   1.424
  653SOL    HW1 2858   0.205   6.552   1.511
  653SOL    HW2 2859   0.066   6.580   1.430
  654SOL     OW 2860   6.933   0.082   5.616
  654SOL    HW1 2861   7.015   0.050   5.568
  654SOL    HW2 2862   6.930   0.039   5.707
  655SOL     OW 2863   0.131   4.843   1.533
  655SOL    HW1 2864   0.036   4.872   1.549
  655SOL    HW2 2865   0.134   4.784   1.451
  656SOL     OW 2866   3.050   6.394   0.893
  656SOL    HW1 2867   3.052   6.406   0.793
  656SOL    HW2 2868   3.079   6.301   0.916
  657SOL     OW 2869   3.799   2.861   1.894
  657SOL    HW1 2870   3.891   2.829   1.916
  657SOL    HW2 2871   3.753   2.793   1.836
  658SOL     OW 2872   1.902   4.608   4.079
  658SOL    HW1 2873   1.854   4.690   4.047
  658SOL    HW2 2874   1.892   4.599   4.178
  659SOL     OW 2875   2.822   6.473   5.776
  659SOL    HW1 2876   2.866   6.387   5.752
  659SOL    HW2 2877   2.874   6.519   5.848
  660SOL     OW 2878   4.423   4.636   2.297
  660SOL    HW1 2879   4.373   4.627   2.211
  660SOL    HW2 2880   4.383   4.709   2.352
  661SOL     OW 2881   4.502   4.499   4.400
  661SOL    HW1 2882   4.463   4.587   4.428
  661SOL    HW2 2883   4.507   4.495   4.301
  662SOL     OW 2884   4.553   3.394   0.198
  662SOL    HW1 2885   4.505   3.336   0.264
  662SOL    HW2 2886   4.547   3.490   0.227
  663SOL     OW 2887   0.067   4.358   0.029
  663SOL    HW1 2888   7.000   4.406   0.038
  663SOL    HW2 2889   0.130   4.413   6.996
  664SOL     OW 2890   1.701   6.403   6.353
  664SOL    HW1 2891   1.606   6.379   6.337
  664SOL    HW2 2892   1.755   6.320   6.367
  665SOL     OW 2893   3.952   5.875   1.119
  665SOL    HW1 2894   3.985   5.967   1.137
  665SOL    HW2 2895   3.978   5.847   1.027
  666SOL     OW 2896   3.763   1.488   0.068
  666SOL    HW1 2897   3.741   1.468   6.993
  666SOL    HW2 2898   3.746   1.585   0.087
  667SOL     OW 2899   0.862   3.796   2.960
  667SOL    HW1 2900   0.813   3.718   2.999
  667SOL    HW2 2901   0.809   3.880   2.977
  668SOL     OW 2902   5.182   6.723   0.364
  668SOL    HW1 2903   5.127   6.800   0.397
  668SOL    HW2 2904   5.279   6.747   0.369
  669SOL     OW 2905   0.795   6.582   3.849
  669SOL    HW1 2906   0.775   6.657   3.911
  669SOL    HW2 2907   0.723   6.574   3.780
  670SOL     OW 2908   3.302   3.504   3.186
  670SOL    HW1 2909   3.331   3.504   3.282
  670SOL    HW2 2910   3.224   3.443   3.175
  671SOL     OW 2911   2.331   6.976   6.365
  671SOL    HW1 2912   2.247   6.926   6.345
  671SOL    HW2 2913   2.364   0.001   6.282
  672SOL     OW 2914   1.815   3.545   3.985
  672SOL    HW1 2915   1.913   3.566   3.991
  672SOL    HW2 2916   1.785   3.552   3.890
  673SOL     OW 2917   5.175   0.489   0.315
  673SOL    HW1 2918   5.122   0.418   0.361
  673SOL    HW2 2919   5.129   0.515   0.230
  674SOL     OW 2920   0.820   2.108   3.371
  674SOL    HW1 2921   0.849   2.089   3.465
  674SOL    HW2 2922   0.766   2.032   3.336
  675SOL     OW 2923   0.479   2.197   4.218
  675SOL    HW1 2924   0.554   2.237   4.165
  675SOL    HW2 2925   0.504   2.104   4.247
  676SOL     OW 2926   2.520   4.718   4.609
  676SOL    HW1 2927   2.542   4.728   4.706
  676SOL    HW2 2928   2.522   4.621   4.585
  677SOL     OW 2929   6.430   0.573   0.911
  677SOL    HW1 2930   6.459   0.621   0.829
  677SOL    HW2 2931   6.333   0.548   0.902
  678SOL     OW 2932   2.443   0.653   6.252
  678SOL    HW1 2933   2.414   0.575   6.197
  678SOL    HW2 2934   2.482   0.723   6.192
  679SOL     OW 2935   4.285   0.452   2.609
  679SOL    HW1 2936   4.260   0.423   2.702
  679SOL    HW2 2937   4.372   0.411   2.584
  680SOL     OW 2938   5.163   3.767   5.978
  680SOL    HW1 2939   5.133   3.857   6.008
  680SOL    HW2 2940   5.258   3.771   5.946
  681SOL     OW 2941   0.430   6.308   1.307
  681SOL    HW1 2942   0.344   6.296   1.257
  681SOL    HW2 2943   0.410   6.330   1.402
  682SOL     OW 2944   1.714   6.091   0.211
  682SOL    HW1 2945   1.775   6.061   0.139
  682SOL    HW2 2946   1.692   6.014   0.271
  683SOL     OW 2947   3.997   1.256   6.338
  683SOL    HW1 2948   3.917   1.199   6.319
  683SOL    HW2 2949   4.048   1.216   6.414
  684SOL     OW 2950   0.491   6.447   5.674
  684SOL    HW1 2951   0.447   6.358   5.663
  684SOL    HW2 2952   0.549   6.466   5.595
  685SOL     OW 2953   4.987   6.848   6.066
  685SOL    HW1 2954   4.893   6.874   6.090
  685SOL    HW2 2955   5.017   6.774   6.126
  686SOL     OW 2956   5.318   3.609   3.136
  686SOL    HW1 2957   5.272   3.686   3.181
  686SOL    HW2 2958   5.284   3.524   3.175
  687SOL     OW 2959   6.596   3.117   5.652
  687SOL    HW1 2960   6.504   3.085   5.675
  687SOL    HW2 2961   6.595   3.215   5.635
  688SOL     OW 2962   1.113   4.137   6.189
  688SOL    HW1 2963   1.141   4.147   6.284
  688SOL    HW2 2964   1.143   4.217   6.137
  689SOL     OW 2965   6.700   3.796   6.061
  689SOL    HW1 2966   6.778   3.859   6.052
  689SOL    HW2 2967   6.652   3.790   5.974
  690SOL     OW 2968   1.871   2.148   3.736
  690SOL    HW1 2969   1.927   2.077   3.692
  690SOL    HW2 2970   1.832   2.112   3.821
  691SOL     OW 2971   0.752   2.364   6.865
  691SOL    HW1 2972   0.824   2.419   6.823
  691SOL    HW2 2973   0.764   2.366   6.965
  692SOL     OW 2974   2.409   0.288   2.660
  692SOL    HW1 2975   2.502   0.325   2.651
  692SOL    HW2 2976   2.345   0.362   2.679
  693SOL     OW 2977   6.627   2.586   2.384
  693SOL    HW1 2978   6.595   2.491   2.386
  693SOL    HW2 2979   6.567   2.642   2.442
  694SOL     OW 2980   2.394   5.875   1.138
  694SOL    HW1 2981   2.367   5.941   1.067
  694SOL    HW2 2982   2.316   5.858   1.198
  695SOL     OW 2983   5.120   5.180   5.315
  695SOL    HW1 2984   5.058   5.132   5.376
  695SOL    HW2 2985   5.070   5.251   5.265
  696SOL     OW 2986   4.127   5.087   2.657
  696SOL    HW1 2987   4.150   5.090   2.754
  696SOL    HW2 2988   4.071   5.007   2.638
  697SOL     OW 2989   0.768   3.961   4.671
  697SOL    HW1 2990   0.705   3.934   4.598
  697SOL    HW2 2991   0.841   4.017   4.633
  698SOL     OW 2992   4.302   0.659   3.724
  698SOL    HW1 2993   4.258   0.609   3.649
  698SOL    HW2 2994   4.354   0.595   3.781
  699SOL     OW 2995   0.977   4.154   1.117
  699SOL    HW1 2996   0.881   4.135   1.140
  699SOL    HW2 2997   0.986   4.250   1.088
  700SOL     OW 2998   2.533   2.485   4.256
  700SOL    HW1 2999   2.489   2.438   4.180
  700SOL    HW2 3000   2.505   2.581   4.257
  701SOL     OW 3001   0.453   4.257   6.739
  701SOL    HW1 3002   0.402   4.334   6.698
  701SOL    HW2 3003   0.415   4.237   6.830
  702SOL     OW 3004   5.394   6.682   4.482
  702SOL    HW1 3005   5.365   6.777   4.498
  702SOL    HW2 3006   5.323   6.620   4.516
  703SOL     OW 3007   4.399   3.625   6.051
  703SOL    HW1 3008   4.444   3.592   6.134
  703SOL    HW2 3009   4.467   3.641   5.980
  704SOL     OW 3010   1.407   0.358   6.725
  704SOL    HW1 3011   1.473   0.412   6.777
  704SOL    HW2 3012   1.366   0.415   6.654
  705SOL     OW 3013   5.291   1.270   3.483
  705SOL    HW1 3014   5.346   1.314   3.412
  705SOL    HW2 3015   5.281   1.173   3.463
  706SOL     OW 3016   3.674   2.086   3.908
  706SOL    HW1 3017   3.600   2.101   3.842
  706SOL    HW2 3018   3.757   2.132   3.876
  707SOL     OW 3019   5.369   0.771   1.548
  707SOL    HW1 3020   5.365   0.720   1.462
  707SOL    HW2 3021   5.281   0.816   1.564
  708SOL     OW 3022   4.272   0.621   1.058
  708SOL    HW1 3023   4.190   0.619   1.115
  708SOL    HW2 3024   4.250   0.667   0.971
  709SOL     OW 3025   1.080   4.810   0.708
  709SOL    HW1 3026   0.996   4.863   0.723
  709SOL    HW2 3027   1.158   4.861   0.745
  710SOL     OW 3028   2.939   3.704   2.678
  710SOL    HW1 3029   2.960   3.797   2.648
  710SOL    HW2 3030   3.024   3.654   2.694
  711SOL     OW 3031   6.412   1.583   4.662
  711SOL    HW1 3032   6.395   1.488   4.638
  711SOL    HW2 3033   6.326   1.635   4.658
  712SOL     OW 3034   0.998   3.780   1.819
  712SOL    HW1 3035   1.085   3.781   1.771
  712SOL    HW2 3036   1.011   3.752   1.914
  713SOL     OW 3037   3.601   2.857   2.515
  713SOL    HW1 3038   3.674   2.833   2.450
  713SOL    HW2 3039   3.559   2.943   2.487
  714SOL     OW 3040   5.939   4.629   5.292
  714SOL    HW1 3041   6.018   4.577   5.325
  714SOL    HW2 3042   5.855   4.579   5.311
  715SOL     OW 3043   4.091   6.023   6.223
  715SOL    HW1 3044   4.008   6.055   6.179
  715SOL    HW2 3045   4.067   5.962   6.299
  716SOL     OW 3046   0.467   5.191   1.507
  716SOL    HW1 3047   0.451   5.144   1.421
  716SOL    HW2 3048   0.555   5.163   1.545
  717SOL     OW 3049   6.056   3.973   6.843
  717SOL    HW1 3050   6.136   3.939   6.892
  717SOL    HW2 3051   5.972   3.945   6.890
  718SOL     OW 3052   3.220   3.112   6.202
  718SOL    HW1 3053   3.236   3.014   6.215
  718SOL    HW2 3054   3.123   3.128   6.184
  719SOL     OW 3055   0.020   3.616   1.343
  719SOL    HW1 3056   6.974   3.691   1.343
  719SOL    HW2 3057   0.111   3.651   1.363
  720SOL     OW 3058   2.422   2.273   5.909
  720SOL    HW1 3059   2.344   2.244   5.965
  720SOL    HW2 3060   2.415   2.371   5.890
  721SOL     OW 3061   1.937   0.098   5.974
  721SOL    HW1 3062   1.878   0.083   5.895
  721SOL    HW2 3063   1.993   0.017   5.991
  722SOL     OW 3064   3.920   0.196   4.241
  722SOL    HW1 3065   3.983   0.135   4.193
  722SOL    HW2 3066   3.962   0.286   4.250
  723SOL     OW 3067   1.964   2.481   1.999
  723SOL    HW1 3068   2.015   2.512   1.919
  723SOL    HW2 3069   1.930   2.560   2.050
  724SOL     OW 3070   0.554   1.167   4.818
  724SOL    HW1 3071   0.536   1.170   4.719
  724SOL    HW2 3072   0.646   1.131   4.833
  725SOL     OW 3073   2.477   5.006   2.374
  725SOL    HW1 3074   2.517   5.091   2.408
  725SOL    HW2 3075   2.515   4.984   2.284
  726SOL     OW 3076   3.129   5.696   0.056
  726SOL    HW1 3077   3.103   5.762   0.126
  726SOL    HW2 3078   3.169   5.745   6.998
  727SOL     OW 3079   3.180   5.264   4.190
  727SOL    HW1 3080   3.216   5.236   4.101
  727SOL    HW2 3081   3.146   5.183   4.239
  728SOL     OW 3082   0.106   3.664   5.078
  728SOL    HW1 3083   0.196   3.684   5.119
  728SOL    HW2 3084   0.091   3.726   5.001
  729SOL     OW 3085   2.467   0.687   0.563
  729SOL    HW1 3086   2.559   0.655   0.541
  729SOL    HW2 3087   2.410   0.684   0.480
  730SOL     OW 3088   6.312   0.599   3.848
  730SOL    HW1 3089   6.347   0.610   3.941
  730SOL    HW2 3090   6.346   0.513   3.809
  731SOL     OW 3091   5.424   3.109   4.370
  731SOL    HW1 3092   5.446   3.202   4.341
  731SOL    HW2 3093   5.436   3.101   4.469
  732SOL     OW 3094   0.462   2.678   1.174
  732SOL    HW1 3095   0.478   2.624   1.256
  732SOL    HW2 3096   0.420   2.620   1.104
  733SOL     OW 3097   4.732   4.087   3.691
  733SOL    HW1 3098   4.676   4.005   3.694
  733SOL    HW2 3099   4.778   4.093   3.602
  734SOL     OW 3100   6.671   4.188   1.339
  734SOL    HW1 3101   6.703   4.269   1.388
  734SOL    HW2 3102   6.740   4.159   1.273
  735SOL     OW 3103   1.551   3.629   6.986
  735SOL    HW1 3104   1.471   3.646   0.023
  735SOL    HW2 3105   1.626   3.687   7.017
  736SOL     OW 3106   6.708   0.259   3.400
  736SOL    HW1 3107   6.699   0.270   3.499
  736SOL    HW2 3108   6.723   0.162   3.379
  737SOL     OW 3109   4.905   3.597   1.259
  737SOL    HW1 3110   4.852   3.610   1.343
  737SOL    HW2 3111   4.958   3.513   1.265
  738SOL     OW 3112   6.832   4.074   4.189
  738SOL    HW1 3113   6.742   4.091   4.228
  738SOL    HW2 3114   6.901   4.082   4.261
  739SOL     OW 3115   4.262   6.285   5.680
  739SOL    HW1 3116   4.238   6.191   5.654
  739SOL    HW2 3117   4.219   6.306   5.768
  740SOL     OW 3118   5.628   0.101   1.138
  740SOL    HW1 3119   5.580   0.189   1.134
  740SOL    HW2 3120   5.580   0.034   1.081
  741SOL     OW 3121   1.510   6.606   3.081
  741SOL    HW1 3122   1.540   6.515   3.053
  741SOL    HW2 3123   1.478   6.602   3.176
  742SOL     OW 3124   1.222   6.631   3.564
  742SOL    HW1 3125   1.154   6.647   3.636
  742SOL    HW2 3126   1.251   6.719   3.525
  743SOL     OW 3127   1.605   4.160   4.293
  743SOL    HW1 3128   1.610   4.224   4.216
  743SOL    HW2 3129   1.627   4.208   4.378
  744SOL     OW 3130   6.788   6.334   0.035
  744SOL    HW1 3131   6.739   6.416   0.006
  744SOL    HW2 3132   6.729   6.254   0.023
  745SOL     OW 3133   0.877   5.608   2.778
  745SOL    HW1 3134   0.920   5.518   2.772
  745SOL    HW2 3135   0.853   5.628   2.873
  746SOL     OW 3136   0.931   0.045   5.009
  746SOL    HW1 3137   0.959   7.010   4.930
  746SOL    HW2 3138   0.840   0.016   5.038
  747SOL     OW 3139   4.517   4.859   3.333
  747SOL    HW1 3140   4.614   4.866   3.355
  747SOL    HW2 3141   4.470   4.942   3.362
  748SOL     OW 3142   4.520   4.015   0.709
  748SOL    HW1 3143   4.464   3.953   0.655
  748SOL    HW2 3144   4.613   3.980   0.715
  749SOL     OW 3145   0.435   2.250   4.821
  749SOL    HW1 3146   0.345   2.213   4.796
  749SOL    HW2 3147   0.442   2.344   4.789
  750SOL     OW 3148   2.295   3.261   0.615
  750SOL    HW1 3149   2.295   3.219   0.524
  750SOL    HW2 3150   2.376   3.230   0.665
  751SOL     OW 3151   4.377   1.202   0.630
  751SOL    HW1 3152   4.440   1.224   0.556
  751SOL    HW2 3153   4.303   1.144   0.595
  752SOL     OW 3154   4.127   2.569   1.727
  752SOL    HW1 3155   4.045   2.586   1.673
  752SOL    HW2 3156   4.112   2.490   1.786
  753SOL     OW 3157   1.926   3.274   5.069
  753SOL    HW1 3158   1.853   3.211   5.043
  753SOL    HW2 3159   1.888   3.352   5.118
  754SOL     OW 3160   4.789   4.088   6.590
  754SOL    HW1 3161   4.864   4.035   6.629
  754SOL    HW2 3162   4.807   4.185   6.604
  755SOL     OW 3163   0.527   5.732   6.799
  755SOL    HW1 3164   0.478   5.806   6.753
  755SOL    HW2 3165   0.622   5.761   6.815
  756SOL     OW 3166   5.123   0.541   1.890
  756SOL    HW1 3167   5.200   0.507   1.836
  756SOL    HW2 3168   5.078   0.615   1.840
  757SOL     OW 3169   0.502   6.716   3.943
  757SOL    HW1 3170   0.504   6.638   4.005
  757SOL    HW2 3171   0.459   6.690   3.857
  758SOL     OW 3172   3.545   2.244   1.364
  758SOL    HW1 3173   3.463   2.298   1.346
  758SOL    HW2 3174   3.523   2.168   1.426
  759SOL     OW 3175   1.261   1.570   0.023
  759SOL    HW1 3176   1.294   1.496   6.985
  759SOL    HW2 3177   1.334   1.600   0.084
  760SOL     OW 3178   4.956   1.651   7.014
  760SOL    HW1 3179   4.911   1.628   6.928
  760SOL    HW2 3180   4.989   1.745   7.010
  761SOL     OW 3181   6.163   2.833   0.572
  761SOL    HW1 3182   6.164   2.826   0.672
  761SOL    HW2 3183   6.211   2.755   0.533
  762SOL     OW 3184   2.602   5.985   3.630
  762SOL    HW1 3185   2.538   5.921   3.588
  762SOL    HW2 3186   2.564   6.077   3.628
  763SOL     OW 3187   4.146   5.733   0.063
  763SOL    HW1 3188   4.221   5.673   0.090
  763SOL    HW2 3189   4.068   5.678   0.033
  764SOL     OW 3190   3.174   1.452   2.656
  764SOL    HW1 3191   3.239   1.485   2.724
  764SOL    HW2 3192   3.217   1.451   2.566
  765SOL     OW 3193   0.745   6.631   2.245
  765SOL    HW1 3194   0.744   6.625   2.145
  765SOL    HW2 3195   0.720   6.723   2.273
  766SOL     OW 3196   0.002   0.147   6.861
  766SOL    HW1 3197   6.965   0.117   6.784
  766SOL    HW2 3198   0.097   0.157   6.830
  767SOL     OW 3199   0.372   6.724   2.296
  767SOL    HW1 3200   0.290   6.670   2.317
  767SOL    HW2 3201   0.442   6.663   2.259
  768SOL     OW 3202   2.674   0.364   2.596
  768SOL    HW1 3203   2.728   0.281   2.586
  768SOL    HW2 3204   2.734   0.441   2.618
  769SOL     OW 3205   4.223   0.142   4.675
  769SOL    HW1 3206   4.174   0.100   4.599
  769SOL    HW2 3207   4.227   0.078   4.752
  770SOL     OW 3208   3.295   5.283   3.590
  770SOL    HW1 3209   3.280   5.253   3.495
  770SOL    HW2 3210   3.206   5.300   3.633
  771SOL     OW 3211   1.784   5.550   3.044
  771SOL    HW1 3212   1.865   5.500   3.077
  771SOL    HW2 3213   1.735   5.589   3.122
  772SOL     OW 3214   0.060   4.091   0.033
  772SOL    HW1 3215   6.983   4.078   0.052
  772SOL    HW2 3216   0.080   4.189   0.029
  773SOL     OW 3217   0.049   3.043   3.457
  773SOL    HW1 3218   0.041   2.982   3.536
  773SOL    HW2 3219   0.030   2.992   3.373
  774SOL     OW 3220   1.714   1.543   2.065
  774SOL    HW1 3221   1.790   1.587   2.019
  774SOL    HW2 3222   1.651   1.505   1.997
  775SOL     OW 3223   1.288   1.933   3.950
  775SOL    HW1 3224   1.192   1.904   3.951
  775SOL    HW2 3225   1.312   1.963   3.858
  776SOL     OW 3226   1.651   6.887   6.132
  776SOL    HW1 3227   1.696   6.972   6.160
  776SOL    HW2 3228   1.616   6.897   6.039
  777SOL     OW 3229   4.254   0.971   1.255
  777SOL    HW1 3230   4.311   1.015   1.184
  777SOL    HW2 3231   4.310   0.907   1.307
  778SOL     OW 3232   4.235   0.929   3.664
  778SOL    HW1 3233   4.256   0.843   3.711
  778SOL    HW2 3234   4.218   1.001   3.731
  779SOL     OW 3235   1.122   2.033   2.067
  779SOL    HW1 3236   1.039   2.036   2.011
  779SOL    HW2 3237   1.118   2.106   2.136
  780SOL     OW 3238   6.243   2.628   4.177
  780SOL    HW1 3239   6.272   2.691   4.249
  780SOL    HW2 3240   6.247   2.534   4.211
  781SOL     OW 3241   6.556   1.084   6.207
  781SOL    HW1 3242   6.591   1.103   6.116
  781SOL    HW2 3243   6.529   1.170   6.251
  782SOL     OW 3244   0.860   3.127   1.007
  782SOL    HW1 3245   0.791   3.200   1.011
  782SOL    HW2 3246   0.935   3.155   0.948
  783SOL     OW 3247   2.467   5.382   0.551
  783SOL    HW1 3248   2.491   5.396   0.454
  783SOL    HW2 3249   2.509   5.455   0.606
  784SOL     OW 3250   4.251   0.350   5.331
  784SOL    HW1 3251   4.176   0.416   5.337
  784SOL    HW2 3252   4.338   0.399   5.320
  785SOL     OW 3253   6.248   1.976   2.485
  785SOL    HW1 3254   6.303   1.941   2.409
  785SOL    HW2 3255   6.156   2.000   2.452
  786SOL     OW 3256   6.813   0.296   0.456
  786SOL    HW1 3257   6.831   0.231   0.382
  786SOL    HW2 3258   6.752   0.254   0.523
  787SOL     OW 3259   2.447   1.454   6.342
  787SOL    HW1 3260   2.512   1.447   6.418
  787SOL    HW2 3261   2.376   1.385   6.352
  788SOL     OW 3262   1.950   3.598   4.632
  788SOL    HW1 3263   2.021   3.627   4.696
  788SOL    HW2 3264   1.974   3.627   4.539
  789SOL     OW 3265   5.772   3.967   1.591
  789SOL    HW1 3266   5.769   3.887   1.650
  789SOL    HW2 3267   5.692   4.024   1.608
  790SOL     OW 3268   2.189   1.383   4.225
  790SOL    HW1 3269   2.097   1.367   4.262
  790SOL    HW2 3270   2.216   1.305   4.168
  791SOL     OW 3271   4.008   0.521   3.948
  791SOL    HW1 3272   3.925   0.565   3.981
  791SOL    HW2 3273   4.086   0.583   3.961
  792SOL     OW 3274   6.173   0.543   2.089
  792SOL    HW1 3275   6.249   0.492   2.129
  792SOL    HW2 3276   6.110   0.573   2.161
  793SOL     OW 3277   5.163   6.966   1.162
  793SOL    HW1 3278   5.074   7.006   1.142
  793SOL    HW2 3279   5.194   6.912   1.083
  794SOL     OW 3280   2.611   5.072   5.394
  794SOL    HW1 3281   2.530   5.081   5.452
  794SOL    HW2 3282   2.592   5.008   5.320
  795SOL     OW 3283   3.985   5.130   6.097
  795SOL    HW1 3284   3.908   5.111   6.035
  795SOL    HW2 3285   4.056   5.179   6.047
  796SOL     OW 3286   0.348   2.269   5.409
  796SOL    HW1 3287   0.289   2.211   5.465
  796SOL    HW2 3288   0.444   2.243   5.422
  797SOL     OW 3289   5.401   2.054   3.424
  797SOL    HW1 3290   5.413   2.013   3.333
  797SOL    HW2 3291   5.334   2.127   3.420
  798SOL     OW 3292   4.890   0.253   0.332
  798SOL    HW1 3293   4.943   0.282   0.252
  798SOL    HW2 3294   4.803   0.302   0.335
  799SOL     OW 3295   6.600   2.032   3.203
  799SOL    HW1 3296   6.550   2.118   3.206
  799SOL    HW2 3297   6.579   1.984   3.117
  800SOL     OW 3298   5.303   0.833   2.087
  800SOL    HW1 3299   5.297   0.825   1.988
  800SOL    HW2 3300   5.354   0.916   2.111
  801SOL     OW 3301   1.397   2.437   3.498
  801SOL    HW1 3302   1.455   2.371   3.451
  801SOL    HW2 3303   1.319   2.390   3.539
  802SOL     OW 3304   5.291   1.947   0.054
  802SOL    HW1 3305   5.301   1.995   0.141
  802SOL    HW2 3306   5.351   1.989   7.006
  803SOL     OW 3307   5.984   5.537   4.120
  803SOL    HW1 3308   5.977   5.438   4.132
  803SOL    HW2 3309   5.898   5.581   4.147
  804SOL     OW 3310   0.097   6.639   0.450
  804SOL    HW1 3311   0.089   6.690   0.364
  804SOL    HW2 3312   0.174   6.675   0.502
  805SOL     OW 3313   3.848   2.560   5.849
  805SOL    HW1 3314   3.865   2.577   5.752
  805SOL    HW2 3315   3.854   2.647   5.899
  806SOL     OW 3316   4.784   1.568   6.470
  806SOL    HW1 3317   4.845   1.520   6.408
  806SOL    HW2 3318   4.745   1.502   6.536
  807SOL     OW 3319   0.786   0.778   3.678
  807SOL    HW1 3320   0.732   0.701   3.712
  807SOL    HW2 3321   0.880   0.749   3.661
  808SOL     OW 3322   5.290   2.510   5.942
  808SOL    HW1 3323   5.356   2.585   5.937
  808SOL    HW2 3324   5.327   2.436   5.998
  809SOL     OW 3325   1.199   4.801   1.421
  809SOL    HW1 3326   1.197   4.707   1.455
  809SOL    HW2 3327   1.130   4.856   1.469
  810SOL     OW 3328   4.830   3.637   0.878
  810SOL    HW1 3329   4.800   3.553   0.925
  810SOL    HW2 3330   4.901   3.614   0.812
  811SOL     OW 3331   5.077   5.447   3.477
  811SOL    HW1 3332   5.154   5.501   3.511
  811SOL    HW2 3333   4.992   5.498   3.491
  812SOL     OW 3334   0.169   0.489   1.417
  812SOL    HW1 3335   0.116   0.492   1.332
  812SOL    HW2 3336   0.262   0.457   1.396
  813SOL     OW 3337   4.071   6.224   3.307
  813SOL    HW1 3338   4.025   6.136   3.290
  813SOL    HW2 3339   4.036   6.293   3.244
  814SOL     OW 3340   5.429   6.511   2.428
  814SOL    HW1 3341   5.483   6.591   2.453
  814SOL    HW2 3342   5.474   6.463   2.353
  815SOL     OW 3343   6.322   2.680   1.197
  815SOL    HW1 3344   6.325   2.719   1.289
  815SOL    HW2 3345   6.240   2.712   1.150
  816SOL     OW 3346   6.958   6.608   1.001
  816SOL    HW1 3347   0.023   6.642   1.041
  816SOL    HW2 3348   6.963   6.614   0.901
  817SOL     OW 3349   1.708   3.802   1.846
  817SOL    HW1 3350   1.747   3.717   1.882
  817SOL    HW2 3351   1.743   3.880   1.898
  818SOL     OW 3352   6.085   2.078   0.842
  818SOL    HW1 3353   6.089   2.043   0.935
  818SOL    HW2 3354   6.128   2.168   0.837
  819SOL     OW 3355   6.648   2.285   4.219
  819SOL    HW1 3356   6.742   2.270   4.187
  819SOL    HW2 3357   6.614   2.371   4.181
  820SOL     OW 3358   0.926   2.728   4.561
  820SOL    HW1 3359   0.839   2.689   4.530
  820SOL    HW2 3360   0.999   2.701   4.498
  821SOL     OW 3361   1.566   4.090   0.435
  821SOL    HW1 3362   1.663   4.068   0.438
  821SOL    HW2 3363   1.534   4.110   0.528
  822SOL     OW 3364   0.403   3.970   4.841
  822SOL    HW1 3365   0.379   3.891   4.785
  822SOL    HW2 3366   0.502   3.984   4.839
  823SOL     OW 3367   5.550   3.858   6.110
  823SOL    HW1 3368   5.640   3.842   6.070
  823SOL    HW2 3369   5.541   3.953   6.138
  824SOL     OW 3370   4.658   1.989   5.214
  824SOL    HW1 3371   4.643   2.088   5.215
  824SOL    HW2 3372   4.659   1.957   5.119
  825SOL     OW 3373   1.988   3.319   2.017
  825SOL    HW1 3374   2.075   3.369   2.012
  825SOL    HW2 3375   2.004   3.224   1.990
  826SOL     OW 3376   5.740   3.537   0.106
  826SOL    HW1 3377   5.807   3.506   0.174
  826SOL    HW2 3378   5.726   3.465   0.038
  827SOL     OW 3379   3.263   5.284   6.769
  827SOL    HW1 3380   3.177   5.234   6.753
  827SOL    HW2 3381   3.295   5.265   6.862
  828SOL     OW 3382   6.151   0.862   5.342
  828SOL    HW1 3383   6.076   0.814   5.297
  828SOL    HW2 3384   6.114   0.924   5.412
  829SOL     OW 3385   3.159   3.049   3.940
  829SOL    HW1 3386   3.202   3.005   4.019
  829SOL    HW2 3387   3.146   3.146   3.959
  830SOL     OW 3388   4.766   4.271   5.902
  830SOL    HW1 3389   4.829   4.226   5.838
  830SOL    HW2 3390   4.676   4.230   5.894
  831SOL     OW 3391   6.148   0.429   4.980
  831SOL    HW1 3392   6.157   0.454   5.076
  831SOL    HW2 3393   6.235   0.392   4.946
  832SOL     OW 3394   2.234   1.791   0.126
  832SOL    HW1 3395   2.282   1.767   0.210
  832SOL    HW2 3396   2.201   1.885   0.132
  833SOL     OW 3397   6.579   6.671   6.172
  833SOL    HW1 3398   6.629   6.584   6.164
  833SOL    HW2 3399   6.601   6.729   6.094
  834SOL     OW 3400   3.393   3.243   3.777
  834SOL    HW1 3401   3.309   3.297   3.773
  834SOL    HW2 3402   3.430   3.231   3.685
  835SOL     OW 3403   3.599   6.194   3.825
  835SOL    HW1 3404   3.649   6.126   3.878
  835SOL    HW2 3405   3.657   6.227   3.750
  836SOL     OW 3406   3.357   0.075   0.056
  836SOL    HW1 3407   3.334   0.072   0.153
  836SOL    HW2 3408   3.442   0.024   0.041
  837SOL     OW 3409   5.471   6.865   6.800
  837SOL    HW1 3410   5.456   6.963   6.791
  837SOL    HW2 3411   5.383   6.817   6.798
  838SOL     OW 3412   1.596   6.068   4.348
  838SOL    HW1 3413   1.516   6.081   4.406
  838SOL    HW2 3414   1.579   6.105   4.257
  839SOL     OW 3415   2.649   1.361   4.082
  839SOL    HW1 3416   2.675   1.440   4.027
  839SOL    HW2 3417   2.665   1.380   4.179
  840SOL     OW 3418   1.092   1.041   6.405
  840SOL    HW1 3419   1.023   1.083   6.463
  840SOL    HW2 3420   1.080   0.941   6.404
  841SOL     OW 3421   6.552   3.653   7.018
  841SOL    HW1 3422   6.649   3.674   7.008
  841SOL    HW2 3423   6.504   3.673   6.932
  842SOL     OW 3424   3.634   5.449   3.326
  842SOL    HW1 3425   3.581   5.533   3.317
  842SOL    HW2 3426   3.693   5.455   3.406
  843SOL     OW 3427   6.146   2.378   1.672
  843SOL    HW1 3428   6.113   2.293   1.631
  843SOL    HW2 3429   6.139   2.371   1.772
  844SOL     OW 3430   5.142   6.332   0.350
  844SOL    HW1 3431   5.063   6.380   0.389
  844SOL    HW2 3432   5.112   6.243   0.314
  845SOL     OW 3433   6.629   3.709   4.860
  845SOL    HW1 3434   6.602   3.805   4.858
  845SOL    HW2 3435   6.569   3.658   4.922
  846SOL     OW 3436   5.948   1.344   0.009
  846SOL    HW1 3437   6.017   1.371   0.076
  846SOL    HW2 3438   5.871   1.408   0.012
  847SOL     OW 3439   6.495   3.538   0.971
  847SOL    HW1 3440   6.429   3.610   0.992
  847SOL    HW2 3441   6.529   3.551   0.878
  848SOL     OW 3442   6.716   0.407   5.826
  848SOL    HW1 3443   6.770   0.381   5.745
  848SOL    HW2 3444   6.623   0.371   5.816
  849SOL     OW 3445   0.142   5.602   4.816
  849SOL    HW1 3446   0.226   5.641   4.779
  849SOL    HW2 3447   0.155   5.505   4.834
  850SOL     OW 3448   4.813   1.172   3.624
  850SOL    HW1 3449   4.777   1.265   3.635
  850SOL    HW2 3450   4.747   1.106   3.660
  851SOL     OW 3451   0.488   1.247   0.200
  851SOL    HW1 3452   0.544   1.320   0.238
  851SOL    HW2 3453   0.395   1.254   0.237
  852SOL     OW 3454   2.195   3.286   6.705
  852SOL    HW1 3455   2.200   3.315   6.800
  852SOL    HW2 3456   2.250   3.347   6.648
  853SOL     OW 3457   1.096   2.775   1.859
  853SOL    HW1 3458   1.164   2.721   1.908
  853SOL    HW2 3459   1.088   2.741   1.765
  854SOL     OW 3460   5.549   5.639   2.760
  854SOL    HW1 3461   5.589   5.716   2.809
  854SOL    HW2 3462   5.614   5.563   2.757
  855SOL     OW 3463   6.065   6.877   1.522
  855SOL    HW1 3464   6.081   6.780   1.506
  855SOL    HW2 3465   6.019   6.890   1.609
  856SOL     OW 3466   1.885   6.333   5.008
  856SOL    HW1 3467   1.929   6.333   5.098
  856SOL    HW2 3468   1.922   6.258   4.953
  857SOL     OW 3469   6.476   3.958   0.875
  857SOL    HW1 3470   6.430   3.965   0.963
  857SOL    HW2 3471   6.555   3.896   0.883
  858SOL     OW 3472   3.084   4.783   1.739
  858SOL    HW1 3473   3.101   4.761   1.835
  858SOL    HW2 3474   3.083   4.698   1.686
  859SOL     OW 3475   0.043   5.028   6.635
  859SOL    HW1 3476   0.014   5.123   6.646
  859SOL    HW2 3477   0.056   4.986   6.725
  860SOL     OW 3478   3.323   4.402   0.476
  860SOL    HW1 3479   3.405   4.422   0.530
  860SOL    HW2 3480   3.242   4.440   0.521
  861SOL     OW 3481   2.720   6.082   5.312
  861SOL    HW1 3482   2.641   6.067   5.253
  861SOL    HW2 3483   2.691   6.126   5.396
  862SOL     OW 3484   5.121   4.690   4.913
  862SOL    HW1 3485   5.039   4.635   4.903
  862SOL    HW2 3486   5.201   4.636   4.887
  863SOL     OW 3487   0.236   1.139   0.917
  863SOL    HW1 3488   0.299   1.079   0.868
  863SOL    HW2 3489   0.158   1.161   0.858
  864SOL     OW 3490   5.464   4.591   2.640
  864SOL    HW1 3491   5.501   4.667   2.586
  864SOL    HW2 3492   5.433   4.625   2.729
  865SOL     OW 3493   1.514   6.890   3.905
  865SOL    HW1 3494   1.415   6.892   3.895
  865SOL    HW2 3495   1.557   6.900   3.816
  866SOL     OW 3496   3.317   2.089   1.894
  866SOL    HW1 3497   3.404   2.137   1.884
  866SOL    HW2 3498   3.246   2.137   1.843
  867SOL     OW 3499   2.793   3.237   6.480
  867SOL    HW1 3500   2.878   3.185   6.490
  867SOL    HW2 3501   2.721   3.177   6.445
  868SOL     OW 3502   6.114   0.526   3.025
  868SOL    HW1 3503   6.202   0.496   3.060
  868SOL    HW2 3504   6.126   0.604   2.963
  869SOL     OW 3505   5.986   5.893   2.008
  869SOL    HW1 3506   5.970   5.949   1.927
  869SOL    HW2 3507   6.084   5.882   2.022
  870SOL     OW 3508   6.948   2.704   1.588
  870SOL    HW1 3509   6.909   2.669   1.673
  870SOL    HW2 3510   7.013   2.638   1.551
  871SOL     OW 3511   5.667   2.883   1.618
  871SOL    HW1 3512   5.766   2.894   1.625
  871SOL    HW2 3513   5.629   2.870   1.710
  872SOL     OW 3514   6.509   2.378   4.430
  872SOL    HW1 3515   6.569   2.338   4.360
  872SOL    HW2 3516   6.418   2.393   4.391
  873SOL     OW 3517   3.426   0.104   3.585
  873SOL    HW1 3518   3.398   0.199   3.569
  873SOL    HW2 3519   3.363   0.062   3.651
  874SOL     OW 3520   1.764   4.292   5.118
  874SOL    HW1 3521   1.804   4.207   5.084
  874SOL    HW2 3522   1.706   4.332   5.047
  875SOL     OW 3523   5.318   3.634   0.057
  875SOL    HW1 3524   5.337   3.638   0.155
  875SOL    HW2 3525   5.280   3.544   0.035
  876SOL     OW 3526   6.785   3.202   2.702
  876SOL    HW1 3527   6.767   3.253   2.618
  876SOL    HW2 3528   6.856   3.249   2.754
  877SOL     OW 3529   5.236   5.229   7.018
  877SOL    HW1 3530   5.278   5.319   0.012
  877SOL    HW2 3531   5.219   5.214   6.920
  878SOL     OW 3532   2.562   5.106   0.944
  878SOL    HW1 3533   2.607   5.195   0.931
  878SOL    HW2 3534   2.535   5.070   0.855
  879SOL     OW 3535   4.269   2.292   2.650
  879SOL    HW1 3536   4.174   2.284   2.619
  879SOL    HW2 3537   4.322   2.342   2.583
  880SOL     OW 3538   3.783   5.258   1.037
  880SOL    HW1 3539   3.832   5.217   0.960
  880SOL    HW2 3540   3.797   5.203   1.119
  881SOL     OW 3541   3.877   4.873   4.769
  881SOL    HW1 3542   3.972   4.841   4.760
  881SOL    HW2 3543   3.831   4.819   4.839
  882SOL     OW 3544   1.203   0.628   4.632
  882SOL    HW1 3545   1.124   0.587   4.587
  882SOL    HW2 3546   1.252   0.687   4.567
  883SOL     OW 3547   2.962   5.384   6.641
  883SOL    HW1 3548   2.948   5.398   6.543
  883SOL    HW2 3549   3.002   5.293   6.656
  884SOL     OW 3550   5.862   3.142   1.171
  884SOL    HW1 3551   5.790   3.101   1.225
  884SOL    HW2 3552   5.823   3.211   1.110
  885SOL     OW 3553   5.782   5.922   0.153
  885SOL    HW1 3554   5.832   5.984   0.215
  885SOL    HW2 3555   5.718   5.867   0.207
  886SOL     OW 3556   4.360   1.285   6.917
  886SOL    HW1 3557   4.362   1.221   6.840
  886SOL    HW2 3558   4.312   1.243   6.994
  887SOL     OW 3559   4.086   6.965   5.902
  887SOL    HW1 3560   4.158   6.982   5.835
  887SOL    HW2 3561   4.115   6.999   5.992
  888SOL     OW 3562   6.511   6.279   3.155
  888SOL    HW1 3563   6.415   6.252   3.160
  888SOL    HW2 3564   6.568   6.206   3.195
  889SOL     OW 3565   0.498   6.447   5.003
  889SOL    HW1 3566   0.447   6.533   5.004
  889SOL    HW2 3567   0.484   6.401   4.916
  890SOL     OW 3568   2.748   4.801   2.058
  890SOL    HW1 3569   2.665   4.856   2.052
  890SOL    HW2 3570   2.741   4.722   1.997
  891SOL     OW 3571   5.194   2.704   0.453
  891SOL    HW1 3572   5.200   2.606   0.469
  891SOL    HW2 3573   5.099   2.730   0.438
  892SOL     OW 3574   3.078   4.093   0.891
  892SOL    HW1 3575   3.052   4.080   0.987
  892SOL    HW2 3576   3.169   4.135   0.887
  893SOL     OW 3577   1.490   0.875   0.222
  893SOL    HW1 3578   1.513   0.934   0.300
  893SOL    HW2 3579   1.423   0.807   0.250
  894SOL     OW 3580   1.277   5.570   4.247
  894SOL    HW1 3581   1.182   5.593   4.226
  894SOL    HW2 3582   1.331   5.653   4.250
  895SOL     OW 3583   1.942   0.262   4.383
  895SOL    HW1 3584   1.989   0.207   4.452
  895SOL    HW2 3585   1.875   0.205   4.336
  896SOL     OW 3586   6.011   6.592   3.206
  896SOL    HW1 3587   5.914   6.577   3.182
  896SOL    HW2 3588   6.028   6.690   3.218
  897SOL     OW 3589   4.747   2.751   6.675
  897SOL    HW1 3590   4.727   2.777   6.581
  897SOL    HW2 3591   4.698   2.667   6.697
  898SOL     OW 3592   5.619   6.647   3.135
  898SOL    HW1 3593   5.702   6.608   3.095
  898SOL    HW2 3594   5.540   6.626   3.078
  899SOL     OW 3595   0.286   4.672   6.242
  899SOL    HW1 3596   0.277   4.578   6.275
  899SOL    HW2 3597   0.336   4.727   6.310
  900SOL     OW 3598   0.438   6.125   3.697
  900SOL    HW1 3599   0.519   6.180   3.678
  900SOL    HW2 3600   0.452   6.032   3.664
  901SOL     OW 3601   6.045   1.343   4.343
  901SOL    HW1 3602   6.075   1.275   4.411
  901SOL    HW2 3603   5.948   1.363   4.357
  902SOL     OW 3604   0.335   6.602   0.173
  902SOL    HW1 3605   0.282   6.670   0.123
  902SOL    HW2 3606   0.433   6.615   0.153
  903SOL     OW 3607   0.573   5.002   0.523
  903SOL    HW1 3608   0.566   5.064   0.601
  903SOL    HW2 3609   0.584   5.054   0.439
  904SOL     OW 3610   2.127   1.613   3.533
  904SOL    HW1 3611   2.219   1.648   3.552
  904SOL    HW2 3612   2.119   1.519   3.567
  905SOL     OW 3613   5.246   1.419   5.479
  905SOL    HW1 3614   5.207   1.510   5.467
  905SOL    HW2 3615   5.177   1.360   5.522
  906SOL     OW 3616   0.063   3.828   5.782
  906SOL    HW1 3617   0.012   3.767   5.721
  906SOL    HW2 3618   7.018   3.888   5.830
  907SOL     OW 3619   5.975   2.171   2.218
  907SOL    HW1 3620   5.979   2.268   2.194
  907SOL    HW2 3621   5.958   2.117   2.135
  908SOL     OW 3622   1.999   0.642   3.901
  908SOL    HW1 3623   1.903   0.643   3.931
  908SOL    HW2 3624   2.049   0.573   3.953
  909SOL     OW 3625   3.985   1.434   1.415
  909SOL    HW1 3626   4.006   1.341   1.385
  909SOL    HW2 3627   4.002   1.498   1.340
  910SOL     OW 3628   2.236   1.195   0.775
  910SOL    HW1 3629   2.332   1.188   0.803
  910SOL    HW2 3630   2.179   1.145   0.840
  911SOL     OW 3631   0.581   4.500   1.649
  911SOL    HW1 3632   0.487   4.535   1.647
  911SOL    HW2 3633   0.599   4.459   1.738
  912SOL     OW 3634   0.432   0.149   6.050
  912SOL    HW1 3635   0.422   0.163   6.149
  912SOL    HW2 3636   0.385   0.222   6.002
  913SOL     OW 3637   3.167   0.933   2.604
  913SOL    HW1 3638   3.109   1.012   2.588
  913SOL    HW2 3639   3.130   0.854   2.555
  914SOL     OW 3640   2.775   5.672   2.974
  914SOL    HW1 3641   2.801   5.768   2.962
  914SOL    HW2 3642   2.855   5.614   2.958
  915SOL     OW 3643   0.922   2.653   0.551
  915SOL    HW1 3644   0.845   2.657   0.488
  915SOL    HW2 3645   0.986   2.727   0.531
  916SOL     OW 3646   2.430   2.672   2.894
  916SOL    HW1 3647   2.416   2.574   2.910
  916SOL    HW2 3648   2.394   2.696   2.804
  917SOL     OW 3649   4.305   1.805   1.010
  917SOL    HW1 3650   4.397   1.844   0.996
  917SOL    HW2 3651   4.313   1.708   1.032
  918SOL     OW 3652   2.407   6.731   6.499
  918SOL    HW1 3653   2.489   6.723   6.555
  918SOL    HW2 3654   2.416   6.810   6.438
  919SOL     OW 3655   1.382   6.065   1.845
  919SOL    HW1 3656   1.408   5.986   1.899
  919SOL    HW2 3657   1.460   6.097   1.790
  920SOL     OW 3658   2.659   0.950   4.156
  920SOL    HW1 3659   2.667   0.855   4.127
  920SOL    HW2 3660   2.694   1.011   4.085
  921SOL     OW 3661   5.714   5.065   4.297
  921SOL    HW1 3662   5.805   5.043   4.332
  921SOL    HW2 3663   5.662   5.111   4.369
  922SOL     OW 3664   2.969   3.313   0.098
  922SOL    HW1 3665   3.056   3.273   0.067
  922SOL    HW2 3666   2.893   3.260   0.063
  923SOL     OW 3667   2.938   0.007   6.646
  923SOL    HW1 3668   2.922   7.011   6.548
  923SOL    HW2 3669   2.995   0.089   6.657
  924SOL     OW 3670   5.773   3.477   2.750
  924SOL    HW1 3671   5.733   3.405   2.807
  924SOL    HW2 3672   5.700   3.538   2.718
  925SOL     OW 3673   0.512   1.602   4.253
  925SOL    HW1 3674   0.579   1.647   4.194
  925SOL    HW2 3675   0.523   1.634   4.347
  926SOL     OW 3676   5.560   5.809   0.321
  926SOL    HW1 3677   5.473   5.839   0.282
  926SOL    HW2 3678   5.543   5.756   0.404
  927SOL     OW 3679   4.248   4.627   4.332
  927SOL    HW1 3680   4.186   4.551   4.352
  927SOL    HW2 3681   4.236   4.655   4.237
  928SOL     OW 3682   2.197   1.108   1.360
  928SOL    HW1 3683   2.212   1.173   1.434
  928SOL    HW2 3684   2.261   1.032   1.368
  929SOL     OW 3685   6.845   2.746   3.246
  929SOL    HW1 3686   6.852   2.747   3.146
  929SOL    HW2 3687   6.936   2.738   3.286
  930SOL     OW 3688   4.866   5.145   4.305
  930SOL    HW1 3689   4.835   5.085   4.230
  930SOL    HW2 3690   4.963   5.166   4.293
  931SOL     OW 3691   1.445   2.478   2.739
  931SOL    HW1 3692   1.538   2.447   2.758
  931SOL    HW2 3693   1.401   2.506   2.824
  932SOL     OW 3694   4.666   6.566   0.866
  932SOL    HW1 3695   4.744   6.576   0.928
  932SOL    HW2 3696   4.581   6.562   0.919
  933SOL     OW 3697   1.509   5.809   3.114
  933SOL    HW1 3698   1.523   5.866   3.033
  933SOL    HW2 3699   1.417   5.825   3.150
  934SOL     OW 3700   3.188   1.449   5.536
  934SOL    HW1 3701   3.191   1.468   5.634
  934SOL    HW2 3702   3.118   1.381   5.517
  935SOL     OW 3703   3.745   3.339   6.072
  935SOL    HW1 3704   3.676   3.410   6.083
  935SOL    HW2 3705   3.725   3.285   5.990
  936SOL     OW 3706   0.446   0.828   0.982
  936SOL    HW1 3707   0.408   0.773   0.906
  936SOL    HW2 3708   0.477   0.916   0.947
  937SOL     OW 3709   4.173   1.842   4.549
  937SOL    HW1 3710   4.272   1.825   4.546
  937SOL    HW2 3711   4.129   1.775   4.608
  938SOL     OW 3712   0.653   3.046   6.865
  938SOL    HW1 3713   0.724   2.975   6.861
  938SOL    HW2 3714   0.579   3.016   6.925
  939SOL     OW 3715   5.748   1.414   5.590
  939SOL    HW1 3716   5.661   1.368   5.575
  939SOL    HW2 3717   5.800   1.365   5.660
  940SOL     OW 3718   6.887   1.586   3.837
  940SOL    HW1 3719   6.978   1.619   3.812
  940SOL    HW2 3720   6.820   1.658   3.821
  941SOL     OW 3721   5.308   2.005   4.352
  941SOL    HW1 3722   5.407   2.005   4.367
  941SOL    HW2 3723   5.289   1.990   4.255
  942SOL     OW 3724   5.126   6.610   5.438
  942SOL    HW1 3725   5.075   6.691   5.406
  942SOL    HW2 3726   5.149   6.621   5.534
  943SOL     OW 3727   5.831   1.992   1.380
  943SOL    HW1 3728   5.749   1.935   1.383
  943SOL    HW2 3729   5.840   2.033   1.290
  944SOL     OW 3730   5.400   4.232   4.200
  944SOL    HW1 3731   5.430   4.160   4.263
  944SOL    HW2 3732   5.310   4.208   4.163
  945SOL     OW 3733   5.145   4.486   4.416
  945SOL    HW1 3734   5.174   4.578   4.441
  945SOL    HW2 3735   5.087   4.448   4.488
  946SOL     OW 3736   5.996   2.427   5.596
  946SOL    HW1 3737   6.050   2.463   5.521
  946SOL    HW2 3738   5.899   2.430   5.572
  947SOL     OW 3739   2.545   2.713   5.967
  947SOL    HW1 3740   2.638   2.682   5.950
  947SOL    HW2 3741   2.537   2.810   5.946
  948SOL     OW 3742   3.937   1.800   0.412
  948SOL    HW1 3743   3.927   1.899   0.407
  948SOL    HW2 3744   4.033   1.775   0.422
  949SOL     OW 3745   6.116   5.554   6.228
  949SOL    HW1 3746   6.060   5.482   6.188
  949SOL    HW2 3747   6.210   5.547   6.193
  950SOL     OW 3748   4.869   5.647   1.134
  950SOL    HW1 3749   4.790   5.639   1.074
  950SOL    HW2 3750   4.949   5.605   1.091
  951SOL     OW 3751   1.386   1.262   2.315
  951SOL    HW1 3752   1.292   1.252   2.281
  951SOL    HW2 3753   1.427   1.344   2.275
  952SOL     OW 3754   5.682   0.707   3.148
  952SOL    HW1 3755   5.721   0.617   3.169
  952SOL    HW2 3756   5.617   0.733   3.219
  953SOL     OW 3757   4.044   6.249   6.427
  953SOL    HW1 3758   4.016   6.224   6.520
  953SOL    HW2 3759   4.067   6.166   6.376
  954SOL     OW 3760   6.363   0.496   1.222
  954SOL    HW1 3761   6.280   0.470   1.271
  954SOL    HW2 3762   6.342   0.570   1.158
  955SOL     OW 3763   0.791   6.082   2.754
  955SOL    HW1 3764   0.766   6.143   2.679
  955SOL    HW2 3765   0.760   6.121   2.841
  956SOL     OW 3766   2.103   2.202   0.865
  956SOL    HW1 3767   2.157   2.130   0.822
  956SOL    HW2 3768   2.009   2.198   0.833
  957SOL     OW 3769   1.549   5.091   4.470
  957SOL    HW1 3770   1.518   5.084   4.565
  957SOL    HW2 3771   1.639   5.134   4.468
  958SOL     OW 3772   4.599   2.452   1.525
  958SOL    HW1 3773   4.580   2.536   1.575
  958SOL    HW2 3774   4.694   2.424   1.539
  959SOL     OW 3775   2.260   4.780   3.020
  959SOL    HW1 3776   2.342   4.723   3.024
  959SOL    HW2 3777   2.181   4.724   2.993
  960SOL     OW 3778   1.763   5.726   4.515
  960SOL    HW1 3779   1.781   5.773   4.602
  960SOL    HW2 3780   1.665   5.727   4.496
  961SOL     OW 3781   4.436   6.608   1.979
  961SOL    HW1 3782   4.361   6.650   2.030
  961SOL    HW2 3783   4.490   6.680   1.935
  962SOL     OW 3784   1.726   0.742   3.465
  962SOL    HW1 3785   1.637   0.712   3.499
  962SOL    HW2 3786   1.789   0.664   3.464
  963SOL     OW 3787   6.693   0.621   1.354
  963SOL    HW1 3788   6.665   0.532   1.316
  963SOL    HW2 3789   6.616   0.661   1.404
  964SOL     OW 3790   5.108   3.644   1.055
  964SOL    HW1 3791   5.026   3.637   1.111
  964SOL    HW2 3792   5.134   3.740   1.045
  965SOL     OW 3793   7.006   2.285   0.447
  965SOL    HW1 3794   7.011   2.193   0.486
  965SOL    HW2 3795   0.071   2.304   0.398
  966SOL     OW 3796   6.710   2.138   2.486
  966SOL    HW1 3797   6.695   2.178   2.396
  966SOL    HW2 3798   6.779   2.066   2.480
  967SOL     OW 3799   1.189   5.399   1.065
  967SOL    HW1 3800   1.120   5.419   1.134
  967SOL    HW2 3801   1.152   5.336   0.997
  968SOL     OW 3802   5.029   2.744   2.561
  968SOL    HW1 3803   5.111   2.702   2.601
  968SOL    HW2 3804   5.045   2.758   2.463
  969SOL     OW 3805   4.504   5.810   6.021
  969SOL    HW1 3806   4.539   5.864   5.945
  969SOL    HW2 3807   4.580   5.764   6.068
  970SOL     OW 3808   4.206   2.266   5.308
  970SOL    HW1 3809   4.218   2.348   5.253
  970SOL    HW2 3810   4.109   2.250   5.324
  971SOL     OW 3811   6.776   1.851   1.749
  971SOL    HW1 3812   6.842   1.888   1.814
  971SOL    HW2 3813   6.778   1.904   1.664
  972SOL     OW 3814   6.716   5.545   0.648
  972SOL    HW1 3815   6.631   5.501   0.620
  972SOL    HW2 3816   6.777   5.552   0.569
  973SOL     OW 3817   6.436   4.755   5.543
  973SOL    HW1 3818   6.514   4.757   5.480
  973SOL    HW2 3819   6.352   4.771   5.492
  974SOL     OW 3820   2.810   1.143   3.544
  974SOL    HW1 3821   2.791   1.046   3.561
  974SOL    HW2 3822   2.884   1.173   3.604
  975SOL     OW 3823   3.241   5.966   6.065
  975SOL    HW1 3824   3.216   5.872   6.088
  975SOL    HW2 3825   3.159   6.023   6.063
  976SOL     OW 3826   6.713   3.017   3.387
  976SOL    HW1 3827   6.677   3.107   3.362
  976SOL    HW2 3828   6.641   2.949   3.378
  977SOL     OW 3829   1.685   1.114   3.796
  977SOL    HW1 3830   1.591   1.081   3.786
  977SOL    HW2 3831   1.706   1.127   3.893
  978SOL     OW 3832   5.322   4.232   4.611
  978SOL    HW1 3833   5.247   4.241   4.545
  978SOL    HW2 3834   5.300   4.159   4.676
  979SOL     OW 3835   6.133   0.916   3.065
  979SOL    HW1 3836   6.181   1.001   3.087
  979SOL    HW2 3837   6.070   0.893   3.139
  980SOL     OW 3838   5.560   2.248   4.442
  980SOL    HW1 3839   5.566   2.150   4.463
  980SOL    HW2 3840   5.469   2.282   4.466
  981SOL     OW 3841   1.440   1.887   4.584
  981SOL    HW1 3842   1.488   1.802   4.607
  981SOL    HW2 3843   1.352   1.864   4.542
  982SOL     OW 3844   0.932   2.324   1.772
  982SOL    HW1 3845   0.918   2.418   1.805
  982SOL    HW2 3846   0.907   2.260   1.844
  983SOL     OW 3847   6.256   2.128   3.068
  983SOL    HW1 3848   6.175   2.184   3.050
  983SOL    HW2 3849   6.334   2.188   3.088
  984SOL     OW 3850   4.970   1.328   4.992
  984SOL    HW1 3851   5.046   1.316   5.056
  984SOL    HW2 3852   4.899   1.261   5.012
  985SOL     OW 3853   3.141   5.426   0.876
  985SOL    HW1 3854   3.119   5.509   0.825
  985SOL    HW2 3855   3.168   5.451   0.969
  986SOL     OW 3856   4.800   5.101   6.585
  986SOL    HW1 3857   4.728   5.076   6.650
  986SOL    HW2 3858   4.857   5.021   6.566
  987SOL     OW 3859   3.222   6.561   1.939
  987SOL    HW1 3860   3.246   6.635   2.001
  987SOL    HW2 3861   3.131   6.578   1.901
  988SOL     OW 3862   4.043   3.044   0.571
  988SOL    HW1 3863   3.988   2.967   0.604
  988SOL    HW2 3864   4.114   3.010   0.509
  989SOL     OW 3865   0.570   0.197   5.372
  989SOL    HW1 3866   0.483   0.245   5.384
  989SOL    HW2 3867   0.619   0.194   5.459
  990SOL     OW 3868   4.456   0.423   4.092
  990SOL    HW1 3869   4.369   0.375   4.077
  990SOL    HW2 3870   4.462   0.451   4.187
  991SOL     OW 3871   0.825   2.093   4.646
  991SOL    HW1 3872   0.893   2.148   4.695
  991SOL    HW2 3873   0.741   2.089   4.700
  992SOL     OW 3874   0.470   3.327   0.121
  992SOL    HW1 3875   0.564   3.292   0.120
  992SOL    HW2 3876   0.413   3.272   0.059
  993SOL     OW 3877   2.770   4.799   2.594
  993SOL    HW1 3878   2.860   4.823   2.631
  993SOL    HW2 3879   2.776   4.785   2.495
  994SOL     OW 3880   3.537   3.125   2.468
  994SOL    HW1 3881   3.455   3.179   2.483
  994SOL    HW2 3882   3.556   3.120   2.370
  995SOL     OW 3883   1.424   2.428   6.070
  995SOL    HW1 3884   1.362   2.450   5.994
  995SOL    HW2 3885   1.475   2.345   6.048
  996SOL     OW 3886   2.083   3.424   3.106
  996SOL    HW1 3887   2.097   3.347   3.044
  996SOL    HW2 3888   2.074   3.391   3.199
  997SOL     OW 3889   0.590   0.573   1.443
  997SOL    HW1 3890   0.538   0.636   1.386
  997SOL    HW2 3891   0.675   0.618   1.473
  998SOL     OW 3892   4.445   0.332   2.084
  998SOL    HW1 3893   4.421   0.294   2.174
  998SOL    HW2 3894   4.541   0.312   2.064
  999SOL     OW 3895   6.678   5.392   1.501
  999SOL    HW1 3896   6.646   5.336   1.577
  999SOL    HW2 3897   6.666   5.341   1.415
 1000SOL     OW 3898   2.545   2.461   3.849
 1000SOL    HW1 3899   2.614   2.463   3.921
 1000SOL    HW2 3900   2.478   2.390   3.870
 1001SOL     OW 3901   4.797   6.427   6.426
 1001SOL    HW1 3902   4.753   6.515   6.410
 1001SOL    HW2 3903   4.739   6.354   6.392
 1002SOL     OW 3904   5.705   1.607   0.345
 1002SOL    HW1 3905   5.608   1.581   0.341
 1002SOL    HW2 3906   5.723   1.655   0.431
 1003SOL     OW 3907   2.765   6.059   2.575
 1003SOL    HW1 3908   2.730   6.107   2.655
 1003SOL    HW2 3909   2.855   6.021   2.595
 1004SOL     OW 3910   0.312   0.177   6.875
 1004SOL    HW1 3911   0.304   0.238   6.954
 1004SOL    HW2 3912   0.385   0.209   6.815
 1005SOL     OW 3913   0.798   0.233   2.951
 1005SOL    HW1 3914   0.803   0.177   3.034
 1005SOL    HW2 3915   0.874   0.298   2.950
 1006SOL     OW 3916   2.330   4.894   1.173
 1006SOL    HW1 3917   2.322   4.795   1.185
 1006SOL    HW2 3918   2.393   4.914   1.098
 1007SOL     OW 3919   6.889   1.433   3.271
 1007SOL    HW1 3920   6.887   1.342   3.313
 1007SOL    HW2 3921   6.824   1.492   3.318
 1008SOL     OW 3922   1.263   3.333   4.325
 1008SOL    HW1 3923   1.340   3.395   4.309
 1008SOL    HW2 3924   1.182   3.387   4.349
 1009SOL     OW 3925   0.151   6.111   4.415
 1009SOL    HW1 3926   0.088   6.053   4.364
 1009SOL    HW2 3927   0.143   6.092   4.512
 1010SOL     OW 3928   4.232   1.701   0.510
 1010SOL    HW1 3929   4.299   1.759   0.465
 1010SOL    HW2 3930   4.227   1.613   0.462
 1011SOL     OW 3931   2.690   5.354   3.826
 1011SOL    HW1 3932   2.777   5.306   3.814
 1011SOL    HW2 3933   2.631   5.337   3.747
 1012SOL     OW 3934   6.305   5.184   0.633
 1012SOL    HW1 3935   6.238   5.151   0.698
 1012SOL    HW2 3936   6.280   5.154   0.541
 1013SOL     OW 3937   1.157   0.646   0.128
 1013SOL    HW1 3938   1.067   0.680   0.103
 1013SOL    HW2 3939   1.193   0.589   0.055
 1014SOL     OW 3940   4.183   6.046   5.949
 1014SOL    HW1 3941   4.171   6.040   6.048
 1014SOL    HW2 3942   4.111   6.104   5.911
 1015SOL     OW 3943   3.605   6.532   4.707
 1015SOL    HW1 3944   3.559   6.612   4.746
 1015SOL    HW2 3945   3.538   6.459   4.691
 1016SOL     OW 3946   3.727   2.766   1.160
 1016SOL    HW1 3947   3.712   2.838   1.228
 1016SOL    HW2 3948   3.785   2.695   1.199
 1017SOL     OW 3949   4.227   2.487   0.474
 1017SOL    HW1 3950   4.192   2.451   0.561
 1017SOL    HW2 3951   4.298   2.426   0.439
 1018SOL     OW 3952   1.127   3.153   3.800
 1018SOL    HW1 3953   1.108   3.171   3.896
 1018SOL    HW2 3954   1.215   3.195   3.775
 1019SOL     OW 3955   0.151   1.424   0.258
 1019SOL    HW1 3956   0.159   1.517   0.222
 1019SOL    HW2 3957   0.056   1.404   0.280
 1020SOL     OW 3958   2.856   0.920   0.607
 1020SOL    HW1 3959   2.773   0.957   0.648
 1020SOL    HW2 3960   2.936   0.956   0.654
 1021SOL     OW 3961   0.112   1.384   1.252
 1021SOL    HW1 3962   0.052   1.346   1.182
 1021SOL    HW2 3963   0.068   1.375   1.342
 1022SOL     OW 3964   4.489   3.145   6.113
 1022SOL    HW1 3965   4.415   3.081   6.095
 1022SOL    HW2 3966   4.491   3.216   6.043
 1023SOL     OW 3967   5.754   0.585   2.258
 1023SOL    HW1 3968   5.722   0.519   2.325
 1023SOL    HW2 3969   5.717   0.563   2.168
 1024SOL     OW 3970   6.514   1.729   3.988
 1024SOL    HW1 3971   6.600   1.771   3.960
 1024SOL    HW2 3972   6.438   1.786   3.956
 1025SOL     OW 3973   3.138   4.561   0.594
 1025SOL    HW1 3974   3.102   4.509   0.672
 1025SOL    HW2 3975   3.063   4.586   0.533
 1026SOL     OW 3976   2.316   1.882   6.624
 1026SOL    HW1 3977   2.262   1.843   6.699
 1026SOL    HW2 3978   2.382   1.947   6.660
 1027SOL     OW 3979   2.713   5.098   1.552
 1027SOL    HW1 3980   2.630   5.045   1.570
 1027SOL    HW2 3981   2.783   5.073   1.619
 1028SOL     OW 3982   1.562   5.977   1.038
 1028SOL    HW1 3983   1.516   5.997   1.124
 1028SOL    HW2 3984   1.502   5.918   0.982
 1029SOL     OW 3985   1.945   0.277   0.060
 1029SOL    HW1 3986   1.958   0.323   0.148
 1029SOL    HW2 3987   1.850   0.285   0.032
 1030SOL     OW 3988   4.044   3.682   4.874
 1030SOL    HW1 3989   4.069   3.622   4.798
 1030SOL    HW2 3990   4.020   3.773   4.838
 1031SOL     OW 3991   2.623   5.405   1.601
 1031SOL    HW1 3992   2.674   5.332   1.556
 1031SOL    HW2 3993   2.556   5.443   1.538
 1032SOL     OW 3994   1.853   1.708   4.998
 1032SOL    HW1 3995   1.931   1.715   5.060
 1032SOL    HW2 3996   1.834   1.611   4.979
 1033SOL     OW 3997   2.113   5.362   1.867
 1033SOL    HW1 3998   2.055   5.427   1.817
 1033SOL    HW2 3999   2.209   5.386   1.853
 1034SOL     OW 4000   2.599   5.759   3.869
 1034SOL    HW1 4001   2.684   5.709   3.883
 1034SOL    HW2 4002   2.566   5.743   3.776
 1035SOL     OW 4003   2.819   1.233   4.523
 1035SOL    HW1 4004   2.767   1.151   4.501
 1035SOL    HW2 4005   2.899   1.209   4.578
 1036SOL     OW 4006   4.326   2.383   0.979
 1036SOL    HW1 4007   4.412   2.340   1.006
 1036SOL    HW2 4008   4.250   2.337   1.025
 1037SOL     OW 4009   2.274   1.047   0.306
 1037SOL    HW1 4010   2.198   1.079   0.363
 1037SOL    HW2 4011   2.355   1.034   0.363
 1038SOL     OW 4012   1.594   1.150   5.387
 1038SOL    HW1 4013   1.576   1.214   5.462
 1038SOL    HW2 4014   1.509   1.132   5.337
 1039SOL     OW 4015   3.879   1.700   4.434
 1039SOL    HW1 4016   3.829   1.769   4.382
 1039SOL    HW2 4017   3.816   1.629   4.464
 1040SOL     OW 4018   5.799   3.898   2.261
 1040SOL    HW1 4019   5.701   3.888   2.280
 1040SOL    HW2 4020   5.850   3.889   2.347
 1041SOL     OW 4021   6.681   0.783   4.202
 1041SOL    HW1 4022   6.720   0.735   4.124
 1041SOL    HW2 4023   6.586   0.807   4.183
 1042SOL     OW 4024   5.482   5.354   0.597
 1042SOL    HW1 4025   5.457   5.273   0.543
 1042SOL    HW2 4026   5.404   5.383   0.652
 1043SOL     OW 4027   3.303   1.692   6.511
 1043SOL    HW1 4028   3.270   1.599   6.525
 1043SOL    HW2 4029   3.312   1.710   6.413
 1044SOL     OW 4030   3.747   3.108   1.798
 1044SOL    HW1 4031   3.661   3.088   1.751
 1044SOL    HW2 4032   3.780   3.025   1.843
 1045SOL     OW 4033   3.110   1.276   2.969
 1045SOL    HW1 4034   3.088   1.318   3.057
 1045SOL    HW2 4035   3.191   1.319   2.931
 1046SOL     OW 4036   3.162   6.825   0.750
 1046SOL    HW1 4037   3.217   6.745   0.726
 1046SOL    HW2 4038   3.186   6.857   0.841
 1047SOL     OW 4039   0.565   5.358   2.589
 1047SOL    HW1 4040   0.470   5.378   2.611
 1047SOL    HW2 4041   0.572   5.266   2.551
 1048SOL     OW 4042   5.103   5.275   4.802
 1048SOL    HW1 4043   5.115   5.224   4.716
 1048SOL    HW2 4044   5.014   5.322   4.800
 1049SOL     OW 4045   0.008   3.726   4.713
 1049SOL    HW1 4046   0.013   3.805   4.775
 1049SOL    HW2 4047   6.952   3.739   4.649
 1050SOL     OW 4048   3.947   0.368   6.254
 1050SOL    HW1 4049   3.966   0.432   6.328
 1050SOL    HW2 4050   3.848   0.366   6.237
 1051SOL     OW 4051   5.262   4.547   0.417
 1051SOL    HW1 4052   5.187   4.610   0.436
 1051SOL    HW2 4053   5.279   4.489   0.497
 1052SOL     OW 4054   4.115   0.155   5.147
 1052SOL    HW1 4055   4.173   0.225   5.187
 1052SOL    HW2 4056   4.029   0.197   5.116
 1053SOL     OW 4057   4.741   5.024   3.799
 1053SOL    HW1 4058   4.746   4.928   3.770
 1053SOL    HW2 4059   4.785   5.082   3.731
 1054SOL     OW 4060   3.412   5.323   5.406
 1054SOL    HW1 4061   3.470   5.360   5.479
 1054SOL    HW2 4062   3.383   5.231   5.432
 1055SOL     OW 4063   4.565   5.937   5.000
 1055SOL    HW1 4064   4.618   5.918   5.082
 1055SOL    HW2 4065   4.622   5.924   4.919
 1056SOL     OW 4066   1.893   6.133   5.374
 1056SOL    HW1 4067   1.930   6.040   5.378
 1056SOL    HW2 4068   1.838   6.142   5.291
 1057SOL     OW 4069   3.224   3.356   2.906
 1057SOL    HW1 4070   3.147   3.349   2.968
 1057SOL    HW2 4071   3.197   3.325   2.815
 1058SOL     OW 4072   3.590   1.162   2.482
 1058SOL    HW1 4073   3.684   1.196   2.490
 1058SOL    HW2 4074   3.527   1.238   2.495
 1059SOL     OW 4075   4.418   1.087   1.749
 1059SOL    HW1 4076   4.365   1.033   1.814
 1059SOL    HW2 4077   4.361   1.112   1.671
 1060SOL     OW 4078   0.972   2.976   5.563
 1060SOL    HW1 4079   0.997   3.072   5.577
 1060SOL    HW2 4080   0.980   2.926   5.649
 1061SOL     OW 4081   3.175   5.316   1.698
 1061SOL    HW1 4082   3.152   5.221   1.679
 1061SOL    HW2 4083   3.187   5.365   1.612
 1062SOL     OW 4084   6.453   5.636   5.675
 1062SOL    HW1 4085   6.413   5.611   5.587
 1062SOL    HW2 4086   6.517   5.711   5.662
 1063SOL     OW 4087   1.621   3.433   0.932
 1063SOL    HW1 4088   1.635   3.519   0.882
 1063SOL    HW2 4089   1.701   3.374   0.921
 1064SOL     OW 4090   0.858   3.393   2.135
 1064SOL    HW1 4091   0.957   3.373   2.136
 1064SOL    HW2 4092   0.808   3.309   2.155
 1065SOL     OW 4093   5.629   7.013   3.934
 1065SOL    HW1 4094   5.549   0.052   3.943
 1065SOL    HW2 4095   5.647   6.968   4.021
 1066SOL     OW 4096   4.878   0.302   3.412
 1066SOL    HW1 4097   4.798   0.359   3.429
 1066SOL    HW2 4098   4.954   0.361   3.383
 1067SOL     OW 4099   2.148   2.773   2.037
 1067SOL    HW1 4100   2.225   2.725   2.079
 1067SOL    HW2 4101   2.162   2.779   1.938
 1068SOL     OW 4102   0.378   3.375   2.346
 1068SOL    HW1 4103   0.430   3.400   2.264
 1068SOL    HW2 4104   0.281   3.368   2.324
 1069SOL     OW 4105   4.228   4.753   0.950
 1069SOL    HW1 4106   4.228   4.727   1.047
 1069SOL    HW2 4107   4.321   4.779   0.923
 1070SOL     OW 4108   2.263   0.620   0.380
 1070SOL    HW1 4109   2.246   0.568   0.296
 1070SOL    HW2 4110   2.193   0.691   0.390
 1071SOL     OW 4111   3.950   6.682   3.020
 1071SOL    HW1 4112   4.033   6.645   2.979
 1071SOL    HW2 4113   3.949   6.782   3.010
 1072SOL     OW 4114   2.910   6.654   2.895
 1072SOL    HW1 4115   2.822   6.692   2.865
 1072SOL    HW2 4116   2.895   6.568   2.944
 1073SOL     OW 4117   2.534   4.956   2.655
 1073SOL    HW1 4118   2.528   4.940   2.557
 1073SOL    HW2 4119   2.610   4.903   2.693
 1074SOL     OW 4120   0.762   4.922   1.958
 1074SOL    HW1 4121   0.710   4.975   2.025
 1074SOL    HW2 4122   0.701   4.889   1.886
 1075SOL     OW 4123   4.941   4.389   3.638
 1075SOL    HW1 4124   4.968   4.422   3.729
 1075SOL    HW2 4125   4.854   4.339   3.645
 1076SOL     OW 4126   0.446   4.146   4.254
 1076SOL    HW1 4127   0.503   4.107   4.181
 1076SOL    HW2 4128   0.363   4.183   4.215
 1077SOL     OW 4129   4.920   0.107   1.116
 1077SOL    HW1 4130   4.844   0.089   1.178
 1077SOL    HW2 4131   4.914   0.201   1.082
 1078SOL     OW 4132   1.805   1.957   1.215
 1078SOL    HW1 4133   1.768   1.864   1.217
 1078SOL    HW2 4134   1.758   2.010   1.146
 1079SOL     OW 4135   2.438   5.714   3.624
 1079SOL    HW1 4136   2.459   5.751   3.533
 1079SOL    HW2 4137   2.386   5.629   3.614
 1080SOL     OW 4138   2.159   5.712   3.844
 1080SOL    HW1 4139   2.206   5.768   3.912
 1080SOL    HW2 4140   2.144   5.766   3.761
 1081SOL     OW 4141   1.992   0.473   6.883
 1081SOL    HW1 4142   1.904   0.481   6.835
 1081SOL    HW2 4143   2.008   0.378   6.907
 1082SOL     OW 4144   1.457   0.202   5.828
 1082SOL    HW1 4145   1.409   0.230   5.745
 1082SOL    HW2 4146   1.410   0.239   5.908
 1083SOL     OW 4147   3.767   3.622   1.991
 1083SOL    HW1 4148   3.798   3.572   1.910
 1083SOL    HW2 4149   3.747   3.717   1.967
 1084SOL     OW 4150   5.836   4.461   0.802
 1084SOL    HW1 4151   5.836   4.558   0.825
 1084SOL    HW2 4152   5.897   4.411   0.864
 1085SOL     OW 4153   1.701   4.698   3.672
 1085SOL    HW1 4154   1.777   4.635   3.691
 1085SOL    HW2 4155   1.626   4.647   3.632
 1086SOL     OW 4156   4.782   5.225   2.552
 1086SOL    HW1 4157   4.711   5.213   2.621
 1086SOL    HW2 4158   4.743   5.212   2.461
 1087SOL     OW 4159   4.478   2.954   5.407
 1087SOL    HW1 4160   4.453   3.049   5.387
 1087SOL    HW2 4161   4.400   2.909   5.452
 1088SOL     OW 4162   4.667   4.490   3.876
 1088SOL    HW1 4163   4.719   4.407   3.896
 1088SOL    HW2 4164   4.728   4.569   3.874
 1089SOL     OW 4165   0.288   0.103   4.795
 1089SOL    HW1 4166   0.314   0.199   4.809
 1089SOL    HW2 4167   0.188   0.097   4.790
 1090SOL     OW 4168   1.776   1.351   6.091
 1090SOL    HW1 4169   1.860   1.388   6.131
 1090SOL    HW2 4170   1.775   1.252   6.102
 1091SOL     OW 4171   1.548   1.741   5.085
 1091SOL    HW1 4172   1.613   1.792   5.141
 1091SOL    HW2 4173   1.578   1.646   5.078
 1092SOL     OW 4174   2.287   4.024   1.779
 1092SOL    HW1 4175   2.194   4.053   1.804
 1092SOL    HW2 4176   2.291   4.010   1.680
 1093SOL     OW 4177   1.102   2.243   2.269
 1093SOL    HW1 4178   1.003   2.241   2.252
 1093SOL    HW2 4179   1.119   2.213   2.363
 1094SOL     OW 4180   0.339   0.059   1.729
 1094SOL    HW1 4181   0.357   0.135   1.791
 1094SOL    HW2 4182   0.416   0.050   1.665
 1095SOL     OW 4183   5.973   2.980   6.613
 1095SOL    HW1 4184   5.875   2.985   6.633
 1095SOL    HW2 4185   6.000   3.060   6.559
 1096SOL     OW 4186   3.018   4.546   1.617
 1096SOL    HW1 4187   2.990   4.499   1.701
 1096SOL    HW2 4188   3.097   4.498   1.577
 1097SOL     OW 4189   1.402   4.796   4.973
 1097SOL    HW1 4190   1.342   4.867   4.937
 1097SOL    HW2 4191   1.346   4.720   5.008
 1098SOL     OW 4192   4.837   2.477   2.233
 1098SOL    HW1 4193   4.837   2.534   2.151
 1098SOL    HW2 4194   4.930   2.474   2.271
 1099SOL     OW 4195   4.270   2.235   4.094
 1099SOL    HW1 4196   4.357   2.275   4.120
 1099SOL    HW2 4197   4.279   2.136   4.086
 1100SOL     OW 4198   1.026   0.760   6.416
 1100SOL    HW1 4199   1.013   0.682   6.478
 1100SOL    HW2 4200   0.961   0.754   6.341
 1101SOL     OW 4201   4.910   3.163   0.556
 1101SOL    HW1 4202   4.846   3.116   0.495
 1101SOL    HW2 4203   4.864   3.239   0.600
 1102SOL     OW 4204   0.182   4.240   4.161
 1102SOL    HW1 4205   0.119   4.318   4.167
 1102SOL    HW2 4206   0.130   4.156   4.147
 1103SOL     OW 4207   1.860   1.860   1.831
 1103SOL    HW1 4208   1.775   1.912   1.825
 1103SOL    HW2 4209   1.929   1.899   1.770
 1104SOL     OW 4210   3.407   4.718   6.250
 1104SOL    HW1 4211   3.313   4.728   6.216
 1104SOL    HW2 4212   3.424   4.787   6.321
 1105SOL     OW 4213   5.281   4.219   6.637
 1105SOL    HW1 4214   5.370   4.216   6.592
 1105SOL    HW2 4215   5.219   4.153   6.594
 1106SOL     OW 4216   0.259   2.517   5.411
 1106SOL    HW1 4217   0.344   2.568   5.405
 1106SOL    HW2 4218   0.279   2.419   5.405
 1107SOL     OW 4219   1.117   0.459   0.712
 1107SOL    HW1 4220   1.169   0.446   0.628
 1107SOL    HW2 4221   1.067   0.545   0.707
 1108SOL     OW 4222   1.577   0.821   5.859
 1108SOL    HW1 4223   1.488   0.856   5.830
 1108SOL    HW2 4224   1.575   0.803   5.957
 1109SOL     OW 4225   4.398   6.079   4.391
 1109SOL    HW1 4226   4.475   6.108   4.449
 1109SOL    HW2 4227   4.333   6.027   4.446
 1110SOL     OW 4228   3.080   3.539   1.776
 1110SOL    HW1 4229   3.005   3.503   1.832
 1110SOL    HW2 4230   3.162   3.549   1.832
 1111SOL     OW 4231   5.569   0.578   0.195
 1111SOL    HW1 4232   5.530   0.666   0.170
 1111SOL    HW2 4233   5.524   0.506   0.142
 1112SOL     OW 4234   6.744   0.928   2.169
 1112SOL    HW1 4235   6.778   0.896   2.080
 1112SOL    HW2 4236   6.781   0.871   2.241
 1113SOL     OW 4237   6.419   3.321   2.978
 1113SOL    HW1 4238   6.337   3.289   2.929
 1113SOL    HW2 4239   6.496   3.322   2.916
 1114SOL     OW 4240   4.887   0.829   5.805
 1114SOL    HW1 4241   4.809   0.796   5.858
 1114SOL    HW2 4242   4.855   0.893   5.735
 1115SOL     OW 4243   2.984   3.471   0.829
 1115SOL    HW1 4244   2.965   3.476   0.927
 1115SOL    HW2 4245   2.965   3.560   0.787
 1116SOL     OW 4246   4.170   6.182   4.184
 1116SOL    HW1 4247   4.223   6.189   4.269
 1116SOL    HW2 4248   4.076   6.157   4.206
 1117SOL     OW 4249   2.842   2.805   1.263
 1117SOL    HW1 4250   2.930   2.817   1.217
 1117SOL    HW2 4251   2.833   2.875   1.335
 1118SOL     OW 4252   2.191   4.452   3.058
 1118SOL    HW1 4253   2.203   4.357   3.028
 1118SOL    HW2 4254   2.156   4.507   2.982
 1119SOL     OW 4255   4.260   4.093   1.710
 1119SOL    HW1 4256   4.338   4.135   1.757
 1119SOL    HW2 4257   4.232   4.151   1.633
 1120SOL     OW 4258   4.403   6.573   6.352
 1120SOL    HW1 4259   4.344   6.501   6.387
 1120SOL    HW2 4260   4.423   6.638   6.425
 1121SOL     OW 4261   5.007   3.104   1.502
 1121SOL    HW1 4262   4.962   3.080   1.588
 1121SOL    HW2 4263   5.016   3.022   1.445
 1122SOL     OW 4264   5.278   3.119   6.338
 1122SOL    HW1 4265   5.182   3.143   6.322
 1122SOL    HW2 4266   5.291   3.093   6.433
 1123SOL     OW 4267   4.612   1.050   2.511
 1123SOL    HW1 4268   4.616   1.068   2.609
 1123SOL    HW2 4269   4.604   0.951   2.496
 1124SOL     OW 4270   6.751   4.074   4.855
 1124SOL    HW1 4271   6.725   4.170   4.850
 1124SOL    HW2 4272   6.689   4.020   4.798
 1125SOL     OW 4273   3.402   3.271   4.996
 1125SOL    HW1 4274   3.489   3.315   4.975
 1125SOL    HW2 4275   3.327   3.334   4.974
 1126SOL     OW 4276   4.809   6.849   1.240
 1126SOL    HW1 4277   4.767   6.913   1.305
 1126SOL    HW2 4278   4.791   6.880   1.147
 1127SOL     OW 4279   2.054   4.835   0.503
 1127SOL    HW1 4280   1.993   4.777   0.557
 1127SOL    HW2 4281   2.036   4.821   0.405
 1128SOL     OW 4282   3.471   1.777   4.121
 1128SOL    HW1 4283   3.527   1.729   4.054
 1128SOL    HW2 4284   3.487   1.739   4.212
 1129SOL     OW 4285   5.344   0.359   6.862
 1129SOL    HW1 4286   5.334   0.326   6.956
 1129SOL    HW2 4287   5.355   0.458   6.861
 1130SOL     OW 4288   0.713   3.925   6.852
 1130SOL    HW1 4289   0.736   3.934   6.949
 1130SOL    HW2 4290   0.729   4.011   6.805
 1131SOL     OW 4291   0.356   6.164   4.975
 1131SOL    HW1 4292   0.298   6.083   4.978
 1131SOL    HW2 4293   0.392   6.183   5.066
 1132SOL     OW 4294   4.668   6.744   5.164
 1132SOL    HW1 4295   4.751   6.692   5.185
 1132SOL    HW2 4296   4.631   6.715   5.076
 1133SOL     OW 4297   0.852   3.439   1.733
 1133SOL    HW1 4298   0.770   3.405   1.687
 1133SOL    HW2 4299   0.909   3.362   1.761
 1134SOL     OW 4300   5.144   2.594   6.881
 1134SOL    HW1 4301   5.091   2.666   6.836
 1134SOL    HW2 4302   5.238   2.626   6.896
 1135SOL     OW 4303   2.757   2.278   3.459
 1135SOL    HW1 4304   2.715   2.187   3.454
 1135SOL    HW2 4305   2.749   2.313   3.552
 1136SOL     OW 4306   2.946   5.350   3.416
 1136SOL    HW1 4307   2.868   5.406   3.444
 1136SOL    HW2 4308   3.010   5.342   3.492
 1137SOL     OW 4309   1.359   1.600   6.734
 1137SOL    HW1 4310   1.381   1.526   6.797
 1137SOL    HW2 4311   1.261   1.615   6.733
 1138SOL     OW 4312   1.926   3.665   5.616
 1138SOL    HW1 4313   1.985   3.683   5.695
 1138SOL    HW2 4314   1.937   3.737   5.548
 1139SOL     OW 4315   1.661   6.948   2.773
 1139SOL    HW1 4316   1.699   0.015   2.740
 1139SOL    HW2 4317   1.566   6.939   2.744
 1140SOL     OW 4318   3.285   1.801   3.462
 1140SOL    HW1 4319   3.195   1.823   3.499
 1140SOL    HW2 4320   3.285   1.709   3.424
 1141SOL     OW 4321   5.974   5.806   4.987
 1141SOL    HW1 4322   5.981   5.902   5.011
 1141SOL    HW2 4323   6.064   5.773   4.957
 1142SOL     OW 4324   5.121   0.181   4.042
 1142SOL    HW1 4325   5.192   0.206   4.108
 1142SOL    HW2 4326   5.108   0.256   3.977
 1143SOL     OW 4327   4.004   2.108   3.033
 1143SOL    HW1 4328   4.087   2.145   2.993
 1143SOL    HW2 4329   3.935   2.095   2.961
 1144SOL     OW 4330   0.482   4.708   4.367
 1144SOL    HW1 4331   0.573   4.667   4.372
 1144SOL    HW2 4332   0.421   4.665   4.434
 1145SOL     OW 4333   0.044   5.649   4.408
 1145SOL    HW1 4334   0.059   5.746   4.387
 1145SOL    HW2 4335   6.997   5.641   4.481
 1146SOL     OW 4336   5.718   2.316   1.512
 1146SOL    HW1 4337   5.777   2.255   1.565
 1146SOL    HW2 4338   5.684   2.389   1.572
 1147SOL     OW 4339   6.967   3.943   2.169
 1147SOL    HW1 4340   6.936   3.881   2.241
 1147SOL    HW2 4341   0.042   3.967   2.184
 1148SOL     OW 4342   3.932   6.744   6.903
 1148SOL    HW1 4343   3.975   6.721   6.815
 1148SOL    HW2 4344   3.893   6.836   6.898
 1149SOL     OW 4345   6.559   3.436   2.702
 1149SOL    HW1 4346   6.517   3.346   2.702
 1149SOL    HW2 4347   6.658   3.427   2.715
 1150SOL     OW 4348   1.645   4.787   1.050
 1150SOL    HW1 4349   1.718   4.805   0.985
 1150SOL    HW2 4350   1.638   4.862   1.115
 1151SOL     OW 4351   6.085   5.135   6.607
 1151SOL    HW1 4352   6.083   5.114   6.509
 1151SOL    HW2 4353   6.001   5.103   6.650
 1152SOL     OW 4354   1.873   0.418   5.050
 1152SOL    HW1 4355   1.774   0.408   5.063
 1152SOL    HW2 4356   1.914   0.448   5.136
 1153SOL     OW 4357   1.998   5.321   2.698
 1153SOL    HW1 4358   1.997   5.223   2.718
 1153SOL    HW2 4359   2.091   5.348   2.672
 1154SOL     OW 4360   0.343   3.734   2.255
 1154SOL    HW1 4361   0.304   3.812   2.205
 1154SOL    HW2 4362   0.303   3.730   2.346
 1155SOL     OW 4363   3.802   6.168   1.759
 1155SOL    HW1 4364   3.798   6.111   1.841
 1155SOL    HW2 4365   3.895   6.165   1.721
 1156SOL     OW 4366   1.917   0.506   4.496
 1156SOL    HW1 4367   1.908   0.414   4.459
 1156SOL    HW2 4368   1.996   0.551   4.454
 1157SOL     OW 4369   0.711   3.001   4.039
 1157SOL    HW1 4370   0.695   2.939   4.117
 1157SOL    HW2 4371   0.632   3.061   4.028
 1158SOL     OW 4372   5.587   5.036   5.632
 1158SOL    HW1 4373   5.609   5.118   5.579
 1158SOL    HW2 4374   5.551   4.966   5.571
 1159SOL     OW 4375   3.599   4.921   3.177
 1159SOL    HW1 4376   3.545   4.965   3.249
 1159SOL    HW2 4377   3.691   4.902   3.212
 1160SOL     OW 4378   4.079   3.275   2.241
 1160SOL    HW1 4379   4.105   3.202   2.305
 1160SOL    HW2 4380   4.109   3.251   2.149
 1161SOL     OW 4381   5.602   0.609   3.912
 1161SOL    HW1 4382   5.565   0.702   3.916
 1161SOL    HW2 4383   5.542   0.546   3.961
 1162SOL     OW 4384   3.521   3.965   2.384
 1162SOL    HW1 4385   3.603   4.000   2.340
 1162SOL    HW2 4386   3.503   4.018   2.467
 1163SOL     OW 4387   5.117   2.618   2.077
 1163SOL    HW1 4388   5.025   2.622   2.039
 1163SOL    HW2 4389   5.169   2.544   2.034
 1164SOL     OW 4390   5.617   2.891   3.336
 1164SOL    HW1 4391   5.561   2.896   3.254
 1164SOL    HW2 4392   5.698   2.949   3.324
 1165SOL     OW 4393   0.560   3.971   3.454
 1165SOL    HW1 4394   0.560   3.946   3.550
 1165SOL    HW2 4395   0.537   3.890   3.399
 1166SOL     OW 4396   4.315   2.369   6.256
 1166SOL    HW1 4397   4.381   2.373   6.181
 1166SOL    HW2 4398   4.230   2.328   6.223
 1167SOL     OW 4399   4.786   1.101   4.999
 1167SOL    HW1 4400   4.812   1.026   4.938
 1167SOL    HW2 4401   4.710   1.152   4.959
 1168SOL     OW 4402   6.753   0.060   3.796
 1168SOL    HW1 4403   6.779   0.154   3.776
 1168SOL    HW2 4404   6.713   0.019   3.714
 1169SOL     OW 4405   0.802   3.554   1.162
 1169SOL    HW1 4406   0.736   3.625   1.186
 1169SOL    HW2 4407   0.869   3.591   1.097
 1170SOL     OW 4408   3.487   1.180   2.066
 1170SOL    HW1 4409   3.416   1.231   2.115
 1170SOL    HW2 4410   3.562   1.241   2.041
 1171SOL     OW 4411   2.950   5.546   1.165
 1171SOL    HW1 4412   3.046   5.572   1.149
 1171SOL    HW2 4413   2.928   5.560   1.261
 1172SOL     OW 4414   2.964   3.368   4.326
 1172SOL    HW1 4415   3.039   3.309   4.296
 1172SOL    HW2 4416   2.949   3.441   4.260
 1173SOL     OW 4417   2.951   0.965   6.175
 1173SOL    HW1 4418   3.040   0.997   6.206
 1173SOL    HW2 4419   2.945   0.973   6.076
 1174SOL     OW 4420   2.987   5.857   0.951
 1174SOL    HW1 4421   2.896   5.819   0.969
 1174SOL    HW2 4422   3.040   5.791   0.898
 1175SOL     OW 4423   6.451   4.844   6.021
 1175SOL    HW1 4424   6.430   4.760   5.972
 1175SOL    HW2 4425   6.403   4.921   5.978
 1176SOL     OW 4426   5.452   4.530   0.902
 1176SOL    HW1 4427   5.537   4.567   0.940
 1176SOL    HW2 4428   5.439   4.566   0.810
 1177SOL     OW 4429   6.850   3.197   5.895
 1177SOL    HW1 4430   6.783   3.159   5.831
 1177SOL    HW2 4431   6.942   3.168   5.868
 1178SOL     OW 4432   5.447   3.758   1.402
 1178SOL    HW1 4433   5.449   3.750   1.302
 1178SOL    HW2 4434   5.399   3.841   1.428
 1179SOL     OW 4435   1.668   5.363   6.842
 1179SOL    HW1 4436   1.655   5.362   6.743
 1179SOL    HW2 4437   1.728   5.287   6.868
 1180SOL     OW 4438   1.462   2.147   4.528
 1180SOL    HW1 4439   1.446   2.051   4.548
 1180SOL    HW2 4440   1.400   2.177   4.455
 1181SOL     OW 4441   1.780   4.044   3.729
 1181SOL    HW1 4442   1.780   3.972   3.798
 1181SOL    HW2 4443   1.861   4.101   3.742
 1182SOL     OW 4444   2.190   4.192   3.782
 1182SOL    HW1 4445   2.174   4.102   3.739
 1182SOL    HW2 4446   2.129   4.259   3.741
 1183SOL     OW 4447   3.808   6.272   0.930
 1183SOL    HW1 4448   3.879   6.268   1.000
 1183SOL    HW2 4449   3.801   6.183   0.884
 1184SOL     OW 4450   3.028   3.091   5.189
 1184SOL    HW1 4451   2.987   3.134   5.270
 1184SOL    HW2 4452   3.118   3.054   5.214
 1185SOL     OW 4453   1.934   0.047   6.812
 1185SOL    HW1 4454   1.958   0.024   6.906
 1185SOL    HW2 4455   1.836   0.066   6.806
 1186SOL     OW 4456   5.772   0.273   4.637
 1186SOL    HW1 4457   5.799   0.343   4.571
 1186SOL    HW2 4458   5.853   0.240   4.687
 1187SOL     OW 4459   5.647   6.904   5.109
 1187SOL    HW1 4460   5.562   6.880   5.155
 1187SOL    HW2 4461   5.689   6.982   5.155
 1188SOL     OW 4462   2.150   6.894   6.026
 1188SOL    HW1 4463   2.225   6.955   6.050
 1188SOL    HW2 4464   2.130   6.833   6.103
 1189SOL     OW 4465   5.927   0.998   1.212
 1189SOL    HW1 4466   5.903   0.983   1.116
 1189SOL    HW2 4467   6.024   1.021   1.218
 1190SOL     OW 4468   4.348   5.201   2.595
 1190SOL    HW1 4469   4.336   5.298   2.575
 1190SOL    HW2 4470   4.258   5.159   2.608
 1191SOL     OW 4471   3.273   5.655   6.133
 1191SOL    HW1 4472   3.330   5.577   6.158
 1191SOL    HW2 4473   3.192   5.624   6.083
 1192SOL     OW 4474   5.756   5.242   2.994
 1192SOL    HW1 4475   5.702   5.176   3.047
 1192SOL    HW2 4476   5.795   5.196   2.914
 1193SOL     OW 4477   4.985   0.545   3.932
 1193SOL    HW1 4478   4.929   0.559   4.014
 1193SOL    HW2 4479   4.939   0.484   3.869
 1194SOL     OW 4480   6.237   0.568   0.551
 1194SOL    HW1 4481   6.306   0.592   0.483
 1194SOL    HW2 4482   6.275   0.502   0.615
 1195SOL     OW 4483   5.670   0.441   6.135
 1195SOL    HW1 4484   5.736   0.382   6.181
 1195SOL    HW2 4485   5.718   0.513   6.085
 1196SOL     OW 4486   0.265   5.258   2.353
 1196SOL    HW1 4487   0.228   5.266   2.260
 1196SOL    HW2 4488   0.280   5.349   2.390
 1197SOL     OW 4489   3.787   5.827   5.811
 1197SOL    HW1 4490   3.751   5.919   5.826
 1197SOL    HW2 4491   3.716   5.771   5.768
 1198SOL     OW 4492   3.127   2.139   3.354
 1198SOL    HW1 4493   3.227   2.130   3.358
 1198SOL    HW2 4494   3.092   2.151   3.447
 1199SOL     OW 4495   3.253   4.340   1.613
 1199SOL    HW1 4496   3.157   4.323   1.588
 1199SOL    HW2 4497   3.286   4.264   1.668
 1200SOL     OW 4498   4.143   4.389   6.584
 1200SOL    HW1 4499   4.061   4.357   6.633
 1200SOL    HW2 4500   4.224   4.366   6.637
 1201SOL     OW 4501   1.233   1.689   4.922
 1201SOL    HW1 4502   1.308   1.661   4.862
 1201SOL    HW2 4503   1.210   1.613   4.984
 1202SOL     OW 4504   5.430   0.016   4.893
 1202SOL    HW1 4505   5.411   6.942   4.922
 1202SOL    HW2 4506   5.482   0.064   4.963
 1203SOL     OW 4507   5.304   0.144   1.232
 1203SOL    HW1 4508   5.245   0.067   1.208
 1203SOL    HW2 4509   5.326   0.140   1.330
 1204SOL     OW 4510   3.924   0.586   0.255
 1204SOL    HW1 4511   3.961   0.595   0.348
 1204SOL    HW2 4512   3.913   0.677   0.215
 1205SOL     OW 4513   5.822   1.779   5.134
 1205SOL    HW1 4514   5.733   1.763   5.177
 1205SOL    HW2 4515   5.866   1.691   5.115
 1206SOL     OW 4516   2.169   1.542   5.303
 1206SOL    HW1 4517   2.227   1.560   5.223
 1206SOL    HW2 4518   2.221   1.560   5.386
 1207SOL     OW 4519   5.699   0.018   6.905
 1207SOL    HW1 4520   5.615   7.010   6.859
 1207SOL    HW2 4521   5.700   7.001   6.998
 1208SOL     OW 4522   3.742   4.078   2.779
 1208SOL    HW1 4523   3.797   4.031   2.709
 1208SOL    HW2 4524   3.798   4.098   2.859
 1209SOL     OW 4525   5.707   5.455   4.268
 1209SOL    HW1 4526   5.710   5.457   4.368
 1209SOL    HW2 4527   5.632   5.396   4.238
 1210SOL     OW 4528   4.261   6.920   2.506
 1210SOL    HW1 4529   4.275   6.898   2.410
 1210SOL    HW2 4530   4.309   7.005   2.528
 1211SOL     OW 4531   0.963   4.134   4.608
 1211SOL    HW1 4532   1.040   4.131   4.672
 1211SOL    HW2 4533   0.921   4.225   4.611
 1212SOL     OW 4534   1.389   4.475   4.737
 1212SOL    HW1 4535   1.395   4.376   4.722
 1212SOL    HW2 4536   1.436   4.498   4.822
 1213SOL     OW 4537   6.524   2.518   5.305
 1213SOL    HW1 4538   6.512   2.462   5.223
 1213SOL    HW2 4539   6.479   2.606   5.292
 1214SOL     OW 4540   2.119   3.466   3.969
 1214SOL    HW1 4541   2.120   3.367   3.972
 1214SOL    HW2 4542   2.150   3.497   3.879
 1215SOL     OW 4543   1.374   4.281   2.839
 1215SOL    HW1 4544   1.427   4.332   2.907
 1215SOL    HW2 4545   1.374   4.184   2.862
 1216SOL     OW 4546   1.137   0.441   1.828
 1216SOL    HW1 4547   1.227   0.469   1.861
 1216SOL    HW2 4548   1.100   0.513   1.769
 1217SOL     OW 4549   1.453   6.774   1.409
 1217SOL    HW1 4550   1.455   6.746   1.313
 1217SOL    HW2 4551   1.472   6.871   1.416
 1218SOL     OW 4552   0.143   3.443   4.394
 1218SOL    HW1 4553   0.140   3.535   4.354
 1218SOL    HW2 4554   0.099   3.378   4.332
 1219SOL     OW 4555   3.816   6.455   1.296
 1219SOL    HW1 4556   3.774   6.365   1.314
 1219SOL    HW2 4557   3.839   6.498   1.383
 1220SOL     OW 4558   6.000   2.972   3.153
 1220SOL    HW1 4559   5.970   2.876   3.150
 1220SOL    HW2 4560   5.955   3.023   3.079
 1221SOL     OW 4561   4.809   3.709   0.154
 1221SOL    HW1 4562   4.810   3.630   0.093
 1221SOL    HW2 4563   4.722   3.757   0.146
 1222SOL     OW 4564   0.141   6.929   1.075
 1222SOL    HW1 4565   0.160   6.831   1.088
 1222SOL    HW2 4566   0.142   6.975   1.163
 1223SOL     OW 4567   6.248   6.949   6.132
 1223SOL    HW1 4568   6.325   7.009   6.110
 1223SOL    HW2 4569   6.172   6.968   6.070
 1224SOL     OW 4570   4.881   5.648   1.382
 1224SOL    HW1 4571   4.794   5.629   1.426
 1224SOL    HW2 4572   4.870   5.643   1.283
 1225SOL     OW 4573   4.946   1.938   0.614
 1225SOL    HW1 4574   4.937   2.010   0.683
 1225SOL    HW2 4575   4.930   1.849   0.656
 1226SOL     OW 4576   6.285   6.274   0.984
 1226SOL    HW1 4577   6.327   6.202   1.039
 1226SOL    HW2 4578   6.310   6.261   0.888
 1227SOL     OW 4579   5.942   3.791   5.404
 1227SOL    HW1 4580   5.979   3.719   5.345
 1227SOL    HW2 4581   5.916   3.751   5.492
 1228SOL     OW 4582   3.747   3.046   2.659
 1228SOL    HW1 4583   3.722   2.954   2.628
 1228SOL    HW2 4584   3.693   3.113   2.609
 1229SOL     OW 4585   1.792   5.993   2.604
 1229SOL    HW1 4586   1.811   6.091   2.610
 1229SOL    HW2 4587   1.774   5.969   2.509
 1230SOL     OW 4588   5.054   5.144   1.639
 1230SOL    HW1 4589   5.107   5.088   1.575
 1230SOL    HW2 4590   5.063   5.240   1.614
 1231SOL     OW 4591   1.708   2.057   6.361
 1231SOL    HW1 4592   1.696   1.970   6.313
 1231SOL    HW2 4593   1.620   2.089   6.395
 1232SOL     OW 4594   3.244   0.934   5.626
 1232SOL    HW1 4595   3.156   0.963   5.662
 1232SOL    HW2 4596   3.291   1.011   5.582
 1233SOL     OW 4597   0.190   5.661   3.814
 1233SOL    HW1 4598   0.141   5.695   3.894
 1233SOL    HW2 4599   0.288   5.677   3.826
 1234SOL     OW 4600   6.515   3.229   6.662
 1234SOL    HW1 4601   6.544   3.172   6.739
 1234SOL    HW2 4602   6.494   3.171   6.583
 1235SOL     OW 4603   6.486   5.086   0.133
 1235SOL    HW1 4604   6.508   5.165   0.192
 1235SOL    HW2 4605   6.435   5.118   0.053
 1236SOL     OW 4606   2.279   1.414   1.692
 1236SOL    HW1 4607   2.280   1.395   1.593
 1236SOL    HW2 4608   2.372   1.408   1.728
 1237SOL     OW 4609   1.177   0.413   4.826
 1237SOL    HW1 4610   1.166   0.435   4.922
 1237SOL    HW2 4611   1.174   0.496   4.771
 1238SOL     OW 4612   6.726   0.335   3.983
 1238SOL    HW1 4613   6.786   0.307   3.909
 1238SOL    HW2 4614   6.631   0.339   3.950
 1239SOL     OW 4615   5.615   4.626   4.043
 1239SOL    HW1 4616   5.709   4.658   4.056
 1239SOL    HW2 4617   5.612   4.566   3.963
 1240SOL     OW 4618   5.698   4.698   3.301
 1240SOL    HW1 4619   5.705   4.620   3.364
 1240SOL    HW2 4620   5.652   4.774   3.348
 1241SOL     OW 4621   5.513   5.153   4.524
 1241SOL    HW1 4622   5.491   5.104   4.608
 1241SOL    HW2 4623   5.431   5.162   4.468
 1242SOL     OW 4624   1.427   4.810   0.039
 1242SOL    HW1 4625   1.339   4.796   7.014
 1242SOL    HW2 4626   1.491   4.740   0.010
 1243SOL     OW 4627   1.015   4.533   4.900
 1243SOL    HW1 4628   1.078   4.561   4.827
 1243SOL    HW2 4629   0.964   4.613   4.932
 1244SOL     OW 4630   5.497   6.352   4.756
 1244SOL    HW1 4631   5.444   6.414   4.814
 1244SOL    HW2 4632   5.522   6.270   4.808
 1245SOL     OW 4633   5.419   6.353   2.204
 1245SOL    HW1 4634   5.385   6.392   2.118
 1245SOL    HW2 4635   5.350   6.294   2.244
 1246SOL     OW 4636   4.757   1.480   0.718
 1246SOL    HW1 4637   4.826   1.547   0.694
 1246SOL    HW2 4638   4.749   1.475   0.818
 1247SOL     OW 4639   6.683   6.697   3.362
 1247SOL    HW1 4640   6.701   6.639   3.282
 1247SOL    HW2 4641   6.585   6.705   3.376
 1248SOL     OW 4642   0.983   6.937   4.747
 1248SOL    HW1 4643   0.963   6.881   4.667
 1248SOL    HW2 4644   0.992   0.012   4.719
 1249SOL     OW 4645   6.863   4.512   0.035
 1249SOL    HW1 4646   6.803   4.552   6.986
 1249SOL    HW2 4647   6.817   4.511   0.124
 1250SOL     OW 4648   6.399   3.061   4.829
 1250SOL    HW1 4649   6.310   3.098   4.856
 1250SOL    HW2 4650   6.421   2.981   4.885
 1251SOL     OW 4651   2.874   0.687   2.749
 1251SOL    HW1 4652   2.931   0.608   2.728
 1251SOL    HW2 4653   2.850   0.734   2.664
 1252SOL     OW 4654   1.555   5.649   0.473
 1252SOL    HW1 4655   1.640   5.610   0.509
 1252SOL    HW2 4656   1.556   5.748   0.482
 1253SOL     OW 4657   3.619   0.640   1.281
 1253SOL    HW1 4658   3.558   0.714   1.309
 1253SOL    HW2 4659   3.647   0.586   1.361
 1254SOL     OW 4660   6.820   1.645   2.335
 1254SOL    HW1 4661   6.802   1.590   2.416
 1254SOL    HW2 4662   6.770   1.606   2.257
 1255SOL     OW 4663   5.561   1.361   4.687
 1255SOL    HW1 4664   5.517   1.290   4.743
 1255SOL    HW2 4665   5.629   1.319   4.628
 1256SOL     OW 4666   0.230   6.057   4.713
 1256SOL    HW1 4667   0.328   6.062   4.693
 1256SOL    HW2 4668   0.205   5.962   4.734
 1257SOL     OW 4669   0.535   5.394   4.020
 1257SOL    HW1 4670   0.618   5.342   3.997
 1257SOL    HW2 4671   0.455   5.336   4.006
 1258SOL     OW 4672   3.214   6.241   4.541
 1258SOL    HW1 4673   3.228   6.143   4.523
 1258SOL    HW2 4674   3.212   6.291   4.454
 1259SOL     OW 4675   5.312   6.837   4.163
 1259SOL    HW1 4676   5.291   6.887   4.079
 1259SOL    HW2 4677   5.288   6.741   4.152
 1260SOL     OW 4678   1.586   0.639   1.723
 1260SOL    HW1 4679   1.596   0.675   1.816
 1260SOL    HW2 4680   1.609   0.710   1.657
 1261SOL     OW 4681   6.564   4.535   6.555
 1261SOL    HW1 4682   6.520   4.446   6.562
 1261SOL    HW2 4683   6.614   4.541   6.469
 1262SOL     OW 4684   5.983   5.214   0.623
 1262SOL    HW1 4685   6.019   5.170   0.706
 1262SOL    HW2 4686   5.897   5.170   0.598
 1263SOL     OW 4687   0.568   2.560   1.423
 1263SOL    HW1 4688   0.529   2.479   1.467
 1263SOL    HW2 4689   0.542   2.642   1.474
 1264SOL     OW 4690   0.526   3.766   3.708
 1264SOL    HW1 4691   0.515   3.678   3.662
 1264SOL    HW2 4692   0.619   3.800   3.694
 1265SOL     OW 4693   0.014   4.830   4.878
 1265SOL    HW1 4694   0.074   4.879   4.942
 1265SOL    HW2 4695   0.038   4.732   4.879
 1266SOL     OW 4696   3.003   1.779   5.723
 1266SOL    HW1 4697   3.042   1.789   5.632
 1266SOL    HW2 4698   3.015   1.864   5.775
 1267SOL     OW 4699   6.808   5.514   3.236
 1267SOL    HW1 4700   6.802   5.602   3.284
 1267SOL    HW2 4701   6.902   5.499   3.206
 1268SOL     OW 4702   5.392   2.551   6.519
 1268SOL    HW1 4703   5.444   2.637   6.519
 1268SOL    HW2 4704   5.320   2.556   6.451
 1269SOL     OW 4705   6.832   5.446   5.450
 1269SOL    HW1 4706   6.773   5.506   5.398
 1269SOL    HW2 4707   6.805   5.351   5.436
 1270SOL     OW 4708   1.984   3.925   4.363
 1270SOL    HW1 4709   1.985   4.005   4.303
 1270SOL    HW2 4710   1.940   3.950   4.450
 1271SOL     OW 4711   3.384   1.658   2.565
 1271SOL    HW1 4712   3.448   1.729   2.536
 1271SOL    HW2 4713   3.294   1.699   2.579
 1272SOL     OW 4714   6.946   5.127   1.281
 1272SOL    HW1 4715   6.967   5.116   1.378
 1272SOL    HW2 4716   6.851   5.159   1.270
 1273SOL     OW 4717   2.499   4.749   6.606
 1273SOL    HW1 4718   2.567   4.763   6.677
 1273SOL    HW2 4719   2.414   4.796   6.631
 1274SOL     OW 4720   6.849   2.763   2.444
 1274SOL    HW1 4721   6.850   2.813   2.358
 1274SOL    HW2 4722   6.777   2.694   2.442
 1275SOL     OW 4723   4.341   1.335   4.793
 1275SOL    HW1 4724   4.378   1.345   4.700
 1275SOL    HW2 4725   4.417   1.325   4.857
 1276SOL     OW 4726   0.411   0.625   2.564
 1276SOL    HW1 4727   0.312   0.615   2.558
 1276SOL    HW2 4728   0.453   0.595   2.478
 1277SOL     OW 4729   6.885   0.601   4.585
 1277SOL    HW1 4730   6.940   0.541   4.526
 1277SOL    HW2 4731   6.895   0.696   4.554
 1278SOL     OW 4732   2.062   1.777   5.173
 1278SOL    HW1 4733   2.119   1.857   5.155
 1278SOL    HW2 4734   2.110   1.715   5.235
 1279SOL     OW 4735   2.995   6.067   0.530
 1279SOL    HW1 4736   3.086   6.063   0.488
 1279SOL    HW2 4737   2.933   6.117   0.470
 1280SOL     OW 4738   2.066   0.335   3.388
 1280SOL    HW1 4739   2.058   0.334   3.288
 1280SOL    HW2 4740   2.121   0.257   3.418
 1281SOL     OW 4741   1.274   6.439   3.399
 1281SOL    HW1 4742   1.230   6.506   3.459
 1281SOL    HW2 4743   1.221   6.430   3.315
 1282SOL     OW 4744   0.612   1.532   1.251
 1282SOL    HW1 4745   0.560   1.588   1.315
 1282SOL    HW2 4746   0.623   1.582   1.165
 1283SOL     OW 4747   5.514   4.752   5.300
 1283SOL    HW1 4748   5.504   4.735   5.398
 1283SOL    HW2 4749   5.486   4.845   5.279
 1284SOL     OW 4750   3.274   2.651   1.770
 1284SOL    HW1 4751   3.183   2.689   1.785
 1284SOL    HW2 4752   3.271   2.552   1.783
 1285SOL     OW 4753   4.894   2.415   5.932
 1285SOL    HW1 4754   4.826   2.397   6.003
 1285SOL    HW2 4755   4.884   2.509   5.899
 1286SOL     OW 4756   5.489   4.079   1.707
 1286SOL    HW1 4757   5.456   4.023   1.783
 1286SOL    HW2 4758   5.512   4.171   1.741
 1287SOL     OW 4759   6.560   5.635   6.787
 1287SOL    HW1 4760   6.467   5.602   6.808
 1287SOL    HW2 4761   6.626   5.582   6.841
 1288SOL     OW 4762   6.942   3.086   6.973
 1288SOL    HW1 4763   6.993   3.120   0.032
 1288SOL    HW2 4764   6.911   3.164   6.918
 1289SOL     OW 4765   6.795   5.894   2.330
 1289SOL    HW1 4766   6.848   5.890   2.415
 1289SOL    HW2 4767   6.850   5.857   2.255
 1290SOL     OW 4768   1.075   6.417   6.967
 1290SOL    HW1 4769   1.136   6.493   6.942
 1290SOL    HW2 4770   1.124   6.352   0.004
 1291SOL     OW 4771   0.950   6.023   6.660
 1291SOL    HW1 4772   1.032   5.978   6.624
 1291SOL    HW2 4773   0.884   6.034   6.586
 1292SOL     OW 4774   0.130   4.942   1.211
 1292SOL    HW1 4775   0.058   5.012   1.214
 1292SOL    HW2 4776   0.095   4.856   1.246
 1293SOL     OW 4777   1.286   1.986   6.921
 1293SOL    HW1 4778   1.302   1.975   7.020
 1293SOL    HW2 4779   1.193   2.018   6.906
 1294SOL     OW 4780   0.703   3.351   2.601
 1294SOL    HW1 4781   0.801   3.369   2.592
 1294SOL    HW2 4782   0.681   3.264   2.557
 1295SOL     OW 4783   5.709   3.214   1.566
 1295SOL    HW1 4784   5.623   3.182   1.604
 1295SOL    HW2 4785   5.737   3.154   1.491
 1296SOL     OW 4786   3.419   2.250   6.361
 1296SOL    HW1 4787   3.471   2.306   6.426
 1296SOL    HW2 4788   3.388   2.307   6.285
 1297SOL     OW 4789   6.478   1.260   5.531
 1297SOL    HW1 4790   6.504   1.265   5.434
 1297SOL    HW2 4791   6.444   1.349   5.561
 1298SOL     OW 4792   5.650   2.672   2.461
 1298SOL    HW1 4793   5.575   2.608   2.480
 1298SOL    HW2 4794   5.617   2.766   2.470
 1299SOL     OW 4795   1.187   4.648   4.724
 1299SOL    HW1 4796   1.272   4.598   4.733
 1299SOL    HW2 4797   1.206   4.742   4.694
 1300SOL     OW 4798   2.785   3.191   1.781
 1300SOL    HW1 4799   2.874   3.161   1.748
 1300SOL    HW2 4800   2.727   3.216   1.702
 1301SOL     OW 4801   0.595   6.458   4.072
 1301SOL    HW1 4802   0.538   6.439   4.152
 1301SOL    HW2 4803   0.609   6.373   4.021
 1302SOL     OW 4804   2.785   0.136   5.098
 1302SOL    HW1 4805   2.871   0.096   5.130
 1302SOL    HW2 4806   2.768   0.106   5.004
 1303SOL     OW 4807   3.544   1.473   0.844
 1303SOL    HW1 4808   3.492   1.416   0.781
 1303SOL    HW2 4809   3.527   1.443   0.938
 1304SOL     OW 4810   1.842   0.432   6.384
 1304SOL    HW1 4811   1.892   0.502   6.435
 1304SOL    HW2 4812   1.773   0.391   6.443
 1305SOL     OW 4813   4.381   6.906   4.318
 1305SOL    HW1 4814   4.316   6.837   4.287
 1305SOL    HW2 4815   4.471   6.864   4.331
 1306SOL     OW 4816   0.398   4.169   4.543
 1306SOL    HW1 4817   0.414   4.147   4.447
 1306SOL    HW2 4818   0.486   4.188   4.588
 1307SOL     OW 4819   1.212   3.398   4.883
 1307SOL    HW1 4820   1.162   3.345   4.814
 1307SOL    HW2 4821   1.294   3.436   4.841
 1308SOL     OW 4822   4.387   5.648   4.250
 1308SOL    HW1 4823   4.321   5.635   4.176
 1308SOL    HW2 4824   4.437   5.734   4.235
 1309SOL     OW 4825   5.460   2.942   4.865
 1309SOL    HW1 4826   5.553   2.907   4.856
 1309SOL    HW2 4827   5.398   2.866   4.888
 1310SOL     OW 4828   5.584   4.062   3.963
 1310SOL    HW1 4829   5.593   3.973   4.008
 1310SOL    HW2 4830   5.647   4.127   4.004
 1311SOL     OW 4831   6.148   0.027   4.651
 1311SOL    HW1 4832   6.091   6.973   4.614
 1311SOL    HW2 4833   6.098   0.074   4.724
 1312SOL     OW 4834   0.815   6.817   6.992
 1312SOL    HW1 4835   0.829   6.719   7.010
 1312SOL    HW2 4836   0.821   6.867   0.058
 1313SOL     OW 4837   3.353   5.581   5.258
 1313SOL    HW1 4838   3.276   5.638   5.289
 1313SOL    HW2 4839   3.362   5.502   5.318
 1314SOL     OW 4840   1.350   1.400   5.759
 1314SOL    HW1 4841   1.341   1.491   5.800
 1314SOL    HW2 4842   1.394   1.408   5.669
 1315SOL     OW 4843   2.256   1.216   1.117
 1315SOL    HW1 4844   2.227   1.190   1.209
 1315SOL    HW2 4845   2.350   1.248   1.120
 1316SOL     OW 4846   2.627   0.298   3.580
 1316SOL    HW1 4847   2.540   0.250   3.567
 1316SOL    HW2 4848   2.701   0.245   3.540
 1317SOL     OW 4849   0.307   4.927   4.292
 1317SOL    HW1 4850   0.369   4.859   4.331
 1317SOL    HW2 4851   0.282   4.900   4.199
 1318SOL     OW 4852   6.739   0.605   0.415
 1318SOL    HW1 4853   6.789   0.546   0.479
 1318SOL    HW2 4854   6.689   0.547   0.350
 1319SOL     OW 4855   6.724   0.932   0.834
 1319SOL    HW1 4856   6.655   0.958   0.767
 1319SOL    HW2 4857   6.815   0.941   0.794
 1320SOL     OW 4858   5.867   4.618   6.241
 1320SOL    HW1 4859   5.926   4.607   6.321
 1320SOL    HW2 4860   5.832   4.712   6.238
 1321SOL     OW 4861   4.125   3.169   6.577
 1321SOL    HW1 4862   4.220   3.200   6.581
 1321SOL    HW2 4863   4.111   3.111   6.497
 1322SOL     OW 4864   6.187   1.173   3.421
 1322SOL    HW1 4865   6.186   1.085   3.469
 1322SOL    HW2 4866   6.196   1.247   3.487
 1323SOL     OW 4867   0.169   1.291   5.440
 1323SOL    HW1 4868   0.133   1.272   5.349
 1323SOL    HW2 4869   0.157   1.388   5.462
 1324SOL     OW 4870   1.322   2.891   1.440
 1324SOL    HW1 4871   1.415   2.865   1.413
 1324SOL    HW2 4872   1.325   2.977   1.490
 1325SOL     OW 4873   1.671   6.317   3.313
 1325SOL    HW1 4874   1.722   6.277   3.388
 1325SOL    HW2 4875   1.642   6.410   3.337
 1326SOL     OW 4876   5.415   2.708   4.575
 1326SOL    HW1 4877   5.456   2.717   4.484
 1326SOL    HW2 4878   5.339   2.773   4.583
 1327SOL     OW 4879   2.700   4.764   2.850
 1327SOL    HW1 4880   2.782   4.770   2.906
 1327SOL    HW2 4881   2.725   4.761   2.754
 1328SOL     OW 4882   1.922   1.772   6.378
 1328SOL    HW1 4883   2.012   1.751   6.339
 1328SOL    HW2 4884   1.924   1.864   6.418
 1329SOL     OW 4885   0.537   1.286   0.667
 1329SOL    HW1 4886   0.590   1.370   0.684
 1329SOL    HW2 4887   0.466   1.305   0.599
 1330SOL     OW 4888   6.869   0.817   1.307
 1330SOL    HW1 4889   6.823   0.734   1.337
 1330SOL    HW2 4890   6.871   0.883   1.382
 1331SOL     OW 4891   6.078   0.807   1.624
 1331SOL    HW1 4892   6.157   0.758   1.588
 1331SOL    HW2 4893   6.038   0.756   1.700
 1332SOL     OW 4894   4.212   2.026   1.240
 1332SOL    HW1 4895   4.183   1.963   1.168
 1332SOL    HW2 4896   4.186   1.991   1.329
 1333SOL     OW 4897   3.977   3.942   4.788
 1333SOL    HW1 4898   3.904   3.950   4.720
 1333SOL    HW2 4899   4.052   4.003   4.761
 1334SOL     OW 4900   1.574   4.001   5.099
 1334SOL    HW1 4901   1.662   4.010   5.145
 1334SOL    HW2 4902   1.501   4.034   5.159
 1335SOL     OW 4903   1.928   6.124   3.047
 1335SOL    HW1 4904   2.007   6.185   3.060
 1335SOL    HW2 4905   1.960   6.030   3.035
 1336SOL     OW 4906   1.268   1.301   6.008
 1336SOL    HW1 4907   1.328   1.345   6.074
 1336SOL    HW2 4908   1.298   1.322   5.915
 1337SOL     OW 4909   1.922   2.223   6.289
 1337SOL    HW1 4910   1.986   2.245   6.362
 1337SOL    HW2 4911   1.842   2.178   6.326
 1338SOL     OW 4912   4.167   4.667   6.561
 1338SOL    HW1 4913   4.232   4.731   6.602
 1338SOL    HW2 4914   4.189   4.574   6.592
 1339SOL     OW 4915   0.036   4.258   5.963
 1339SOL    HW1 4916   6.997   4.256   6.044
 1339SOL    HW2 4917   0.036   4.350   5.924
 1340SOL     OW 4918   0.950   2.167   6.929
 1340SOL    HW1 4919   1.025   2.188   6.865
 1340SOL    HW2 4920   0.863   2.193   6.887
 1341SOL     OW 4921   3.517   1.403   3.716
 1341SOL    HW1 4922   3.430   1.447   3.694
 1341SOL    HW2 4923   3.518   1.380   3.814
 1342SOL     OW 4924   0.884   5.868   5.918
 1342SOL    HW1 4925   0.967   5.923   5.914
 1342SOL    HW2 4926   0.805   5.926   5.894
 1343SOL     OW 4927   3.748   6.144   2.352
 1343SOL    HW1 4928   3.756   6.048   2.377
 1343SOL    HW2 4929   3.833   6.174   2.308
 1344SOL     OW 4930   6.350   1.651   2.898
 1344SOL    HW1 4931   6.378   1.585   2.828
 1344SOL    HW2 4932   6.305   1.729   2.853
 1345SOL     OW 4933   0.544   0.871   2.966
 1345SOL    HW1 4934   0.571   0.962   2.934
 1345SOL    HW2 4935   0.606   0.842   3.040
 1346SOL     OW 4936   0.112   0.093   3.810
 1346SOL    HW1 4937   0.078   0.003   3.783
 1346SOL    HW2 4938   0.106   0.101   3.910
 1347SOL     OW 4939   6.706   6.470   3.168
 1347SOL    HW1 4940   6.769   6.461   3.244
 1347SOL    HW2 4941   6.629   6.408   3.181
 1348SOL     OW 4942   5.087   4.488   3.894
 1348SOL    HW1 4943   5.178   4.503   3.856
 1348SOL    HW2 4944   5.094   4.473   3.992
 1349SOL     OW 4945   3.780   2.165   6.914
 1349SOL    HW1 4946   3.723   2.090   6.880
 1349SOL    HW2 4947   3.865   2.128   6.953
 1350SOL     OW 4948   2.801   6.155   0.326
 1350SOL    HW1 4949   2.816   6.092   0.250
 1350SOL    HW2 4950   2.803   6.249   0.292
 1351SOL     OW 4951   0.052   1.267   4.048
 1351SOL    HW1 4952   0.011   1.357   4.062
 1351SOL    HW2 4953   7.008   1.209   3.998
 1352SOL     OW 4954   6.604   1.026   2.590
 1352SOL    HW1 4955   6.701   1.009   2.609
 1352SOL    HW2 4956   6.557   1.048   2.675
 1353SOL     OW 4957   0.356   4.515   4.867
 1353SOL    HW1 4958   0.397   4.507   4.777
 1353SOL    HW2 4959   0.355   4.425   4.911
 1354SOL     OW 4960   0.251   0.704   1.551
 1354SOL    HW1 4961   0.214   0.630   1.494
 1354SOL    HW2 4962   0.302   0.768   1.493
 1355SOL     OW 4963   4.767   3.724   6.837
 1355SOL    HW1 4964   4.849   3.763   6.877
 1355SOL    HW2 4965   4.738   3.780   6.759
 1356SOL     OW 4966   3.315   3.555   2.619
 1356SOL    HW1 4967   3.248   3.566   2.546
 1356SOL    HW2 4968   3.394   3.614   2.601
 1357SOL     OW 4969   2.214   3.341   6.264
 1357SOL    HW1 4970   2.142   3.276   6.242
 1357SOL    HW2 4971   2.303   3.304   6.238
 1358SOL     OW 4972   2.083   3.095   6.313
 1358SOL    HW1 4973   1.992   3.132   6.329
 1358SOL    HW2 4974   2.135   3.094   6.399
 1359SOL     OW 4975   6.039   3.498   1.732
 1359SOL    HW1 4976   6.121   3.499   1.789
 1359SOL    HW2 4977   5.983   3.577   1.753
 1360SOL     OW 4978   3.618   3.769   2.966
 1360SOL    HW1 4979   3.538   3.747   3.022
 1360SOL    HW2 4980   3.683   3.821   3.020
 1361SOL     OW 4981   0.783   6.562   6.114
 1361SOL    HW1 4982   0.691   6.598   6.123
 1361SOL    HW2 4983   0.832   6.571   6.201
 1362SOL     OW 4984   2.844   3.703   6.078
 1362SOL    HW1 4985   2.792   3.653   6.146
 1362SOL    HW2 4986   2.783   3.733   6.004
 1363SOL     OW 4987   6.359   5.593   2.741
 1363SOL    HW1 4988   6.381   5.671   2.799
 1363SOL    HW2 4989   6.444   5.547   2.713
 1364SOL     OW 4990   6.504   3.237   0.986
 1364SOL    HW1 4991   6.526   3.218   1.082
 1364SOL    HW2 4992   6.521   3.333   0.966
 1365SOL     OW 4993   0.673   3.097   5.868
 1365SOL    HW1 4994   0.603   3.165   5.844
 1365SOL    HW2 4995   0.764   3.134   5.848
 1366SOL     OW 4996   6.754   2.680   0.668
 1366SOL    HW1 4997   6.783   2.667   0.573
 1366SOL    HW2 4998   6.656   2.659   0.676
 1367SOL     OW 4999   0.098   5.228   3.685
 1367SOL    HW1 5000   0.053   5.263   3.768
 1367SOL    HW2 5001   0.032   5.227   3.610
 1368SOL     OW 5002   6.976   0.518   4.106
 1368SOL    HW1 5003   6.960   0.516   4.205
 1368SOL    HW2 5004   6.909   0.460   4.060
 1369SOL     OW 5005   2.221   5.754   2.448
 1369SOL    HW1 5006   2.153   5.753   2.521
 1369SOL    HW2 5007   2.256   5.661   2.433
 1370SOL     OW 5008   6.740   2.161   3.795
 1370SOL    HW1 5009   6.805   2.102   3.841
 1370SOL    HW2 5010   6.652   2.156   3.843
 1371SOL     OW 5011   5.612   1.207   4.417
 1371SOL    HW1 5012   5.515   1.201   4.440
 1371SOL    HW2 5013   5.627   1.166   4.327
 1372SOL     OW 5014   6.711   2.759   0.224
 1372SOL    HW1 5015   6.785   2.782   0.287
 1372SOL    HW2 5016   6.662   2.679   0.258
 1373SOL     OW 5017   4.652   2.719   1.818
 1373SOL    HW1 5018   4.634   2.813   1.847
 1373SOL    HW2 5019   4.632   2.710   1.720
 1374SOL     OW 5020   5.123   3.851   0.173
 1374SOL    HW1 5021   5.067   3.799   0.237
 1374SOL    HW2 5022   5.217   3.817   0.177
 1375SOL     OW 5023   5.921   6.225   5.014
 1375SOL    HW1 5024   5.957   6.232   5.107
 1375SOL    HW2 5025   5.841   6.165   5.014
 1376SOL     OW 5026   2.393   4.896   6.284
 1376SOL    HW1 5027   2.463   4.842   6.332
 1376SOL    HW2 5028   2.313   4.907   6.343
 1377SOL     OW 5029   1.586   2.486   3.062
 1377SOL    HW1 5030   1.504   2.443   3.100
 1377SOL    HW2 5031   1.646   2.514   3.136
 1378SOL     OW 5032   3.721   2.107   4.497
 1378SOL    HW1 5033   3.719   2.158   4.411
 1378SOL    HW2 5034   3.809   2.062   4.508
 1379SOL     OW 5035   5.456   5.415   1.433
 1379SOL    HW1 5036   5.528   5.346   1.442
 1379SOL    HW2 5037   5.437   5.432   1.337
 1380SOL     OW 5038   6.888   5.768   1.703
 1380SOL    HW1 5039   6.853   5.722   1.622
 1380SOL    HW2 5040   6.961   5.712   1.744
 1381SOL     OW 5041   6.534   1.904   5.694
 1381SOL    HW1 5042   6.478   1.885   5.614
 1381SOL    HW2 5043   6.491   1.974   5.750
 1382SOL     OW 5044   4.261   2.570   1.451
 1382SOL    HW1 5045   4.212   2.598   1.534
 1382SOL    HW2 5046   4.350   2.615   1.448
 1383SOL     OW 5047   1.259   0.712   1.920
 1383SOL    HW1 5048   1.199   0.695   1.997
 1383SOL    HW2 5049   1.333   0.645   1.919
 1384SOL     OW 5050   5.288   0.184   0.407
 1384SOL    HW1 5051   5.301   0.235   0.323
 1384SOL    HW2 5052   5.361   0.207   0.472
 1385SOL     OW 5053   1.386   5.075   3.526
 1385SOL    HW1 5054   1.346   5.091   3.436
 1385SOL    HW2 5055   1.415   5.162   3.566
 1386SOL     OW 5056   2.791   6.228   4.397
 1386SOL    HW1 5057   2.843   6.264   4.320
 1386SOL    HW2 5058   2.816   6.278   4.480
 1387SOL     OW 5059   3.508   5.890   1.360
 1387SOL    HW1 5060   3.413   5.899   1.330
 1387SOL    HW2 5061   3.530   5.962   1.425
 1388SOL     OW 5062   6.162   0.670   1.400
 1388SOL    HW1 5063   6.200   0.722   1.323
 1388SOL    HW2 5064   6.064   0.690   1.407
 1389SOL     OW 5065   6.527   1.063   2.885
 1389SOL    HW1 5066   6.498   1.147   2.931
 1389SOL    HW2 5067   6.495   0.984   2.938
 1390SOL     OW 5068   0.820   3.108   6.258
 1390SOL    HW1 5069   0.843   3.032   6.319
 1390SOL    HW2 5070   0.741   3.157   6.294
 1391SOL     OW 5071   6.734   1.830   3.801
 1391SOL    HW1 5072   6.649   1.863   3.760
 1391SOL    HW2 5073   6.743   1.867   3.894
 1392SOL     OW 5074   5.298   4.516   5.748
 1392SOL    HW1 5075   5.239   4.594   5.727
 1392SOL    HW2 5076   5.362   4.501   5.672
 1393SOL     OW 5077   5.413   6.316   5.495
 1393SOL    HW1 5078   5.463   6.237   5.530
 1393SOL    HW2 5079   5.376   6.294   5.404
 1394SOL     OW 5080   3.025   6.078   5.410
 1394SOL    HW1 5081   2.954   6.146   5.391
 1394SOL    HW2 5082   3.084   6.069   5.330
 1395SOL     OW 5083   3.158   4.832   5.777
 1395SOL    HW1 5084   3.081   4.830   5.840
 1395SOL    HW2 5085   3.218   4.754   5.794
 1396SOL     OW 5086   0.188   0.449   3.997
 1396SOL    HW1 5087   0.090   0.435   4.014
 1396SOL    HW2 5088   0.230   0.491   4.077
 1397SOL     OW 5089   5.976   0.058   4.969
 1397SOL    HW1 5090   6.026   0.087   5.051
 1397SOL    HW2 5091   5.981   0.130   4.900
 1398SOL     OW 5092   1.634   0.924   5.080
 1398SOL    HW1 5093   1.598   1.016   5.096
 1398SOL    HW2 5094   1.731   0.921   5.105
 1399SOL     OW 5095   3.256   6.446   1.484
 1399SOL    HW1 5096   3.194   6.513   1.444
 1399SOL    HW2 5097   3.341   6.491   1.512
 1400SOL     OW 5098   6.720   1.744   2.673
 1400SOL    HW1 5099   6.689   1.746   2.768
 1400SOL    HW2 5100   6.771   1.828   2.653
 1401SOL     OW 5101   0.347   1.856   5.415
 1401SOL    HW1 5102   0.303   1.777   5.372
 1401SOL    HW2 5103   0.443   1.860   5.388
 1402SOL     OW 5104   6.624   3.488   6.717
 1402SOL    HW1 5105   6.609   3.389   6.717
 1402SOL    HW2 5106   6.638   3.520   6.624
 1403SOL     OW 5107   3.407   0.728   1.994
 1403SOL    HW1 5108   3.434   0.818   1.962
 1403SOL    HW2 5109   3.307   0.726   2.007
 1404SOL     OW 5110   5.483   0.246   0.625
 1404SOL    HW1 5111   5.442   0.231   0.715
 1404SOL    HW2 5112   5.567   0.192   0.617
 1405SOL     OW 5113   1.794   3.903   0.753
 1405SOL    HW1 5114   1.757   3.973   0.815
 1405SOL    HW2 5115   1.797   3.939   0.660
 1406SOL     OW 5116   1.236   4.752   1.747
 1406SOL    HW1 5117   1.148   4.754   1.794
 1406SOL    HW2 5118   1.243   4.667   1.694
 1407SOL     OW 5119   0.267   1.277   2.126
 1407SOL    HW1 5120   0.349   1.258   2.072
 1407SOL    HW2 5121   0.255   1.375   2.135
 1408SOL     OW 5122   5.397   0.484   6.194
 1408SOL    HW1 5123   5.335   0.542   6.142
 1408SOL    HW2 5124   5.491   0.498   6.161
 1409SOL     OW 5125   0.319   0.010   5.284
 1409SOL    HW1 5126   0.411   0.038   5.311
 1409SOL    HW2 5127   0.325   6.974   5.201
 1410SOL     OW 5128   1.800   3.244   6.490
 1410SOL    HW1 5129   1.844   3.325   6.529
 1410SOL    HW2 5130   1.709   3.268   6.456
 1411SOL     OW 5131   2.607   6.365   2.955
 1411SOL    HW1 5132   2.584   6.460   2.934
 1411SOL    HW2 5133   2.701   6.359   2.989
 1412SOL     OW 5134   1.054   2.883   0.467
 1412SOL    HW1 5135   1.153   2.878   0.479
 1412SOL    HW2 5136   1.025   2.979   0.471
 1413SOL     OW 5137   2.253   0.723   4.947
 1413SOL    HW1 5138   2.285   0.632   4.920
 1413SOL    HW2 5139   2.174   0.748   4.890
 1414SOL     OW 5140   2.896   1.447   1.867
 1414SOL    HW1 5141   2.830   1.422   1.937
 1414SOL    HW2 5142   2.972   1.381   1.867
 1415SOL     OW 5143   2.184   6.912   4.151
 1415SOL    HW1 5144   2.240   6.881   4.075
 1415SOL    HW2 5145   2.165   6.836   4.213
 1416SOL     OW 5146   4.753   4.535   2.976
 1416SOL    HW1 5147   4.759   4.597   2.897
 1416SOL    HW2 5148   4.663   4.544   3.019
 1417SOL     OW 5149   2.502   2.289   6.632
 1417SOL    HW1 5150   2.572   2.281   6.704
 1417SOL    HW2 5151   2.414   2.312   6.674
 1418SOL     OW 5152   3.031   3.406   3.102
 1418SOL    HW1 5153   2.951   3.441   3.053
 1418SOL    HW2 5154   3.002   3.351   3.180
 1419SOL     OW 5155   3.219   6.608   4.405
 1419SOL    HW1 5156   3.318   6.622   4.408
 1419SOL    HW2 5157   3.175   6.674   4.466
 1420SOL     OW 5158   1.508   6.414   1.740
 1420SOL    HW1 5159   1.589   6.366   1.772
 1420SOL    HW2 5160   1.478   6.480   1.808
 1421SOL     OW 5161   1.675   2.953   2.999
 1421SOL    HW1 5162   1.696   3.045   2.968
 1421SOL    HW2 5163   1.582   2.929   2.970
 1422SOL     OW 5164   2.522   4.580   1.874
 1422SOL    HW1 5165   2.515   4.564   1.775
 1422SOL    HW2 5166   2.618   4.577   1.902
 1423SOL     OW 5167   5.707   6.444   2.255
 1423SOL    HW1 5168   5.692   6.380   2.179
 1423SOL    HW2 5169   5.660   6.530   2.236
 1424SOL     OW 5170   5.704   4.775   4.446
 1424SOL    HW1 5171   5.677   4.853   4.390
 1424SOL    HW2 5172   5.623   4.728   4.480
 1425SOL     OW 5173   1.515   6.140   4.084
 1425SOL    HW1 5174   1.509   6.046   4.049
 1425SOL    HW2 5175   1.441   6.194   4.045
 1426SOL     OW 5176   1.265   2.780   5.474
 1426SOL    HW1 5177   1.279   2.867   5.522
 1426SOL    HW2 5178   1.169   2.753   5.483
 1427SOL     OW 5179   0.006   6.823   2.983
 1427SOL    HW1 5180   0.061   6.907   2.984
 1427SOL    HW2 5181   0.063   6.747   2.952
 1428SOL     OW 5182   5.457   2.469   0.883
 1428SOL    HW1 5183   5.387   2.490   0.814
 1428SOL    HW2 5184   5.423   2.395   0.942
 1429SOL     OW 5185   6.325   2.252   0.289
 1429SOL    HW1 5186   6.359   2.200   0.210
 1429SOL    HW2 5187   6.271   2.330   0.257
 1430SOL     OW 5188   1.374   3.991   4.250
 1430SOL    HW1 5189   1.314   4.060   4.290
 1430SOL    HW2 5190   1.468   4.005   4.282
 1431SOL     OW 5191   2.412   2.013   1.703
 1431SOL    HW1 5192   2.469   2.040   1.626
 1431SOL    HW2 5193   2.332   1.964   1.669
 1432SOL     OW 5194   2.624   1.643   4.011
 1432SOL    HW1 5195   2.634   1.658   4.109
 1432SOL    HW2 5196   2.529   1.661   3.984
 1433SOL     OW 5197   4.432   1.447   4.556
 1433SOL    HW1 5198   4.398   1.441   4.462
 1433SOL    HW2 5199   4.461   1.541   4.575
 1434SOL     OW 5200   7.002   1.054   5.413
 1434SOL    HW1 5201   0.055   1.010   5.465
 1434SOL    HW2 5202   7.000   1.152   5.435
 1435SOL     OW 5203   6.073   1.085   2.280
 1435SOL    HW1 5204   6.017   1.008   2.312
 1435SOL    HW2 5205   6.167   1.054   2.266
 1436SOL     OW 5206   4.979   3.908   6.709
 1436SOL    HW1 5207   5.066   3.873   6.675
 1436SOL    HW2 5208   4.973   3.891   6.808
 1437SOL     OW 5209   2.475   2.258   4.109
 1437SOL    HW1 5210   2.396   2.226   4.058
 1437SOL    HW2 5211   2.466   2.230   4.205
 1438SOL     OW 5212   3.507   6.322   1.188
 1438SOL    HW1 5213   3.584   6.380   1.163
 1438SOL    HW2 5214   3.524   6.283   1.279
 1439SOL     OW 5215   6.885   6.201   2.090
 1439SOL    HW1 5216   6.861   6.252   2.173
 1439SOL    HW2 5217   6.968   6.149   2.107
 1440SOL     OW 5218   3.300   3.886   1.631
 1440SOL    HW1 5219   3.388   3.840   1.643
 1440SOL    HW2 5220   3.226   3.821   1.645
 1441SOL     OW 5221   6.415   0.843   1.889
 1441SOL    HW1 5222   6.514   0.853   1.883
 1441SOL    HW2 5223   6.391   0.746   1.885
 1442SOL     OW 5224   6.427   6.215   6.952
 1442SOL    HW1 5225   6.409   6.157   6.873
 1442SOL    HW2 5226   6.454   6.306   6.921
 1443SOL     OW 5227   0.518   2.733   2.482
 1443SOL    HW1 5228   0.562   2.819   2.454
 1443SOL    HW2 5229   0.427   2.753   2.518
 1444SOL     OW 5230   4.916   0.078   0.823
 1444SOL    HW1 5231   4.981   0.136   0.773
 1444SOL    HW2 5232   4.938   0.081   0.921
 1445SOL     OW 5233   0.859   3.192   2.805
 1445SOL    HW1 5234   0.829   3.195   2.709
 1445SOL    HW2 5235   0.780   3.202   2.865
 1446SOL     OW 5236   6.559   0.426   6.963
 1446SOL    HW1 5237   6.587   0.330   6.962
 1446SOL    HW2 5238   6.632   0.481   7.005
 1447SOL     OW 5239   5.590   5.041   3.101
 1447SOL    HW1 5240   5.588   4.981   3.181
 1447SOL    HW2 5241   5.520   5.111   3.111
 1448SOL     OW 5242   6.974   2.936   4.459
 1448SOL    HW1 5243   6.917   2.878   4.517
 1448SOL    HW2 5244   0.022   2.983   4.516
 1449SOL     OW 5245   1.805   4.023   5.474
 1449SOL    HW1 5246   1.823   4.114   5.438
 1449SOL    HW2 5247   1.828   3.955   5.404
 1450SOL     OW 5248   0.690   2.541   6.212
 1450SOL    HW1 5249   0.677   2.447   6.244
 1450SOL    HW2 5250   0.753   2.588   6.274
 1451SOL     OW 5251   0.986   6.194   1.995
 1451SOL    HW1 5252   1.076   6.237   2.000
 1451SOL    HW2 5253   0.934   6.216   2.078
 1452SOL     OW 5254   4.500   2.386   5.680
 1452SOL    HW1 5255   4.415   2.395   5.731
 1452SOL    HW2 5256   4.484   2.337   5.595
 1453SOL     OW 5257   0.575   4.728   5.362
 1453SOL    HW1 5258   0.482   4.719   5.398
 1453SOL    HW2 5259   0.639   4.685   5.426
 1454SOL     OW 5260   2.314   1.951   3.136
 1454SOL    HW1 5261   2.349   2.034   3.092
 1454SOL    HW2 5262   2.382   1.878   3.129
 1455SOL     OW 5263   1.848   6.243   2.710
 1455SOL    HW1 5264   1.786   6.213   2.783
 1455SOL    HW2 5265   1.796   6.298   2.644
 1456SOL     OW 5266   6.822   6.239   6.483
 1456SOL    HW1 5267   6.812   6.146   6.518
 1456SOL    HW2 5268   6.846   6.236   6.386
 1457SOL     OW 5269   0.298   4.208   0.824
 1457SOL    HW1 5270   0.281   4.119   0.783
 1457SOL    HW2 5271   0.361   4.260   0.767
 1458SOL     OW 5272   5.545   4.741   5.591
 1458SOL    HW1 5273   5.506   4.770   5.679
 1458SOL    HW2 5274   5.637   4.703   5.607
 1459SOL     OW 5275   4.105   6.664   6.032
 1459SOL    HW1 5276   4.111   6.727   5.954
 1459SOL    HW2 5277   4.036   6.594   6.013
 1460SOL     OW 5278   1.536   6.575   4.847
 1460SOL    HW1 5279   1.485   6.585   4.932
 1460SOL    HW2 5280   1.551   6.665   4.806
 1461SOL     OW 5281   0.658   3.468   3.088
 1461SOL    HW1 5282   0.596   3.515   3.025
 1461SOL    HW2 5283   0.658   3.516   3.176
 1462SOL     OW 5284   0.734   0.944   6.703
 1462SOL    HW1 5285   0.800   0.874   6.730
 1462SOL    HW2 5286   0.715   1.004   6.780
 1463SOL     OW 5287   1.309   5.355   6.010
 1463SOL    HW1 5288   1.401   5.330   5.979
 1463SOL    HW2 5289   1.308   5.360   6.110
 1464SOL     OW 5290   6.525   3.875   3.234
 1464SOL    HW1 5291   6.512   3.879   3.135
 1464SOL    HW2 5292   6.518   3.780   3.265
 1465SOL     OW 5293   1.619   1.763   3.731
 1465SOL    HW1 5294   1.695   1.703   3.756
 1465SOL    HW2 5295   1.631   1.794   3.636
 1466SOL     OW 5296   3.667   2.441   1.692
 1466SOL    HW1 5297   3.708   2.388   1.618
 1466SOL    HW2 5298   3.652   2.382   1.771
 1467SOL     OW 5299   1.691   1.099   4.100
 1467SOL    HW1 5300   1.653   1.190   4.083
 1467SOL    HW2 5301   1.723   1.094   4.195
 1468SOL     OW 5302   1.808   5.419   1.529
 1468SOL    HW1 5303   1.774   5.444   1.439
 1468SOL    HW2 5304   1.856   5.331   1.523
 1469SOL     OW 5305   6.933   6.149   3.261
 1469SOL    HW1 5306   6.933   6.248   3.278
 1469SOL    HW2 5307   6.945   6.132   3.163
 1470SOL     OW 5308   6.718   3.077   1.219
 1470SOL    HW1 5309   6.659   3.155   1.243
 1470SOL    HW2 5310   6.811   3.095   1.251
 1471SOL     OW 5311   0.507   0.392   0.544
 1471SOL    HW1 5312   0.584   0.334   0.518
 1471SOL    HW2 5313   0.512   0.478   0.494
 1472SOL     OW 5314   2.454   6.330   6.568
 1472SOL    HW1 5315   2.401   6.387   6.506
 1472SOL    HW2 5316   2.492   6.386   6.642
 1473SOL     OW 5317   3.300   5.175   4.706
 1473SOL    HW1 5318   3.253   5.166   4.794
 1473SOL    HW2 5319   3.269   5.258   4.660
 1474SOL     OW 5320   4.105   5.096   1.692
 1474SOL    HW1 5321   4.177   5.134   1.633
 1474SOL    HW2 5322   4.097   5.153   1.774
 1475SOL     OW 5323   5.196   1.630   0.293
 1475SOL    HW1 5324   5.140   1.554   0.325
 1475SOL    HW2 5325   5.137   1.705   0.263
 1476SOL     OW 5326   3.211   1.219   1.455
 1476SOL    HW1 5327   3.198   1.309   1.496
 1476SOL    HW2 5328   3.171   1.218   1.363
 1477SOL     OW 5329   4.421   0.003   0.230
 1477SOL    HW1 5330   4.368   6.939   0.246
 1477SOL    HW2 5331   4.383   0.076   0.287
 1478SOL     OW 5332   5.671   6.432   5.478
 1478SOL    HW1 5333   5.573   6.413   5.473
 1478SOL    HW2 5334   5.691   6.518   5.431
 1479SOL     OW 5335   3.511   3.670   2.430
 1479SOL    HW1 5336   3.539   3.668   2.526
 1479SOL    HW2 5337   3.494   3.764   2.402
 1480SOL     OW 5338   2.323   0.278   6.401
 1480SOL    HW1 5339   2.247   0.307   6.344
 1480SOL    HW2 5340   2.311   0.182   6.426
 1481SOL     OW 5341   5.724   2.283   5.572
 1481SOL    HW1 5342   5.644   2.224   5.583
 1481SOL    HW2 5343   5.750   2.286   5.476
 1482SOL     OW 5344   4.205   0.350   0.932
 1482SOL    HW1 5345   4.244   0.423   0.988
 1482SOL    HW2 5346   4.124   0.312   0.978
 1483SOL     OW 5347   4.835   1.845   5.565
 1483SOL    HW1 5348   4.907   1.894   5.516
 1483SOL    HW2 5349   4.752   1.841   5.509
 1484SOL     OW 5350   3.347   5.017   4.292
 1484SOL    HW1 5351   3.426   4.992   4.349
 1484SOL    HW2 5352   3.264   5.016   4.347
 1485SOL     OW 5353   5.194   0.976   3.579
 1485SOL    HW1 5354   5.284   0.965   3.537
 1485SOL    HW2 5355   5.138   1.035   3.521
 1486SOL     OW 5356   4.595   6.490   3.628
 1486SOL    HW1 5357   4.647   6.517   3.546
 1486SOL    HW2 5358   4.519   6.554   3.642
 1487SOL     OW 5359   0.155   0.760   0.115
 1487SOL    HW1 5360   0.254   0.771   0.124
 1487SOL    HW2 5361   0.113   0.849   0.096
 1488SOL     OW 5362   6.018   0.601   2.315
 1488SOL    HW1 5363   6.037   0.593   2.413
 1488SOL    HW2 5364   5.921   0.585   2.298
 1489SOL     OW 5365   3.629   4.644   6.684
 1489SOL    HW1 5366   3.708   4.662   6.625
 1489SOL    HW2 5367   3.660   4.604   6.770
 1490SOL     OW 5368   0.265   2.731   1.723
 1490SOL    HW1 5369   0.254   2.755   1.820
 1490SOL    HW2 5370   0.269   2.632   1.714
 1491SOL     OW 5371   6.285   3.829   2.210
 1491SOL    HW1 5372   6.380   3.805   2.188
 1491SOL    HW2 5373   6.282   3.876   2.298
 1492SOL     OW 5374   6.480   0.495   2.477
 1492SOL    HW1 5375   6.391   0.451   2.486
 1492SOL    HW2 5376   6.483   0.546   2.391
 1493SOL     OW 5377   4.363   1.130   6.056
 1493SOL    HW1 5378   4.424   1.130   5.976
 1493SOL    HW2 5379   4.339   1.224   6.079
 1494SOL     OW 5380   5.517   2.333   6.447
 1494SOL    HW1 5381   5.610   2.319   6.483
 1494SOL    HW2 5382   5.476   2.413   6.491
 1495SOL     OW 5383   6.217   3.659   3.579
 1495SOL    HW1 5384   6.174   3.647   3.490
 1495SOL    HW2 5385   6.260   3.573   3.607
 1496SOL     OW 5386   6.855   6.985   7.006
 1496SOL    HW1 5387   6.902   6.913   0.037
 1496SOL    HW2 5388   6.923   0.019   6.956
 1497SOL     OW 5389   5.283   2.620   2.698
 1497SOL    HW1 5390   5.284   2.559   2.778
 1497SOL    HW2 5391   5.296   2.714   2.728
 1498SOL     OW 5392   2.761   4.477   1.242
 1498SOL    HW1 5393   2.744   4.575   1.253
 1498SOL    HW2 5394   2.701   4.427   1.304
 1499SOL     OW 5395   0.651   3.657   5.591
 1499SOL    HW1 5396   0.603   3.599   5.525
 1499SOL    HW2 5397   0.597   3.664   5.674
 1500SOL     OW 5398   1.059   5.953   6.990
 1500SOL    HW1 5399   1.011   6.040   6.991
 1500SOL    HW2 5400   1.148   5.963   0.013
 1501SOL     OW 5401   6.259   1.646   6.681
 1501SOL    HW1 5402   6.345   1.609   6.648
 1501SOL    HW2 5403   6.252   1.631   6.780
 1502SOL     OW 5404   6.327   1.433   6.036
 1502SOL    HW1 5405   6.372   1.424   6.125
 1502SOL    HW2 5406   6.336   1.348   5.985
 1503SOL     OW 5407   0.723   3.075   2.537
 1503SOL    HW1 5408   0.691   3.008   2.604
 1503SOL    HW2 5409   0.802   3.038   2.488
 1504SOL     OW 5410   0.599   0.262   3.807
 1504SOL    HW1 5411   0.627   0.187   3.746
 1504SOL    HW2 5412   0.500   0.261   3.817
 1505SOL     OW 5413   5.871   6.180   5.822
 1505SOL    HW1 5414   5.838   6.086   5.818
 1505SOL    HW2 5415   5.967   6.181   5.848
 1506SOL     OW 5416   1.046   0.417   1.112
 1506SOL    HW1 5417   1.113   0.449   1.180
 1506SOL    HW2 5418   1.094   0.387   1.030
 1507SOL     OW 5419   1.307   1.579   4.584
 1507SOL    HW1 5420   1.371   1.617   4.651
 1507SOL    HW2 5421   1.349   1.579   4.494
 1508SOL     OW 5422   0.734   1.476   0.738
 1508SOL    HW1 5423   0.755   1.485   0.836
 1508SOL    HW2 5424   0.816   1.493   0.685
 1509SOL     OW 5425   5.209   1.281   5.088
 1509SOL    HW1 5426   5.262   1.285   5.003
 1509SOL    HW2 5427   5.260   1.228   5.156
 1510SOL     OW 5428   4.148   6.606   3.884
 1510SOL    HW1 5429   4.228   6.590   3.943
 1510SOL    HW2 5430   4.105   6.518   3.863
 1511SOL     OW 5431   3.037   3.788   4.241
 1511SOL    HW1 5432   3.106   3.776   4.170
 1511SOL    HW2 5433   3.075   3.843   4.316
 1512SOL     OW 5434   5.847   5.911   1.099
 1512SOL    HW1 5435   5.911   5.835   1.093
 1512SOL    HW2 5436   5.883   5.979   1.163
 1513SOL     OW 5437   3.466   6.796   5.431
 1513SOL    HW1 5438   3.405   6.875   5.442
 1513SOL    HW2 5439   3.482   6.755   5.521
 1514SOL     OW 5440   3.311   2.375   5.608
 1514SOL    HW1 5441   3.253   2.457   5.611
 1514SOL    HW2 5442   3.371   2.374   5.688
 1515SOL     OW 5443   6.512   2.079   2.665
 1515SOL    HW1 5444   6.597   2.084   2.613
 1515SOL    HW2 5445   6.436   2.060   2.603
 1516SOL     OW 5446   5.595   5.540   4.943
 1516SOL    HW1 5447   5.694   5.538   4.958
 1516SOL    HW2 5448   5.576   5.540   4.845
 1517SOL     OW 5449   3.784   6.508   3.554
 1517SOL    HW1 5450   3.869   6.548   3.587
 1517SOL    HW2 5451   3.783   6.410   3.573
 1518SOL     OW 5452   6.180   2.835   0.214
 1518SOL    HW1 5453   6.230   2.808   0.296
 1518SOL    HW2 5454   6.208   2.927   0.187
 1519SOL     OW 5455   7.018   5.189   0.873
 1519SOL    HW1 5456   0.022   5.125   0.800
 1519SOL    HW2 5457   7.004   5.139   0.958
 1520SOL     OW 5458   0.784   4.758   1.399
 1520SOL    HW1 5459   0.782   4.850   1.359
 1520SOL    HW2 5460   0.692   4.719   1.398
 1521SOL     OW 5461   2.651   4.607   0.319
 1521SOL    HW1 5462   2.607   4.521   0.342
 1521SOL    HW2 5463   2.740   4.613   0.365
 1522SOL     OW 5464   5.339   5.705   5.023
 1522SOL    HW1 5465   5.365   5.796   5.056
 1522SOL    HW2 5466   5.421   5.651   5.007
 1523SOL     OW 5467   3.677   6.930   6.634
 1523SOL    HW1 5468   3.640   6.844   6.598
 1523SOL    HW2 5469   3.776   6.934   6.617
 1524SOL     OW 5470   2.602   2.439   2.785
 1524SOL    HW1 5471   2.664   2.411   2.858
 1524SOL    HW2 5472   2.649   2.501   2.722
 1525SOL     OW 5473   5.720   2.891   1.040
 1525SOL    HW1 5474   5.791   2.906   0.971
 1525SOL    HW2 5475   5.759   2.845   1.119
 1526SOL     OW 5476   0.638   1.520   0.267
 1526SOL    HW1 5477   0.717   1.555   0.216
 1526SOL    HW2 5478   0.566   1.589   0.270
 1527SOL     OW 5479   3.651   1.067   4.758
 1527SOL    HW1 5480   3.678   0.994   4.697
 1527SOL    HW2 5481   3.732   1.104   4.804
 1528SOL     OW 5482   4.495   4.866   1.199
 1528SOL    HW1 5483   4.590   4.843   1.176
 1528SOL    HW2 5484   4.491   4.899   1.293
 1529SOL     OW 5485   5.456   1.391   7.019
 1529SOL    HW1 5486   5.359   1.397   6.993
 1529SOL    HW2 5487   5.462   1.380   0.099
 1530SOL     OW 5488   3.414   0.529   1.785
 1530SOL    HW1 5489   3.406   0.580   1.699
 1530SOL    HW2 5490   3.413   0.593   1.862
 1531SOL     OW 5491   4.271   0.183   4.221
 1531SOL    HW1 5492   4.237   0.089   4.228
 1531SOL    HW2 5493   4.315   0.209   4.307
 1532SOL     OW 5494   3.465   4.871   5.975
 1532SOL    HW1 5495   3.520   4.815   6.037
 1532SOL    HW2 5496   3.429   4.814   5.901
 1533SOL     OW 5497   6.033   5.701   0.704
 1533SOL    HW1 5498   5.975   5.695   0.624
 1533SOL    HW2 5499   6.001   5.775   0.763
 1534SOL     OW 5500   3.762   5.835   0.135
 1534SOL    HW1 5501   3.828   5.821   0.208
 1534SOL    HW2 5502   3.681   5.780   0.152
 1535SOL     OW 5503   5.845   6.097   4.688
 1535SOL    HW1 5504   5.925   6.042   4.709
 1535SOL    HW2 5505   5.811   6.074   4.597
 1536SOL     OW 5506   4.375   4.727   0.420
 1536SOL    HW1 5507   4.357   4.652   0.484
 1536SOL    HW2 5508   4.292   4.780   0.406
 1537SOL     OW 5509   3.623   5.499   3.702
 1537SOL    HW1 5510   3.628   5.550   3.788
 1537SOL    HW2 5511   3.539   5.523   3.654
 1538SOL     OW 5512   3.586   1.082   6.973
 1538SOL    HW1 5513   3.582   1.154   0.022
 1538SOL    HW2 5514   3.590   0.993   7.018
 1539SOL     OW 5515   4.953   3.212   2.035
 1539SOL    HW1 5516   4.882   3.141   2.038
 1539SOL    HW2 5517   5.043   3.169   2.045
 1540SOL     OW 5518   1.588   6.990   5.304
 1540SOL    HW1 5519   1.637   0.053   5.277
 1540SOL    HW2 5520   1.642   6.910   5.280
 1541SOL     OW 5521   3.830   3.374   4.673
 1541SOL    HW1 5522   3.855   3.294   4.620
 1541SOL    HW2 5523   3.867   3.366   4.765
 1542SOL     OW 5524   6.635   6.663   2.000
 1542SOL    HW1 5525   6.583   6.740   2.038
 1542SOL    HW2 5526   6.577   6.613   1.936
 1543SOL     OW 5527   3.497   5.661   6.553
 1543SOL    HW1 5528   3.486   5.758   6.574
 1543SOL    HW2 5529   3.571   5.650   6.486
 1544SOL     OW 5530   3.507   3.794   3.930
 1544SOL    HW1 5531   3.572   3.729   3.969
 1544SOL    HW2 5532   3.543   3.887   3.940
 1545SOL     OW 5533   6.334   0.587   1.838
 1545SOL    HW1 5534   6.347   0.565   1.741
 1545SOL    HW2 5535   6.239   0.572   1.864
 1546SOL     OW 5536   4.819   6.036   6.211
 1546SOL    HW1 5537   4.822   5.975   6.132
 1546SOL    HW2 5538   4.890   6.010   6.276
 1547SOL     OW 5539   1.615   4.065   0.920
 1547SOL    HW1 5540   1.556   4.062   0.840
 1547SOL    HW2 5541   1.573   4.122   0.991
 1548SOL     OW 5542   6.538   3.744   0.277
 1548SOL    HW1 5543   6.533   3.717   0.180
 1548SOL    HW2 5544   6.446   3.746   0.316
 1549SOL     OW 5545   4.260   1.421   3.968
 1549SOL    HW1 5546   4.261   1.475   3.884
 1549SOL    HW2 5547   4.307   1.472   4.041
 1550SOL     OW 5548   3.483   2.938   1.993
 1550SOL    HW1 5549   3.558   2.874   1.974
 1550SOL    HW2 5550   3.411   2.891   2.044
 1551SOL     OW 5551   1.139   5.128   6.833
 1551SOL    HW1 5552   1.113   5.218   6.798
 1551SOL    HW2 5553   1.097   5.057   6.777
 1552SOL     OW 5554   2.677   4.528   0.948
 1552SOL    HW1 5555   2.622   4.611   0.954
 1552SOL    HW2 5556   2.757   4.536   1.007
 1553SOL     OW 5557   0.094   1.260   6.045
 1553SOL    HW1 5558   0.073   1.200   6.123
 1553SOL    HW2 5559   0.010   1.303   6.012
 1554SOL     OW 5560   2.907   2.072   3.835
 1554SOL    HW1 5561   2.891   1.973   3.837
 1554SOL    HW2 5562   2.986   2.094   3.893
 1555SOL     OW 5563   5.728   2.841   6.500
 1555SOL    HW1 5564   5.694   2.859   6.593
 1555SOL    HW2 5565   5.665   2.881   6.434
 1556SOL     OW 5566   1.882   0.849   5.885
 1556SOL    HW1 5567   1.942   0.914   5.931
 1556SOL    HW2 5568   1.788   0.883   5.887
 1557SOL     OW 5569   1.682   4.163   6.237
 1557SOL    HW1 5570   1.737   4.151   6.154
 1557SOL    HW2 5571   1.588   4.185   6.212
 1558SOL     OW 5572   6.102   0.374   4.542
 1558SOL    HW1 5573   6.068   0.291   4.496
 1558SOL    HW2 5574   6.202   0.369   4.549
 1559SOL     OW 5575   1.022   3.158   6.575
 1559SOL    HW1 5576   1.084   3.194   6.505
 1559SOL    HW2 5577   0.993   3.066   6.549
 1560SOL     OW 5578   0.267   1.257   6.985
 1560SOL    HW1 5579   0.349   1.264   0.021
 1560SOL    HW2 5580   0.240   1.348   6.954
 1561SOL     OW 5581   4.545   6.210   3.313
 1561SOL    HW1 5582   4.546   6.227   3.412
 1561SOL    HW2 5583   4.530   6.112   3.296
 1562SOL     OW 5584   4.729   6.189   2.122
 1562SOL    HW1 5585   4.689   6.245   2.051
 1562SOL    HW2 5586   4.805   6.238   2.165
 1563SOL     OW 5587   3.454   0.686   5.984
 1563SOL    HW1 5588   3.510   0.765   5.960
 1563SOL    HW2 5589   3.484   0.648   6.071
 1564SOL     OW 5590   1.564   0.391   2.987
 1564SOL    HW1 5591   1.528   0.374   2.895
 1564SOL    HW2 5592   1.545   0.312   3.045
 1565SOL     OW 5593   4.695   4.257   2.469
 1565SOL    HW1 5594   4.701   4.350   2.503
 1565SOL    HW2 5595   4.675   4.259   2.371
 1566SOL     OW 5596   5.563   3.406   3.393
 1566SOL    HW1 5597   5.628   3.427   3.466
 1566SOL    HW2 5598   5.608   3.418   3.304
 1567SOL     OW 5599   6.054   6.153   0.019
 1567SOL    HW1 5600   5.999   6.224   0.062
 1567SOL    HW2 5601   6.139   6.140   0.071
 1568SOL     OW 5602   1.996   0.444   0.456
 1568SOL    HW1 5603   1.907   0.399   0.449
 1568SOL    HW2 5604   2.066   0.388   0.411
 1569SOL     OW 5605   4.365   5.922   3.855
 1569SOL    HW1 5606   4.311   6.004   3.836
 1569SOL    HW2 5607   4.319   5.867   3.924
 1570SOL     OW 5608   2.845   1.180   1.608
 1570SOL    HW1 5609   2.824   1.249   1.539
 1570SOL    HW2 5610   2.904   1.109   1.568
 1571SOL     OW 5611   6.238   3.156   1.089
 1571SOL    HW1 5612   6.206   3.216   1.016
 1571SOL    HW2 5613   6.317   3.198   1.134
 1572SOL     OW 5614   6.838   0.487   2.706
 1572SOL    HW1 5615   6.928   0.483   2.749
 1572SOL    HW2 5616   6.768   0.457   2.770
 1573SOL     OW 5617   5.117   6.876   1.697
 1573SOL    HW1 5618   5.213   6.850   1.697
 1573SOL    HW2 5619   5.095   6.920   1.610
 1574SOL     OW 5620   0.380   2.134   1.136
 1574SOL    HW1 5621   0.363   2.048   1.184
 1574SOL    HW2 5622   0.333   2.133   1.048
 1575SOL     OW 5623   2.938   2.212   0.333
 1575SOL    HW1 5624   2.843   2.188   0.352
 1575SOL    HW2 5625   2.969   2.279   0.401
 1576SOL     OW 5626   5.538   6.030   3.922
 1576SOL    HW1 5627   5.533   5.936   3.957
 1576SOL    HW2 5628   5.545   6.028   3.822
 1577SOL     OW 5629   2.475   1.684   5.437
 1577SOL    HW1 5630   2.549   1.634   5.394
 1577SOL    HW2 5631   2.428   1.625   5.502
 1578SOL     OW 5632   5.594   3.244   5.098
 1578SOL    HW1 5633   5.553   3.334   5.085
 1578SOL    HW2 5634   5.667   3.250   5.166
 1579SOL     OW 5635   0.082   1.257   3.433
 1579SOL    HW1 5636   0.064   1.324   3.361
 1579SOL    HW2 5637   0.124   1.302   3.511
 1580SOL     OW 5638   2.688   4.154   5.447
 1580SOL    HW1 5639   2.671   4.071   5.501
 1580SOL    HW2 5640   2.785   4.161   5.426
 1581SOL     OW 5641   5.985   4.356   4.178
 1581SOL    HW1 5642   6.039   4.424   4.129
 1581SOL    HW2 5643   5.931   4.401   4.249
 1582SOL     OW 5644   0.923   5.012   4.591
 1582SOL    HW1 5645   0.927   5.010   4.491
 1582SOL    HW2 5646   0.899   4.922   4.626
 1583SOL     OW 5647   2.202   3.225   3.740
 1583SOL    HW1 5648   2.174   3.144   3.688
 1583SOL    HW2 5649   2.216   3.199   3.835
 1584SOL     OW 5650   2.383   6.506   5.280
 1584SOL    HW1 5651   2.352   6.490   5.374
 1584SOL    HW2 5652   2.341   6.439   5.219
 1585SOL     OW 5653   5.393   2.321   3.183
 1585SOL    HW1 5654   5.305   2.308   3.138
 1585SOL    HW2 5655   5.401   2.416   3.214
 1586SOL     OW 5656   4.005   3.892   2.040
 1586SOL    HW1 5657   4.082   3.898   1.977
 1586SOL    HW2 5658   3.920   3.909   1.990
 1587SOL     OW 5659   2.666   5.981   6.744
 1587SOL    HW1 5660   2.710   5.894   6.725
 1587SOL    HW2 5661   2.735   6.048   6.773
 1588SOL     OW 5662   5.001   1.368   3.006
 1588SOL    HW1 5663   5.042   1.284   2.969
 1588SOL    HW2 5664   4.940   1.344   3.082
 1589SOL     OW 5665   5.482   4.095   3.422
 1589SOL    HW1 5666   5.580   4.115   3.419
 1589SOL    HW2 5667   5.433   4.161   3.364
 1590SOL     OW 5668   1.781   6.547   6.786
 1590SOL    HW1 5669   1.839   6.628   6.785
 1590SOL    HW2 5670   1.837   6.465   6.771
 1591SOL     OW 5671   1.289   4.776   2.475
 1591SOL    HW1 5672   1.261   4.695   2.423
 1591SOL    HW2 5673   1.377   4.809   2.441
 1592SOL     OW 5674   3.499   3.011   1.725
 1592SOL    HW1 5675   3.479   2.986   1.820
 1592SOL    HW2 5676   3.455   2.947   1.663
 1593SOL     OW 5677   0.705   6.256   5.006
 1593SOL    HW1 5678   0.696   6.296   4.915
 1593SOL    HW2 5679   0.615   6.253   5.049
 1594SOL     OW 5680   0.024   5.453   3.114
 1594SOL    HW1 5681   6.995   5.488   3.034
 1594SOL    HW2 5682   0.030   5.353   3.108
 1595SOL     OW 5683   0.325   4.881   6.883
 1595SOL    HW1 5684   0.227   4.865   6.887
 1595SOL    HW2 5685   0.349   4.929   6.799
 1596SOL     OW 5686   1.805   4.285   5.408
 1596SOL    HW1 5687   1.793   4.296   5.309
 1596SOL    HW2 5688   1.878   4.346   5.440
 1597SOL     OW 5689   2.107   6.278   1.489
 1597SOL    HW1 5690   2.190   6.308   1.441
 1597SOL    HW2 5691   2.067   6.356   1.538
 1598SOL     OW 5692   0.886   4.273   0.391
 1598SOL    HW1 5693   0.923   4.189   0.431
 1598SOL    HW2 5694   0.826   4.250   0.314
 1599SOL     OW 5695   3.957   4.296   6.758
 1599SOL    HW1 5696   3.921   4.246   6.679
 1599SOL    HW2 5697   3.957   4.236   6.838
 1600SOL     OW 5698   5.363   1.723   5.133
 1600SOL    HW1 5699   5.352   1.783   5.054
 1600SOL    HW2 5700   5.286   1.658   5.136
 1601SOL     OW 5701   1.927   4.589   4.332
 1601SOL    HW1 5702   1.838   4.573   4.375
 1601SOL    HW2 5703   1.991   4.517   4.360
 1602SOL     OW 5704   1.221   6.095   3.052
 1602SOL    HW1 5705   1.309   6.051   3.068
 1602SOL    HW2 5706   1.153   6.026   3.029
 1603SOL     OW 5707   1.231   6.686   1.978
 1603SOL    HW1 5708   1.213   6.636   1.894
 1603SOL    HW2 5709   1.158   6.752   1.994
 1604SOL     OW 5710   6.007   5.354   6.745
 1604SOL    HW1 5711   6.085   5.355   6.807
 1604SOL    HW2 5712   6.026   5.291   6.669
 1605SOL     OW 5713   6.542   0.479   2.894
 1605SOL    HW1 5714   6.539   0.385   2.862
 1605SOL    HW2 5715   6.484   0.536   2.836
 1606SOL     OW 5716   4.728   6.818   5.800
 1606SOL    HW1 5717   4.723   6.917   5.816
 1606SOL    HW2 5718   4.811   6.797   5.748
 1607SOL     OW 5719   4.195   2.398   0.721
 1607SOL    HW1 5720   4.119   2.377   0.782
 1607SOL    HW2 5721   4.278   2.354   0.756
 1608SOL     OW 5722   1.947   6.748   6.834
 1608SOL    HW1 5723   2.022   6.720   6.774
 1608SOL    HW2 5724   1.946   6.848   6.841
 1609SOL     OW 5725   6.299   2.382   6.115
 1609SOL    HW1 5726   6.388   2.336   6.112
 1609SOL    HW2 5727   6.231   2.320   6.154
 1610SOL     OW 5728   5.331   4.875   4.925
 1610SOL    HW1 5729   5.391   4.819   4.982
 1610SOL    HW2 5730   5.238   4.838   4.928
 1611SOL     OW 5731   3.759   2.925   2.253
 1611SOL    HW1 5732   3.787   2.853   2.189
 1611SOL    HW2 5733   3.675   2.968   2.220
 1612SOL     OW 5734   2.262   2.006   5.133
 1612SOL    HW1 5735   2.282   2.102   5.116
 1612SOL    HW2 5736   2.275   1.986   5.231
 1613SOL     OW 5737   1.824   6.132   0.650
 1613SOL    HW1 5738   1.922   6.122   0.632
 1613SOL    HW2 5739   1.795   6.064   0.717
 1614SOL     OW 5740   6.316   2.792   6.960
 1614SOL    HW1 5741   6.292   2.857   6.888
 1614SOL    HW2 5742   6.256   2.805   0.018
 1615SOL     OW 5743   0.099   4.558   6.502
 1615SOL    HW1 5744   0.044   4.639   6.521
 1615SOL    HW2 5745   0.039   4.479   6.488
 1616SOL     OW 5746   4.597   2.247   6.622
 1616SOL    HW1 5747   4.618   2.203   6.709
 1616SOL    HW2 5748   4.499   2.239   6.603
 1617SOL     OW 5749   6.122   1.127   2.644
 1617SOL    HW1 5750   6.194   1.057   2.646
 1617SOL    HW2 5751   6.146   1.197   2.577
 1618SOL     OW 5752   6.962   3.529   1.610
 1618SOL    HW1 5753   6.965   3.529   1.510
 1618SOL    HW2 5754   0.028   3.567   1.645
 1619SOL     OW 5755   0.749   3.616   3.992
 1619SOL    HW1 5756   0.794   3.704   3.976
 1619SOL    HW2 5757   0.665   3.611   3.938
 1620SOL     OW 5758   1.889   6.189   1.371
 1620SOL    HW1 5759   1.860   6.098   1.403
 1620SOL    HW2 5760   1.970   6.218   1.422
 1621SOL     OW 5761   0.725   0.499   6.953
 1621SOL    HW1 5762   0.700   0.470   0.025
 1621SOL    HW2 5763   0.644   0.530   6.904
 1622SOL     OW 5764   1.771   2.018   4.338
 1622SOL    HW1 5765   1.682   2.025   4.293
 1622SOL    HW2 5766   1.783   2.096   4.399
 1623SOL     OW 5767   2.286   3.089   6.505
 1623SOL    HW1 5768   2.362   3.118   6.447
 1623SOL    HW2 5769   2.277   3.151   6.582
 1624SOL     OW 5770   3.205   0.933   6.532
 1624SOL    HW1 5771   3.110   0.964   6.533
 1624SOL    HW2 5772   3.211   0.848   6.480
 1625SOL     OW 5773   0.475   4.522   2.126
 1625SOL    HW1 5774   0.383   4.501   2.093
 1625SOL    HW2 5775   0.471   4.607   2.180
 1626SOL     OW 5776   2.554   2.887   6.818
 1626SOL    HW1 5777   2.587   2.921   6.906
 1626SOL    HW2 5778   2.626   2.896   6.750
 1627SOL     OW 5779   6.215   2.216   3.751
 1627SOL    HW1 5780   6.177   2.157   3.679
 1627SOL    HW2 5781   6.175   2.308   3.743
 1628SOL     OW 5782   3.221   5.033   1.090
 1628SOL    HW1 5783   3.125   5.040   1.116
 1628SOL    HW2 5784   3.245   4.938   1.073
 1629SOL     OW 5785   3.101   2.154   4.507
 1629SOL    HW1 5786   3.028   2.153   4.439
 1629SOL    HW2 5787   3.190   2.163   4.462
 1630SOL     OW 5788   0.602   5.220   5.313
 1630SOL    HW1 5789   0.567   5.140   5.265
 1630SOL    HW2 5790   0.528   5.284   5.330
 1631SOL     OW 5791   7.016   0.539   5.741
 1631SOL    HW1 5792   6.957   0.496   5.673
 1631SOL    HW2 5793   6.993   0.504   5.832
 1632SOL     OW 5794   0.670   1.103   6.930
 1632SOL    HW1 5795   0.665   1.076   0.006
 1632SOL    HW2 5796   0.754   1.156   6.915
 1633SOL     OW 5797   5.421   1.983   2.934
 1633SOL    HW1 5798   5.483   1.930   2.876
 1633SOL    HW2 5799   5.422   1.945   3.027
 1634SOL     OW 5800   3.248   5.591   6.659
 1634SOL    HW1 5801   3.239   5.494   6.682
 1634SOL    HW2 5802   3.341   5.609   6.626
 1635SOL     OW 5803   0.056   5.479   4.166
 1635SOL    HW1 5804   0.101   5.406   4.218
 1635SOL    HW2 5805   0.044   5.559   4.225
 1636SOL     OW 5806   2.656   5.150   1.193
 1636SOL    HW1 5807   2.630   5.086   1.266
 1636SOL    HW2 5808   2.611   5.123   1.108
 1637SOL     OW 5809   0.061   2.932   2.500
 1637SOL    HW1 5810   0.044   2.951   2.597
 1637SOL    HW2 5811   0.008   2.853   2.472
 1638SOL     OW 5812   0.330   3.371   3.725
 1638SOL    HW1 5813   0.412   3.411   3.768
 1638SOL    HW2 5814   0.267   3.343   3.797
 1639SOL     OW 5815   5.330   5.504   2.685
 1639SOL    HW1 5816   5.405   5.559   2.722
 1639SOL    HW2 5817   5.312   5.427   2.747
 1640SOL     OW 5818   6.044   1.923   0.588
 1640SOL    HW1 5819   6.083   1.970   0.667
 1640SOL    HW2 5820   6.048   1.983   0.508
 1641SOL     OW 5821   5.666   2.952   3.791
 1641SOL    HW1 5822   5.747   2.912   3.750
 1641SOL    HW2 5823   5.624   2.887   3.854
 1642SOL     OW 5824   6.564   2.913   0.062
 1642SOL    HW1 5825   6.629   2.848   0.101
 1642SOL    HW2 5826   6.485   2.863   0.027
 1643SOL     OW 5827   3.681   6.439   5.098
 1643SOL    HW1 5828   3.742   6.459   5.021
 1643SOL    HW2 5829   3.602   6.500   5.095
 1644SOL     OW 5830   3.612   1.625   1.360
 1644SOL    HW1 5831   3.651   1.676   1.437
 1644SOL    HW2 5832   3.642   1.666   1.274
 1645SOL     OW 5833   2.914   6.001   5.871
 1645SOL    HW1 5834   2.835   6.051   5.836
 1645SOL    HW2 5835   2.883   5.927   5.931
 1646SOL     OW 5836   2.058   4.938   1.134
 1646SOL    HW1 5837   2.039   5.028   1.096
 1646SOL    HW2 5838   2.156   4.930   1.154
 1647SOL     OW 5839   5.702   2.654   3.309
 1647SOL    HW1 5840   5.794   2.658   3.270
 1647SOL    HW2 5841   5.669   2.747   3.325
 1648SOL     OW 5842   5.396   6.860   1.705
 1648SOL    HW1 5843   5.399   6.864   1.805
 1648SOL    HW2 5844   5.449   6.936   1.667
 1649SOL     OW 5845   3.170   0.610   2.973
 1649SOL    HW1 5846   3.182   0.697   2.924
 1649SOL    HW2 5847   3.248   0.551   2.957
 1650SOL     OW 5848   3.094   0.453   4.262
 1650SOL    HW1 5849   3.110   0.416   4.353
 1650SOL    HW2 5850   3.030   0.529   4.268
 1651SOL     OW 5851   0.024   0.423   0.346
 1651SOL    HW1 5852   6.986   0.385   0.417
 1651SOL    HW2 5853   0.087   0.490   0.387
 1652SOL     OW 5854   3.037   2.331   0.724
 1652SOL    HW1 5855   3.021   2.251   0.781
 1652SOL    HW2 5856   3.134   2.334   0.697
 1653SOL     OW 5857   6.953   5.462   0.837
 1653SOL    HW1 5858   6.970   5.364   0.841
 1653SOL    HW2 5859   6.869   5.480   0.786
 1654SOL     OW 5860   6.923   3.072   3.195
 1654SOL    HW1 5861   6.878   3.117   3.117
 1654SOL    HW2 5862   6.857   3.062   3.269
 1655SOL     OW 5863   5.760   4.445   6.069
 1655SOL    HW1 5864   5.689   4.491   6.015
 1655SOL    HW2 5865   5.793   4.506   6.140
 1656SOL     OW 5866   0.864   4.599   3.711
 1656SOL    HW1 5867   0.772   4.602   3.749
 1656SOL    HW2 5868   0.874   4.670   3.641
 1657SOL     OW 5869   1.622   1.004   5.627
 1657SOL    HW1 5870   1.636   1.032   5.532
 1657SOL    HW2 5871   1.704   0.959   5.661
 1658SOL     OW 5872   5.954   6.264   3.096
 1658SOL    HW1 5873   6.054   6.267   3.089
 1658SOL    HW2 5874   5.924   6.170   3.112
 1659SOL     OW 5875   3.625   1.970   6.833
 1659SOL    HW1 5876   3.665   1.880   6.852
 1659SOL    HW2 5877   3.604   1.977   6.736
 1660SOL     OW 5878   0.710   5.589   3.514
 1660SOL    HW1 5879   0.743   5.684   3.516
 1660SOL    HW2 5880   0.717   5.550   3.605
 1661SOL     OW 5881   3.454   1.686   2.877
 1661SOL    HW1 5882   3.384   1.636   2.927
 1661SOL    HW2 5883   3.425   1.781   2.865
 1662SOL     OW 5884   6.491   2.281   3.106
 1662SOL    HW1 5885   6.521   2.306   3.014
 1662SOL    HW2 5886   6.498   2.360   3.166
 1663SOL     OW 5887   3.011   6.764   3.283
 1663SOL    HW1 5888   3.024   6.665   3.279
 1663SOL    HW2 5889   3.014   6.794   3.379
 1664SOL     OW 5890   1.540   0.248   4.362
 1664SOL    HW1 5891   1.547   0.331   4.307
 1664SOL    HW2 5892   1.524   0.271   4.457
 1665SOL     OW 5893   1.166   1.468   2.400
 1665SOL    HW1 5894   1.233   1.542   2.407
 1665SOL    HW2 5895   1.163   1.417   2.486
 1666SOL     OW 5896   5.983   2.171   6.024
 1666SOL    HW1 5897   5.902   2.216   5.984
 1666SOL    HW2 5898   6.012   2.222   6.105
 1667SOL     OW 5899   6.271   6.618   6.758
 1667SOL    HW1 5900   6.228   6.701   6.723
 1667SOL    HW2 5901   6.295   6.558   6.682
 1668SOL     OW 5902   4.720   0.280   4.525
 1668SOL    HW1 5903   4.764   0.218   4.460
 1668SOL    HW2 5904   4.651   0.230   4.577
 1669SOL     OW 5905   5.846   6.597   6.755
 1669SOL    HW1 5906   5.930   6.601   6.810
 1669SOL    HW2 5907   5.838   6.507   6.713
 1670SOL     OW 5908   6.231   4.874   5.702
 1670SOL    HW1 5909   6.149   4.818   5.699
 1670SOL    HW2 5910   6.307   4.825   5.660
 1671SOL     OW 5911   4.602   3.518   0.692
 1671SOL    HW1 5912   4.642   3.593   0.640
 1671SOL    HW2 5913   4.513   3.494   0.653
 1672SOL     OW 5914   2.227   4.162   2.597
 1672SOL    HW1 5915   2.216   4.064   2.609
 1672SOL    HW2 5916   2.190   4.190   2.508
 1673SOL     OW 5917   6.480   3.345   4.669
 1673SOL    HW1 5918   6.542   3.269   4.650
 1673SOL    HW2 5919   6.416   3.318   4.741
 1674SOL     OW 5920   1.113   4.062   0.711
 1674SOL    HW1 5921   1.196   4.038   0.763
 1674SOL    HW2 5922   1.106   4.161   0.703
 1675SOL     OW 5923   5.055   0.917   6.880
 1675SOL    HW1 5924   5.076   0.825   6.848
 1675SOL    HW2 5925   4.957   0.926   6.895
 1676SOL     OW 5926   2.643   1.376   2.482
 1676SOL    HW1 5927   2.623   1.456   2.425
 1676SOL    HW2 5928   2.735   1.384   2.520
 1677SOL     OW 5929   5.864   1.624   5.425
 1677SOL    HW1 5930   5.852   1.723   5.422
 1677SOL    HW2 5931   5.796   1.584   5.487
 1678SOL     OW 5932   5.140   5.784   2.236
 1678SOL    HW1 5933   5.189   5.849   2.179
 1678SOL    HW2 5934   5.194   5.700   2.245
 1679SOL     OW 5935   1.097   3.239   5.586
 1679SOL    HW1 5936   1.191   3.267   5.565
 1679SOL    HW2 5937   1.033   3.307   5.552
 1680SOL     OW 5938   0.502   1.551   3.898
 1680SOL    HW1 5939   0.457   1.463   3.910
 1680SOL    HW2 5940   0.574   1.561   3.966
 1681SOL     OW 5941   6.068   5.278   1.204
 1681SOL    HW1 5942   6.095   5.307   1.296
 1681SOL    HW2 5943   6.048   5.359   1.148
 1682SOL     OW 5944   0.076   3.025   4.700
 1682SOL    HW1 5945   0.166   3.069   4.698
 1682SOL    HW2 5946   0.005   3.095   4.710
 1683SOL     OW 5947   4.519   5.179   1.361
 1683SOL    HW1 5948   4.582   5.248   1.398
 1683SOL    HW2 5949   4.562   5.089   1.366
 1684SOL     OW 5950   0.684   6.814   4.710
 1684SOL    HW1 5951   0.666   6.907   4.741
 1684SOL    HW2 5952   0.690   6.753   4.789
 1685SOL     OW 5953   1.971   1.324   6.779
 1685SOL    HW1 5954   1.984   1.346   6.682
 1685SOL    HW2 5955   1.971   1.225   6.792
 1686SOL     OW 5956   1.349   5.516   5.112
 1686SOL    HW1 5957   1.421   5.547   5.050
 1686SOL    HW2 5958   1.387   5.506   5.204
 1687SOL     OW 5959   1.854   4.416   2.569
 1687SOL    HW1 5960   1.884   4.369   2.652
 1687SOL    HW2 5961   1.934   4.440   2.513
 1688SOL     OW 5962   1.302   1.483   3.073
 1688SOL    HW1 5963   1.207   1.476   3.044
 1688SOL    HW2 5964   1.339   1.572   3.047
 1689SOL     OW 5965   3.073   2.180   2.334
 1689SOL    HW1 5966   3.164   2.139   2.333
 1689SOL    HW2 5967   3.056   2.225   2.246
 1690SOL     OW 5968   2.017   1.532   2.443
 1690SOL    HW1 5969   1.946   1.487   2.389
 1690SOL    HW2 5970   1.993   1.629   2.456
 1691SOL     OW 5971   4.995   3.565   3.275
 1691SOL    HW1 5972   4.941   3.542   3.194
 1691SOL    HW2 5973   5.073   3.504   3.282
 1692SOL     OW 5974   0.122   0.123   1.548
 1692SOL    HW1 5975   0.195   0.068   1.588
 1692SOL    HW2 5976   0.119   0.212   1.594
 1693SOL     OW 5977   2.164   2.971   3.026
 1693SOL    HW1 5978   2.231   2.904   2.992
 1693SOL    HW2 5979   2.146   2.954   3.123
 1694SOL     OW 5980   4.240   5.623   4.827
 1694SOL    HW1 5981   4.251   5.540   4.771
 1694SOL    HW2 5982   4.320   5.633   4.887
 1695SOL     OW 5983   2.412   2.333   5.619
 1695SOL    HW1 5984   2.393   2.390   5.699
 1695SOL    HW2 5985   2.414   2.237   5.645
 1696SOL     OW 5986   4.925   5.579   0.454
 1696SOL    HW1 5987   4.849   5.523   0.422
 1696SOL    HW2 5988   5.011   5.531   0.438
 1697SOL     OW 5989   1.031   0.168   1.684
 1697SOL    HW1 5990   1.079   0.080   1.680
 1697SOL    HW2 5991   1.097   0.241   1.700
 1698SOL     OW 5992   5.055   2.250   1.809
 1698SOL    HW1 5993   5.130   2.315   1.822
 1698SOL    HW2 5994   4.970   2.292   1.840
 1699SOL     OW 5995   2.693   3.037   1.090
 1699SOL    HW1 5996   2.710   2.939   1.083
 1699SOL    HW2 5997   2.764   3.088   1.040
 1700SOL     OW 5998   6.696   2.636   2.793
 1700SOL    HW1 5999   6.723   2.548   2.755
 1700SOL    HW2 6000   6.639   2.685   2.726
 1701SOL     OW 6001   5.738   2.851   4.798
 1701SOL    HW1 6002   5.748   2.873   4.895
 1701SOL    HW2 6003   5.799   2.909   4.744
 1702SOL     OW 6004   6.036   3.606   1.198
 1702SOL    HW1 6005   6.031   3.525   1.139
 1702SOL    HW2 6006   6.019   3.578   1.293
 1703SOL     OW 6007   2.992   3.727   1.223
 1703SOL    HW1 6008   2.990   3.796   1.296
 1703SOL    HW2 6009   3.061   3.658   1.245
 1704SOL     OW 6010   0.350   1.339   1.109
 1704SOL    HW1 6011   0.277   1.368   1.170
 1704SOL    HW2 6012   0.320   1.261   1.054
 1705SOL     OW 6013   3.803   2.359   1.439
 1705SOL    HW1 6014   3.716   2.326   1.404
 1705SOL    HW2 6015   3.861   2.281   1.464
 1706SOL     OW 6016   4.139   0.535   0.752
 1706SOL    HW1 6017   4.195   0.619   0.755
 1706SOL    HW2 6018   4.184   0.464   0.806
 1707SOL     OW 6019   4.767   2.025   2.331
 1707SOL    HW1 6020   4.812   1.936   2.324
 1707SOL    HW2 6021   4.770   2.056   2.426
 1708SOL     OW 6022   6.518   6.099   2.913
 1708SOL    HW1 6023   6.498   6.187   2.870
 1708SOL    HW2 6024   6.560   6.114   3.003
 1709SOL     OW 6025   2.445   0.041   2.079
 1709SOL    HW1 6026   2.446   7.018   2.170
 1709SOL    HW2 6027   2.490   0.130   2.084
 1710SOL     OW 6028   0.268   4.427   3.763
 1710SOL    HW1 6029   0.263   4.328   3.774
 1710SOL    HW2 6030   0.364   4.454   3.751
 1711SOL     OW 6031   1.305   4.401   5.251
 1711SOL    HW1 6032   1.361   4.320   5.233
 1711SOL    HW2 6033   1.277   4.401   5.347
 1712SOL     OW 6034   0.952   4.024   0.469
 1712SOL    HW1 6035   0.976   3.941   0.418
 1712SOL    HW2 6036   1.030   4.054   0.524
 1713SOL     OW 6037   1.902   2.329   1.636
 1713SOL    HW1 6038   1.958   2.282   1.567
 1713SOL    HW2 6039   1.829   2.380   1.590
 1714SOL     OW 6040   4.180   1.679   6.523
 1714SOL    HW1 6041   4.171   1.768   6.479
 1714SOL    HW2 6042   4.221   1.614   6.459
 1715SOL     OW 6043   0.766   2.987   3.059
 1715SOL    HW1 6044   0.803   2.933   2.983
 1715SOL    HW2 6045   0.721   3.069   3.022
 1716SOL     OW 6046   6.248   0.293   0.697
 1716SOL    HW1 6047   6.261   0.205   0.743
 1716SOL    HW2 6048   6.214   0.278   0.604
 1717SOL     OW 6049   2.336   6.397   0.467
 1717SOL    HW1 6050   2.277   6.317   0.467
 1717SOL    HW2 6051   2.425   6.373   0.429
 1718SOL     OW 6052   2.080   4.014   6.804
 1718SOL    HW1 6053   2.003   4.037   6.745
 1718SOL    HW2 6054   2.099   4.089   6.867
 1719SOL     OW 6055   2.201   3.184   1.445
 1719SOL    HW1 6056   2.218   3.091   1.413
 1719SOL    HW2 6057   2.268   3.246   1.404
 1720SOL     OW 6058   6.843   1.726   0.852
 1720SOL    HW1 6059   6.793   1.719   0.766
 1720SOL    HW2 6060   6.803   1.799   0.908
 1721SOL     OW 6061   1.811   6.428   3.081
 1721SOL    HW1 6062   1.872   6.426   3.161
 1721SOL    HW2 6063   1.774   6.337   3.065
 1722SOL     OW 6064   5.769   0.275   2.006
 1722SOL    HW1 6065   5.863   0.289   1.975
 1722SOL    HW2 6066   5.718   0.361   1.997
 1723SOL     OW 6067   6.495   2.311   2.839
 1723SOL    HW1 6068   6.432   2.357   2.776
 1723SOL    HW2 6069   6.501   2.214   2.815
 1724SOL     OW 6070   5.633   0.990   0.310
 1724SOL    HW1 6071   5.601   1.023   0.398
 1724SOL    HW2 6072   5.690   0.909   0.323
 1725SOL     OW 6073   3.673   4.571   0.819
 1725SOL    HW1 6074   3.704   4.659   0.784
 1725SOL    HW2 6075   3.644   4.513   0.744
 1726SOL     OW 6076   6.652   4.681   4.521
 1726SOL    HW1 6077   6.751   4.665   4.522
 1726SOL    HW2 6078   6.624   4.717   4.610
 1727SOL     OW 6079   3.919   3.435   4.912
 1727SOL    HW1 6080   3.973   3.519   4.912
 1727SOL    HW2 6081   3.973   3.362   4.955
 1728SOL     OW 6082   4.772   4.704   4.427
 1728SOL    HW1 6083   4.824   4.732   4.508
 1728SOL    HW2 6084   4.788   4.607   4.410
 1729SOL     OW 6085   0.978   3.920   3.245
 1729SOL    HW1 6086   1.071   3.950   3.267
 1729SOL    HW2 6087   0.953   3.951   3.154
 1730SOL     OW 6088   6.488   1.209   4.754
 1730SOL    HW1 6089   6.510   1.116   4.784
 1730SOL    HW2 6090   6.572   1.263   4.752
 1731SOL     OW 6091   2.216   5.036   1.608
 1731SOL    HW1 6092   2.163   4.963   1.564
 1731SOL    HW2 6093   2.303   5.048   1.559
 1732SOL     OW 6094   1.602   4.783   0.314
 1732SOL    HW1 6095   1.522   4.809   0.260
 1732SOL    HW2 6096   1.666   4.859   0.318
 1733SOL     OW 6097   1.072   3.702   2.097
 1733SOL    HW1 6098   1.169   3.692   2.120
 1733SOL    HW2 6099   1.017   3.700   2.181
 1734SOL     OW 6100   4.457   3.018   0.598
 1734SOL    HW1 6101   4.555   2.999   0.611
 1734SOL    HW2 6102   4.407   2.932   0.591
 1735SOL     OW 6103   6.258   5.449   1.905
 1735SOL    HW1 6104   6.215   5.383   1.844
 1735SOL    HW2 6105   6.250   5.541   1.866
 1736SOL     OW 6106   3.880   3.190   6.919
 1736SOL    HW1 6107   3.837   3.279   6.937
 1736SOL    HW2 6108   3.881   3.136   7.003
 1737SOL     OW 6109   2.219   0.428   4.201
 1737SOL    HW1 6110   2.298   0.475   4.160
 1737SOL    HW2 6111   2.146   0.419   4.133
 1738SOL     OW 6112   1.959   2.485   2.310
 1738SOL    HW1 6113   2.038   2.424   2.308
 1738SOL    HW2 6114   1.966   2.551   2.236
 1739SOL     OW 6115   4.360   2.308   4.941
 1739SOL    HW1 6116   4.384   2.363   4.861
 1739SOL    HW2 6117   4.292   2.356   4.995
 1740SOL     OW 6118   0.414   1.048   6.862
 1740SOL    HW1 6119   0.505   1.086   6.881
 1740SOL    HW2 6120   0.345   1.117   6.882
 1741SOL     OW 6121   2.366   0.776   2.650
 1741SOL    HW1 6122   2.453   0.824   2.637
 1741SOL    HW2 6123   2.297   0.840   2.685
 1742SOL     OW 6124   5.255   6.859   5.228
 1742SOL    HW1 6125   5.157   6.841   5.220
 1742SOL    HW2 6126   5.271   6.958   5.224
 1743SOL     OW 6127   2.353   1.098   1.796
 1743SOL    HW1 6128   2.442   1.135   1.772
 1743SOL    HW2 6129   2.318   1.144   1.877
 1744SOL     OW 6130   2.211   0.790   1.839
 1744SOL    HW1 6131   2.229   0.886   1.822
 1744SOL    HW2 6132   2.117   0.768   1.811
 1745SOL     OW 6133   0.097   1.913   3.594
 1745SOL    HW1 6134   0.158   1.878   3.523
 1745SOL    HW2 6135   0.002   1.897   3.567
 1746SOL     OW 6136   2.986   6.710   6.405
 1746SOL    HW1 6137   3.009   6.730   6.501
 1746SOL    HW2 6138   3.057   6.748   6.346
 1747SOL     OW 6139   4.500   0.048   1.542
 1747SOL    HW1 6140   4.551   6.983   1.555
 1747SOL    HW2 6141   4.418   0.030   1.488
 1748SOL     OW 6142   6.185   1.875   3.664
 1748SOL    HW1 6143   6.223   1.804   3.604
 1748SOL    HW2 6144   6.146   1.948   3.608
 1749SOL     OW 6145   4.007   6.724   6.627
 1749SOL    HW1 6146   4.050   6.807   6.592
 1749SOL    HW2 6147   3.916   6.714   6.587
 1750SOL     OW 6148   5.547   1.065   3.016
 1750SOL    HW1 6149   5.635   1.094   3.054
 1750SOL    HW2 6150   5.557   1.047   2.918
 1751SOL     OW 6151   2.182   4.967   4.680
 1751SOL    HW1 6152   2.247   4.914   4.735
 1751SOL    HW2 6153   2.118   4.904   4.636
 1752SOL     OW 6154   6.634   2.097   0.559
 1752SOL    HW1 6155   6.581   2.180   0.540
 1752SOL    HW2 6156   6.574   2.030   0.603
 1753SOL     OW 6157   0.923   0.095   6.899
 1753SOL    HW1 6158   0.837   0.110   6.949
 1753SOL    HW2 6159   0.918   0.008   6.850
 1754SOL     OW 6160   3.818   3.623   0.876
 1754SOL    HW1 6161   3.864   3.546   0.920
 1754SOL    HW2 6162   3.726   3.633   0.916
 1755SOL     OW 6163   5.337   4.408   1.662
 1755SOL    HW1 6164   5.369   4.502   1.657
 1755SOL    HW2 6165   5.237   4.407   1.658
 1756SOL     OW 6166   6.053   4.617   4.092
 1756SOL    HW1 6167   6.139   4.650   4.132
 1756SOL    HW2 6168   5.998   4.695   4.062
 1757SOL     OW 6169   2.635   6.347   4.748
 1757SOL    HW1 6170   2.683   6.410   4.688
 1757SOL    HW2 6171   2.599   6.271   4.694
 1758SOL     OW 6172   3.345   1.536   3.440
 1758SOL    HW1 6173   3.255   1.505   3.472
 1758SOL    HW2 6174   3.414   1.468   3.465
 1759SOL     OW 6175   0.616   4.948   5.885
 1759SOL    HW1 6176   0.639   4.935   5.788
 1759SOL    HW2 6177   0.576   5.039   5.898
 1760SOL     OW 6178   6.248   1.559   1.595
 1760SOL    HW1 6179   6.189   1.637   1.574
 1760SOL    HW2 6180   6.196   1.474   1.588
 1761SOL     OW 6181   5.827   0.910   0.554
 1761SOL    HW1 6182   5.730   0.934   0.556
 1761SOL    HW2 6183   5.856   0.885   0.647
 1762SOL     OW 6184   6.362   2.129   5.095
 1762SOL    HW1 6185   6.402   2.058   5.037
 1762SOL    HW2 6186   6.424   2.206   5.102
 1763SOL     OW 6187   1.967   3.659   4.349
 1763SOL    HW1 6188   1.950   3.757   4.363
 1763SOL    HW2 6189   2.048   3.648   4.290
 1764SOL     OW 6190   1.749   3.400   3.349
 1764SOL    HW1 6191   1.742   3.310   3.392
 1764SOL    HW2 6192   1.699   3.400   3.262
 1765SOL     OW 6193   2.844   1.405   0.204
 1765SOL    HW1 6194   2.914   1.337   0.226
 1765SOL    HW2 6195   2.876   1.461   0.127
 1766SOL     OW 6196   5.411   3.043   5.164
 1766SOL    HW1 6197   5.474   3.108   5.122
 1766SOL    HW2 6198   5.456   2.955   5.175
 1767SOL     OW 6199   5.309   3.820   2.198
 1767SOL    HW1 6200   5.225   3.783   2.239
 1767SOL    HW2 6201   5.388   3.774   2.237
 1768SOL     OW 6202   4.541   0.058   3.891
 1768SOL    HW1 6203   4.456   0.023   3.852
 1768SOL    HW2 6204   4.583   0.123   3.827
 1769SOL     OW 6205   4.012   2.195   4.222
 1769SOL    HW1 6206   4.098   2.242   4.199
 1769SOL    HW2 6207   4.030   2.098   4.239
 1770SOL     OW 6208   1.704   5.826   4.849
 1770SOL    HW1 6209   1.766   5.862   4.779
 1770SOL    HW2 6210   1.733   5.858   4.939
 1771SOL     OW 6211   2.564   6.023   0.035
 1771SOL    HW1 6212   2.507   6.012   6.975
 1771SOL    HW2 6213   2.519   6.084   0.100
 1772SOL     OW 6214   3.835   0.097   3.725
 1772SOL    HW1 6215   3.769   0.067   3.657
 1772SOL    HW2 6216   3.830   0.196   3.735
 1773SOL     OW 6217   2.007   5.285   5.638
 1773SOL    HW1 6218   1.981   5.278   5.735
 1773SOL    HW2 6219   2.090   5.232   5.622
 1774SOL     OW 6220   4.040   5.446   1.669
 1774SOL    HW1 6221   4.091   5.503   1.604
 1774SOL    HW2 6222   3.984   5.505   1.728
 1775SOL     OW 6223   0.811   4.132   2.524
 1775SOL    HW1 6224   0.836   4.162   2.617
 1775SOL    HW2 6225   0.881   4.163   2.460
 1776SOL     OW 6226   3.935   6.074   4.255
 1776SOL    HW1 6227   3.880   6.048   4.335
 1776SOL    HW2 6228   3.879   6.129   4.193
 1777SOL     OW 6229   3.431   5.527   6.925
 1777SOL    HW1 6230   3.344   5.576   6.921
 1777SOL    HW2 6231   3.498   5.574   6.867
 1778SOL     OW 6232   4.667   3.400   5.682
 1778SOL    HW1 6233   4.623   3.312   5.702
 1778SOL    HW2 6234   4.711   3.396   5.592
 1779SOL     OW 6235   3.725   0.485   4.285
 1779SOL    HW1 6236   3.763   0.518   4.199
 1779SOL    HW2 6237   3.720   0.385   4.283
 1780SOL     OW 6238   3.691   2.779   6.729
 1780SOL    HW1 6239   3.648   2.867   6.752
 1780SOL    HW2 6240   3.685   2.718   6.809
 1781SOL     OW 6241   3.681   6.365   2.544
 1781SOL    HW1 6242   3.728   6.453   2.555
 1781SOL    HW2 6243   3.704   6.326   2.455
 1782SOL     OW 6244   3.023   1.758   3.247
 1782SOL    HW1 6245   3.046   1.846   3.205
 1782SOL    HW2 6246   3.014   1.770   3.346
 1783SOL     OW 6247   2.752   5.729   6.000
 1783SOL    HW1 6248   2.667   5.696   6.041
 1783SOL    HW2 6249   2.738   5.747   5.902
 1784SOL     OW 6250   4.671   0.590   6.302
 1784SOL    HW1 6251   4.654   0.518   6.234
 1784SOL    HW2 6252   4.764   0.580   6.337
 1785SOL     OW 6253   6.237   3.643   2.921
 1785SOL    HW1 6254   6.236   3.708   2.997
 1785SOL    HW2 6255   6.150   3.595   2.916
 1786SOL     OW 6256   1.938   2.857   0.053
 1786SOL    HW1 6257   1.999   2.846   6.995
 1786SOL    HW2 6258   1.847   2.823   0.029
 1787SOL     OW 6259   2.545   1.413   5.155
 1787SOL    HW1 6260   2.623   1.457   5.201
 1787SOL    HW2 6261   2.575   1.328   5.113
 1788SOL     OW 6262   2.633   4.085   6.005
 1788SOL    HW1 6263   2.597   4.142   5.931
 1788SOL    HW2 6264   2.578   4.099   6.087
 1789SOL     OW 6265   5.578   1.998   1.500
 1789SOL    HW1 6266   5.607   1.959   1.587
 1789SOL    HW2 6267   5.651   2.056   1.463
 1790SOL     OW 6268   3.793   6.248   3.615
 1790SOL    HW1 6269   3.735   6.171   3.589
 1790SOL    HW2 6270   3.889   6.226   3.594
 1791SOL     OW 6271   6.789   1.032   3.423
 1791SOL    HW1 6272   6.769   0.951   3.478
 1791SOL    HW2 6273   6.750   1.020   3.331
 1792SOL     OW 6274   6.871   3.548   4.895
 1792SOL    HW1 6275   6.783   3.591   4.876
 1792SOL    HW2 6276   6.941   3.586   4.833
 1793SOL     OW 6277   6.194   0.033   4.025
 1793SOL    HW1 6278   6.294   0.039   4.022
 1793SOL    HW2 6279   6.162   6.995   3.950
 1794SOL     OW 6280   5.410   6.159   5.803
 1794SOL    HW1 6281   5.337   6.098   5.831
 1794SOL    HW2 6282   5.446   6.130   5.714
 1795SOL     OW 6283   1.207   2.430   1.105
 1795SOL    HW1 6284   1.261   2.509   1.134
 1795SOL    HW2 6285   1.150   2.456   1.027
 1796SOL     OW 6286   2.664   0.781   5.858
 1796SOL    HW1 6287   2.597   0.763   5.786
 1796SOL    HW2 6288   2.617   0.810   5.941
 1797SOL     OW 6289   1.619   0.139   0.284
 1797SOL    HW1 6290   1.710   0.096   0.285
 1797SOL    HW2 6291   1.627   0.231   0.246
 1798SOL     OW 6292   4.686   2.436   3.925
 1798SOL    HW1 6293   4.640   2.422   4.013
 1798SOL    HW2 6294   4.696   2.534   3.909
 1799SOL     OW 6295   0.057   2.641   4.626
 1799SOL    HW1 6296   0.022   2.723   4.671
 1799SOL    HW2 6297   0.140   2.610   4.674
 1800SOL     OW 6298   4.331   4.444   1.283
 1800SOL    HW1 6299   4.428   4.426   1.303
 1800SOL    HW2 6300   4.282   4.357   1.277
 1801SOL     OW 6301   0.140   0.311   2.174
 1801SOL    HW1 6302   0.109   0.248   2.102
 1801SOL    HW2 6303   0.195   0.261   2.241
 1802SOL     OW 6304   5.163   5.843   4.520
 1802SOL    HW1 6305   5.220   5.862   4.440
 1802SOL    HW2 6306   5.152   5.744   4.530
 1803SOL     OW 6307   0.101   5.515   6.969
 1803SOL    HW1 6308   0.148   5.574   6.904
 1803SOL    HW2 6309   0.166   5.484   0.019
 1804SOL     OW 6310   2.439   4.182   5.347
 1804SOL    HW1 6311   2.528   4.184   5.393
 1804SOL    HW2 6312   2.428   4.096   5.297
 1805SOL     OW 6313   5.375   3.373   5.904
 1805SOL    HW1 6314   5.387   3.457   5.957
 1805SOL    HW2 6315   5.361   3.296   5.966
 1806SOL     OW 6316   0.387   6.890   6.288
 1806SOL    HW1 6317   0.330   6.826   6.340
 1806SOL    HW2 6318   0.358   6.890   6.192
 1807SOL     OW 6319   5.498   3.067   4.633
 1807SOL    HW1 6320   5.505   3.010   4.715
 1807SOL    HW2 6321   5.579   3.052   4.576
 1808SOL     OW 6322   0.199   4.019   5.062
 1808SOL    HW1 6323   0.291   4.010   5.024
 1808SOL    HW2 6324   0.192   3.962   5.145
 1809SOL     OW 6325   2.332   2.517   5.008
 1809SOL    HW1 6326   2.336   2.602   5.061
 1809SOL    HW2 6327   2.385   2.528   4.924
 1810SOL     OW 6328   2.794   0.182   3.937
 1810SOL    HW1 6329   2.726   0.206   4.007
 1810SOL    HW2 6330   2.747   0.145   3.857
 1811SOL     OW 6331   5.947   6.082   3.554
 1811SOL    HW1 6332   5.977   5.994   3.593
 1811SOL    HW2 6333   5.906   6.138   3.625
 1812SOL     OW 6334   4.099   5.833   4.950
 1812SOL    HW1 6335   4.025   5.862   4.889
 1812SOL    HW2 6336   4.137   5.746   4.917
 1813SOL     OW 6337   6.003   4.389   0.291
 1813SOL    HW1 6338   5.940   4.382   0.369
 1813SOL    HW2 6339   6.092   4.353   0.317
 1814SOL     OW 6340   5.100   0.081   1.925
 1814SOL    HW1 6341   5.117   0.167   1.973
 1814SOL    HW2 6342   5.187   0.044   1.892
 1815SOL     OW 6343   0.895   2.058   1.931
 1815SOL    HW1 6344   0.805   2.064   1.973
 1815SOL    HW2 6345   0.888   2.008   1.844
 1816SOL     OW 6346   2.668   2.984   0.760
 1816SOL    HW1 6347   2.645   2.905   0.818
 1816SOL    HW2 6348   2.766   3.003   0.769
 1817SOL     OW 6349   2.517   6.592   2.197
 1817SOL    HW1 6350   2.548   6.496   2.197
 1817SOL    HW2 6351   2.448   6.605   2.126
 1818SOL     OW 6352   1.555   0.172   3.126
 1818SOL    HW1 6353   1.461   0.140   3.137
 1818SOL    HW2 6354   1.614   0.095   3.100
 1819SOL     OW 6355   0.975   4.495   2.012
 1819SOL    HW1 6356   1.061   4.445   2.020
 1819SOL    HW2 6357   0.928   4.469   1.928
 1820SOL     OW 6358   4.313   1.031   2.651
 1820SOL    HW1 6359   4.394   1.041   2.709
 1820SOL    HW2 6360   4.277   1.121   2.627
 1821SOL     OW 6361   2.146   1.536   2.674
 1821SOL    HW1 6362   2.120   1.504   2.583
 1821SOL    HW2 6363   2.240   1.569   2.673
 1822SOL     OW 6364   3.536   2.548   1.319
 1822SOL    HW1 6365   3.629   2.568   1.349
 1822SOL    HW2 6366   3.539   2.487   1.240
 1823SOL     OW 6367   3.680   6.022   3.392
 1823SOL    HW1 6368   3.709   5.951   3.328
 1823SOL    HW2 6369   3.593   6.061   3.362
 1824SOL     OW 6370   4.094   2.693   0.795
 1824SOL    HW1 6371   4.034   2.658   0.867
 1824SOL    HW2 6372   4.131   2.617   0.742
 1825SOL     OW 6373   0.938   0.882   2.013
 1825SOL    HW1 6374   0.856   0.826   2.004
 1825SOL    HW2 6375   1.018   0.824   2.023
 1826SOL     OW 6376   3.153   1.475   1.542
 1826SOL    HW1 6377   3.055   1.476   1.563
 1826SOL    HW2 6378   3.205   1.467   1.628
 1827SOL     OW 6379   6.993   5.008   2.096
 1827SOL    HW1 6380   6.975   5.102   2.067
 1827SOL    HW2 6381   0.019   5.009   2.185
 1828SOL     OW 6382   0.577   2.868   0.160
 1828SOL    HW1 6383   0.485   2.838   0.136
 1828SOL    HW2 6384   0.576   2.914   0.248
 1829SOL     OW 6385   4.829   0.034   3.396
 1829SOL    HW1 6386   4.732   0.037   3.417
 1829SOL    HW2 6387   4.865   0.127   3.389
 1830SOL     OW 6388   5.066   6.450   3.835
 1830SOL    HW1 6389   5.157   6.428   3.870
 1830SOL    HW2 6390   5.065   6.439   3.735
 1831SOL     OW 6391   5.973   6.893   2.863
 1831SOL    HW1 6392   5.956   6.796   2.845
 1831SOL    HW2 6393   6.060   6.920   2.822
 1832SOL     OW 6394   4.912   1.977   1.062
 1832SOL    HW1 6395   4.830   2.017   1.103
 1832SOL    HW2 6396   4.978   1.954   1.134
 1833SOL     OW 6397   5.434   6.981   4.484
 1833SOL    HW1 6398   5.487   0.027   4.538
 1833SOL    HW2 6399   5.346   0.002   4.460
 1834SOL     OW 6400   3.727   3.738   0.583
 1834SOL    HW1 6401   3.788   3.762   0.508
 1834SOL    HW2 6402   3.734   3.640   0.602
 1835SOL     OW 6403   1.299   4.131   1.651
 1835SOL    HW1 6404   1.367   4.066   1.684
 1835SOL    HW2 6405   1.345   4.211   1.613
 1836SOL     OW 6406   6.970   2.082   0.641
 1836SOL    HW1 6407   7.012   2.143   0.709
 1836SOL    HW2 6408   6.873   2.073   0.660
 1837SOL     OW 6409   0.419   1.956   4.049
 1837SOL    HW1 6410   0.438   1.972   4.146
 1837SOL    HW2 6411   0.386   1.863   4.036
 1838SOL     OW 6412   0.534   2.144   3.520
 1838SOL    HW1 6413   0.587   2.063   3.495
 1838SOL    HW2 6414   0.462   2.159   3.452
 1839SOL     OW 6415   5.269   2.763   4.999
 1839SOL    HW1 6416   5.180   2.807   5.008
 1839SOL    HW2 6417   5.268   2.676   5.049
 1840SOL     OW 6418   2.593   5.998   1.524
 1840SOL    HW1 6419   2.628   5.957   1.440
 1840SOL    HW2 6420   2.590   5.929   1.597
 1841SOL     OW 6421   1.928   3.424   4.216
 1841SOL    HW1 6422   1.858   3.450   4.148
 1841SOL    HW2 6423   1.943   3.501   4.278
 1842SOL     OW 6424   0.582   5.355   1.184
 1842SOL    HW1 6425   0.621   5.373   1.275
 1842SOL    HW2 6426   0.559   5.258   1.176
 1843SOL     OW 6427   1.794   2.360   5.316
 1843SOL    HW1 6428   1.813   2.381   5.220
 1843SOL    HW2 6429   1.819   2.265   5.334
 1844SOL     OW 6430   3.860   1.846   4.786
 1844SOL    HW1 6431   3.924   1.773   4.765
 1844SOL    HW2 6432   3.894   1.932   4.748
 1845SOL     OW 6433   2.659   0.229   6.795
 1845SOL    HW1 6434   2.638   0.150   6.737
 1845SOL    HW2 6435   2.748   0.267   6.771
 1846SOL     OW 6436   4.184   2.074   6.598
 1846SOL    HW1 6437   4.236   2.030   6.671
 1846SOL    HW2 6438   4.243   2.137   6.548
 1847SOL     OW 6439   0.918   0.530   6.585
 1847SOL    HW1 6440   0.949   0.474   6.508
 1847SOL    HW2 6441   0.917   0.474   6.668
 1848SOL     OW 6442   1.851   5.871   2.833
 1848SOL    HW1 6443   1.843   5.771   2.826
 1848SOL    HW2 6444   1.812   5.913   2.751
 1849SOL     OW 6445   4.075   0.609   0.471
 1849SOL    HW1 6446   4.081   0.585   0.568
 1849SOL    HW2 6447   4.137   0.550   0.419
 1850SOL     OW 6448   5.790   1.586   2.881
 1850SOL    HW1 6449   5.847   1.507   2.859
 1850SOL    HW2 6450   5.754   1.626   2.797
 1851SOL     OW 6451   0.218   1.636   1.298
 1851SOL    HW1 6452   0.260   1.616   1.386
 1851SOL    HW2 6453   0.171   1.555   1.264
 1852SOL     OW 6454   4.661   3.850   0.899
 1852SOL    HW1 6455   4.563   3.844   0.881
 1852SOL    HW2 6456   4.703   3.761   0.886
 1853SOL     OW 6457   0.794   3.898   1.713
 1853SOL    HW1 6458   0.864   3.847   1.764
 1853SOL    HW2 6459   0.839   3.968   1.658
 1854SOL     OW 6460   2.900   5.383   4.237
 1854SOL    HW1 6461   2.999   5.383   4.219
 1854SOL    HW2 6462   2.855   5.315   4.180
 1855SOL     OW 6463   5.009   4.976   0.410
 1855SOL    HW1 6464   5.033   5.052   0.350
 1855SOL    HW2 6465   4.979   5.013   0.499
 1856SOL     OW 6466   6.361   2.379   5.741
 1856SOL    HW1 6467   6.272   2.335   5.741
 1856SOL    HW2 6468   6.364   2.451   5.810
 1857SOL     OW 6469   4.897   0.865   4.859
 1857SOL    HW1 6470   4.831   0.795   4.832
 1857SOL    HW2 6471   4.925   0.851   4.954
 1858SOL     OW 6472   5.485   2.912   3.571
 1858SOL    HW1 6473   5.560   2.932   3.633
 1858SOL    HW2 6474   5.519   2.910   3.477
 1859SOL     OW 6475   4.182   2.179   3.672
 1859SOL    HW1 6476   4.253   2.123   3.715
 1859SOL    HW2 6477   4.179   2.158   3.574
 1860SOL     OW 6478   6.475   1.269   4.105
 1860SOL    HW1 6479   6.488   1.363   4.137
 1860SOL    HW2 6480   6.496   1.264   4.007
 1861SOL     OW 6481   4.780   6.569   2.222
 1861SOL    HW1 6482   4.687   6.574   2.256
 1861SOL    HW2 6483   4.798   6.477   2.187
 1862SOL     OW 6484   1.954   6.927   0.069
 1862SOL    HW1 6485   1.900   6.850   0.102
 1862SOL    HW2 6486   2.052   6.906   0.078
 1863SOL     OW 6487   2.726   2.546   0.693
 1863SOL    HW1 6488   2.817   2.585   0.706
 1863SOL    HW2 6489   2.675   2.551   0.778
 1864SOL     OW 6490   1.045   6.602   5.260
 1864SOL    HW1 6491   1.111   6.536   5.224
 1864SOL    HW2 6492   1.088   6.692   5.266
 1865SOL     OW 6493   4.070   1.116   5.379
 1865SOL    HW1 6494   4.074   1.026   5.423
 1865SOL    HW2 6495   3.996   1.170   5.419
 1866SOL     OW 6496   4.301   4.828   2.451
 1866SOL    HW1 6497   4.204   4.848   2.442
 1866SOL    HW2 6498   4.352   4.914   2.465
 1867SOL     OW 6499   0.438   3.911   0.162
 1867SOL    HW1 6500   0.428   3.879   0.257
 1867SOL    HW2 6501   0.355   3.958   0.134
 1868SOL     OW 6502   5.618   4.508   6.770
 1868SOL    HW1 6503   5.671   4.453   6.835
 1868SOL    HW2 6504   5.639   4.477   6.677
 1869SOL     OW 6505   6.683   2.062   5.066
 1869SOL    HW1 6506   6.614   1.996   5.037
 1869SOL    HW2 6507   6.737   2.092   4.987
 1870SOL     OW 6508   2.034   4.585   5.756
 1870SOL    HW1 6509   2.026   4.675   5.714
 1870SOL    HW2 6510   2.131   4.561   5.766
 1871SOL     OW 6511   1.496   6.877   0.897
 1871SOL    HW1 6512   1.457   6.951   0.843
 1871SOL    HW2 6513   1.510   6.797   0.839
 1872SOL     OW 6514   2.976   4.256   0.044
 1872SOL    HW1 6515   2.942   4.179   7.011
 1872SOL    HW2 6516   3.076   4.248   0.053
 1873SOL     OW 6517   4.129   1.178   5.119
 1873SOL    HW1 6518   4.123   1.184   5.218
 1873SOL    HW2 6519   4.052   1.124   5.084
 1874SOL     OW 6520   2.821   1.933   1.313
 1874SOL    HW1 6521   2.868   1.924   1.401
 1874SOL    HW2 6522   2.875   1.891   1.241
 1875SOL     OW 6523   0.929   0.360   6.807
 1875SOL    HW1 6524   0.930   0.261   6.824
 1875SOL    HW2 6525   0.849   0.400   6.851
 1876SOL     OW 6526   3.668   0.451   5.537
 1876SOL    HW1 6527   3.667   0.512   5.458
 1876SOL    HW2 6528   3.623   0.495   5.614
 1877SOL     OW 6529   0.366   0.616   3.845
 1877SOL    HW1 6530   0.299   0.557   3.889
 1877SOL    HW2 6531   0.337   0.711   3.854
 1878SOL     OW 6532   0.064   2.189   3.694
 1878SOL    HW1 6533   0.074   2.095   3.663
 1878SOL    HW2 6534   0.033   2.191   3.789
 1879SOL     OW 6535   1.133   3.596   4.314
 1879SOL    HW1 6536   1.065   3.590   4.241
 1879SOL    HW2 6537   1.218   3.632   4.277
 1880SOL     OW 6538   0.315   1.046   4.943
 1880SOL    HW1 6539   0.391   1.104   4.912
 1880SOL    HW2 6540   0.265   1.093   5.015
 1881SOL     OW 6541   6.125   2.092   1.679
 1881SOL    HW1 6542   6.171   2.014   1.721
 1881SOL    HW2 6543   6.066   2.060   1.605
 1882SOL     OW 6544   1.245   4.612   6.354
 1882SOL    HW1 6545   1.279   4.706   6.349
 1882SOL    HW2 6546   1.247   4.581   6.450
 1883SOL     OW 6547   6.205   2.268   2.564
 1883SOL    HW1 6548   6.152   2.282   2.648
 1883SOL    HW2 6549   6.177   2.182   2.521
 1884SOL     OW 6550   1.077   1.783   0.923
 1884SOL    HW1 6551   1.037   1.831   0.845
 1884SOL    HW2 6552   1.016   1.792   1.002
 1885SOL     OW 6553   1.762   1.534   5.500
 1885SOL    HW1 6554   1.757   1.623   5.454
 1885SOL    HW2 6555   1.834   1.537   5.570
 1886SOL     OW 6556   2.119   0.321   1.994
 1886SOL    HW1 6557   2.211   0.359   1.991
 1886SOL    HW2 6558   2.052   0.395   1.992
 1887SOL     OW 6559   0.797   5.352   5.524
 1887SOL    HW1 6560   0.781   5.377   5.428
 1887SOL    HW2 6561   0.848   5.425   5.569
 1888SOL     OW 6562   3.083   1.815   0.184
 1888SOL    HW1 6563   3.127   1.887   0.239
 1888SOL    HW2 6564   2.989   1.842   0.164
 1889SOL     OW 6565   0.270   3.913   3.715
 1889SOL    HW1 6566   0.347   3.849   3.709
 1889SOL    HW2 6567   0.211   3.902   3.635
 1890SOL     OW 6568   0.683   5.506   4.234
 1890SOL    HW1 6569   0.635   5.486   4.149
 1890SOL    HW2 6570   0.669   5.430   4.298
 1891SOL     OW 6571   4.469   3.091   1.665
 1891SOL    HW1 6572   4.447   3.189   1.671
 1891SOL    HW2 6573   4.521   3.063   1.745
 1892SOL     OW 6574   0.125   0.850   2.583
 1892SOL    HW1 6575   0.148   0.918   2.654
 1892SOL    HW2 6576   0.086   0.897   2.504
 1893SOL     OW 6577   4.104   3.157   1.980
 1893SOL    HW1 6578   4.136   3.069   1.946
 1893SOL    HW2 6579   4.150   3.231   1.930
 1894SOL     OW 6580   3.282   4.003   4.227
 1894SOL    HW1 6581   3.204   4.020   4.286
 1894SOL    HW2 6582   3.303   3.905   4.226
 1895SOL     OW 6583   4.001   0.220   1.100
 1895SOL    HW1 6584   3.987   0.217   1.199
 1895SOL    HW2 6585   3.918   0.251   1.055
 1896SOL     OW 6586   6.321   1.788   0.623
 1896SOL    HW1 6587   6.222   1.800   0.630
 1896SOL    HW2 6588   6.341   1.726   0.546
 1897SOL     OW 6589   1.667   4.816   2.161
 1897SOL    HW1 6590   1.730   4.742   2.184
 1897SOL    HW2 6591   1.716   4.887   2.110
 1898SOL     OW 6592   2.063   4.490   2.390
 1898SOL    HW1 6593   2.006   4.506   2.309
 1898SOL    HW2 6594   2.145   4.439   2.363
 1899SOL     OW 6595   1.107   0.883   0.452
 1899SOL    HW1 6596   1.142   0.801   0.407
 1899SOL    HW2 6597   1.104   0.958   0.386
 1900SOL     OW 6598   2.994   0.483   7.010
 1900SOL    HW1 6599   3.012   0.445   6.919
 1900SOL    HW2 6600   2.942   0.418   0.044
 1901SOL     OW 6601   2.670   2.758   0.923
 1901SOL    HW1 6602   2.639   2.678   0.872
 1901SOL    HW2 6603   2.764   2.742   0.956
 1902SOL     OW 6604   2.441   0.182   4.757
 1902SOL    HW1 6605   2.380   0.129   4.815
 1902SOL    HW2 6606   2.390   0.256   4.713
 1903SOL     OW 6607   0.843   3.128   3.289
 1903SOL    HW1 6608   0.786   3.105   3.368
 1903SOL    HW2 6609   0.824   3.064   3.214
 1904SOL     OW 6610   5.686   5.117   2.520
 1904SOL    HW1 6611   5.593   5.152   2.529
 1904SOL    HW2 6612   5.686   5.018   2.537
 1905SOL     OW 6613   0.788   0.183   3.996
 1905SOL    HW1 6614   0.725   0.222   3.929
 1905SOL    HW2 6615   0.746   0.184   4.087
 1906SOL     OW 6616   2.722   0.448   6.159
 1906SOL    HW1 6617   2.767   0.360   6.171
 1906SOL    HW2 6618   2.623   0.434   6.155
 1907SOL     OW 6619   4.703   2.703   0.900
 1907SOL    HW1 6620   4.604   2.713   0.896
 1907SOL    HW2 6621   4.726   2.606   0.911
 1908SOL     OW 6622   4.211   6.902   6.410
 1908SOL    HW1 6623   4.141   6.972   6.427
 1908SOL    HW2 6624   4.232   6.899   6.312
 1909SOL     OW 6625   0.722   3.102   3.516
 1909SOL    HW1 6626   0.756   3.138   3.604
 1909SOL    HW2 6627   0.671   3.174   3.469
 1910SOL     OW 6628   6.684   6.429   5.579
 1910SOL    HW1 6629   6.621   6.444   5.502
 1910SOL    HW2 6630   6.769   6.390   5.545
 1911SOL     OW 6631   6.862   4.312   4.614
 1911SOL    HW1 6632   6.896   4.406   4.615
 1911SOL    HW2 6633   6.921   4.255   4.671
 1912SOL     OW 6634   2.813   5.446   2.318
 1912SOL    HW1 6635   2.873   5.525   2.304
 1912SOL    HW2 6636   2.779   5.413   2.230
 1913SOL     OW 6637   2.292   6.370   4.600
 1913SOL    HW1 6638   2.310   6.420   4.685
 1913SOL    HW2 6639   2.241   6.429   4.538
 1914SOL     OW 6640   3.695   4.366   6.358
 1914SOL    HW1 6641   3.793   4.367   6.379
 1914SOL    HW2 6642   3.644   4.364   6.444
 1915SOL     OW 6643   4.371   2.816   5.779
 1915SOL    HW1 6644   4.338   2.768   5.698
 1915SOL    HW2 6645   4.296   2.869   5.819
 1916SOL     OW 6646   4.005   6.933   1.050
 1916SOL    HW1 6647   3.983   0.009   1.067
 1916SOL    HW2 6648   4.019   6.886   1.136
 1917SOL     OW 6649   2.604   4.118   0.008
 1917SOL    HW1 6650   2.571   4.157   6.942
 1917SOL    HW2 6651   2.579   4.021   0.013
 1918SOL     OW 6652   1.229   0.988   5.021
 1918SOL    HW1 6653   1.316   1.002   5.068
 1918SOL    HW2 6654   1.245   0.941   4.934
 1919SOL     OW 6655   1.935   1.476   0.937
 1919SOL    HW1 6656   1.937   1.576   0.946
 1919SOL    HW2 6657   2.027   1.442   0.920
 1920SOL     OW 6658   5.750   2.256   2.431
 1920SOL    HW1 6659   5.843   2.242   2.400
 1920SOL    HW2 6660   5.747   2.332   2.496
 1921SOL     OW 6661   1.394   2.781   0.209
 1921SOL    HW1 6662   1.466   2.733   0.159
 1921SOL    HW2 6663   1.321   2.807   0.146
 1922SOL     OW 6664   3.257   3.584   2.012
 1922SOL    HW1 6665   3.326   3.530   2.060
 1922SOL    HW2 6666   3.212   3.646   2.076
 1923SOL     OW 6667   5.390   0.104   6.725
 1923SOL    HW1 6668   5.305   0.090   6.675
 1923SOL    HW2 6669   5.389   0.194   6.769
 1924SOL     OW 6670   4.521   0.340   0.999
 1924SOL    HW1 6671   4.481   0.369   1.086
 1924SOL    HW2 6672   4.452   0.292   0.945
 1925SOL     OW 6673   0.864   4.395   1.773
 1925SOL    HW1 6674   0.771   4.388   1.809
 1925SOL    HW2 6675   0.908   4.305   1.778
 1926SOL     OW 6676   3.650   0.124   1.813
 1926SOL    HW1 6677   3.592   0.043   1.809
 1926SOL    HW2 6678   3.733   0.104   1.866
 1927SOL     OW 6679   2.311   3.977   1.189
 1927SOL    HW1 6680   2.366   3.931   1.120
 1927SOL    HW2 6681   2.214   3.962   1.170
 1928SOL     OW 6682   4.631   4.353   4.578
 1928SOL    HW1 6683   4.625   4.392   4.670
 1928SOL    HW2 6684   4.557   4.389   4.522
 1929SOL     OW 6685   3.296   0.525   2.613
 1929SOL    HW1 6686   3.309   0.594   2.542
 1929SOL    HW2 6687   3.378   0.521   2.670
 1930SOL     OW 6688   5.011   3.019   6.269
 1930SOL    HW1 6689   4.928   3.018   6.214
 1930SOL    HW2 6690   4.995   3.075   6.351
 1931SOL     OW 6691   1.143   1.778   6.479
 1931SOL    HW1 6692   1.045   1.761   6.464
 1931SOL    HW2 6693   1.193   1.760   6.394
 1932SOL     OW 6694   4.812   2.722   3.034
 1932SOL    HW1 6695   4.721   2.680   3.028
 1932SOL    HW2 6696   4.874   2.675   2.972
 1933SOL     OW 6697   6.987   1.901   6.971
 1933SOL    HW1 6698   0.018   1.980   7.005
 1933SOL    HW2 6699   6.933   1.862   0.026
 1934SOL     OW 6700   0.474   0.501   5.540
 1934SOL    HW1 6701   0.412   0.439   5.492
 1934SOL    HW2 6702   0.565   0.460   5.546
 1935SOL     OW 6703   4.691   4.249   3.425
 1935SOL    HW1 6704   4.740   4.164   3.443
 1935SOL    HW2 6705   4.669   4.255   3.328
 1936SOL     OW 6706   5.104   3.400   4.246
 1936SOL    HW1 6707   5.181   3.343   4.218
 1936SOL    HW2 6708   5.115   3.425   4.343
 1937SOL     OW 6709   5.109   5.737   6.680
 1937SOL    HW1 6710   5.085   5.643   6.658
 1937SOL    HW2 6711   5.120   5.746   6.779
 1938SOL     OW 6712   0.986   2.453   6.738
 1938SOL    HW1 6713   1.045   2.377   6.712
 1938SOL    HW2 6714   1.041   2.529   6.771
 1939SOL     OW 6715   0.702   5.620   4.765
 1939SOL    HW1 6716   0.719   5.603   4.668
 1939SOL    HW2 6717   0.776   5.675   4.804
 1940SOL     OW 6718   6.161   4.805   1.682
 1940SOL    HW1 6719   6.192   4.718   1.643
 1940SOL    HW2 6720   6.225   4.834   1.754
 1941SOL     OW 6721   0.442   2.718   3.628
 1941SOL    HW1 6722   0.471   2.744   3.720
 1941SOL    HW2 6723   0.487   2.778   3.561
 1942SOL     OW 6724   5.604   3.237   2.779
 1942SOL    HW1 6725   5.648   3.169   2.720
 1942SOL    HW2 6726   5.533   3.194   2.833
 1943SOL     OW 6727   1.685   1.153   2.267
 1943SOL    HW1 6728   1.735   1.067   2.268
 1943SOL    HW2 6729   1.644   1.169   2.357
 1944SOL     OW 6730   6.783   3.325   0.713
 1944SOL    HW1 6731   6.702   3.384   0.707
 1944SOL    HW2 6732   6.756   3.235   0.747
 1945SOL     OW 6733   3.631   6.813   0.723
 1945SOL    HW1 6734   3.713   6.785   0.674
 1945SOL    HW2 6735   3.616   6.911   0.710
 1946SOL     OW 6736   6.789   6.175   1.141
 1946SOL    HW1 6737   6.838   6.093   1.110
 1946SOL    HW2 6738   6.700   6.180   1.095
 1947SOL     OW 6739   5.674   4.326   3.305
 1947SOL    HW1 6740   5.717   4.291   3.388
 1947SOL    HW2 6741   5.578   4.347   3.324
 1948SOL     OW 6742   5.783   3.614   3.021
 1948SOL    HW1 6743   5.781   3.651   2.928
 1948SOL    HW2 6744   5.699   3.641   3.069
 1949SOL     OW 6745   4.081   4.302   0.997
 1949SOL    HW1 6746   4.074   4.386   0.944
 1949SOL    HW2 6747   4.158   4.247   0.963
 1950SOL     OW 6748   3.569   4.085   3.933
 1950SOL    HW1 6749   3.480   4.131   3.933
 1950SOL    HW2 6750   3.605   4.082   3.840
 1951SOL     OW 6751   6.616   4.283   5.665
 1951SOL    HW1 6752   6.623   4.198   5.612
 1951SOL    HW2 6753   6.553   4.269   5.741
 1952SOL     OW 6754   5.302   3.827   0.894
 1952SOL    HW1 6755   5.229   3.887   0.924
 1952SOL    HW2 6756   5.316   3.838   0.795
 1953SOL     OW 6757   0.635   1.316   6.668
 1953SOL    HW1 6758   0.717   1.265   6.693
 1953SOL    HW2 6759   0.625   1.318   6.568
 1954SOL     OW 6760   4.438   0.094   1.847
 1954SOL    HW1 6761   4.497   0.168   1.878
 1954SOL    HW2 6762   4.425   0.101   1.749
 1955SOL     OW 6763   1.056   1.648   1.646
 1955SOL    HW1 6764   0.960   1.675   1.644
 1955SOL    HW2 6765   1.088   1.632   1.552
 1956SOL     OW 6766   5.735   0.852   2.169
 1956SOL    HW1 6767   5.829   0.874   2.144
 1956SOL    HW2 6768   5.733   0.766   2.221
 1957SOL     OW 6769   5.509   2.788   3.932
 1957SOL    HW1 6770   5.520   2.769   4.030
 1957SOL    HW2 6771   5.444   2.723   3.893
 1958SOL     OW 6772   4.330   1.461   0.755
 1958SOL    HW1 6773   4.378   1.548   0.763
 1958SOL    HW2 6774   4.328   1.431   0.659
 1959SOL     OW 6775   6.757   6.977   4.069
 1959SOL    HW1 6776   6.725   7.014   3.982
 1959SOL    HW2 6777   6.690   6.995   4.140
 1960SOL     OW 6778   6.011   3.533   2.873
 1960SOL    HW1 6779   5.964   3.552   2.959
 1960SOL    HW2 6780   5.943   3.517   2.801
 1961SOL     OW 6781   6.100   4.287   4.853
 1961SOL    HW1 6782   6.083   4.380   4.886
 1961SOL    HW2 6783   6.139   4.291   4.761
 1962SOL     OW 6784   1.438   6.326   2.946
 1962SOL    HW1 6785   1.351   6.302   2.902
 1962SOL    HW2 6786   1.452   6.268   3.026
 1963SOL     OW 6787   1.177   1.646   1.409
 1963SOL    HW1 6788   1.157   1.608   1.318
 1963SOL    HW2 6789   1.241   1.722   1.399
 1964SOL     OW 6790   5.550   4.627   1.506
 1964SOL    HW1 6791   5.582   4.533   1.499
 1964SOL    HW2 6792   5.593   4.671   1.585
 1965SOL     OW 6793   0.716   4.457   4.362
 1965SOL    HW1 6794   0.669   4.418   4.283
 1965SOL    HW2 6795   0.813   4.435   4.356
 1966SOL     OW 6796   1.357   4.625   1.151
 1966SOL    HW1 6797   1.341   4.686   1.229
 1966SOL    HW2 6798   1.407   4.675   1.080
 1967SOL     OW 6799   6.651   2.333   3.563
 1967SOL    HW1 6800   6.696   2.268   3.624
 1967SOL    HW2 6801   6.570   2.291   3.522
 1968SOL     OW 6802   2.198   1.073   5.777
 1968SOL    HW1 6803   2.243   1.136   5.714
 1968SOL    HW2 6804   2.099   1.091   5.776
 1969SOL     OW 6805   3.119   0.533   1.091
 1969SOL    HW1 6806   3.087   0.459   1.150
 1969SOL    HW2 6807   3.111   0.505   0.995
 1970SOL     OW 6808   6.392   5.617   4.721
 1970SOL    HW1 6809   6.477   5.630   4.773
 1970SOL    HW2 6810   6.391   5.525   4.682
 1971SOL     OW 6811   1.454   6.979   5.618
 1971SOL    HW1 6812   1.535   6.923   5.640
 1971SOL    HW2 6813   1.482   0.054   5.606
 1972SOL     OW 6814   5.887   2.512   1.363
 1972SOL    HW1 6815   5.803   2.469   1.397
 1972SOL    HW2 6816   5.932   2.559   1.439
 1973SOL     OW 6817   2.736   3.436   1.073
 1973SOL    HW1 6818   2.636   3.441   1.071
 1973SOL    HW2 6819   2.767   3.435   1.168
 1974SOL     OW 6820   4.011   6.528   4.605
 1974SOL    HW1 6821   3.973   6.514   4.513
 1974SOL    HW2 6822   4.019   6.439   4.651
 1975SOL     OW 6823   2.025   3.408   3.406
 1975SOL    HW1 6824   1.934   3.386   3.440
 1975SOL    HW2 6825   2.081   3.325   3.406
 1976SOL     OW 6826   6.768   6.963   6.431
 1976SOL    HW1 6827   6.767   7.010   6.342
 1976SOL    HW2 6828   6.695   6.895   6.434
 1977SOL     OW 6829   2.505   4.369   6.602
 1977SOL    HW1 6830   2.459   4.408   6.681
 1977SOL    HW2 6831   2.440   4.358   6.527
 1978SOL     OW 6832   2.423   6.645   2.452
 1978SOL    HW1 6833   2.425   6.567   2.515
 1978SOL    HW2 6834   2.476   6.622   2.370
 1979SOL     OW 6835   5.899   5.330   6.119
 1979SOL    HW1 6836   5.884   5.274   6.201
 1979SOL    HW2 6837   5.899   5.271   6.038
 1980SOL     OW 6838   3.086   1.265   1.828
 1980SOL    HW1 6839   3.063   1.220   1.742
 1980SOL    HW2 6840   3.179   1.301   1.823
 1981SOL     OW 6841   4.589   2.531   3.331
 1981SOL    HW1 6842   4.683   2.520   3.363
 1981SOL    HW2 6843   4.588   2.595   3.254
 1982SOL     OW 6844   6.533   3.739   3.669
 1982SOL    HW1 6845   6.568   3.803   3.738
 1982SOL    HW2 6846   6.489   3.790   3.596
 1983SOL     OW 6847   0.401   0.154   0.734
 1983SOL    HW1 6848   0.481   0.208   0.759
 1983SOL    HW2 6849   0.387   0.159   0.635
 1984SOL     OW 6850   5.555   2.480   5.245
 1984SOL    HW1 6851   5.619   2.407   5.265
 1984SOL    HW2 6852   5.465   2.458   5.284
 1985SOL     OW 6853   6.354   4.911   1.843
 1985SOL    HW1 6854   6.451   4.891   1.854
 1985SOL    HW2 6855   6.337   5.008   1.861
 1986SOL     OW 6856   3.093   1.230   6.697
 1986SOL    HW1 6857   3.053   1.148   6.657
 1986SOL    HW2 6858   3.147   1.206   6.777
 1987SOL     OW 6859   1.456   0.686   3.834
 1987SOL    HW1 6860   1.454   0.774   3.882
 1987SOL    HW2 6861   1.421   0.614   3.893
 1988SOL     OW 6862   7.018   2.504   0.876
 1988SOL    HW1 6863   7.018   2.574   0.805
 1988SOL    HW2 6864   6.937   2.446   0.865
 1989SOL     OW 6865   2.819   5.183   5.795
 1989SOL    HW1 6866   2.822   5.090   5.756
 1989SOL    HW2 6867   2.857   5.182   5.887
 1990SOL     OW 6868   3.888   0.826   0.176
 1990SOL    HW1 6869   3.898   0.906   0.118
 1990SOL    HW2 6870   3.873   0.855   0.271
 1991SOL     OW 6871   3.007   5.598   0.399
 1991SOL    HW1 6872   3.092   5.545   0.407
 1991SOL    HW2 6873   2.932   5.537   0.375
 1992SOL     OW 6874   0.192   6.399   0.306
 1992SOL    HW1 6875   0.243   6.477   0.269
 1992SOL    HW2 6876   0.115   6.433   0.360
 1993SOL     OW 6877   1.878   2.963   4.797
 1993SOL    HW1 6878   1.829   3.035   4.748
 1993SOL    HW2 6879   1.819   2.926   4.869
 1994SOL     OW 6880   3.708   3.484   0.239
 1994SOL    HW1 6881   3.640   3.556   0.255
 1994SOL    HW2 6882   3.694   3.410   0.304
 1995SOL     OW 6883   5.352   1.883   4.934
 1995SOL    HW1 6884   5.330   1.974   4.967
 1995SOL    HW2 6885   5.285   1.856   4.864
 1996SOL     OW 6886   3.801   1.419   1.069
 1996SOL    HW1 6887   3.739   1.406   1.146
 1996SOL    HW2 6888   3.773   1.500   1.017
 1997SOL     OW 6889   3.459   1.688   3.845
 1997SOL    HW1 6890   3.535   1.623   3.836
 1997SOL    HW2 6891   3.378   1.639   3.876
 1998SOL     OW 6892   1.388   3.311   1.787
 1998SOL    HW1 6893   1.416   3.254   1.864
 1998SOL    HW2 6894   1.369   3.404   1.820
 1999SOL     OW 6895   0.712   0.326   5.591
 1999SOL    HW1 6896   0.775   0.393   5.630
 1999SOL    HW2 6897   0.715   0.242   5.644
 2000SOL     OW 6898   3.891   3.638   6.427
 2000SOL    HW1 6899   3.913   3.542   6.443
 2000SOL    HW2 6900   3.973   3.686   6.394
 2001SOL     OW 6901   1.923   1.504   6.462
 2001SOL    HW1 6902   1.890   1.598   6.464
 2001SOL    HW2 6903   1.918   1.469   6.368
 2002SOL     OW 6904   6.861   5.570   1.150
 2002SOL    HW1 6905   6.801   5.504   1.105
 2002SOL    HW2 6906   6.941   5.523   1.186
 2003SOL     OW 6907   5.836   4.913   2.227
 2003SOL    HW1 6908   5.797   4.976   2.159
 2003SOL    HW2 6909   5.769   4.842   2.249
 2004SOL     OW 6910   3.526   0.680   3.736
 2004SOL    HW1 6911   3.593   0.699   3.665
 2004SOL    HW2 6912   3.556   0.602   3.791
 2005SOL     OW 6913   0.511   5.819   0.342
 2005SOL    HW1 6914   0.608   5.845   0.344
 2005SOL    HW2 6915   0.483   5.803   0.248
 2006SOL     OW 6916   5.326   0.203   3.311
 2006SOL    HW1 6917   5.270   0.137   3.362
 2006SOL    HW2 6918   5.298   0.296   3.335
 2007SOL     OW 6919   5.321   4.340   0.234
 2007SOL    HW1 6920   5.324   4.431   0.276
 2007SOL    HW2 6921   5.252   4.338   0.162
 2008SOL     OW 6922   2.141   3.947   3.688
 2008SOL    HW1 6923   2.080   3.910   3.617
 2008SOL    HW2 6924   2.157   3.877   3.758
 2009SOL     OW 6925   6.496   6.061   1.762
 2009SOL    HW1 6926   6.458   6.123   1.831
 2009SOL    HW2 6927   6.595   6.057   1.771
 2010SOL     OW 6928   1.874   2.061   2.085
 2010SOL    HW1 6929   1.882   1.969   2.047
 2010SOL    HW2 6930   1.821   2.119   2.023
 2011SOL     OW 6931   6.930   6.063   5.586
 2011SOL    HW1 6932   6.834   6.067   5.559
 2011SOL    HW2 6933   6.988   6.077   5.506
 2012SOL     OW 6934   1.591   3.465   2.836
 2012SOL    HW1 6935   1.595   3.536   2.906
 2012SOL    HW2 6936   1.528   3.494   2.764
 2013SOL     OW 6937   0.602   2.824   3.179
 2013SOL    HW1 6938   0.628   2.733   3.147
 2013SOL    HW2 6939   0.657   2.893   3.132
 2014SOL     OW 6940   2.978   0.572   3.999
 2014SOL    HW1 6941   2.995   0.573   4.098
 2014SOL    HW2 6942   3.001   0.661   3.960
 2015SOL     OW 6943   3.756   0.827   1.796
 2015SOL    HW1 6944   3.710   0.749   1.839
 2015SOL    HW2 6945   3.780   0.804   1.702
 2016SOL     OW 6946   1.960   6.553   5.774
 2016SOL    HW1 6947   1.930   6.637   5.729
 2016SOL    HW2 6948   1.889   6.521   5.837
 2017SOL     OW 6949   4.229   6.858   2.851
 2017SOL    HW1 6950   4.220   6.952   2.816
 2017SOL    HW2 6951   4.278   6.802   2.784
 2018SOL     OW 6952   0.295   1.966   2.996
 2018SOL    HW1 6953   0.225   2.037   3.003
 2018SOL    HW2 6954   0.327   1.961   2.901
 2019SOL     OW 6955   6.567   4.823   6.278
 2019SOL    HW1 6956   6.527   4.833   6.186
 2019SOL    HW2 6957   6.566   4.726   6.304
 2020SOL     OW 6958   1.926   6.270   6.162
 2020SOL    HW1 6959   1.993   6.199   6.184
 2020SOL    HW2 6960   1.864   6.236   6.092
 2021SOL     OW 6961   6.256   6.474   3.089
 2021SOL    HW1 6962   6.241   6.378   3.111
 2021SOL    HW2 6963   6.191   6.531   3.139
 2022SOL     OW 6964   2.136   4.026   5.214
 2022SOL    HW1 6965   2.198   4.070   5.279
 2022SOL    HW2 6966   2.190   3.987   5.139
 2023SOL     OW 6967   6.608   0.152   6.973
 2023SOL    HW1 6968   6.536   0.124   0.017
 2023SOL    HW2 6969   6.690   0.096   6.988
 2024SOL     OW 6970   0.580   5.704   4.401
 2024SOL    HW1 6971   0.600   5.779   4.338
 2024SOL    HW2 6972   0.611   5.618   4.360
 2025SOL     OW 6973   2.489   0.568   4.869
 2025SOL    HW1 6974   2.527   0.480   4.896
 2025SOL    HW2 6975   2.505   0.582   4.771
 2026SOL     OW 6976   6.086   0.575   6.252
 2026SOL    HW1 6977   6.068   0.660   6.301
 2026SOL    HW2 6978   6.184   0.556   6.253
 2027SOL     OW 6979   0.913   5.861   2.390
 2027SOL    HW1 6980   0.980   5.829   2.323
 2027SOL    HW2 6981   0.937   5.826   2.480
 2028SOL     OW 6982   3.730   5.863   2.794
 2028SOL    HW1 6983   3.750   5.803   2.716
 2028SOL    HW2 6984   3.633   5.856   2.817
 2029SOL     OW 6985   6.964   2.507   6.383
 2029SOL    HW1 6986   6.923   2.456   6.459
 2029SOL    HW2 6987   6.924   2.478   6.297
 2030SOL     OW 6988   2.826   5.845   3.303
 2030SOL    HW1 6989   2.762   5.798   3.242
 2030SOL    HW2 6990   2.786   5.931   3.334
 2031SOL     OW 6991   6.356   5.549   3.251
 2031SOL    HW1 6992   6.435   5.508   3.206
 2031SOL    HW2 6993   6.381   5.578   3.343
 2032SOL     OW 6994   3.016   1.598   6.354
 2032SOL    HW1 6995   2.945   1.652   6.399
 2032SOL    HW2 6996   2.993   1.587   6.257
 2033SOL     OW 6997   1.716   0.905   0.944
 2033SOL    HW1 6998   1.793   0.962   0.973
 2033SOL    HW2 6999   1.750   0.817   0.912
 2034SOL     OW 7000   0.542   5.295   5.629
 2034SOL    HW1 7001   0.632   5.297   5.586
 2034SOL    HW2 7002   0.547   5.342   5.717
 2035SOL     OW 7003   5.673   0.174   2.235
 2035SOL    HW1 7004   5.714   0.083   2.240
 2035SOL    HW2 7005   5.695   0.216   2.147
 2036SOL     OW 7006   1.103   3.667   2.498
 2036SOL    HW1 7007   1.046   3.696   2.421
 2036SOL    HW2 7008   1.054   3.682   2.583
 2037SOL     OW 7009   0.289   3.063   6.337
 2037SOL    HW1 7010   0.268   3.049   6.240
 2037SOL    HW2 7011   0.206   3.089   6.386
 2038SOL     OW 7012   2.243   1.765   6.864
 2038SOL    HW1 7013   2.189   1.681   6.854
 2038SOL    HW2 7014   2.267   1.778   6.960
 2039SOL     OW 7015   6.599   6.120   2.362
 2039SOL    HW1 7016   6.673   6.054   2.353
 2039SOL    HW2 7017   6.608   6.168   2.450
 2040SOL     OW 7018   2.383   3.047   0.307
 2040SOL    HW1 7019   2.425   3.030   0.217
 2040SOL    HW2 7020   2.449   3.090   0.367
 2041SOL     OW 7021   2.014   0.094   6.361
 2041SOL    HW1 7022   2.038   0.184   6.325
 2041SOL    HW2 7023   2.068   0.075   6.443
 2042SOL     OW 7024   4.591   0.476   5.873
 2042SOL    HW1 7025   4.633   0.403   5.820
 2042SOL    HW2 7026   4.594   0.452   5.971
 2043SOL     OW 7027   6.910   3.372   1.225
 2043SOL    HW1 7028   6.950   3.280   1.225
 2043SOL    HW2 7029   6.966   3.433   1.281
 2044SOL     OW 7030   5.333   0.819   0.540
 2044SOL    HW1 7031   5.322   0.813   0.639
 2044SOL    HW2 7032   5.382   0.739   0.507
 2045SOL     OW 7033   1.792   6.097   5.958
 2045SOL    HW1 7034   1.697   6.070   5.968
 2045SOL    HW2 7035   1.806   6.137   5.867
 2046SOL     OW 7036   0.971   1.985   5.133
 2046SOL    HW1 7037   0.955   2.064   5.073
 2046SOL    HW2 7038   1.069   1.971   5.144
 2047SOL     OW 7039   6.384   1.985   6.840
 2047SOL    HW1 7040   6.297   1.996   6.792
 2047SOL    HW2 7041   6.458   2.024   6.786
 2048SOL     OW 7042   1.045   1.458   4.444
 2048SOL    HW1 7043   1.086   1.412   4.365
 2048SOL    HW2 7044   1.114   1.515   4.489
 2049SOL     OW 7045   4.966   1.217   4.744
 2049SOL    HW1 7046   4.870   1.237   4.723
 2049SOL    HW2 7047   4.986   1.244   4.838
 2050SOL     OW 7048   0.342   1.361   3.991
 2050SOL    HW1 7049   0.306   1.419   4.064
 2050SOL    HW2 7050   0.276   1.288   3.971
 2051SOL     OW 7051   2.897   6.685   1.240
 2051SOL    HW1 7052   2.902   6.676   1.339
 2051SOL    HW2 7053   2.946   6.768   1.211
 2052SOL     OW 7054   1.509   4.407   6.871
 2052SOL    HW1 7055   1.571   4.330   6.858
 2052SOL    HW2 7056   1.556   4.481   6.918
 2053SOL     OW 7057   0.744   5.217   3.969
 2053SOL    HW1 7058   0.775   5.197   4.062
 2053SOL    HW2 7059   0.823   5.219   3.907
 2054SOL     OW 7060   3.400   3.537   3.837
 2054SOL    HW1 7061   3.482   3.514   3.784
 2054SOL    HW2 7062   3.424   3.544   3.934
 2055SOL     OW 7063   1.622   2.361   5.549
 2055SOL    HW1 7064   1.601   2.441   5.605
 2055SOL    HW2 7065   1.668   2.390   5.465
 2056SOL     OW 7066   4.164   4.307   1.523
 2056SOL    HW1 7067   4.250   4.355   1.539
 2056SOL    HW2 7068   4.160   4.278   1.428
 2057SOL     OW 7069   5.700   2.662   4.617
 2057SOL    HW1 7070   5.602   2.673   4.603
 2057SOL    HW2 7071   5.731   2.724   4.689
 2058SOL     OW 7072   0.614   6.537   3.621
 2058SOL    HW1 7073   0.525   6.501   3.648
 2058SOL    HW2 7074   0.615   6.553   3.522
 2059SOL     OW 7075   2.460   0.058   5.511
 2059SOL    HW1 7076   2.487   6.999   5.567
 2059SOL    HW2 7077   2.452   0.139   5.569
 2060SOL     OW 7078   1.083   3.326   0.030
 2060SOL    HW1 7079   1.058   3.236   7.017
 2060SOL    HW2 7080   1.112   3.383   6.974
 2061SOL     OW 7081   2.437   1.913   2.585
 2061SOL    HW1 7082   2.393   1.895   2.497
 2061SOL    HW2 7083   2.408   2.003   2.619
 2062SOL     OW 7084   6.221   5.426   5.003
 2062SOL    HW1 7085   6.209   5.464   4.912
 2062SOL    HW2 7086   6.196   5.329   5.003
 2063SOL     OW 7087   1.955   0.691   4.967
 2063SOL    HW1 7088   1.938   0.601   5.008
 2063SOL    HW2 7089   2.004   0.749   5.033
 2064SOL     OW 7090   0.586   3.501   3.584
 2064SOL    HW1 7091   0.631   3.467   3.666
 2064SOL    HW2 7092   0.586   3.430   3.514
 2065SOL     OW 7093   4.739   2.647   5.708
 2065SOL    HW1 7094   4.682   2.688   5.780
 2065SOL    HW2 7095   4.686   2.579   5.658
 2066SOL     OW 7096   5.817   2.640   5.271
 2066SOL    HW1 7097   5.724   2.625   5.238
 2066SOL    HW2 7098   5.882   2.611   5.201
 2067SOL     OW 7099   6.720   4.672   0.840
 2067SOL    HW1 7100   6.746   4.766   0.816
 2067SOL    HW2 7101   6.640   4.645   0.788
 2068SOL     OW 7102   4.230   0.684   4.027
 2068SOL    HW1 7103   4.276   0.688   4.115
 2068SOL    HW2 7104   4.208   0.777   3.997
 2069SOL     OW 7105   0.286   2.357   4.082
 2069SOL    HW1 7106   0.336   2.303   4.150
 2069SOL    HW2 7107   0.321   2.337   3.991
 2070SOL     OW 7108   0.635   4.002   2.186
 2070SOL    HW1 7109   0.579   4.082   2.166
 2070SOL    HW2 7110   0.630   3.937   2.110
 2071SOL     OW 7111   6.435   1.746   6.300
 2071SOL    HW1 7112   6.418   1.844   6.307
 2071SOL    HW2 7113   6.506   1.729   6.232
 2072SOL     OW 7114   4.165   4.520   5.723
 2072SOL    HW1 7115   4.264   4.513   5.727
 2072SOL    HW2 7116   4.126   4.492   5.811
 2073SOL     OW 7117   3.659   6.000   0.511
 2073SOL    HW1 7118   3.735   5.947   0.472
 2073SOL    HW2 7119   3.575   5.980   0.461
 2074SOL     OW 7120   1.579   3.379   5.341
 2074SOL    HW1 7121   1.649   3.450   5.338
 2074SOL    HW2 7122   1.540   3.366   5.250
 2075SOL     OW 7123   0.105   2.176   2.085
 2075SOL    HW1 7124   0.102   2.124   2.170
 2075SOL    HW2 7125   0.071   2.269   2.101
 2076SOL     OW 7126   5.005   6.116   4.924
 2076SOL    HW1 7127   4.984   6.035   4.870
 2076SOL    HW2 7128   5.095   6.152   4.897
 2077SOL     OW 7129   0.265   3.547   1.143
 2077SOL    HW1 7130   0.272   3.618   1.213
 2077SOL    HW2 7131   0.286   3.458   1.184
 2078SOL     OW 7132   1.979   3.854   6.119
 2078SOL    HW1 7133   1.882   3.842   6.139
 2078SOL    HW2 7134   2.033   3.789   6.174
 2079SOL     OW 7135   5.399   1.750   1.803
 2079SOL    HW1 7136   5.399   1.673   1.868
 2079SOL    HW2 7137   5.372   1.717   1.713
 2080SOL     OW 7138   2.405   2.970   5.555
 2080SOL    HW1 7139   2.497   2.959   5.518
 2080SOL    HW2 7140   2.355   3.038   5.502
 2081SOL     OW 7141   6.974   0.311   3.236
 2081SOL    HW1 7142   6.887   0.336   3.195
 2081SOL    HW2 7143   6.976   0.212   3.253
 2082SOL     OW 7144   0.435   6.448   2.729
 2082SOL    HW1 7145   0.354   6.439   2.671
 2082SOL    HW2 7146   0.469   6.542   2.723
 2083SOL     OW 7147   6.473   6.054   4.513
 2083SOL    HW1 7148   6.493   6.020   4.605
 2083SOL    HW2 7149   6.522   5.998   4.445
 2084SOL     OW 7150   0.640   2.418   1.663
 2084SOL    HW1 7151   0.692   2.478   1.724
 2084SOL    HW2 7152   0.680   2.422   1.571
 2085SOL     OW 7153   5.145   5.419   0.436
 2085SOL    HW1 7154   5.163   5.400   0.533
 2085SOL    HW2 7155   5.200   5.357   0.380
 2086SOL     OW 7156   4.295   6.860   6.983
 2086SOL    HW1 7157   4.220   6.889   0.023
 2086SOL    HW2 7158   4.299   6.760   6.981
 2087SOL     OW 7159   4.063   2.273   6.772
 2087SOL    HW1 7160   4.053   2.216   6.691
 2087SOL    HW2 7161   4.126   2.348   6.753
 2088SOL     OW 7162   6.731   5.793   4.984
 2088SOL    HW1 7163   6.687   5.823   5.069
 2088SOL    HW2 7164   6.826   5.769   5.003
 2089SOL     OW 7165   3.025   3.466   6.032
 2089SOL    HW1 7166   2.986   3.409   6.105
 2089SOL    HW2 7167   2.977   3.554   6.030
 2090SOL     OW 7168   4.402   3.504   5.265
 2090SOL    HW1 7169   4.332   3.532   5.199
 2090SOL    HW2 7170   4.493   3.518   5.226
 2091SOL     OW 7171   5.967   5.751   2.223
 2091SOL    HW1 7172   5.991   5.662   2.183
 2091SOL    HW2 7173   5.987   5.824   2.157
 2092SOL     OW 7174   4.468   3.738   1.255
 2092SOL    HW1 7175   4.555   3.784   1.243
 2092SOL    HW2 7176   4.394   3.805   1.253
 2093SOL     OW 7177   3.844   2.084   2.811
 2093SOL    HW1 7178   3.913   2.105   2.742
 2093SOL    HW2 7179   3.770   2.030   2.771
 2094SOL     OW 7180   4.820   2.657   6.994
 2094SOL    HW1 7181   4.731   2.627   6.960
 2094SOL    HW2 7182   4.877   2.688   6.918
 2095SOL     OW 7183   5.406   6.332   3.636
 2095SOL    HW1 7184   5.438   6.385   3.558
 2095SOL    HW2 7185   5.443   6.239   3.631
 2096SOL     OW 7186   4.529   6.616   2.351
 2096SOL    HW1 7187   4.470   6.537   2.367
 2096SOL    HW2 7188   4.531   6.673   2.432
 2097SOL     OW 7189   1.126   5.271   6.374
 2097SOL    HW1 7190   1.223   5.294   6.365
 2097SOL    HW2 7191   1.074   5.320   6.304
 2098SOL     OW 7192   3.254   6.495   3.237
 2098SOL    HW1 7193   3.290   6.584   3.261
 2098SOL    HW2 7194   3.299   6.461   3.154
 2099SOL     OW 7195   5.246   1.219   0.217
 2099SOL    HW1 7196   5.198   1.171   0.291
 2099SOL    HW2 7197   5.183   1.235   0.141
 2100SOL     OW 7198   5.567   1.004   0.611
 2100SOL    HW1 7199   5.504   1.081   0.620
 2100SOL    HW2 7200   5.515   0.919   0.606
 2101SOL     OW 7201   0.106   6.611   2.322
 2101SOL    HW1 7202   0.085   6.644   2.229
 2101SOL    HW2 7203   0.040   6.650   2.386
 2102SOL     OW 7204   3.514   3.478   0.482
 2102SOL    HW1 7205   3.447   3.441   0.546
 2102SOL    HW2 7206   3.602   3.488   0.529
 2103SOL     OW 7207   3.224   6.140   0.716
 2103SOL    HW1 7208   3.253   6.052   0.678
 2103SOL    HW2 7209   3.147   6.127   0.777
 2104SOL     OW 7210   1.002   4.767   3.152
 2104SOL    HW1 7211   0.967   4.855   3.183
 2104SOL    HW2 7212   1.099   4.776   3.128
 2105SOL     OW 7213   5.226   3.843   6.581
 2105SOL    HW1 7214   5.320   3.864   6.607
 2105SOL    HW2 7215   5.223   3.819   6.484
 2106SOL     OW 7216   5.155   3.711   1.918
 2106SOL    HW1 7217   5.159   3.653   2.000
 2106SOL    HW2 7218   5.060   3.722   1.890
 2107SOL     OW 7219   5.715   3.842   5.208
 2107SOL    HW1 7220   5.747   3.862   5.115
 2107SOL    HW2 7221   5.756   3.905   5.273
 2108SOL     OW 7222   5.779   6.634   5.819
 2108SOL    HW1 7223   5.828   6.588   5.745
 2108SOL    HW2 7224   5.804   6.591   5.906
 2109SOL     OW 7225   2.164   5.485   2.920
 2109SOL    HW1 7226   2.108   5.423   2.976
 2109SOL    HW2 7227   2.182   5.442   2.831
 2110SOL     OW 7228   4.162   0.849   6.877
 2110SOL    HW1 7229   4.106   0.768   6.895
 2110SOL    HW2 7230   4.256   0.820   6.858
 2111SOL     OW 7231   0.878   2.563   6.007
 2111SOL    HW1 7232   0.905   2.659   6.011
 2111SOL    HW2 7233   0.803   2.547   6.071
 2112SOL     OW 7234   0.618   1.717   0.735
 2112SOL    HW1 7235   0.683   1.641   0.727
 2112SOL    HW2 7236   0.591   1.728   0.830
 2113SOL     OW 7237   1.414   6.983   4.829
 2113SOL    HW1 7238   1.321   6.958   4.858
 2113SOL    HW2 7239   1.416   0.060   4.806
 2114SOL     OW 7240   1.987   2.259   6.835
 2114SOL    HW1 7241   1.915   2.323   6.805
 2114SOL    HW2 7242   2.004   2.272   6.932
 2115SOL     OW 7243   6.799   5.697   3.422
 2115SOL    HW1 7244   6.814   5.676   3.519
 2115SOL    HW2 7245   6.886   5.721   3.379
 2116SOL     OW 7246   0.347   2.759   0.074
 2116SOL    HW1 7247   0.409   2.683   0.051
 2116SOL    HW2 7248   0.253   2.725   0.077
 2117SOL     OW 7249   6.089   1.481   2.172
 2117SOL    HW1 7250   6.090   1.393   2.126
 2117SOL    HW2 7251   6.000   1.496   2.215
 2118SOL     OW 7252   6.120   2.883   1.898
 2118SOL    HW1 7253   6.074   2.942   1.833
 2118SOL    HW2 7254   6.119   2.789   1.865
 2119SOL     OW 7255   3.233   0.636   0.295
 2119SOL    HW1 7256   3.301   0.688   0.347
 2119SOL    HW2 7257   3.269   0.618   0.203
 2120SOL     OW 7258   5.822   2.101   0.733
 2120SOL    HW1 7259   5.762   2.170   0.774
 2120SOL    HW2 7260   5.917   2.120   0.757
 2121SOL     OW 7261   1.683   0.690   6.557
 2121SOL    HW1 7262   1.622   0.754   6.604
 2121SOL    HW2 7263   1.691   0.716   6.461
 2122SOL     OW 7264   6.096   0.713   4.929
 2122SOL    HW1 7265   6.080   0.713   4.830
 2122SOL    HW2 7266   6.065   0.627   4.968
 2123SOL     OW 7267   1.453   6.209   3.492
 2123SOL    HW1 7268   1.550   6.210   3.466
 2123SOL    HW2 7269   1.418   6.303   3.494
 2124SOL     OW 7270   3.598   3.166   5.791
 2124SOL    HW1 7271   3.599   3.213   5.703
 2124SOL    HW2 7272   3.504   3.161   5.825
 2125SOL     OW 7273   1.457   6.212   3.210
 2125SOL    HW1 7274   1.410   6.214   3.298
 2125SOL    HW2 7275   1.545   6.258   3.218
 2126SOL     OW 7276   3.511   4.259   6.869
 2126SOL    HW1 7277   3.480   4.164   6.872
 2126SOL    HW2 7278   3.445   4.317   6.917
 2127SOL     OW 7279   0.637   2.322   5.091
 2127SOL    HW1 7280   0.547   2.302   5.053
 2127SOL    HW2 7281   0.642   2.419   5.115
 2128SOL     OW 7282   5.320   2.852   1.484
 2128SOL    HW1 7283   5.220   2.846   1.488
 2128SOL    HW2 7284   5.358   2.760   1.470
 2129SOL     OW 7285   4.930   4.555   3.396
 2129SOL    HW1 7286   4.894   4.510   3.315
 2129SOL    HW2 7287   4.938   4.488   3.470
 2130SOL     OW 7288   2.102   0.896   2.700
 2130SOL    HW1 7289   2.035   0.822   2.692
 2130SOL    HW2 7290   2.065   0.978   2.655
 2131SOL     OW 7291   5.902   2.015   5.777
 2131SOL    HW1 7292   5.874   1.982   5.867
 2131SOL    HW2 7293   5.884   2.113   5.770
 2132SOL     OW 7294   2.812   2.033   6.698
 2132SOL    HW1 7295   2.843   2.128   6.688
 2132SOL    HW2 7296   2.812   2.009   6.795
 2133SOL     OW 7297   2.750   2.236   1.803
 2133SOL    HW1 7298   2.666   2.290   1.809
 2133SOL    HW2 7299   2.828   2.293   1.828
 2134SOL     OW 7300   0.883   6.338   4.574
 2134SOL    HW1 7301   0.794   6.378   4.552
 2134SOL    HW2 7302   0.946   6.411   4.602
 2135SOL     OW 7303   0.518   1.359   3.300
 2135SOL    HW1 7304   0.616   1.379   3.308
 2135SOL    HW2 7305   0.485   1.392   3.211
 2136SOL     OW 7306   0.379   3.735   3.414
 2136SOL    HW1 7307   0.299   3.782   3.451
 2136SOL    HW2 7308   0.366   3.636   3.420
 2137SOL     OW 7309   1.183   0.179   5.136
 2137SOL    HW1 7310   1.125   0.144   5.063
 2137SOL    HW2 7311   1.167   0.277   5.147
 2138SOL     OW 7312   0.326   2.974   0.591
 2138SOL    HW1 7313   0.288   3.066   0.588
 2138SOL    HW2 7314   0.400   2.969   0.658
 2139SOL     OW 7315   2.997   0.428   5.557
 2139SOL    HW1 7316   3.075   0.396   5.610
 2139SOL    HW2 7317   2.983   0.526   5.572
 2140SOL     OW 7318   2.450   5.812   3.377
 2140SOL    HW1 7319   2.355   5.799   3.349
 2140SOL    HW2 7320   2.511   5.785   3.302
 2141SOL     OW 7321   5.395   2.211   1.005
 2141SOL    HW1 7322   5.353   2.188   1.093
 2141SOL    HW2 7323   5.360   2.150   0.934
 2142SOL     OW 7324   2.159   2.425   3.573
 2142SOL    HW1 7325   2.076   2.402   3.625
 2142SOL    HW2 7326   2.134   2.478   3.492
 2143SOL     OW 7327   3.140   6.796   1.600
 2143SOL    HW1 7328   3.129   6.857   1.522
 2143SOL    HW2 7329   3.055   6.745   1.614
 2144SOL     OW 7330   0.776   1.145   3.513
 2144SOL    HW1 7331   0.717   1.077   3.556
 2144SOL    HW2 7332   0.823   1.104   3.435
 2145SOL     OW 7333   3.404   4.957   2.982
 2145SOL    HW1 7334   3.423   5.047   2.942
 2145SOL    HW2 7335   3.481   4.930   3.040
 2146SOL     OW 7336   3.922   3.059   2.878
 2146SOL    HW1 7337   3.900   3.039   2.974
 2146SOL    HW2 7338   3.848   3.025   2.820
 2147SOL     OW 7339   1.232   1.229   5.590
 2147SOL    HW1 7340   1.150   1.197   5.638
 2147SOL    HW2 7341   1.294   1.273   5.655
 2148SOL     OW 7342   4.889   3.354   2.744
 2148SOL    HW1 7343   4.846   3.363   2.655
 2148SOL    HW2 7344   4.873   3.263   2.781
 2149SOL     OW 7345   3.970   1.059   2.708
 2149SOL    HW1 7346   4.060   1.102   2.694
 2149SOL    HW2 7347   3.973   0.965   2.673
 2150SOL     OW 7348   2.983   2.136   3.587
 2150SOL    HW1 7349   2.907   2.166   3.530
 2150SOL    HW2 7350   2.957   2.141   3.683
 2151SOL     OW 7351   3.574   2.885   5.471
 2151SOL    HW1 7352   3.602   2.869   5.566
 2151SOL    HW2 7353   3.583   2.982   5.449
 2152SOL     OW 7354   6.183   6.096   2.285
 2152SOL    HW1 7355   6.103   6.040   2.310
 2152SOL    HW2 7356   6.266   6.046   2.307
 2153SOL     OW 7357   4.486   2.453   3.677
 2153SOL    HW1 7358   4.540   2.455   3.761
 2153SOL    HW2 7359   4.391   2.432   3.698
 2154SOL     OW 7360   3.460   5.698   4.679
 2154SOL    HW1 7361   3.516   5.623   4.713
 2154SOL    HW2 7362   3.453   5.769   4.750
 2155SOL     OW 7363   0.330   4.261   0.266
 2155SOL    HW1 7364   0.372   4.344   0.228
 2155SOL    HW2 7365   0.383   4.230   0.344
 2156SOL     OW 7366   1.936   0.558   1.984
 2156SOL    HW1 7367   1.981   0.584   2.070
 2156SOL    HW2 7368   1.842   0.592   1.985
 2157SOL     OW 7369   0.256   1.587   5.347
 2157SOL    HW1 7370   0.315   1.579   5.267
 2157SOL    HW2 7371   0.298   1.540   5.425
 2158SOL     OW 7372   3.383   6.737   1.701
 2158SOL    HW1 7373   3.287   6.752   1.678
 2158SOL    HW2 7374   3.436   6.726   1.617
 2159SOL     OW 7375   1.331   6.837   5.369
 2159SOL    HW1 7376   1.391   6.900   5.417
 2159SOL    HW2 7377   1.372   6.746   5.367
 2160SOL     OW 7378   3.371   3.929   1.042
 2160SOL    HW1 7379   3.355   4.027   1.048
 2160SOL    HW2 7380   3.341   3.896   0.952
 2161SOL     OW 7381   5.190   2.579   3.601
 2161SOL    HW1 7382   5.279   2.578   3.556
 2161SOL    HW2 7383   5.127   2.638   3.549
 2162SOL     OW 7384   1.312   0.537   6.521
 2162SOL    HW1 7385   1.322   0.448   6.477
 2162SOL    HW2 7386   1.297   0.607   6.452
 2163SOL     OW 7387   2.140   1.194   0.514
 2163SOL    HW1 7388   2.178   1.186   0.607
 2163SOL    HW2 7389   2.041   1.183   0.518
 2164SOL     OW 7390   1.375   1.262   0.111
 2164SOL    HW1 7391   1.362   1.243   0.208
 2164SOL    HW2 7392   1.470   1.287   0.094
 2165SOL     OW 7393   1.997   6.873   2.994
 2165SOL    HW1 7394   1.963   6.892   3.086
 2165SOL    HW2 7395   2.045   6.953   2.958
 2166SOL     OW 7396   0.210   2.743   6.451
 2166SOL    HW1 7397   0.257   2.825   6.418
 2166SOL    HW2 7398   0.114   2.764   6.466
 2167SOL     OW 7399   3.687   0.539   2.901
 2167SOL    HW1 7400   3.667   0.632   2.873
 2167SOL    HW2 7401   3.780   0.533   2.937
 2168SOL     OW 7402   5.917   4.484   4.695
 2168SOL    HW1 7403   5.942   4.424   4.619
 2168SOL    HW2 7404   5.817   4.489   4.701
 2169SOL     OW 7405   5.331   2.001   5.948
 2169SOL    HW1 7406   5.368   1.914   5.913
 2169SOL    HW2 7407   5.404   2.069   5.951
 2170SOL     OW 7408   4.206   5.063   4.609
 2170SOL    HW1 7409   4.204   4.968   4.639
 2170SOL    HW2 7410   4.173   5.069   4.515
 2171SOL     OW 7411   0.141   2.972   0.383
 2171SOL    HW1 7412   0.225   2.968   0.436
 2171SOL    HW2 7413   0.064   2.941   0.440
 2172SOL     OW 7414   3.125   0.424   0.837
 2172SOL    HW1 7415   3.107   0.445   0.741
 2172SOL    HW2 7416   3.197   0.356   0.844
 2173SOL     OW 7417   5.468   1.290   5.593
 2173SOL    HW1 7418   5.456   1.192   5.604
 2173SOL    HW2 7419   5.398   1.326   5.532
 2174SOL     OW 7420   0.256   5.331   4.787
 2174SOL    HW1 7421   0.296   5.282   4.709
 2174SOL    HW2 7422   0.288   5.289   4.872
 2175SOL     OW 7423   2.040   0.165   4.639
 2175SOL    HW1 7424   2.116   0.125   4.690
 2175SOL    HW2 7425   1.953   0.134   4.678
 2176SOL     OW 7426   1.828   2.717   2.902
 2176SOL    HW1 7427   1.784   2.794   2.947
 2176SOL    HW2 7428   1.921   2.707   2.937
 2177SOL     OW 7429   0.417   2.807   0.907
 2177SOL    HW1 7430   0.462   2.737   0.852
 2177SOL    HW2 7431   0.448   2.800   1.002
 2178SOL     OW 7432   0.408   4.497   0.166
 2178SOL    HW1 7433   0.431   4.490   0.069
 2178SOL    HW2 7434   0.327   4.554   0.177
 2179SOL     OW 7435   1.791   5.464   4.368
 2179SOL    HW1 7436   1.750   5.520   4.439
 2179SOL    HW2 7437   1.791   5.368   4.398
 2180SOL     OW 7438   3.378   3.301   2.658
 2180SOL    HW1 7439   3.474   3.292   2.686
 2180SOL    HW2 7440   3.351   3.397   2.662
 2181SOL     OW 7441   4.860   5.445   6.298
 2181SOL    HW1 7442   4.910   5.523   6.262
 2181SOL    HW2 7443   4.877   5.365   6.241
 2182SOL     OW 7444   0.246   3.011   6.080
 2182SOL    HW1 7445   0.170   2.960   6.038
 2182SOL    HW2 7446   0.296   3.060   6.008
 2183SOL     OW 7447   3.625   3.050   1.025
 2183SOL    HW1 7448   3.673   3.120   0.971
 2183SOL    HW2 7449   3.610   3.084   1.117
 2184SOL     OW 7450   3.573   2.664   6.528
 2184SOL    HW1 7451   3.621   2.730   6.586
 2184SOL    HW2 7452   3.482   2.699   6.507
 2185SOL     OW 7453   1.944   1.064   1.624
 2185SOL    HW1 7454   1.961   1.106   1.534
 2185SOL    HW2 7455   1.941   0.965   1.614
 2186SOL     OW 7456   0.602   6.269   3.442
 2186SOL    HW1 7457   0.517   6.224   3.415
 2186SOL    HW2 7458   0.633   6.330   3.369
 2187SOL     OW 7459   0.211   1.520   6.877
 2187SOL    HW1 7460   0.295   1.522   6.822
 2187SOL    HW2 7461   0.148   1.590   6.843
 2188SOL     OW 7462   5.890   0.103   3.007
 2188SOL    HW1 7463   5.800   0.092   3.048
 2188SOL    HW2 7464   5.912   0.023   2.952
 2189SOL     OW 7465   2.078   6.851   6.297
 2189SOL    HW1 7466   2.062   6.949   6.290
 2189SOL    HW2 7467   2.027   6.815   6.375
 2190SOL     OW 7468   5.392   1.999   1.914
 2190SOL    HW1 7469   5.407   1.909   1.874
 2190SOL    HW2 7470   5.299   2.004   1.951
 2191SOL     OW 7471   3.307   2.723   6.348
 2191SOL    HW1 7472   3.236   2.782   6.311
 2191SOL    HW2 7473   3.299   2.718   6.447
 2192SOL     OW 7474   4.404   5.621   5.036
 2192SOL    HW1 7475   4.412   5.533   5.084
 2192SOL    HW2 7476   4.437   5.694   5.095
 2193SOL     OW 7477   1.026   4.953   5.447
 2193SOL    HW1 7478   0.933   4.984   5.467
 2193SOL    HW2 7479   1.051   4.879   5.510
 2194SOL     OW 7480   2.101   0.667   1.342
 2194SOL    HW1 7481   2.197   0.642   1.357
 2194SOL    HW2 7482   2.045   0.631   1.416
 2195SOL     OW 7483   1.663   5.590   2.596
 2195SOL    HW1 7484   1.685   5.607   2.500
 2195SOL    HW2 7485   1.748   5.586   2.649
 2196SOL     OW 7486   3.269   1.790   6.247
 2196SOL    HW1 7487   3.180   1.833   6.231
 2196SOL    HW2 7488   3.274   1.705   6.193
 2197SOL     OW 7489   4.935   4.922   1.352
 2197SOL    HW1 7490   4.971   4.859   1.283
 2197SOL    HW2 7491   4.965   5.015   1.332
 2198SOL     OW 7492   6.730   3.728   0.842
 2198SOL    HW1 7493   6.768   3.819   0.862
 2198SOL    HW2 7494   6.773   3.660   0.901
 2199SOL     OW 7495   4.612   0.276   1.545
 2199SOL    HW1 7496   4.570   0.185   1.547
 2199SOL    HW2 7497   4.672   0.283   1.466
 2200SOL     OW 7498   3.223   0.607   4.590
 2200SOL    HW1 7499   3.281   0.596   4.509
 2200SOL    HW2 7500   3.223   0.703   4.617
 2201SOL     OW 7501   5.748   3.519   1.956
 2201SOL    HW1 7502   5.684   3.443   1.944
 2201SOL    HW2 7503   5.835   3.497   1.911
 2202SOL     OW 7504   4.621   5.821   3.914
 2202SOL    HW1 7505   4.526   5.843   3.889
 2202SOL    HW2 7506   4.644   5.867   3.999
 2203SOL     OW 7507   3.398   2.066   3.427
 2203SOL    HW1 7508   3.365   1.972   3.434
 2203SOL    HW2 7509   3.497   2.065   3.410
 2204SOL     OW 7510   3.675   2.350   0.370
 2204SOL    HW1 7511   3.656   2.369   0.273
 2204SOL    HW2 7512   3.741   2.417   0.404
 2205SOL     OW 7513   2.925   6.771   0.902
 2205SOL    HW1 7514   3.012   6.788   0.857
 2205SOL    HW2 7515   2.897   6.853   0.953
 2206SOL     OW 7516   1.968   3.103   6.690
 2206SOL    HW1 7517   2.056   3.151   6.694
 2206SOL    HW2 7518   1.902   3.160   6.640
 2207SOL     OW 7519   0.744   4.454   5.979
 2207SOL    HW1 7520   0.669   4.439   5.915
 2207SOL    HW2 7521   0.775   4.549   5.972
 2208SOL     OW 7522   0.268   4.067   1.875
 2208SOL    HW1 7523   0.329   4.119   1.815
 2208SOL    HW2 7524   0.292   3.970   1.870
 2209SOL     OW 7525   0.668   6.096   6.993
 2209SOL    HW1 7526   0.736   6.115   6.921
 2209SOL    HW2 7527   0.576   6.112   6.957
 2210SOL     OW 7528   0.645   5.951   4.250
 2210SOL    HW1 7529   0.602   5.956   4.160
 2210SOL    HW2 7530   0.601   6.015   4.312
 2211SOL     OW 7531   6.204   1.335   5.292
 2211SOL    HW1 7532   6.258   1.362   5.371
 2211SOL    HW2 7533   6.108   1.353   5.309
 2212SOL     OW 7534   1.673   0.283   6.546
 2212SOL    HW1 7535   1.585   0.294   6.499
 2212SOL    HW2 7536   1.698   0.186   6.546
 2213SOL     OW 7537   3.992   1.924   3.618
 2213SOL    HW1 7538   4.063   1.869   3.575
 2213SOL    HW2 7539   3.911   1.926   3.560
 2214SOL     OW 7540   4.789   0.079   4.335
 2214SOL    HW1 7541   4.694   0.074   4.306
 2214SOL    HW2 7542   4.831   7.009   4.327
 2215SOL     OW 7543   6.509   2.045   5.355
 2215SOL    HW1 7544   6.559   2.034   5.269
 2215SOL    HW2 7545   6.475   1.956   5.385
 2216SOL     OW 7546   1.765   0.026   1.934
 2216SOL    HW1 7547   1.773   6.972   2.001
 2216SOL    HW2 7548   1.745   7.008   1.844
 2217SOL     OW 7549   4.073   0.559   1.230
 2217SOL    HW1 7550   3.978   0.543   1.203
 2217SOL    HW2 7551   4.101   0.491   1.298
 2218SOL     OW 7552   0.765   5.891   0.644
 2218SOL    HW1 7553   0.826   5.864   0.718
 2218SOL    HW2 7554   0.789   5.841   0.561
 2219SOL     OW 7555   1.491   4.314   3.655
 2219SOL    HW1 7556   1.589   4.331   3.657
 2219SOL    HW2 7557   1.443   4.397   3.626
 2220SOL     OW 7558   0.425   0.876   6.662
 2220SOL    HW1 7559   0.415   0.947   6.732
 2220SOL    HW2 7560   0.501   0.899   6.601
 2221SOL     OW 7561   6.490   2.516   1.367
 2221SOL    HW1 7562   6.431   2.538   1.445
 2221SOL    HW2 7563   6.468   2.576   1.290
 2222SOL     OW 7564   5.145   6.374   2.875
 2222SOL    HW1 7565   5.088   6.411   2.803
 2222SOL    HW2 7566   5.100   6.387   2.964
 2223SOL     OW 7567   5.680   5.631   2.493
 2223SOL    HW1 7568   5.648   5.561   2.557
 2223SOL    HW2 7569   5.730   5.588   2.418
 2224SOL     OW 7570   1.567   4.279   1.113
 2224SOL    HW1 7571   1.468   4.291   1.106
 2224SOL    HW2 7572   1.603   4.339   1.184
 2225SOL     OW 7573   5.929   4.866   1.807
 2225SOL    HW1 7574   6.008   4.838   1.752
 2225SOL    HW2 7575   5.943   4.838   1.902
 2226SOL     OW 7576   4.172   4.207   1.267
 2226SOL    HW1 7577   4.240   4.143   1.231
 2226SOL    HW2 7578   4.113   4.238   1.193
 2227SOL     OW 7579   0.072   4.169   4.723
 2227SOL    HW1 7580   0.110   4.203   4.809
 2227SOL    HW2 7581   0.138   4.109   4.679
 2228SOL     OW 7582   3.174   5.065   5.940
 2228SOL    HW1 7583   3.209   4.995   5.878
 2228SOL    HW2 7584   3.244   5.085   6.009
 2229SOL     OW 7585   5.144   0.717   3.677
 2229SOL    HW1 7586   5.073   0.669   3.626
 2229SOL    HW2 7587   5.162   0.806   3.635
 2230SOL     OW 7588   1.372   6.284   6.682
 2230SOL    HW1 7589   1.460   6.242   6.702
 2230SOL    HW2 7590   1.372   6.322   6.590
 2231SOL     OW 7591   2.751   6.943   1.396
 2231SOL    HW1 7592   2.802   6.859   1.380
 2231SOL    HW2 7593   2.657   6.921   1.421
 2232SOL     OW 7594   6.230   2.500   3.067
 2232SOL    HW1 7595   6.297   2.574   3.059
 2232SOL    HW2 7596   6.239   2.438   2.989
 2233SOL     OW 7597   4.205   0.445   0.050
 2233SOL    HW1 7598   4.220   0.352   0.018
 2233SOL    HW2 7599   4.202   0.447   0.149
 2234SOL     OW 7600   3.398   1.724   0.835
 2234SOL    HW1 7601   3.466   1.658   0.865
 2234SOL    HW2 7602   3.324   1.677   0.786
 2235SOL     OW 7603   1.630   0.031   1.129
 2235SOL    HW1 7604   1.584   6.998   1.058
 2235SOL    HW2 7605   1.563   0.082   1.182
 2236SOL     OW 7606   0.129   4.192   1.233
 2236SOL    HW1 7607   0.123   4.132   1.312
 2236SOL    HW2 7608   0.211   4.249   1.241
 2237SOL     OW 7609   6.169   2.159   4.017
 2237SOL    HW1 7610   6.197   2.165   3.921
 2237SOL    HW2 7611   6.102   2.230   4.036
 2238SOL     OW 7612   1.583   5.580   2.137
 2238SOL    HW1 7613   1.504   5.636   2.163
 2238SOL    HW2 7614   1.552   5.502   2.083
 2239SOL     OW 7615   4.420   5.487   3.111
 2239SOL    HW1 7616   4.374   5.398   3.118
 2239SOL    HW2 7617   4.514   5.473   3.081
 2240SOL     OW 7618   5.473   4.239   2.089
 2240SOL    HW1 7619   5.519   4.305   2.149
 2240SOL    HW2 7620   5.485   4.266   1.994
 2241SOL     OW 7621   0.583   0.217   2.471
 2241SOL    HW1 7622   0.652   0.288   2.490
 2241SOL    HW2 7623   0.603   0.175   2.382
 2242SOL     OW 7624   4.928   1.808   2.422
 2242SOL    HW1 7625   4.941   1.791   2.519
 2242SOL    HW2 7626   4.897   1.724   2.377
 2243SOL     OW 7627   2.159   6.255   5.481
 2243SOL    HW1 7628   2.241   6.312   5.489
 2243SOL    HW2 7629   2.106   6.260   5.565
 2244SOL     OW 7630   2.893   0.617   4.843
 2244SOL    HW1 7631   2.905   0.528   4.887
 2244SOL    HW2 7632   2.866   0.684   4.911
 2245SOL     OW 7633   1.489   1.476   1.926
 2245SOL    HW1 7634   1.470   1.402   1.991
 2245SOL    HW2 7635   1.402   1.511   1.890
 2246SOL     OW 7636   1.307   3.688   5.736
 2246SOL    HW1 7637   1.359   3.660   5.816
 2246SOL    HW2 7638   1.274   3.781   5.748
 2247SOL     OW 7639   1.978   2.258   5.893
 2247SOL    HW1 7640   2.062   2.247   5.947
 2247SOL    HW2 7641   1.905   2.293   5.952
 2248SOL     OW 7642   4.964   3.084   5.143
 2248SOL    HW1 7643   4.960   2.990   5.177
 2248SOL    HW2 7644   5.049   3.127   5.175
 2249SOL     OW 7645   5.120   5.528   4.271
 2249SOL    HW1 7646   5.061   5.557   4.346
 2249SOL    HW2 7647   5.081   5.448   4.227
 2250SOL     OW 7648   6.533   4.546   0.061
 2250SOL    HW1 7649   6.568   4.497   0.141
 2250SOL    HW2 7650   6.483   4.627   0.091
 2251SOL     OW 7651   6.041   0.938   6.805
 2251SOL    HW1 7652   6.134   0.942   6.768
 2251SOL    HW2 7653   5.993   0.859   6.765
 2252SOL     OW 7654   4.161   2.187   5.691
 2252SOL    HW1 7655   4.172   2.143   5.780
 2252SOL    HW2 7656   4.097   2.135   5.635
 2253SOL     OW 7657   2.114   3.731   6.712
 2253SOL    HW1 7658   2.090   3.815   6.760
 2253SOL    HW2 7659   2.182   3.680   6.765
 2254SOL     OW 7660   1.902   4.140   6.619
 2254SOL    HW1 7661   1.902   4.238   6.637
 2254SOL    HW2 7662   1.940   4.123   6.528
 2255SOL     OW 7663   5.801   2.749   1.264
 2255SOL    HW1 7664   5.878   2.795   1.308
 2255SOL    HW2 7665   5.814   2.650   1.269
 2256SOL     OW 7666   4.247   4.850   1.724
 2256SOL    HW1 7667   4.185   4.774   1.744
 2256SOL    HW2 7668   4.195   4.935   1.717
 2257SOL     OW 7669   2.191   4.072   4.045
 2257SOL    HW1 7670   2.137   3.988   4.037
 2257SOL    HW2 7671   2.195   4.117   3.956
 2258SOL     OW 7672   1.436   5.426   4.068
 2258SOL    HW1 7673   1.500   5.496   4.034
 2258SOL    HW2 7674   1.373   5.468   4.134
 2259SOL     OW 7675   5.563   3.101   6.646
 2259SOL    HW1 7676   5.549   3.200   6.653
 2259SOL    HW2 7677   5.475   3.056   6.637
 2260SOL     OW 7678   5.610   5.187   1.154
 2260SOL    HW1 7679   5.626   5.117   1.085
 2260SOL    HW2 7680   5.678   5.260   1.145
 2261SOL     OW 7681   4.988   6.077   6.754
 2261SOL    HW1 7682   5.064   6.039   6.701
 2261SOL    HW2 7683   4.989   6.177   6.747
 2262SOL     OW 7684   4.638   2.179   3.119
 2262SOL    HW1 7685   4.552   2.229   3.109
 2262SOL    HW2 7686   4.676   2.195   3.210
 2263SOL     OW 7687   0.243   5.435   6.238
 2263SOL    HW1 7688   0.323   5.461   6.183
 2263SOL    HW2 7689   0.218   5.340   6.217
 2264SOL     OW 7690   3.525   4.145   4.222
 2264SOL    HW1 7691   3.573   4.094   4.151
 2264SOL    HW2 7692   3.428   4.121   4.221
 2265SOL     OW 7693   7.004   0.695   1.936
 2265SOL    HW1 7694   0.036   0.736   2.011
 2265SOL    HW2 7695   6.976   0.603   1.961
 2266SOL     OW 7696   6.013   6.816   0.909
 2266SOL    HW1 7697   6.011   6.916   0.909
 2266SOL    HW2 7698   6.107   6.785   0.917
 2267SOL     OW 7699   6.125   2.261   5.750
 2267SOL    HW1 7700   6.048   2.298   5.698
 2267SOL    HW2 7701   6.097   2.176   5.795
 2268SOL     OW 7702   6.956   5.513   0.176
 2268SOL    HW1 7703   6.861   5.527   0.148
 2268SOL    HW2 7704   7.012   5.499   0.094
 2269SOL     OW 7705   6.740   5.196   5.412
 2269SOL    HW1 7706   6.808   5.127   5.386
 2269SOL    HW2 7707   6.666   5.197   5.346
 2270SOL     OW 7708   3.874   3.516   1.706
 2270SOL    HW1 7709   3.943   3.485   1.772
 2270SOL    HW2 7710   3.852   3.442   1.643
 2271SOL     OW 7711   6.331   4.524   2.286
 2271SOL    HW1 7712   6.310   4.429   2.264
 2271SOL    HW2 7713   6.373   4.529   2.377
 2272SOL     OW 7714   5.848   1.823   6.448
 2272SOL    HW1 7715   5.916   1.773   6.502
 2272SOL    HW2 7716   5.757   1.807   6.486
 2273SOL     OW 7717   1.319   1.490   3.347
 2273SOL    HW1 7718   1.400   1.548   3.357
 2273SOL    HW2 7719   1.297   1.480   3.250
 2274SOL     OW 7720   1.576   3.231   4.030
 2274SOL    HW1 7721   1.552   3.193   4.119
 2274SOL    HW2 7722   1.558   3.329   4.030
 2275SOL     OW 7723   5.234   6.608   3.463
 2275SOL    HW1 7724   5.163   6.644   3.402
 2275SOL    HW2 7725   5.198   6.528   3.512
 2276SOL     OW 7726   4.884   4.748   1.918
 2276SOL    HW1 7727   4.870   4.687   1.997
 2276SOL    HW2 7728   4.955   4.710   1.859
 2277SOL     OW 7729   3.027   3.782   0.216
 2277SOL    HW1 7730   2.992   3.872   0.242
 2277SOL    HW2 7731   2.962   3.711   0.243
 2278SOL     OW 7732   5.571   6.533   1.296
 2278SOL    HW1 7733   5.628   6.451   1.288
 2278SOL    HW2 7734   5.583   6.573   1.387
 2279SOL     OW 7735   5.778   3.962   4.952
 2279SOL    HW1 7736   5.823   4.052   4.950
 2279SOL    HW2 7737   5.754   3.935   4.859
 2280SOL     OW 7738   6.325   6.506   6.509
 2280SOL    HW1 7739   6.236   6.517   6.464
 2280SOL    HW2 7740   6.390   6.464   6.445
 2281SOL     OW 7741   3.706   2.826   0.886
 2281SOL    HW1 7742   3.669   2.915   0.857
 2281SOL    HW2 7743   3.717   2.825   0.986
 2282SOL     OW 7744   4.049   5.178   3.175
 2282SOL    HW1 7745   3.959   5.222   3.176
 2282SOL    HW2 7746   4.039   5.081   3.198
 2283SOL     OW 7747   6.746   3.326   3.581
 2283SOL    HW1 7748   6.781   3.269   3.655
 2283SOL    HW2 7749   6.694   3.269   3.517
 2284SOL     OW 7750   1.922   2.708   2.139
 2284SOL    HW1 7751   2.000   2.748   2.090
 2284SOL    HW2 7752   1.853   2.778   2.154
 2285SOL     OW 7753   1.846   4.640   0.386
 2285SOL    HW1 7754   1.843   4.676   0.480
 2285SOL    HW2 7755   1.788   4.559   0.380
 2286SOL     OW 7756   6.300   6.489   4.489
 2286SOL    HW1 7757   6.243   6.445   4.558
 2286SOL    HW2 7758   6.256   6.481   4.399
 2287SOL     OW 7759   2.097   2.749   1.756
 2287SOL    HW1 7760   2.114   2.651   1.740
 2287SOL    HW2 7761   2.073   2.793   1.669
 2288SOL     OW 7762   0.134   6.373   4.320
 2288SOL    HW1 7763   0.153   6.279   4.347
 2288SOL    HW2 7764   0.053   6.406   4.369
 2289SOL     OW 7765   5.277   2.460   1.502
 2289SOL    HW1 7766   5.312   2.369   1.525
 2289SOL    HW2 7767   5.300   2.524   1.575
 2290SOL     OW 7768   3.362   3.142   3.078
 2290SOL    HW1 7769   3.309   3.065   3.113
 2290SOL    HW2 7770   3.303   3.200   3.022
 2291SOL     OW 7771   1.974   2.636   0.424
 2291SOL    HW1 7772   2.002   2.560   0.483
 2291SOL    HW2 7773   2.054   2.672   0.376
 2292SOL     OW 7774   4.510   2.102   2.706
 2292SOL    HW1 7775   4.520   2.199   2.728
 2292SOL    HW2 7776   4.509   2.048   2.790
 2293SOL     OW 7777   6.280   1.263   0.311
 2293SOL    HW1 7778   6.260   1.354   0.273
 2293SOL    HW2 7779   6.257   1.193   0.245
 2294SOL     OW 7780   0.631   2.081   6.012
 2294SOL    HW1 7781   0.712   2.022   6.018
 2294SOL    HW2 7782   0.643   2.147   5.937
 2295SOL     OW 7783   5.958   6.189   1.325
 2295SOL    HW1 7784   6.019   6.165   1.401
 2295SOL    HW2 7785   6.011   6.231   1.252
 2296SOL     OW 7786   2.915   5.206   3.863
 2296SOL    HW1 7787   2.851   5.198   3.939
 2296SOL    HW2 7788   3.009   5.196   3.896
 2297SOL     OW 7789   4.363   4.190   5.333
 2297SOL    HW1 7790   4.346   4.256   5.259
 2297SOL    HW2 7791   4.279   4.176   5.385
 2298SOL     OW 7792   4.059   3.575   4.391
 2298SOL    HW1 7793   3.964   3.589   4.419
 2298SOL    HW2 7794   4.061   3.519   4.308
 2299SOL     OW 7795   5.263   3.429   4.841
 2299SOL    HW1 7796   5.318   3.346   4.834
 2299SOL    HW2 7797   5.169   3.409   4.814
 2300SOL     OW 7798   4.197   6.705   2.071
 2300SOL    HW1 7799   4.208   6.755   1.985
 2300SOL    HW2 7800   4.103   6.671   2.078
 2301SOL     OW 7801   4.072   3.459   4.147
 2301SOL    HW1 7802   3.990   3.425   4.100
 2301SOL    HW2 7803   4.127   3.512   4.083
 2302SOL     OW 7804   3.922   2.093   0.371
 2302SOL    HW1 7805   3.946   2.133   0.459
 2302SOL    HW2 7806   3.984   2.127   0.300
 2303SOL     OW 7807   3.546   2.220   0.102
 2303SOL    HW1 7808   3.576   2.222   0.007
 2303SOL    HW2 7809   3.451   2.251   0.108
 2304SOL     OW 7810   6.159   5.668   1.760
 2304SOL    HW1 7811   6.226   5.742   1.765
 2304SOL    HW2 7812   6.070   5.705   1.734
 2305SOL     OW 7813   2.358   1.009   5.177
 2305SOL    HW1 7814   2.456   0.989   5.176
 2305SOL    HW2 7815   2.341   1.088   5.236
 2306SOL     OW 7816   1.632   5.583   3.955
 2306SOL    HW1 7817   1.727   5.604   3.929
 2306SOL    HW2 7818   1.574   5.584   3.874
 2307SOL     OW 7819   7.017   2.834   5.935
 2307SOL    HW1 7820   0.053   2.788   5.866
 2307SOL    HW2 7821   6.999   2.771   6.011
 2308SOL     OW 7822   2.580   4.740   1.509
 2308SOL    HW1 7823   2.491   4.708   1.544
 2308SOL    HW2 7824   2.651   4.719   1.576
 2309SOL     OW 7825   1.751   6.460   5.203
 2309SOL    HW1 7826   1.759   6.402   5.122
 2309SOL    HW2 7827   1.811   6.425   5.275
 2310SOL     OW 7828   4.734   6.650   1.428
 2310SOL    HW1 7829   4.738   6.550   1.429
 2310SOL    HW2 7830   4.818   6.687   1.389
 2311SOL     OW 7831   2.324   6.086   1.518
 2311SOL    HW1 7832   2.392   6.018   1.492
 2311SOL    HW2 7833   2.368   6.158   1.572
 2312SOL     OW 7834   3.072   4.831   2.461
 2312SOL    HW1 7835   3.071   4.837   2.561
 2312SOL    HW2 7836   3.167   4.832   2.429
 2313SOL     OW 7837   4.146   5.316   1.879
 2313SOL    HW1 7838   4.125   5.363   1.794
 2313SOL    HW2 7839   4.239   5.338   1.907
 2314SOL     OW 7840   2.816   5.591   3.965
 2314SOL    HW1 7841   2.780   5.503   3.934
 2314SOL    HW2 7842   2.890   5.575   4.031
 2315SOL     OW 7843   4.438   2.969   6.425
 2315SOL    HW1 7844   4.481   3.058   6.410
 2315SOL    HW2 7845   4.343   2.972   6.393
 2316SOL     OW 7846   5.480   2.917   2.487
 2316SOL    HW1 7847   5.523   3.000   2.522
 2316SOL    HW2 7848   5.464   2.926   2.389
 2317SOL     OW 7849   0.833   5.030   3.709
 2317SOL    HW1 7850   0.769   5.003   3.781
 2317SOL    HW2 7851   0.922   5.049   3.749
 2318SOL     OW 7852   0.136   1.492   3.570
 2318SOL    HW1 7853   0.117   1.552   3.647
 2318SOL    HW2 7854   0.234   1.469   3.569
 2319SOL     OW 7855   0.952   4.097   4.331
 2319SOL    HW1 7856   0.982   4.113   4.425
 2319SOL    HW2 7857   0.925   4.184   4.289
 2320SOL     OW 7858   6.526   3.960   4.765
 2320SOL    HW1 7859   6.431   3.991   4.768
 2320SOL    HW2 7860   6.547   3.925   4.674
 2321SOL     OW 7861   3.262   6.580   5.597
 2321SOL    HW1 7862   3.243   6.484   5.616
 2321SOL    HW2 7863   3.317   6.588   5.514
 2322SOL     OW 7864   2.652   0.055   6.166
 2322SOL    HW1 7865   2.629   0.129   6.103
 2322SOL    HW2 7866   2.732   0.081   6.220
 2323SOL     OW 7867   4.851   5.013   2.026
 2323SOL    HW1 7868   4.878   4.916   2.022
 2323SOL    HW2 7869   4.752   5.020   2.020
 2324SOL     OW 7870   6.423   5.668   3.495
 2324SOL    HW1 7871   6.399   5.577   3.527
 2324SOL    HW2 7872   6.491   5.708   3.556
 2325SOL     OW 7873   0.165   3.515   0.493
 2325SOL    HW1 7874   0.171   3.549   0.399
 2325SOL    HW2 7875   0.199   3.422   0.498
 2326SOL     OW 7876   1.433   5.440   6.959
 2326SOL    HW1 7877   1.413   5.535   6.934
 2326SOL    HW2 7878   1.528   5.419   6.935
 2327SOL     OW 7879   5.148   2.484   4.741
 2327SOL    HW1 7880   5.090   2.565   4.751
 2327SOL    HW2 7881   5.091   2.402   4.742
 2328SOL     OW 7882   4.748   6.534   3.402
 2328SOL    HW1 7883   4.747   6.632   3.420
 2328SOL    HW2 7884   4.739   6.518   3.304
 2329SOL     OW 7885   0.449   5.912   4.049
 2329SOL    HW1 7886   0.486   5.903   3.956
 2329SOL    HW2 7887   0.385   5.837   4.066
 2330SOL     OW 7888   0.220   3.991   2.821
 2330SOL    HW1 7889   0.240   3.977   2.724
 2330SOL    HW2 7890   0.305   3.996   2.873
 2331SOL     OW 7891   0.973   4.279   5.126
 2331SOL    HW1 7892   0.895   4.234   5.169
 2331SOL    HW2 7893   0.993   4.364   5.174
 2332SOL     OW 7894   5.375   2.101   5.336
 2332SOL    HW1 7895   5.327   2.019   5.367
 2332SOL    HW2 7896   5.383   2.099   5.237
 2333SOL     OW 7897   1.072   5.712   4.116
 2333SOL    HW1 7898   0.975   5.723   4.094
 2333SOL    HW2 7899   1.124   5.788   4.076
 2334SOL     OW 7900   2.767   6.914   0.362
 2334SOL    HW1 7901   2.749   6.943   0.268
 2334SOL    HW2 7902   2.786   6.994   0.419
 2335SOL     OW 7903   5.329   6.745   3.698
 2335SOL    HW1 7904   5.421   6.708   3.688
 2335SOL    HW2 7905   5.279   6.735   3.612
 2336SOL     OW 7906   4.927   1.584   6.196
 2336SOL    HW1 7907   4.883   1.505   6.154
 2336SOL    HW2 7908   4.981   1.554   6.275
 2337SOL     OW 7909   5.268   0.142   2.508
 2337SOL    HW1 7910   5.308   0.158   2.418
 2337SOL    HW2 7911   5.301   0.055   2.544
 2338SOL     OW 7912   0.902   6.810   6.512
 2338SOL    HW1 7913   1.000   6.794   6.524
 2338SOL    HW2 7914   0.857   6.812   6.602
 2339SOL     OW 7915   3.591   4.493   0.322
 2339SOL    HW1 7916   3.608   4.493   0.421
 2339SOL    HW2 7917   3.546   4.408   0.296
 2340SOL     OW 7918   3.389   5.269   5.120
 2340SOL    HW1 7919   3.376   5.281   5.218
 2340SOL    HW2 7920   3.455   5.336   5.087
 2341SOL     OW 7921   5.901   5.147   0.173
 2341SOL    HW1 7922   5.948   5.214   0.231
 2341SOL    HW2 7923   5.959   5.067   0.161
 2342SOL     OW 7924   6.430   0.451   5.768
 2342SOL    HW1 7925   6.421   0.538   5.818
 2342SOL    HW2 7926   6.445   0.470   5.671
 2343SOL     OW 7927   1.319   6.901   1.102
 2343SOL    HW1 7928   1.381   6.872   1.030
 2343SOL    HW2 7929   1.277   6.988   1.077
 2344SOL     OW 7930   2.010   2.195   2.642
 2344SOL    HW1 7931   1.945   2.188   2.567
 2344SOL    HW2 7932   2.015   2.290   2.673
 2345SOL     OW 7933   1.941   1.343   4.357
 2345SOL    HW1 7934   1.915   1.438   4.373
 2345SOL    HW2 7935   1.996   1.310   4.434
 2346SOL     OW 7936   4.977   3.427   5.862
 2346SOL    HW1 7937   5.046   3.410   5.933
 2346SOL    HW2 7938   4.928   3.511   5.884
 2347SOL     OW 7939   1.617   3.077   1.767
 2347SOL    HW1 7940   1.616   3.145   1.841
 2347SOL    HW2 7941   1.546   3.009   1.784
 2348SOL     OW 7942   2.765   6.848   1.689
 2348SOL    HW1 7943   2.713   6.930   1.665
 2348SOL    HW2 7944   2.702   6.778   1.723
 2349SOL     OW 7945   4.868   5.320   5.825
 2349SOL    HW1 7946   4.864   5.420   5.826
 2349SOL    HW2 7947   4.963   5.290   5.832
 2350SOL     OW 7948   2.303   6.459   5.596
 2350SOL    HW1 7949   2.334   6.448   5.691
 2350SOL    HW2 7950   2.295   6.556   5.575
 2351SOL     OW 7951   2.148   5.348   4.486
 2351SOL    HW1 7952   2.117   5.428   4.435
 2351SOL    HW2 7953   2.228   5.373   4.541
 2352SOL     OW 7954   0.650   3.655   2.549
 2352SOL    HW1 7955   0.689   3.571   2.586
 2352SOL    HW2 7956   0.654   3.653   2.449
 2353SOL     OW 7957   3.178   4.179   6.141
 2353SOL    HW1 7958   3.208   4.267   6.105
 2353SOL    HW2 7959   3.226   4.106   6.093
 2354SOL     OW 7960   4.006   2.127   0.609
 2354SOL    HW1 7961   4.001   2.201   0.676
 2354SOL    HW2 7962   3.925   2.068   0.617
 2355SOL     OW 7963   0.611   6.685   0.758
 2355SOL    HW1 7964   0.539   6.619   0.778
 2355SOL    HW2 7965   0.588   6.736   0.675
 2356SOL     OW 7966   2.686   5.018   3.163
 2356SOL    HW1 7967   2.679   4.923   3.191
 2356SOL    HW2 7968   2.783   5.045   3.161
 2357SOL     OW 7969   6.687   4.441   1.515
 2357SOL    HW1 7970   6.657   4.420   1.608
 2357SOL    HW2 7971   6.636   4.519   1.480
 2358SOL     OW 7972   4.221   1.841   5.680
 2358SOL    HW1 7973   4.140   1.805   5.726
 2358SOL    HW2 7974   4.221   1.810   5.585
 2359SOL     OW 7975   1.699   1.443   5.798
 2359SOL    HW1 7976   1.676   1.370   5.863
 2359SOL    HW2 7977   1.798   1.453   5.794
 2360SOL     OW 7978   4.335   4.137   0.861
 2360SOL    HW1 7979   4.383   4.198   0.925
 2360SOL    HW2 7980   4.401   4.096   0.799
 2361SOL     OW 7981   4.048   6.057   1.712
 2361SOL    HW1 7982   4.046   5.984   1.779
 2361SOL    HW2 7983   4.135   6.054   1.661
 2362SOL     OW 7984   4.249   6.168   3.731
 2362SOL    HW1 7985   4.157   6.128   3.737
 2362SOL    HW2 7986   4.250   6.237   3.658
 2363SOL     OW 7987   2.841   3.746   0.758
 2363SOL    HW1 7988   2.841   3.811   0.682
 2363SOL    HW2 7989   2.868   3.794   0.842
 2364SOL     OW 7990   4.485   1.495   2.240
 2364SOL    HW1 7991   4.536   1.473   2.324
 2364SOL    HW2 7992   4.458   1.591   2.242
 2365SOL     OW 7993   4.966   3.447   3.513
 2365SOL    HW1 7994   4.968   3.509   3.434
 2365SOL    HW2 7995   5.044   3.384   3.507
 2366SOL     OW 7996   2.596   4.752   5.174
 2366SOL    HW1 7997   2.566   4.707   5.258
 2366SOL    HW2 7998   2.672   4.702   5.133
 2367SOL     OW 7999   6.974   4.530   5.519
 2367SOL    HW1 8000   6.975   4.605   5.585
 2367SOL    HW2 8001   6.986   4.443   5.567
 2368SOL     OW 8002   5.545   6.104   4.373
 2368SOL    HW1 8003   5.638   6.108   4.410
 2368SOL    HW2 8004   5.479   6.115   4.446
 2369SOL     OW 8005   3.155   1.787   4.218
 2369SOL    HW1 8006   3.146   1.768   4.316
 2369SOL    HW2 8007   3.249   1.768   4.188
 2370SOL     OW 8008   5.349   2.564   1.253
 2370SOL    HW1 8009   5.446   2.570   1.227
 2370SOL    HW2 8010   5.339   2.504   1.332
 2371SOL     OW 8011   0.846   6.401   3.034
 2371SOL    HW1 8012   0.863   6.486   2.984
 2371SOL    HW2 8013   0.920   6.336   3.014
 2372SOL     OW 8014   6.001   0.881   6.137
 2372SOL    HW1 8015   5.932   0.850   6.072
 2372SOL    HW2 8016   5.984   0.840   6.227
 2373SOL     OW 8017   6.043   6.202   6.206
 2373SOL    HW1 8018   5.954   6.244   6.187
 2373SOL    HW2 8019   6.081   6.165   6.121
 2374SOL     OW 8020   5.735   5.916   2.542
 2374SOL    HW1 8021   5.648   5.867   2.546
 2374SOL    HW2 8022   5.805   5.856   2.505
 2375SOL     OW 8023   1.028   0.512   3.976
 2375SOL    HW1 8024   0.953   0.550   4.031
 2375SOL    HW2 8025   1.109   0.502   4.034
 2376SOL     OW 8026   5.641   1.274   3.269
 2376SOL    HW1 8027   5.590   1.194   3.302
 2376SOL    HW2 8028   5.695   1.248   3.189
 2377SOL     OW 8029   4.404   5.106   5.956
 2377SOL    HW1 8030   4.371   5.092   5.863
 2377SOL    HW2 8031   4.501   5.131   5.954
 2378SOL     OW 8032   7.008   0.998   0.514
 2378SOL    HW1 8033   0.042   0.950   0.582
 2378SOL    HW2 8034   6.958   0.932   0.458
 2379SOL     OW 8035   6.833   4.943   1.095
 2379SOL    HW1 8036   6.795   4.860   1.136
 2379SOL    HW2 8037   6.877   4.998   1.166
 2380SOL     OW 8038   4.815   4.655   5.170
 2380SOL    HW1 8039   4.820   4.584   5.100
 2380SOL    HW2 8040   4.891   4.646   5.233
 2381SOL     OW 8041   2.538   4.971   4.742
 2381SOL    HW1 8042   2.517   4.916   4.661
 2381SOL    HW2 8043   2.583   4.915   4.811
 2382SOL     OW 8044   1.067   5.610   1.942
 2382SOL    HW1 8045   0.981   5.577   1.982
 2382SOL    HW2 8046   1.143   5.555   1.977
 2383SOL     OW 8047   4.995   5.556   5.401
 2383SOL    HW1 8048   4.958   5.620   5.468
 2383SOL    HW2 8049   4.964   5.582   5.309
 2384SOL     OW 8050   0.600   2.142   2.051
 2384SOL    HW1 8051   0.610   2.046   2.081
 2384SOL    HW2 8052   0.525   2.184   2.101
 2385SOL     OW 8053   0.945   2.305   1.153
 2385SOL    HW1 8054   1.029   2.359   1.162
 2385SOL    HW2 8055   0.872   2.364   1.118
 2386SOL     OW 8056   4.665   5.865   4.482
 2386SOL    HW1 8057   4.703   5.955   4.461
 2386SOL    HW2 8058   4.687   5.802   4.408
 2387SOL     OW 8059   1.539   1.617   4.105
 2387SOL    HW1 8060   1.526   1.709   4.069
 2387SOL    HW2 8061   1.637   1.602   4.122
 2388SOL     OW 8062   6.761   1.752   5.627
 2388SOL    HW1 8063   6.843   1.767   5.683
 2388SOL    HW2 8064   6.687   1.811   5.660
 2389SOL     OW 8065   5.551   4.944   3.845
 2389SOL    HW1 8066   5.607   4.976   3.922
 2389SOL    HW2 8067   5.455   4.941   3.874
 2390SOL     OW 8068   4.311   4.160   5.631
 2390SOL    HW1 8069   4.235   4.185   5.571
 2390SOL    HW2 8070   4.278   4.101   5.704
 2391SOL     OW 8071   3.795   3.949   6.010
 2391SOL    HW1 8072   3.859   4.020   6.037
 2391SOL    HW2 8073   3.715   3.991   5.968
 2392SOL     OW 8074   3.847   5.178   5.582
 2392SOL    HW1 8075   3.874   5.234   5.504
 2392SOL    HW2 8076   3.755   5.142   5.568
 2393SOL     OW 8077   3.016   5.812   1.385
 2393SOL    HW1 8078   3.012   5.870   1.467
 2393SOL    HW2 8079   2.997   5.717   1.410
 2394SOL     OW 8080   0.923   2.799   3.487
 2394SOL    HW1 8081   0.932   2.816   3.389
 2394SOL    HW2 8082   0.968   2.713   3.510
 2395SOL     OW 8083   0.208   2.083   4.749
 2395SOL    HW1 8084   0.125   2.136   4.731
 2395SOL    HW2 8085   0.233   2.030   4.669
 2396SOL     OW 8086   6.646   1.111   5.100
 2396SOL    HW1 8087   6.580   1.063   5.042
 2396SOL    HW2 8088   6.719   1.047   5.127
 2397SOL     OW 8089   0.205   4.947   5.356
 2397SOL    HW1 8090   0.232   5.008   5.430
 2397SOL    HW2 8091   0.249   4.859   5.368
 2398SOL     OW 8092   2.811   6.144   3.377
 2398SOL    HW1 8093   2.734   6.205   3.394
 2398SOL    HW2 8094   2.871   6.143   3.457
 2399SOL     OW 8095   2.771   2.338   4.407
 2399SOL    HW1 8096   2.677   2.346   4.371
 2399SOL    HW2 8097   2.769   2.349   4.506
 2400SOL     OW 8098   0.677   4.220   0.824
 2400SOL    HW1 8099   0.691   4.193   0.729
 2400SOL    HW2 8100   0.702   4.144   0.884
 2401SOL     OW 8101   3.813   6.976   5.684
 2401SOL    HW1 8102   3.814   6.913   5.762
 2401SOL    HW2 8103   3.881   6.946   5.617
 2402SOL     OW 8104   1.272   4.280   2.253
 2402SOL    HW1 8105   1.330   4.220   2.307
 2402SOL    HW2 8106   1.315   4.296   2.164
 2403SOL     OW 8107   3.523   4.019   2.931
 2403SOL    HW1 8108   3.531   3.920   2.931
 2403SOL    HW2 8109   3.590   4.058   2.867
 2404SOL     OW 8110   6.463   1.888   1.049
 2404SOL    HW1 8111   6.541   1.826   1.047
 2404SOL    HW2 8112   6.452   1.925   1.142
 2405SOL     OW 8113   2.319   3.541   0.787
 2405SOL    HW1 8114   2.262   3.621   0.767
 2405SOL    HW2 8115   2.268   3.458   0.765
 2406SOL     OW 8116   2.597   6.555   4.931
 2406SOL    HW1 8117   2.664   6.619   4.893
 2406SOL    HW2 8118   2.583   6.479   4.868
 2407SOL     OW 8119   3.958   1.373   3.799
 2407SOL    HW1 8120   3.897   1.352   3.723
 2407SOL    HW2 8121   3.972   1.291   3.855
 2408SOL     OW 8122   3.166   5.395   4.633
 2408SOL    HW1 8123   3.072   5.408   4.666
 2408SOL    HW2 8124   3.192   5.474   4.577
 2409SOL     OW 8125   2.224   2.533   1.469
 2409SOL    HW1 8126   2.260   2.448   1.430
 2409SOL    HW2 8127   2.223   2.604   1.399
 2410SOL     OW 8128   0.358   3.607   5.233
 2410SOL    HW1 8129   0.372   3.540   5.305
 2410SOL    HW2 8130   0.379   3.566   5.144
 2411SOL     OW 8131   2.614   3.844   0.021
 2411SOL    HW1 8132   2.711   3.824   0.012
 2411SOL    HW2 8133   2.572   3.847   6.951
 2412SOL     OW 8134   3.641   1.659   6.483
 2412SOL    HW1 8135   3.565   1.723   6.494
 2412SOL    HW2 8136   3.695   1.657   6.567
 2413SOL     OW 8137   6.499   3.034   6.474
 2413SOL    HW1 8138   6.455   2.957   6.521
 2413SOL    HW2 8139   6.495   3.019   6.375
 2414SOL     OW 8140   6.251   2.386   4.313
 2414SOL    HW1 8141   6.251   2.293   4.276
 2414SOL    HW2 8142   6.208   2.385   4.403
 2415SOL     OW 8143   2.711   5.785   0.946
 2415SOL    HW1 8144   2.706   5.795   0.847
 2415SOL    HW2 8145   2.621   5.798   0.986
 2416SOL     OW 8146   6.832   3.462   2.785
 2416SOL    HW1 8147   6.838   3.551   2.741
 2416SOL    HW2 8148   6.924   3.425   2.800
 2417SOL     OW 8149   3.578   3.664   0.999
 2417SOL    HW1 8150   3.582   3.764   1.005
 2417SOL    HW2 8151   3.484   3.635   0.979
 2418SOL     OW 8152   4.391   3.750   5.745
 2418SOL    HW1 8153   4.449   3.771   5.666
 2418SOL    HW2 8154   4.423   3.666   5.789
 2419SOL     OW 8155   1.702   6.505   4.292
 2419SOL    HW1 8156   1.620   6.558   4.311
 2419SOL    HW2 8157   1.693   6.459   4.204
 2420SOL     OW 8158   1.948   4.335   2.800
 2420SOL    HW1 8159   1.879   4.338   2.873
 2420SOL    HW2 8160   2.001   4.420   2.801
 2421SOL     OW 8161   2.974   6.477   4.403
 2421SOL    HW1 8162   3.002   6.402   4.343
 2421SOL    HW2 8163   3.053   6.534   4.424
 2422SOL     OW 8164   4.292   6.190   0.653
 2422SOL    HW1 8165   4.339   6.218   0.737
 2422SOL    HW2 8166   4.193   6.189   0.668
 2423SOL     OW 8167   2.031   5.162   2.439
 2423SOL    HW1 8168   2.037   5.067   2.407
 2423SOL    HW2 8169   2.054   5.166   2.536
 2424SOL     OW 8170   5.353   1.069   5.834
 2424SOL    HW1 8171   5.330   1.009   5.911
 2424SOL    HW2 8172   5.405   1.148   5.867
 2425SOL     OW 8173   4.848   5.352   5.510
 2425SOL    HW1 8174   4.891   5.408   5.440
 2425SOL    HW2 8175   4.901   5.355   5.595
 2426SOL     OW 8176   1.396   4.824   5.715
 2426SOL    HW1 8177   1.457   4.853   5.642
 2426SOL    HW2 8178   1.407   4.885   5.794
 2427SOL     OW 8179   5.397   0.623   6.860
 2427SOL    HW1 8180   5.495   0.635   6.870
 2427SOL    HW2 8181   5.349   0.701   6.900
 2428SOL     OW 8182   0.183   1.040   3.317
 2428SOL    HW1 8183   0.239   1.066   3.238
 2428SOL    HW2 8184   0.132   1.120   3.350
 2429SOL     OW 8185   5.160   5.395   1.586
 2429SOL    HW1 8186   5.083   5.424   1.644
 2429SOL    HW2 8187   5.240   5.376   1.644
 2430SOL     OW 8188   6.021   2.298   6.656
 2430SOL    HW1 8189   6.005   2.360   6.579
 2430SOL    HW2 8190   5.975   2.334   6.737
 2431SOL     OW 8191   6.847   2.315   1.454
 2431SOL    HW1 8192   6.883   2.234   1.407
 2431SOL    HW2 8193   6.772   2.354   1.401
 2432SOL     OW 8194   3.354   5.568   2.516
 2432SOL    HW1 8195   3.272   5.543   2.464
 2432SOL    HW2 8196   3.328   5.618   2.598
 2433SOL     OW 8197   6.805   4.030   0.098
 2433SOL    HW1 8198   6.732   4.037   0.166
 2433SOL    HW2 8199   6.792   3.947   0.043
 2434SOL     OW 8200   4.383   1.793   3.180
 2434SOL    HW1 8201   4.288   1.820   3.163
 2434SOL    HW2 8202   4.437   1.874   3.203
 2435SOL     OW 8203   5.514   6.239   6.895
 2435SOL    HW1 8204   5.538   6.284   6.809
 2435SOL    HW2 8205   5.597   6.207   6.940
 2436SOL     OW 8206   2.555   1.721   1.598
 2436SOL    HW1 8207   2.599   1.710   1.688
 2436SOL    HW2 8208   2.540   1.818   1.580
 2437SOL     OW 8209   6.947   5.300   2.420
 2437SOL    HW1 8210   6.909   5.260   2.337
 2437SOL    HW2 8211   6.985   5.227   2.477
 2438SOL     OW 8212   3.161   1.416   5.017
 2438SOL    HW1 8213   3.068   1.387   4.994
 2438SOL    HW2 8214   3.172   1.513   4.995
 2439SOL     OW 8215   0.686   5.431   0.573
 2439SOL    HW1 8216   0.632   5.452   0.492
 2439SOL    HW2 8217   0.762   5.495   0.580
 2440SOL     OW 8218   5.017   0.534   5.078
 2440SOL    HW1 8219   4.950   0.467   5.111
 2440SOL    HW2 8220   5.029   0.523   4.980
 2441SOL     OW 8221   5.913   6.967   0.332
 2441SOL    HW1 8222   5.814   6.962   0.350
 2441SOL    HW2 8223   5.939   0.042   0.318
 2442SOL     OW 8224   4.899   3.690   1.858
 2442SOL    HW1 8225   4.843   3.611   1.883
 2442SOL    HW2 8226   4.849   3.746   1.792
 2443SOL     OW 8227   2.233   1.948   0.780
 2443SOL    HW1 8228   2.174   1.938   0.699
 2443SOL    HW2 8229   2.229   1.863   0.833
 2444SOL     OW 8230   3.617   5.787   1.104
 2444SOL    HW1 8231   3.576   5.853   1.166
 2444SOL    HW2 8232   3.716   5.782   1.121
 2445SOL     OW 8233   0.157   2.716   0.787
 2445SOL    HW1 8234   0.104   2.797   0.761
 2445SOL    HW2 8235   0.232   2.743   0.847
 2446SOL     OW 8236   1.827   3.774   1.510
 2446SOL    HW1 8237   1.785   3.848   1.458
 2446SOL    HW2 8238   1.759   3.703   1.529
 2447SOL     OW 8239   3.407   0.109   0.545
 2447SOL    HW1 8240   3.479   0.071   0.603
 2447SOL    HW2 8241   3.323   0.057   0.558
 2448SOL     OW 8242   6.016   1.707   3.811
 2448SOL    HW1 8243   6.073   1.775   3.765
 2448SOL    HW2 8244   6.020   1.721   3.910
 2449SOL     OW 8245   1.930   4.358   2.155
 2449SOL    HW1 8246   1.919   4.385   2.059
 2449SOL    HW2 8247   1.866   4.284   2.176
 2450SOL     OW 8248   1.843   5.985   6.208
 2450SOL    HW1 8249   1.820   6.021   6.118
 2450SOL    HW2 8250   1.924   5.926   6.201
 2451SOL     OW 8251   0.800   0.299   4.858
 2451SOL    HW1 8252   0.809   0.375   4.793
 2451SOL    HW2 8253   0.877   0.236   4.846
 2452SOL     OW 8254   2.797   1.931   4.104
 2452SOL    HW1 8255   2.747   1.998   4.051
 2452SOL    HW2 8256   2.876   1.975   4.148
 2453SOL     OW 8257   1.078   1.659   6.825
 2453SOL    HW1 8258   1.052   1.751   6.799
 2453SOL    HW2 8259   1.117   1.660   6.917
 2454SOL     OW 8260   4.071   5.598   0.960
 2454SOL    HW1 8261   3.974   5.575   0.968
 2454SOL    HW2 8262   4.102   5.585   0.866
 2455SOL     OW 8263   4.268   1.172   0.305
 2455SOL    HW1 8264   4.273   1.085   0.355
 2455SOL    HW2 8265   4.251   1.154   0.208
 2456SOL     OW 8266   0.865   4.492   6.801
 2456SOL    HW1 8267   0.949   4.483   6.855
 2456SOL    HW2 8268   0.881   4.460   6.708
 2457SOL     OW 8269   5.611   1.689   5.266
 2457SOL    HW1 8270   5.516   1.677   5.237
 2457SOL    HW2 8271   5.614   1.700   5.365
 2458SOL     OW 8272   1.208   6.643   2.910
 2458SOL    HW1 8273   1.265   6.614   2.833
 2458SOL    HW2 8274   1.265   6.654   2.991
 2459SOL     OW 8275   2.571   6.112   0.829
 2459SOL    HW1 8276   2.525   6.123   0.918
 2459SOL    HW2 8277   2.639   6.184   0.817
 2460SOL     OW 8278   1.498   0.836   6.187
 2460SOL    HW1 8279   1.401   0.812   6.183
 2460SOL    HW2 8280   1.539   0.798   6.269
 2461SOL     OW 8281   4.242   0.960   3.982
 2461SOL    HW1 8282   4.275   1.026   3.915
 2461SOL    HW2 8283   4.184   1.007   4.049
 2462SOL     OW 8284   0.496   5.079   1.036
 2462SOL    HW1 8285   0.401   5.062   1.011
 2462SOL    HW2 8286   0.552   5.080   0.953
 2463SOL     OW 8287   6.983   0.930   6.354
 2463SOL    HW1 8288   0.008   1.004   6.305
 2463SOL    HW2 8289   6.902   0.966   6.401
 2464SOL     OW 8290   0.965   2.072   3.114
 2464SOL    HW1 8291   1.061   2.050   3.126
 2464SOL    HW2 8292   0.915   2.050   3.198
 2465SOL     OW 8293   0.712   4.663   5.599
 2465SOL    HW1 8294   0.671   4.576   5.626
 2465SOL    HW2 8295   0.794   4.645   5.544
 2466SOL     OW 8296   1.639   2.036   1.866
 2466SOL    HW1 8297   1.596   2.044   1.955
 2466SOL    HW2 8298   1.669   2.126   1.834
 2467SOL     OW 8299   5.038   1.228   6.062
 2467SOL    HW1 8300   5.099   1.188   5.993
 2467SOL    HW2 8301   5.091   1.286   6.124
 2468SOL     OW 8302   3.876   0.069   5.374
 2468SOL    HW1 8303   3.870   0.157   5.422
 2468SOL    HW2 8304   3.972   0.044   5.363
 2469SOL     OW 8305   3.527   2.723   5.258
 2469SOL    HW1 8306   3.430   2.737   5.240
 2469SOL    HW2 8307   3.562   2.797   5.316
 2470SOL     OW 8308   3.525   5.232   0.465
 2470SOL    HW1 8309   3.480   5.320   0.476
 2470SOL    HW2 8310   3.458   5.159   0.469
 2471SOL     OW 8311   3.605   6.690   0.974
 2471SOL    HW1 8312   3.667   6.727   0.905
 2471SOL    HW2 8313   3.586   6.594   0.954
 2472SOL     OW 8314   4.982   2.286   3.931
 2472SOL    HW1 8315   5.011   2.376   3.899
 2472SOL    HW2 8316   5.033   2.262   4.013
 2473SOL     OW 8317   0.702   4.591   4.873
 2473SOL    HW1 8318   0.751   4.504   4.864
 2473SOL    HW2 8319   0.663   4.597   4.965
 2474SOL     OW 8320   0.954   6.147   1.000
 2474SOL    HW1 8321   1.035   6.129   0.944
 2474SOL    HW2 8322   0.872   6.147   0.943
 2475SOL     OW 8323   5.162   0.413   0.704
 2475SOL    HW1 8324   5.247   0.362   0.691
 2475SOL    HW2 8325   5.085   0.353   0.683
 2476SOL     OW 8326   5.834   0.791   1.404
 2476SOL    HW1 8327   5.869   0.865   1.347
 2476SOL    HW2 8328   5.844   0.815   1.500
 2477SOL     OW 8329   3.548   0.738   3.104
 2477SOL    HW1 8330   3.476   0.777   3.046
 2477SOL    HW2 8331   3.509   0.668   3.163
 2478SOL     OW 8332   4.399   1.375   3.257
 2478SOL    HW1 8333   4.450   1.399   3.339
 2478SOL    HW2 8334   4.432   1.429   3.180
 2479SOL     OW 8335   0.923   2.954   1.220
 2479SOL    HW1 8336   0.926   3.041   1.269
 2479SOL    HW2 8337   0.914   2.971   1.122
 2480SOL     OW 8338   3.898   2.555   0.942
 2480SOL    HW1 8339   3.802   2.583   0.933
 2480SOL    HW2 8340   3.950   2.628   0.986
 2481SOL     OW 8341   3.802   0.726   1.528
 2481SOL    HW1 8342   3.830   0.802   1.470
 2481SOL    HW2 8343   3.872   0.654   1.525
 2482SOL     OW 8344   5.680   3.722   6.907
 2482SOL    HW1 8345   5.692   3.681   6.998
 2482SOL    HW2 8346   5.586   3.706   6.876
 2483SOL     OW 8347   0.723   2.386   0.433
 2483SOL    HW1 8348   0.753   2.480   0.452
 2483SOL    HW2 8349   0.803   2.327   0.425
 2484SOL     OW 8350   4.737   1.344   2.213
 2484SOL    HW1 8351   4.705   1.250   2.214
 2484SOL    HW2 8352   4.669   1.402   2.168
 2485SOL     OW 8353   5.275   1.897   6.356
 2485SOL    HW1 8354   5.189   1.857   6.324
 2485SOL    HW2 8355   5.273   1.996   6.343
 2486SOL     OW 8356   0.322   4.641   5.736
 2486SOL    HW1 8357   0.265   4.559   5.737
 2486SOL    HW2 8358   0.356   4.659   5.829
 2487SOL     OW 8359   4.865   6.150   0.606
 2487SOL    HW1 8360   4.965   6.155   0.606
 2487SOL    HW2 8361   4.827   6.240   0.623
 2488SOL     OW 8362   6.825   3.984   1.935
 2488SOL    HW1 8363   6.881   3.963   1.855
 2488SOL    HW2 8364   6.880   3.974   2.018
 2489SOL     OW 8365   0.358   6.130   4.196
 2489SOL    HW1 8366   0.311   6.115   4.283
 2489SOL    HW2 8367   0.386   6.043   4.157
 2490SOL     OW 8368   1.291   6.253   1.672
 2490SOL    HW1 8369   1.310   6.170   1.724
 2490SOL    HW2 8370   1.369   6.314   1.676
 2491SOL     OW 8371   4.137   4.624   1.789
 2491SOL    HW1 8372   4.069   4.607   1.718
 2491SOL    HW2 8373   4.217   4.565   1.775
 2492SOL     OW 8374   4.966   3.342   0.955
 2492SOL    HW1 8375   4.933   3.372   0.865
 2492SOL    HW2 8376   4.923   3.256   0.980
 2493SOL     OW 8377   6.748   0.068   1.277
 2493SOL    HW1 8378   6.801   0.014   1.342
 2493SOL    HW2 8379   6.792   0.157   1.264
 2494SOL     OW 8380   5.951   2.974   2.164
 2494SOL    HW1 8381   6.017   3.033   2.118
 2494SOL    HW2 8382   5.962   2.981   2.263
 2495SOL     OW 8383   5.260   5.585   3.620
 2495SOL    HW1 8384   5.190   5.644   3.660
 2495SOL    HW2 8385   5.340   5.640   3.595
 2496SOL     OW 8386   0.139   3.633   6.838
 2496SOL    HW1 8387   0.132   3.716   6.894
 2496SOL    HW2 8388   0.145   3.553   6.898
 2497SOL     OW 8389   0.424   0.554   0.770
 2497SOL    HW1 8390   0.464   0.496   0.699
 2497SOL    HW2 8391   0.406   0.645   0.732
 2498SOL     OW 8392   3.302   2.855   5.540
 2498SOL    HW1 8393   3.395   2.871   5.505
 2498SOL    HW2 8394   3.238   2.914   5.491
 2499SOL     OW 8395   5.932   3.446   1.002
 2499SOL    HW1 8396   5.868   3.408   0.936
 2499SOL    HW2 8397   5.885   3.461   1.090
 2500SOL     OW 8398   3.419   3.725   6.077
 2500SOL    HW1 8399   3.332   3.677   6.087
 2500SOL    HW2 8400   3.482   3.694   6.149
 2501SOL     OW 8401   6.256   5.696   0.103
 2501SOL    HW1 8402   6.202   5.779   0.118
 2501SOL    HW2 8403   6.203   5.616   0.130
 2502SOL     OW 8404   2.267   6.529   4.852
 2502SOL    HW1 8405   2.350   6.583   4.835
 2502SOL    HW2 8406   2.198   6.588   4.894
 2503SOL     OW 8407   3.338   6.509   5.305
 2503SOL    HW1 8408   3.262   6.447   5.288
 2503SOL    HW2 8409   3.368   6.550   5.218
 2504SOL     OW 8410   3.171   5.293   2.650
 2504SOL    HW1 8411   3.205   5.344   2.729
 2504SOL    HW2 8412   3.154   5.356   2.574
 2505SOL     OW 8413   0.426   5.777   3.454
 2505SOL    HW1 8414   0.410   5.685   3.419
 2505SOL    HW2 8415   0.485   5.773   3.534
 2506SOL     OW 8416   6.185   3.585   6.262
 2506SOL    HW1 8417   6.172   3.527   6.342
 2506SOL    HW2 8418   6.246   3.661   6.285
 2507SOL     OW 8419   6.915   3.383   6.974
 2507SOL    HW1 8420   6.836   3.397   0.012
 2507SOL    HW2 8421   6.897   3.422   6.883
 2508SOL     OW 8422   2.770   1.810   4.883
 2508SOL    HW1 8423   2.752   1.776   4.791
 2508SOL    HW2 8424   2.717   1.893   4.899
 2509SOL     OW 8425   6.494   4.163   0.457
 2509SOL    HW1 8426   6.545   4.091   0.410
 2509SOL    HW2 8427   6.558   4.233   0.490
 2510SOL     OW 8428   3.441   4.556   0.982
 2510SOL    HW1 8429   3.526   4.543   0.932
 2510SOL    HW2 8430   3.371   4.592   0.920
 2511SOL     OW 8431   2.158   1.030   4.952
 2511SOL    HW1 8432   2.162   0.997   4.858
 2511SOL    HW2 8433   2.250   1.030   4.992
 2512SOL     OW 8434   4.124   4.207   5.443
 2512SOL    HW1 8435   4.107   4.296   5.400
 2512SOL    HW2 8436   4.041   4.152   5.437
 2513SOL     OW 8437   2.000   5.882   5.397
 2513SOL    HW1 8438   1.993   5.901   5.495
 2513SOL    HW2 8439   2.090   5.842   5.378
 2514SOL     OW 8440   0.606   3.258   4.228
 2514SOL    HW1 8441   0.606   3.244   4.327
 2514SOL    HW2 8442   0.537   3.198   4.186
 2515SOL     OW 8443   1.615   0.283   1.494
 2515SOL    HW1 8444   1.619   0.325   1.403
 2515SOL    HW2 8445   1.677   0.205   1.497
 2516SOL     OW 8446   5.103   1.145   2.738
 2516SOL    HW1 8447   5.163   1.065   2.725
 2516SOL    HW2 8448   5.018   1.115   2.780
 2517SOL     OW 8449   2.174   6.893   5.741
 2517SOL    HW1 8450   2.217   6.982   5.724
 2517SOL    HW2 8451   2.163   6.879   5.839
 2518SOL     OW 8452   1.696   5.453   1.293
 2518SOL    HW1 8453   1.597   5.444   1.281
 2518SOL    HW2 8454   1.741   5.375   1.249
 2519SOL     OW 8455   3.546   0.893   1.345
 2519SOL    HW1 8456   3.623   0.889   1.281
 2519SOL    HW2 8457   3.486   0.969   1.320
 2520SOL     OW 8458   3.360   1.703   6.797
 2520SOL    HW1 8459   3.335   1.721   6.702
 2520SOL    HW2 8460   3.390   1.789   6.841
 2521SOL     OW 8461   3.556   1.955   5.673
 2521SOL    HW1 8462   3.618   1.978   5.748
 2521SOL    HW2 8463   3.561   2.025   5.603
 2522SOL     OW 8464   1.227   1.592   5.564
 2522SOL    HW1 8465   1.178   1.663   5.514
 2522SOL    HW2 8466   1.293   1.548   5.503
 2523SOL     OW 8467   1.869   3.757   1.138
 2523SOL    HW1 8468   1.863   3.670   1.188
 2523SOL    HW2 8469   1.780   3.803   1.141
 2524SOL     OW 8470   0.451   6.686   4.667
 2524SOL    HW1 8471   0.529   6.748   4.664
 2524SOL    HW2 8472   0.411   6.678   4.576
 2525SOL     OW 8473   1.359   3.237   4.594
 2525SOL    HW1 8474   1.328   3.270   4.505
 2525SOL    HW2 8475   1.449   3.274   4.615
 2526SOL     OW 8476   1.626   4.944   6.463
 2526SOL    HW1 8477   1.610   4.847   6.445
 2526SOL    HW2 8478   1.584   4.969   6.551
 2527SOL     OW 8479   4.927   5.601   5.795
 2527SOL    HW1 8480   4.980   5.673   5.840
 2527SOL    HW2 8481   4.893   5.634   5.707
 2528SOL     OW 8482   5.510   4.134   5.270
 2528SOL    HW1 8483   5.470   4.221   5.301
 2528SOL    HW2 8484   5.608   4.133   5.291
 2529SOL     OW 8485   0.616   0.171   6.999
 2529SOL    HW1 8486   0.599   0.201   6.905
 2529SOL    HW2 8487   0.561   0.089   7.018
 2530SOL     OW 8488   2.503   6.078   5.557
 2530SOL    HW1 8489   2.458   6.096   5.470
 2530SOL    HW2 8490   2.555   6.159   5.585
 2531SOL     OW 8491   6.030   5.672   5.656
 2531SOL    HW1 8492   5.981   5.598   5.702
 2531SOL    HW2 8493   6.129   5.659   5.668
 2532SOL     OW 8494   0.284   6.856   0.496
 2532SOL    HW1 8495   0.313   6.775   0.446
 2532SOL    HW2 8496   0.363   6.899   0.539
 2533SOL     OW 8497   4.472   0.812   3.935
 2533SOL    HW1 8498   4.435   0.719   3.941
 2533SOL    HW2 8499   4.406   0.877   3.971
 2534SOL     OW 8500   4.173   1.449   1.625
 2534SOL    HW1 8501   4.249   1.459   1.561
 2534SOL    HW2 8502   4.087   1.443   1.573
 2535SOL     OW 8503   2.952   2.271   6.758
 2535SOL    HW1 8504   3.021   2.238   6.823
 2535SOL    HW2 8505   2.928   2.365   6.781
 2536SOL     OW 8506   1.710   0.668   6.276
 2536SOL    HW1 8507   1.678   0.574   6.283
 2536SOL    HW2 8508   1.804   0.669   6.243
 2537SOL     OW 8509   3.255   6.798   6.406
 2537SOL    HW1 8510   3.275   6.881   6.356
 2537SOL    HW2 8511   3.224   6.821   6.498
 2538SOL     OW 8512   0.304   3.859   4.097
 2538SOL    HW1 8513   0.361   3.911   4.160
 2538SOL    HW2 8514   0.211   3.895   4.098
 2539SOL     OW 8515   5.178   0.826   4.178
 2539SOL    HW1 8516   5.197   0.857   4.084
 2539SOL    HW2 8517   5.204   0.730   4.187
 2540SOL     OW 8518   4.350   2.063   2.443
 2540SOL    HW1 8519   4.389   2.106   2.362
 2540SOL    HW2 8520   4.379   2.114   2.524
 2541SOL     OW 8521   2.521   6.846   5.653
 2541SOL    HW1 8522   2.532   6.898   5.738
 2541SOL    HW2 8523   2.595   6.779   5.644
 2542SOL     OW 8524   3.284   3.466   6.819
 2542SOL    HW1 8525   3.200   3.496   6.774
 2542SOL    HW2 8526   3.300   3.369   6.800
 2543SOL     OW 8527   0.547   1.184   4.072
 2543SOL    HW1 8528   0.486   1.259   4.047
 2543SOL    HW2 8529   0.534   1.108   4.008
 2544SOL     OW 8530   0.480   5.804   0.620
 2544SOL    HW1 8531   0.479   5.790   0.521
 2544SOL    HW2 8532   0.572   5.831   0.649
 2545SOL     OW 8533   1.444   6.768   2.415
 2545SOL    HW1 8534   1.401   6.823   2.487
 2545SOL    HW2 8535   1.374   6.714   2.369
 2546SOL     OW 8536   6.815   1.935   1.025
 2546SOL    HW1 8537   6.811   1.879   1.108
 2546SOL    HW2 8538   6.892   1.998   1.032
 2547SOL     OW 8539   0.255   3.654   0.150
 2547SOL    HW1 8540   0.215   3.566   0.123
 2547SOL    HW2 8541   0.328   3.678   0.087
 2548SOL     OW 8542   0.520   7.017   4.451
 2548SOL    HW1 8543   0.491   0.087   4.484
 2548SOL    HW2 8544   0.457   6.947   4.483
 2549SOL     OW 8545   0.822   0.880   1.468
 2549SOL    HW1 8546   0.817   0.786   1.501
 2549SOL    HW2 8547   0.914   0.915   1.482
 2550SOL     OW 8548   6.557   6.636   0.721
 2550SOL    HW1 8549   6.602   6.632   0.632
 2550SOL    HW2 8550   6.461   6.664   0.708
 2551SOL     OW 8551   2.971   4.808   0.305
 2551SOL    HW1 8552   3.025   4.868   0.363
 2551SOL    HW2 8553   2.941   4.728   0.357
 2552SOL     OW 8554   2.546   5.680   5.087
 2552SOL    HW1 8555   2.496   5.599   5.117
 2552SOL    HW2 8556   2.519   5.702   4.993
 2553SOL     OW 8557   3.920   3.523   5.783
 2553SOL    HW1 8558   3.962   3.565   5.703
 2553SOL    HW2 8559   3.821   3.530   5.776
 2554SOL     OW 8560   2.508   1.069   7.013
 2554SOL    HW1 8561   2.474   0.979   0.018
 2554SOL    HW2 8562   2.536   1.119   0.075
 2555SOL     OW 8563   5.610   1.850   4.148
 2555SOL    HW1 8564   5.624   1.925   4.083
 2555SOL    HW2 8565   5.696   1.801   4.161
 2556SOL     OW 8566   4.412   5.636   0.370
 2556SOL    HW1 8567   4.410   5.623   0.271
 2556SOL    HW2 8568   4.375   5.726   0.392
 2557SOL     OW 8569   1.989   3.622   0.066
 2557SOL    HW1 8570   2.041   3.574   0.136
 2557SOL    HW2 8571   1.935   3.556   0.013
 2558SOL     OW 8572   5.261   0.718   5.392
 2558SOL    HW1 8573   5.189   0.784   5.372
 2558SOL    HW2 8574   5.262   0.647   5.322
 2559SOL     OW 8575   1.264   4.413   5.529
 2559SOL    HW1 8576   1.168   4.397   5.555
 2559SOL    HW2 8577   1.302   4.486   5.585
 2560SOL     OW 8578   6.780   2.027   5.738
 2560SOL    HW1 8579   6.681   2.014   5.732
 2560SOL    HW2 8580   6.819   2.028   5.645
 2561SOL     OW 8581   2.667   4.996   5.109
 2561SOL    HW1 8582   2.631   4.903   5.122
 2561SOL    HW2 8583   2.608   5.046   5.045
 2562SOL     OW 8584   2.216   4.342   1.395
 2562SOL    HW1 8585   2.187   4.317   1.303
 2562SOL    HW2 8586   2.296   4.288   1.421
 2563SOL     OW 8587   3.375   1.274   0.740
 2563SOL    HW1 8588   3.414   1.203   0.682
 2563SOL    HW2 8589   3.335   1.233   0.822
 2564SOL     OW 8590   1.129   5.567   0.401
 2564SOL    HW1 8591   1.227   5.549   0.398
 2564SOL    HW2 8592   1.080   5.481   0.417
 2565SOL     OW 8593   0.851   0.745   0.029
 2565SOL    HW1 8594   0.875   0.756   6.953
 2565SOL    HW2 8595   0.811   0.654   0.043
 2566SOL     OW 8596   2.558   6.663   1.477
 2566SOL    HW1 8597   2.494   6.724   1.431
 2566SOL    HW2 8598   2.583   6.588   1.416
 2567SOL     OW 8599   1.287   0.287   0.856
 2567SOL    HW1 8600   1.205   0.316   0.807
 2567SOL    HW2 8601   1.260   0.225   0.930
 2568SOL     OW 8602   4.190   2.121   6.980
 2568SOL    HW1 8603   4.189   2.022   6.965
 2568SOL    HW2 8604   4.147   2.166   6.902
 2569SOL     OW 8605   3.340   1.129   3.089
 2569SOL    HW1 8606   3.353   1.078   3.004
 2569SOL    HW2 8607   3.243   1.153   3.099
 2570SOL     OW 8608   5.700   0.587   5.442
 2570SOL    HW1 8609   5.741   0.563   5.529
 2570SOL    HW2 8610   5.657   0.506   5.402
 2571SOL     OW 8611   1.416   4.816   3.648
 2571SOL    HW1 8612   1.440   4.800   3.743
 2571SOL    HW2 8613   1.384   4.910   3.637
 2572SOL     OW 8614   2.755   5.200   2.440
 2572SOL    HW1 8615   2.782   5.295   2.426
 2572SOL    HW2 8616   2.826   5.153   2.492
 2573SOL     OW 8617   1.058   2.090   1.001
 2573SOL    HW1 8618   1.022   2.008   1.046
 2573SOL    HW2 8619   1.021   2.172   1.045
 2574SOL     OW 8620   5.066   3.596   0.748
 2574SOL    HW1 8621   5.108   3.637   0.829
 2574SOL    HW2 8622   5.137   3.551   0.694
 2575SOL     OW 8623   5.906   5.730   6.649
 2575SOL    HW1 8624   5.995   5.686   6.635
 2575SOL    HW2 8625   5.898   5.809   6.588
 2576SOL     OW 8626   4.166   6.267   4.636
 2576SOL    HW1 8627   4.195   6.192   4.577
 2576SOL    HW2 8628   4.102   6.234   4.705
 2577SOL     OW 8629   2.598   5.207   1.962
 2577SOL    HW1 8630   2.615   5.231   2.057
 2577SOL    HW2 8631   2.684   5.184   1.917
 2578SOL     OW 8632   4.072   1.633   3.823
 2578SOL    HW1 8633   4.004   1.560   3.834
 2578SOL    HW2 8634   4.026   1.722   3.824
 2579SOL     OW 8635   0.369   6.250   3.946
 2579SOL    HW1 8636   0.389   6.196   3.864
 2579SOL    HW2 8637   0.391   6.197   4.028
 2580SOL     OW 8638   1.943   4.864   0.239
 2580SOL    HW1 8639   1.912   4.771   0.259
 2580SOL    HW2 8640   1.995   4.864   0.154
 2581SOL     OW 8641   1.989   5.724   0.531
 2581SOL    HW1 8642   2.073   5.689   0.488
 2581SOL    HW2 8643   2.003   5.819   0.559
 2582SOL     OW 8644   6.990   4.231   1.660
 2582SOL    HW1 8645   6.958   4.313   1.613
 2582SOL    HW2 8646   0.049   4.193   1.611
 2583SOL     OW 8647   0.408   0.846   0.072
 2583SOL    HW1 8648   0.461   0.879   0.150
 2583SOL    HW2 8649   0.414   0.911   7.017
 2584SOL     OW 8650   4.293   5.033   5.698
 2584SOL    HW1 8651   4.282   5.102   5.627
 2584SOL    HW2 8652   4.221   4.964   5.691
 2585SOL     OW 8653   2.796   4.607   0.051
 2585SOL    HW1 8654   2.738   4.670   0.103
 2585SOL    HW2 8655   2.847   4.549   0.115
 2586SOL     OW 8656   2.899   0.866   5.901
 2586SOL    HW1 8657   2.799   0.868   5.890
 2586SOL    HW2 8658   2.932   0.774   5.882
 2587SOL     OW 8659   0.365   1.459   3.082
 2587SOL    HW1 8660   0.352   1.406   2.998
 2587SOL    HW2 8661   0.334   1.553   3.066
 2588SOL     OW 8662   3.915   2.443   5.354
 2588SOL    HW1 8663   3.818   2.450   5.329
 2588SOL    HW2 8664   3.970   2.488   5.284
 2589SOL     OW 8665   1.032   6.380   6.453
 2589SOL    HW1 8666   1.124   6.346   6.469
 2589SOL    HW2 8667   0.983   6.388   6.539
 2590SOL     OW 8668   2.619   5.140   0.517
 2590SOL    HW1 8669   2.572   5.216   0.562
 2590SOL    HW2 8670   2.612   5.151   0.417
 2591SOL     OW 8671   6.002   5.277   3.588
 2591SOL    HW1 8672   5.974   5.373   3.591
 2591SOL    HW2 8673   6.017   5.250   3.493
 2592SOL     OW 8674   2.588   4.086   6.467
 2592SOL    HW1 8675   2.619   3.997   6.502
 2592SOL    HW2 8676   2.558   4.143   6.543
 2593SOL     OW 8677   3.261   5.860   0.709
 2593SOL    HW1 8678   3.331   5.869   0.780
 2593SOL    HW2 8679   3.293   5.796   0.639
 2594SOL     OW 8680   2.335   4.401   6.366
 2594SOL    HW1 8681   2.250   4.452   6.381
 2594SOL    HW2 8682   2.396   4.454   6.307
 2595SOL     OW 8683   1.009   1.444   4.721
 2595SOL    HW1 8684   1.008   1.535   4.763
 2595SOL    HW2 8685   1.000   1.453   4.622
 2596SOL     OW 8686   2.046   2.963   1.217
 2596SOL    HW1 8687   2.026   2.890   1.153
 2596SOL    HW2 8688   2.021   2.935   1.310
 2597SOL     OW 8689   6.805   5.204   6.443
 2597SOL    HW1 8690   6.744   5.280   6.467
 2597SOL    HW2 8691   6.762   5.118   6.468
 2598SOL     OW 8692   6.302   1.629   1.858
 2598SOL    HW1 8693   6.297   1.587   1.767
 2598SOL    HW2 8694   6.391   1.608   1.900
 2599SOL     OW 8695   1.897   6.624   1.371
 2599SOL    HW1 8696   1.839   6.610   1.451
 2599SOL    HW2 8697   1.880   6.551   1.304
 2600SOL     OW 8698   5.838   3.712   4.375
 2600SOL    HW1 8699   5.818   3.628   4.324
 2600SOL    HW2 8700   5.870   3.782   4.311
 2601SOL     OW 8701   1.822   1.926   2.402
 2601SOL    HW1 8702   1.907   1.881   2.428
 2601SOL    HW2 8703   1.843   2.010   2.351
 2602SOL     OW 8704   1.693   5.288   3.779
 2602SOL    HW1 8705   1.777   5.336   3.805
 2602SOL    HW2 8706   1.643   5.261   3.861
 2603SOL     OW 8707   3.070   1.231   2.108
 2603SOL    HW1 8708   3.056   1.225   2.009
 2603SOL    HW2 8709   3.027   1.152   2.153
 2604SOL     OW 8710   4.984   1.726   1.895
 2604SOL    HW1 8711   4.909   1.750   1.956
 2604SOL    HW2 8712   5.040   1.655   1.938
 2605SOL     OW 8713   1.248   3.998   2.494
 2605SOL    HW1 8714   1.205   4.081   2.528
 2605SOL    HW2 8715   1.313   4.021   2.422
 2606SOL     OW 8716   5.323   4.794   1.075
 2606SOL    HW1 8717   5.413   4.785   1.118
 2606SOL    HW2 8718   5.304   4.712   1.021
 2607SOL     OW 8719   1.780   2.266   1.319
 2607SOL    HW1 8720   1.738   2.343   1.368
 2607SOL    HW2 8721   1.717   2.234   1.247
 2608SOL     OW 8722   2.056   6.070   6.609
 2608SOL    HW1 8723   2.112   6.135   6.660
 2608SOL    HW2 8724   2.114   5.995   6.576
 2609SOL     OW 8725   0.587   1.259   1.218
 2609SOL    HW1 8726   0.493   1.253   1.185
 2609SOL    HW2 8727   0.613   1.355   1.226
 2610SOL     OW 8728   1.355   5.174   4.324
 2610SOL    HW1 8729   1.426   5.138   4.384
 2610SOL    HW2 8730   1.384   5.262   4.287
 2611SOL     OW 8731   4.774   6.182   0.290
 2611SOL    HW1 8732   4.755   6.280   0.286
 2611SOL    HW2 8733   4.866   6.167   0.326
 2612SOL     OW 8734   4.863   6.573   4.766
 2612SOL    HW1 8735   4.833   6.482   4.793
 2612SOL    HW2 8736   4.878   6.628   4.848
 2613SOL     OW 8737   1.015   5.693   6.100
 2613SOL    HW1 8738   0.993   5.739   6.186
 2613SOL    HW2 8739   0.995   5.753   6.023
 2614SOL     OW 8740   5.826   0.813   5.936
 2614SOL    HW1 8741   5.764   0.877   5.980
 2614SOL    HW2 8742   5.785   0.780   5.850
 2615SOL     OW 8743   1.236   3.423   1.452
 2615SOL    HW1 8744   1.201   3.475   1.530
 2615SOL    HW2 8745   1.162   3.409   1.386
 2616SOL     OW 8746   1.281   1.120   5.354
 2616SOL    HW1 8747   1.268   1.171   5.439
 2616SOL    HW2 8748   1.244   1.028   5.364
 2617SOL     OW 8749   5.342   0.197   0.903
 2617SOL    HW1 8750   5.406   0.223   0.975
 2617SOL    HW2 8751   5.248   0.207   0.937
 2618SOL     OW 8752   1.810   5.715   5.289
 2618SOL    HW1 8753   1.892   5.765   5.316
 2618SOL    HW2 8754   1.836   5.629   5.246
 2619SOL     OW 8755   4.052   1.879   1.913
 2619SOL    HW1 8756   3.975   1.835   1.959
 2619SOL    HW2 8757   4.060   1.843   1.820
 2620SOL     OW 8758   6.273   5.873   2.015
 2620SOL    HW1 8759   6.318   5.828   1.938
 2620SOL    HW2 8760   6.300   5.827   2.100
 2621SOL     OW 8761   0.320   6.050   2.622
 2621SOL    HW1 8762   0.269   5.970   2.589
 2621SOL    HW2 8763   0.404   6.019   2.665
 2622SOL     OW 8764   3.167   3.063   5.927
 2622SOL    HW1 8765   3.076   3.022   5.925
 2622SOL    HW2 8766   3.192   3.085   6.021
 2623SOL     OW 8767   0.336   6.747   3.687
 2623SOL    HW1 8768   0.320   6.784   3.596
 2623SOL    HW2 8769   0.334   6.647   3.683
 2624SOL     OW 8770   6.703   2.014   4.466
 2624SOL    HW1 8771   6.716   2.016   4.565
 2624SOL    HW2 8772   6.608   1.991   4.445
 2625SOL     OW 8773   2.084   5.470   5.341
 2625SOL    HW1 8774   2.156   5.403   5.322
 2625SOL    HW2 8775   2.007   5.455   5.278
 2626SOL     OW 8776   6.736   6.564   5.185
 2626SOL    HW1 8777   6.660   6.498   5.179
 2626SOL    HW2 8778   6.711   6.637   5.249
 2627SOL     OW 8779   1.248   6.888   5.741
 2627SOL    HW1 8780   1.320   6.917   5.679
 2627SOL    HW2 8781   1.281   6.812   5.797
 2628SOL     OW 8782   1.469   3.669   3.779
 2628SOL    HW1 8783   1.417   3.656   3.694
 2628SOL    HW2 8784   1.565   3.644   3.763
 2629SOL     OW 8785   3.007   3.722   3.452
 2629SOL    HW1 8786   3.039   3.817   3.460
 2629SOL    HW2 8787   3.003   3.697   3.356
 2630SOL     OW 8788   4.127   1.402   3.206
 2630SOL    HW1 8789   4.219   1.383   3.241
 2630SOL    HW2 8790   4.069   1.322   3.219
 2631SOL     OW 8791   5.844   0.410   6.685
 2631SOL    HW1 8792   5.847   0.362   6.597
 2631SOL    HW2 8793   5.785   0.360   6.748
 2632SOL     OW 8794   5.746   4.892   1.522
 2632SOL    HW1 8795   5.730   4.815   1.584
 2632SOL    HW2 8796   5.844   4.915   1.523
 2633SOL     OW 8797   6.743   2.614   5.096
 2633SOL    HW1 8798   6.678   2.563   5.039
 2633SOL    HW2 8799   6.718   2.604   5.192
 2634SOL     OW 8800   6.578   6.513   4.495
 2634SOL    HW1 8801   6.479   6.501   4.488
 2634SOL    HW2 8802   6.609   6.490   4.587
 2635SOL     OW 8803   5.240   5.488   3.864
 2635SOL    HW1 8804   5.229   5.569   3.922
 2635SOL    HW2 8805   5.257   5.517   3.770
 2636SOL     OW 8806   4.067   0.235   5.760
 2636SOL    HW1 8807   3.988   0.217   5.818
 2636SOL    HW2 8808   4.118   0.313   5.796
 2637SOL     OW 8809   0.634   1.667   2.827
 2637SOL    HW1 8810   0.661   1.615   2.746
 2637SOL    HW2 8811   0.706   1.733   2.848
 2638SOL     OW 8812   0.796   0.622   4.120
 2638SOL    HW1 8813   0.708   0.581   4.095
 2638SOL    HW2 8814   0.800   0.634   4.219
 2639SOL     OW 8815   4.516   4.968   5.001
 2639SOL    HW1 8816   4.470   5.055   4.986
 2639SOL    HW2 8817   4.593   4.959   4.938
 2640SOL     OW 8818   1.055   0.188   4.720
 2640SOL    HW1 8819   1.098   0.167   4.632
 2640SOL    HW2 8820   1.099   0.268   4.761
 2641SOL     OW 8821   5.065   2.591   0.124
 2641SOL    HW1 8822   5.056   2.688   0.145
 2641SOL    HW2 8823   5.085   2.579   0.027
 2642SOL     OW 8824   6.765   1.259   4.635
 2642SOL    HW1 8825   6.729   1.171   4.604
 2642SOL    HW2 8826   6.800   1.310   4.557
 2643SOL     OW 8827   1.087   3.539   4.012
 2643SOL    HW1 8828   1.112   3.487   3.931
 2643SOL    HW2 8829   1.143   3.622   4.018
 2644SOL     OW 8830   4.760   5.432   4.556
 2644SOL    HW1 8831   4.679   5.470   4.512
 2644SOL    HW2 8832   4.737   5.405   4.650
 2645SOL     OW 8833   4.677   5.469   3.746
 2645SOL    HW1 8834   4.594   5.515   3.715
 2645SOL    HW2 8835   4.681   5.470   3.846
 2646SOL     OW 8836   0.602   3.691   6.154
 2646SOL    HW1 8837   0.642   3.600   6.145
 2646SOL    HW2 8838   0.506   3.688   6.124
 2647SOL     OW 8839   5.571   0.045   1.634
 2647SOL    HW1 8840   5.645   0.056   1.567
 2647SOL    HW2 8841   5.606   0.067   1.726
 2648SOL     OW 8842   0.675   0.208   4.243
 2648SOL    HW1 8843   0.698   0.166   4.330
 2648SOL    HW2 8844   0.581   0.186   4.219
 2649SOL     OW 8845   5.197   2.852   1.869
 2649SOL    HW1 8846   5.113   2.856   1.922
 2649SOL    HW2 8847   5.201   2.930   1.806
 2650SOL     OW 8848   3.467   5.963   4.830
 2650SOL    HW1 8849   3.436   5.983   4.923
 2650SOL    HW2 8850   3.541   6.025   4.805
 2651SOL     OW 8851   3.971   1.831   5.439
 2651SOL    HW1 8852   3.897   1.772   5.409
 2651SOL    HW2 8853   3.944   1.878   5.523
 2652SOL     OW 8854   4.975   3.458   5.379
 2652SOL    HW1 8855   4.934   3.378   5.424
 2652SOL    HW2 8856   5.044   3.428   5.315
 2653SOL     OW 8857   3.318   6.270   6.800
 2653SOL    HW1 8858   3.340   6.364   6.772
 2653SOL    HW2 8859   3.255   6.230   6.733
 2654SOL     OW 8860   5.118   7.002   0.406
 2654SOL    HW1 8861   5.185   0.054   0.390
 2654SOL    HW2 8862   5.060   6.991   0.325
 2655SOL     OW 8863   5.216   6.381   3.206
 2655SOL    HW1 8864   5.211   6.315   3.280
 2655SOL    HW2 8865   5.276   6.347   3.134
 2656SOL     OW 8866   3.660   5.945   3.710
 2656SOL    HW1 8867   3.741   5.889   3.691
 2656SOL    HW2 8868   3.579   5.886   3.715
 2657SOL     OW 8869   2.228   3.487   0.250
 2657SOL    HW1 8870   2.201   3.391   0.243
 2657SOL    HW2 8871   2.257   3.506   0.344
 2658SOL     OW 8872   4.110   4.426   6.303
 2658SOL    HW1 8873   4.145   4.436   6.396
 2658SOL    HW2 8874   4.028   4.481   6.291
 2659SOL     OW 8875   5.432   2.277   5.019
 2659SOL    HW1 8876   5.455   2.293   5.115
 2659SOL    HW2 8877   5.345   2.227   5.014
 2660SOL     OW 8878   0.868   1.512   0.986
 2660SOL    HW1 8879   0.884   1.598   1.035
 2660SOL    HW2 8880   0.907   1.436   1.039
 2661SOL     OW 8881   1.320   0.536   1.614
 2661SOL    HW1 8882   1.339   0.586   1.530
 2661SOL    HW2 8883   1.396   0.547   1.678
 2662SOL     OW 8884   3.243   0.880   2.858
 2662SOL    HW1 8885   3.342   0.892   2.852
 2662SOL    HW2 8886   3.202   0.897   2.768
 2663SOL     OW 8887   3.264   0.050   6.265
 2663SOL    HW1 8888   3.337   0.105   6.305
 2663SOL    HW2 8889   3.296   0.010   6.179
 2664SOL     OW 8890   3.926   2.971   5.042
 2664SOL    HW1 8891   3.974   2.955   5.128
 2664SOL    HW2 8892   3.844   2.913   5.037
 2665SOL     OW 8893   2.345   3.817   5.394
 2665SOL    HW1 8894   2.246   3.806   5.385
 2665SOL    HW2 8895   2.378   3.883   5.325
 2666SOL     OW 8896   2.208   3.879   2.605
 2666SOL    HW1 8897   2.241   3.886   2.511
 2666SOL    HW2 8898   2.169   3.788   2.621
 2667SOL     OW 8899   5.776   4.115   3.489
 2667SOL    HW1 8900   5.874   4.093   3.497
 2667SOL    HW2 8901   5.726   4.070   3.563
 2668SOL     OW 8902   5.870   1.621   4.715
 2668SOL    HW1 8903   5.791   1.593   4.770
 2668SOL    HW2 8904   5.840   1.647   4.623
 2669SOL     OW 8905   2.174   6.899   0.412
 2669SOL    HW1 8906   2.166   6.803   0.436
 2669SOL    HW2 8907   2.192   6.953   0.495
 2670SOL     OW 8908   6.793   1.296   5.474
 2670SOL    HW1 8909   6.772   1.392   5.454
 2670SOL    HW2 8910   6.750   1.238   5.405
 2671SOL     OW 8911   3.874   5.505   5.973
 2671SOL    HW1 8912   3.853   5.489   5.876
 2671SOL    HW2 8913   3.879   5.603   5.989
 2672SOL     OW 8914   3.864   1.091   1.779
 2672SOL    HW1 8915   3.825   0.999   1.785
 2672SOL    HW2 8916   3.905   1.115   1.866
 2673SOL     OW 8917   4.667   0.163   2.628
 2673SOL    HW1 8918   4.720   0.196   2.706
 2673SOL    HW2 8919   4.728   0.117   2.564
 2674SOL     OW 8920   0.771   5.632   3.019
 2674SOL    HW1 8921   0.785   5.728   3.044
 2674SOL    HW2 8922   0.794   5.574   3.096
 2675SOL     OW 8923   6.798   6.434   3.849
 2675SOL    HW1 8924   6.850   6.357   3.887
 2675SOL    HW2 8925   6.828   6.519   3.892
 2676SOL     OW 8926   3.389   3.858   2.703
 2676SOL    HW1 8927   3.293   3.841   2.727
 2676SOL    HW2 8928   3.448   3.795   2.754
 2677SOL     OW 8929   1.884   4.645   1.334
 2677SOL    HW1 8930   1.923   4.603   1.415
 2677SOL    HW2 8931   1.786   4.624   1.330
 2678SOL     OW 8932   5.634   2.701   2.796
 2678SOL    HW1 8933   5.604   2.660   2.710
 2678SOL    HW2 8934   5.637   2.630   2.867
 2679SOL     OW 8935   1.600   5.358   2.730
 2679SOL    HW1 8936   1.520   5.336   2.786
 2679SOL    HW2 8937   1.581   5.438   2.673
 2680SOL     OW 8938   1.135   2.200   6.731
 2680SOL    HW1 8939   1.229   2.218   6.759
 2680SOL    HW2 8940   1.135   2.147   6.646
 2681SOL     OW 8941   1.429   3.035   4.941
 2681SOL    HW1 8942   1.371   2.968   4.895
 2681SOL    HW2 8943   1.447   3.004   5.034
 2682SOL     OW 8944   4.687   4.352   2.212
 2682SOL    HW1 8945   4.639   4.407   2.279
 2682SOL    HW2 8946   4.632   4.345   2.128
 2683SOL     OW 8947   2.189   3.895   3.000
 2683SOL    HW1 8948   2.199   3.826   2.928
 2683SOL    HW2 8949   2.130   3.969   2.968
 2684SOL     OW 8950   5.540   5.830   2.251
 2684SOL    HW1 8951   5.529   5.834   2.350
 2684SOL    HW2 8952   5.633   5.858   2.226
 2685SOL     OW 8953   6.993   5.722   5.002
 2685SOL    HW1 8954   0.010   5.688   4.916
 2685SOL    HW2 8955   0.037   5.704   5.076
 2686SOL     OW 8956   1.068   1.143   4.700
 2686SOL    HW1 8957   1.051   1.139   4.799
 2686SOL    HW2 8958   1.038   1.231   4.664
 2687SOL     OW 8959   4.142   1.479   2.172
 2687SOL    HW1 8960   4.045   1.498   2.189
 2687SOL    HW2 8961   4.151   1.392   2.124
 2688SOL     OW 8962   3.577   2.387   6.532
 2688SOL    HW1 8963   3.561   2.483   6.510
 2688SOL    HW2 8964   3.665   2.378   6.579
 2689SOL     OW 8965   0.537   4.181   3.140
 2689SOL    HW1 8966   0.477   4.213   3.213
 2689SOL    HW2 8967   0.630   4.212   3.158
 2690SOL     OW 8968   3.639   1.613   5.989
 2690SOL    HW1 8969   3.735   1.607   5.962
 2690SOL    HW2 8970   3.613   1.531   6.040
 2691SOL     OW 8971   6.967   4.451   4.244
 2691SOL    HW1 8972   6.980   4.537   4.195
 2691SOL    HW2 8973   6.898   4.464   4.316
 2692SOL     OW 8974   2.930   5.682   2.508
 2692SOL    HW1 8975   2.998   5.692   2.581
 2692SOL    HW2 8976   2.838   5.692   2.548
 2693SOL     OW 8977   1.500   5.865   3.944
 2693SOL    HW1 8978   1.553   5.782   3.960
 2693SOL    HW2 8979   1.487   5.877   3.846
 2694SOL     OW 8980   3.146   6.775   3.806
 2694SOL    HW1 8981   3.234   6.729   3.818
 2694SOL    HW2 8982   3.160   6.874   3.806
 2695SOL     OW 8983   6.504   6.358   2.826
 2695SOL    HW1 8984   6.491   6.428   2.896
 2695SOL    HW2 8985   6.429   6.362   2.761
 2696SOL     OW 8986   5.350   4.066   6.257
 2696SOL    HW1 8987   5.409   4.086   6.335
 2696SOL    HW2 8988   5.297   4.148   6.233
 2697SOL     OW 8989   4.096   1.763   0.761
 2697SOL    HW1 8990   4.137   1.726   0.678
 2697SOL    HW2 8991   4.169   1.793   0.823
 2698SOL     OW 8992   1.409   4.615   6.124
 2698SOL    HW1 8993   1.344   4.588   6.196
 2698SOL    HW2 8994   1.467   4.536   6.102
 2699SOL     OW 8995   3.363   6.035   2.387
 2699SOL    HW1 8996   3.428   6.015   2.461
 2699SOL    HW2 8997   3.272   6.001   2.412
 2700SOL     OW 8998   3.068   2.154   1.269
 2700SOL    HW1 8999   2.977   2.173   1.306
 2700SOL    HW2 9000   3.077   2.056   1.251
 2701SOL     OW 9001   5.085   3.033   4.836
 2701SOL    HW1 9002   5.175   3.071   4.859
 2701SOL    HW2 9003   5.024   3.043   4.915
 2702SOL     OW 9004   2.783   1.690   4.645
 2702SOL    HW1 9005   2.715   1.697   4.572
 2702SOL    HW2 9006   2.804   1.594   4.663
 2703SOL     OW 9007   1.716   6.172   2.063
 2703SOL    HW1 9008   1.752   6.175   2.157
 2703SOL    HW2 9009   1.690   6.079   2.040
 2704SOL     OW 9010   6.551   6.195   3.537
 2704SOL    HW1 9011   6.458   6.179   3.502
 2704SOL    HW2 9012   6.617   6.181   3.463
 2705SOL     OW 9013   0.568   0.697   4.849
 2705SOL    HW1 9014   0.599   0.768   4.912
 2705SOL    HW2 9015   0.494   0.732   4.793
 2706SOL     OW 9016   6.476   4.513   4.386
 2706SOL    HW1 9017   6.537   4.584   4.422
 2706SOL    HW2 9018   6.433   4.464   4.462
 2707SOL     OW 9019   4.041   0.133   3.034
 2707SOL    HW1 9020   3.986   0.059   2.996
 2707SOL    HW2 9021   4.113   0.096   3.091
 2708SOL     OW 9022   5.582   2.684   0.067
 2708SOL    HW1 9023   5.646   2.759   0.053
 2708SOL    HW2 9024   5.571   2.667   0.165
 2709SOL     OW 9025   5.282   0.101   5.681
 2709SOL    HW1 9026   5.218   0.169   5.644
 2709SOL    HW2 9027   5.231   0.025   5.720
 2710SOL     OW 9028   1.615   3.344   4.366
 2710SOL    HW1 9029   1.687   3.368   4.431
 2710SOL    HW2 9030   1.596   3.246   4.372
 2711SOL     OW 9031   3.471   2.118   3.693
 2711SOL    HW1 9032   3.424   2.163   3.617
 2711SOL    HW2 9033   3.508   2.030   3.662
 2712SOL     OW 9034   3.873   5.421   2.493
 2712SOL    HW1 9035   3.879   5.373   2.581
 2712SOL    HW2 9036   3.939   5.381   2.429
 2713SOL     OW 9037   4.437   4.551   6.508
 2713SOL    HW1 9038   4.408   4.488   6.581
 2713SOL    HW2 9039   4.448   4.500   6.423
 2714SOL     OW 9040   3.326   3.993   6.584
 2714SOL    HW1 9041   3.323   4.081   6.536
 2714SOL    HW2 9042   3.233   3.960   6.600
 2715SOL     OW 9043   5.315   1.138   1.445
 2715SOL    HW1 9044   5.331   1.164   1.540
 2715SOL    HW2 9045   5.394   1.163   1.390
 2716SOL     OW 9046   4.264   1.922   2.890
 2716SOL    HW1 9047   4.190   1.896   2.953
 2716SOL    HW2 9048   4.257   2.019   2.868
 2717SOL     OW 9049   1.595   1.248   2.510
 2717SOL    HW1 9050   1.644   1.332   2.485
 2717SOL    HW2 9051   1.508   1.273   2.555
 2718SOL     OW 9052   0.391   0.291   6.291
 2718SOL    HW1 9053   0.416   0.227   6.364
 2718SOL    HW2 9054   0.373   0.381   6.331
 2719SOL     OW 9055   1.896   3.920   2.388
 2719SOL    HW1 9056   1.984   3.881   2.363
 2719SOL    HW2 9057   1.910   3.994   2.455
 2720SOL     OW 9058   1.156   0.147   5.437
 2720SOL    HW1 9059   1.187   0.110   5.350
 2720SOL    HW2 9060   1.068   0.192   5.425
 2721SOL     OW 9061   2.882   5.804   1.764
 2721SOL    HW1 9062   2.966   5.845   1.728
 2721SOL    HW2 9063   2.888   5.704   1.755
 2722SOL     OW 9064   3.984   5.406   0.085
 2722SOL    HW1 9065   3.961   5.503   0.072
 2722SOL    HW2 9066   3.947   5.352   0.010
 2723SOL     OW 9067   3.264   6.527   0.461
 2723SOL    HW1 9068   3.334   6.564   0.522
 2723SOL    HW2 9069   3.195   6.478   0.515
 2724SOL     OW 9070   0.874   6.073   0.456
 2724SOL    HW1 9071   0.926   6.159   0.447
 2724SOL    HW2 9072   0.874   6.026   0.368
 2725SOL     OW 9073   5.142   3.393   4.523
 2725SOL    HW1 9074   5.218   3.448   4.557
 2725SOL    HW2 9075   5.078   3.375   4.598
 2726SOL     OW 9076   0.759   1.893   1.427
 2726SOL    HW1 9077   0.763   1.962   1.355
 2726SOL    HW2 9078   0.749   1.803   1.387
 2727SOL     OW 9079   2.201   4.168   4.498
 2727SOL    HW1 9080   2.240   4.166   4.406
 2727SOL    HW2 9081   2.225   4.084   4.546
 2728SOL     OW 9082   5.540   5.204   6.624
 2728SOL    HW1 9083   5.552   5.248   6.713
 2728SOL    HW2 9084   5.520   5.107   6.638
 2729SOL     OW 9085   5.365   6.366   6.037
 2729SOL    HW1 9086   5.369   6.297   5.964
 2729SOL    HW2 9087   5.416   6.447   6.009
 2730SOL     OW 9088   0.717   5.779   1.991
 2730SOL    HW1 9089   0.632   5.769   1.940
 2730SOL    HW2 9090   0.696   5.798   2.087
 2731SOL     OW 9091   3.086   3.170   3.699
 2731SOL    HW1 9092   3.107   3.141   3.792
 2731SOL    HW2 9093   3.127   3.259   3.681
 2732SOL     OW 9094   4.710   1.464   1.466
 2732SOL    HW1 9095   4.653   1.537   1.504
 2732SOL    HW2 9096   4.678   1.375   1.501
 2733SOL     OW 9097   0.304   0.341   5.870
 2733SOL    HW1 9098   0.350   0.418   5.825
 2733SOL    HW2 9099   0.207   0.362   5.881
 2734SOL     OW 9100   3.572   6.104   1.584
 2734SOL    HW1 9101   3.642   6.150   1.639
 2734SOL    HW2 9102   3.485   6.153   1.591
 2735SOL     OW 9103   1.451   2.004   0.869
 2735SOL    HW1 9104   1.420   1.922   0.919
 2735SOL    HW2 9105   1.377   2.071   0.867
 2736SOL     OW 9106   4.982   6.046   3.518
 2736SOL    HW1 9107   4.899   6.063   3.572
 2736SOL    HW2 9108   4.971   5.961   3.466
 2737SOL     OW 9109   2.715   1.815   6.222
 2737SOL    HW1 9110   2.807   1.841   6.196
 2737SOL    HW2 9111   2.704   1.825   6.321
 2738SOL     OW 9112   5.591   0.535   1.313
 2738SOL    HW1 9113   5.678   0.539   1.264
 2738SOL    HW2 9114   5.606   0.500   1.405
 2739SOL     OW 9115   1.079   5.137   2.041
 2739SOL    HW1 9116   1.168   5.101   2.012
 2739SOL    HW2 9117   1.053   5.096   2.129
 2740SOL     OW 9118   0.214   6.445   2.548
 2740SOL    HW1 9119   0.201   6.508   2.471
 2740SOL    HW2 9120   0.130   6.441   2.602
 2741SOL     OW 9121   1.191   2.269   4.409
 2741SOL    HW1 9122   1.248   2.258   4.328
 2741SOL    HW2 9123   1.096   2.282   4.382
 2742SOL     OW 9124   3.358   4.714   1.371
 2742SOL    HW1 9125   3.370   4.627   1.322
 2742SOL    HW2 9126   3.391   4.703   1.465
 2743SOL     OW 9127   6.619   4.655   2.278
 2743SOL    HW1 9128   6.676   4.577   2.304
 2743SOL    HW2 9129   6.526   4.625   2.260
 2744SOL     OW 9130   3.031   3.103   2.573
 2744SOL    HW1 9131   3.112   3.054   2.606
 2744SOL    HW2 9132   3.016   3.080   2.477
 2745SOL     OW 9133   6.636   1.119   5.960
 2745SOL    HW1 9134   6.688   1.034   5.959
 2745SOL    HW2 9135   6.562   1.114   5.893
 2746SOL     OW 9136   0.926   1.238   3.775
 2746SOL    HW1 9137   0.896   1.147   3.806
 2746SOL    HW2 9138   0.915   1.244   3.675
 2747SOL     OW 9139   3.536   5.615   0.821
 2747SOL    HW1 9140   3.436   5.612   0.824
 2747SOL    HW2 9141   3.565   5.705   0.790
 2748SOL     OW 9142   4.746   0.335   1.310
 2748SOL    HW1 9143   4.716   0.411   1.253
 2748SOL    HW2 9144   4.845   0.338   1.323
 2749SOL     OW 9145   1.873   3.398   0.653
 2749SOL    HW1 9146   1.830   3.481   0.690
 2749SOL    HW2 9147   1.895   3.413   0.557
 2750SOL     OW 9148   2.507   5.231   2.631
 2750SOL    HW1 9149   2.506   5.133   2.651
 2750SOL    HW2 9150   2.593   5.255   2.586
 2751SOL     OW 9151   1.374   2.582   1.353
 2751SOL    HW1 9152   1.367   2.652   1.424
 2751SOL    HW2 9153   1.348   2.621   1.264
 2752SOL     OW 9154   4.429   4.585   5.740
 2752SOL    HW1 9155   4.461   4.680   5.741
 2752SOL    HW2 9156   4.396   4.561   5.649
 2753SOL     OW 9157   6.189   6.514   5.123
 2753SOL    HW1 9158   6.089   6.512   5.122
 2753SOL    HW2 9159   6.222   6.448   5.191
 2754SOL     OW 9160   0.408   6.367   6.552
 2754SOL    HW1 9161   0.317   6.346   6.586
 2754SOL    HW2 9162   0.461   6.411   6.624
 2755SOL     OW 9163   2.553   6.925   2.732
 2755SOL    HW1 9164   2.618   6.983   2.780
 2755SOL    HW2 9165   2.561   6.940   2.634
 2756SOL     OW 9166   5.443   6.631   0.631
 2756SOL    HW1 9167   5.397   6.709   0.590
 2756SOL    HW2 9168   5.527   6.611   0.580
 2757SOL     OW 9169   1.092   5.195   0.909
 2757SOL    HW1 9170   1.130   5.109   0.946
 2757SOL    HW2 9171   1.149   5.226   0.833
 2758SOL     OW 9172   5.385   0.133   5.292
 2758SOL    HW1 9173   5.446   0.096   5.362
 2758SOL    HW2 9174   5.294   0.147   5.331
 2759SOL     OW 9175   5.976   6.564   3.856
 2759SOL    HW1 9176   6.064   6.516   3.855
 2759SOL    HW2 9177   5.911   6.513   3.914
 2760SOL     OW 9178   1.898   5.353   2.034
 2760SOL    HW1 9179   1.905   5.375   2.132
 2760SOL    HW2 9180   1.982   5.383   1.988
 2761SOL     OW 9181   1.029   5.682   3.440
 2761SOL    HW1 9182   1.054   5.670   3.536
 2761SOL    HW2 9183   1.031   5.594   3.393
 2762SOL     OW 9184   1.661   6.815   5.554
 2762SOL    HW1 9185   1.618   6.857   5.474
 2762SOL    HW2 9186   1.759   6.834   5.553
 2763SOL     OW 9187   5.822   2.184   3.572
 2763SOL    HW1 9188   5.858   2.214   3.660
 2763SOL    HW2 9189   5.814   2.263   3.511
 2764SOL     OW 9190   5.510   6.867   1.348
 2764SOL    HW1 9191   5.590   6.807   1.357
 2764SOL    HW2 9192   5.541   6.962   1.343
 2765SOL     OW 9193   5.340   1.453   2.237
 2765SOL    HW1 9194   5.378   1.375   2.188
 2765SOL    HW2 9195   5.254   1.425   2.281
 2766SOL     OW 9196   5.718   1.744   1.236
 2766SOL    HW1 9197   5.621   1.765   1.223
 2766SOL    HW2 9198   5.762   1.736   1.147
 2767SOL     OW 9199   6.172   4.135   6.506
 2767SOL    HW1 9200   6.169   4.129   6.606
 2767SOL    HW2 9201   6.259   4.176   6.478
 2768SOL     OW 9202   5.646   1.193   0.135
 2768SOL    HW1 9203   5.675   1.274   0.185
 2768SOL    HW2 9204   5.660   1.112   0.192
 2769SOL     OW 9205   6.763   3.977   2.772
 2769SOL    HW1 9206   6.689   3.936   2.718
 2769SOL    HW2 9207   6.724   4.046   2.833
 2770SOL     OW 9208   1.439   5.363   1.175
 2770SOL    HW1 9209   1.510   5.321   1.118
 2770SOL    HW2 9210   1.362   5.390   1.117
 2771SOL     OW 9211   5.077   1.596   1.278
 2771SOL    HW1 9212   4.986   1.555   1.282
 2771SOL    HW2 9213   5.133   1.549   1.211
 2772SOL     OW 9214   4.503   2.587   0.271
 2772SOL    HW1 9215   4.568   2.513   0.254
 2772SOL    HW2 9216   4.415   2.565   0.231
 2773SOL     OW 9217   4.091   3.601   6.010
 2773SOL    HW1 9218   4.190   3.595   6.024
 2773SOL    HW2 9219   4.067   3.559   5.922
 2774SOL     OW 9220   5.714   2.570   1.995
 2774SOL    HW1 9221   5.645   2.605   2.059
 2774SOL    HW2 9222   5.779   2.642   1.973
 2775SOL     OW 9223   6.971   5.877   1.332
 2775SOL    HW1 9224   6.940   5.784   1.352
 2775SOL    HW2 9225   6.949   5.899   1.237
 2776SOL     OW 9226   3.960   5.704   5.394
 2776SOL    HW1 9227   3.967   5.736   5.488
 2776SOL    HW2 9228   4.004   5.770   5.333
 2777SOL     OW 9229   3.471   0.918   2.592
 2777SOL    HW1 9230   3.542   0.988   2.581
 2777SOL    HW2 9231   3.383   0.954   2.561
 2778SOL     OW 9232   2.299   1.537   5.551
 2778SOL    HW1 9233   2.316   1.453   5.604
 2778SOL    HW2 9234   2.257   1.605   5.610
 2779SOL     OW 9235   5.399   6.874   0.125
 2779SOL    HW1 9236   5.429   6.815   0.050
 2779SOL    HW2 9237   5.383   6.819   0.206
 2780SOL     OW 9238   5.190   5.272   6.156
 2780SOL    HW1 9239   5.280   5.228   6.150
 2780SOL    HW2 9240   5.198   5.368   6.129
 2781SOL     OW 9241   5.689   4.718   1.721
 2781SOL    HW1 9242   5.640   4.778   1.785
 2781SOL    HW2 9243   5.750   4.658   1.773
 2782SOL     OW 9244   3.014   2.789   6.427
 2782SOL    HW1 9245   3.025   2.732   6.509
 2782SOL    HW2 9246   2.977   2.733   6.353
 2783SOL     OW 9247   6.468   3.984   5.073
 2783SOL    HW1 9248   6.505   3.949   5.159
 2783SOL    HW2 9249   6.526   3.956   4.997
 2784SOL     OW 9250   2.245   2.739   1.304
 2784SOL    HW1 9251   2.285   2.704   1.220
 2784SOL    HW2 9252   2.313   2.794   1.353
 2785SOL     OW 9253   6.554   1.303   6.730
 2785SOL    HW1 9254   6.597   1.319   6.820
 2785SOL    HW2 9255   6.626   1.290   6.661
 2786SOL     OW 9256   3.825   6.578   0.689
 2786SOL    HW1 9257   3.900   6.512   0.683
 2786SOL    HW2 9258   3.741   6.531   0.712
 2787SOL     OW 9259   2.132   4.340   6.633
 2787SOL    HW1 9260   2.203   4.409   6.651
 2787SOL    HW2 9261   2.175   4.258   6.595
 2788SOL     OW 9262   2.309   4.062   0.414
 2788SOL    HW1 9263   2.355   3.996   0.355
 2788SOL    HW2 9264   2.353   4.063   0.504
 2789SOL     OW 9265   1.364   1.678   3.699
 2789SOL    HW1 9266   1.454   1.714   3.721
 2789SOL    HW2 9267   1.308   1.676   3.782
 2790SOL     OW 9268   3.314   5.177   3.331
 2790SOL    HW1 9269   3.320   5.145   3.237
 2790SOL    HW2 9270   3.406   5.185   3.370
 2791SOL     OW 9271   1.859   4.646   5.198
 2791SOL    HW1 9272   1.848   4.582   5.122
 2791SOL    HW2 9273   1.952   4.684   5.196
 2792SOL     OW 9274   1.179   0.463   5.104
 2792SOL    HW1 9275   1.254   0.526   5.122
 2792SOL    HW2 9276   1.115   0.465   5.181
 2793SOL     OW 9277   5.261   1.318   2.891
 2793SOL    HW1 9278   5.214   1.270   2.816
 2793SOL    HW2 9279   5.326   1.384   2.853
 2794SOL     OW 9280   0.261   2.471   0.327
 2794SOL    HW1 9281   0.282   2.554   0.378
 2794SOL    HW2 9282   0.245   2.494   0.231
 2795SOL     OW 9283   3.020   3.897   1.439
 2795SOL    HW1 9284   3.031   3.870   1.535
 2795SOL    HW2 9285   3.110   3.917   1.400
 2796SOL     OW 9286   6.278   4.254   2.308
 2796SOL    HW1 9287   6.180   4.253   2.285
 2796SOL    HW2 9288   6.329   4.207   2.236
 2797SOL     OW 9289   5.177   5.537   4.682
 2797SOL    HW1 9290   5.152   5.599   4.757
 2797SOL    HW2 9291   5.148   5.444   4.704
 2798SOL     OW 9292   0.750   4.031   3.035
 2798SOL    HW1 9293   0.788   4.068   2.950
 2798SOL    HW2 9294   0.669   4.084   3.062
 2799SOL     OW 9295   0.140   5.731   6.535
 2799SOL    HW1 9296   0.092   5.818   6.548
 2799SOL    HW2 9297   0.166   5.694   6.625
 2800SOL     OW 9298   4.297   4.924   6.701
 2800SOL    HW1 9299   4.287   4.985   6.780
 2800SOL    HW2 9300   4.385   4.878   6.705
 2801SOL     OW 9301   4.280   5.594   2.695
 2801SOL    HW1 9302   4.327   5.631   2.775
 2801SOL    HW2 9303   4.194   5.644   2.681
 2802SOL     OW 9304   3.675   2.136   6.160
 2802SOL    HW1 9305   3.612   2.205   6.196
 2802SOL    HW2 9306   3.763   2.143   6.207
 2803SOL     OW 9307   1.997   5.919   5.671
 2803SOL    HW1 9308   2.084   5.965   5.686
 2803SOL    HW2 9309   1.924   5.987   5.664
 2804SOL     OW 9310   6.944   4.424   3.467
 2804SOL    HW1 9311   6.963   4.462   3.557
 2804SOL    HW2 9312   6.949   4.496   3.398
 2805SOL     OW 9313   4.780   3.323   1.424
 2805SOL    HW1 9314   4.702   3.260   1.436
 2805SOL    HW2 9315   4.861   3.284   1.468
 2806SOL     OW 9316   5.860   5.185   2.726
 2806SOL    HW1 9317   5.936   5.124   2.747
 2806SOL    HW2 9318   5.825   5.165   2.634
 2807SOL     OW 9319   4.873   4.645   3.894
 2807SOL    HW1 9320   4.955   4.588   3.880
 2807SOL    HW2 9321   4.881   4.693   3.981
 2808SOL     OW 9322   5.143   1.641   3.437
 2808SOL    HW1 9323   5.104   1.615   3.525
 2808SOL    HW2 9324   5.240   1.660   3.448
 2809SOL     OW 9325   6.130   2.423   1.279
 2809SOL    HW1 9326   6.193   2.496   1.253
 2809SOL    HW2 9327   6.045   2.464   1.313
 2810SOL     OW 9328   3.292   6.432   4.949
 2810SOL    HW1 9329   3.294   6.525   4.986
 2810SOL    HW2 9330   3.238   6.373   5.010
 2811SOL     OW 9331   1.153   1.313   2.659
 2811SOL    HW1 9332   1.247   1.292   2.687
 2811SOL    HW2 9333   1.124   1.247   2.589
 2812SOL     OW 9334   5.056   3.470   2.076
 2812SOL    HW1 9335   5.155   3.457   2.070
 2812SOL    HW2 9336   5.011   3.381   2.086
 2813SOL     OW 9337   6.103   6.544   6.277
 2813SOL    HW1 9338   6.161   6.614   6.235
 2813SOL    HW2 9339   6.146   6.454   6.266
 2814SOL     OW 9340   4.038   4.124   5.934
 2814SOL    HW1 9341   4.086   4.210   5.919
 2814SOL    HW2 9342   4.094   4.048   5.899
 2815SOL     OW 9343   6.580   0.760   4.685
 2815SOL    HW1 9344   6.492   0.744   4.731
 2815SOL    HW2 9345   6.584   0.705   4.602
 2816SOL     OW 9346   6.039   6.843   3.852
 2816SOL    HW1 9347   5.967   6.782   3.885
 2816SOL    HW2 9348   6.003   6.903   3.781
 2817SOL     OW 9349   1.688   0.780   1.485
 2817SOL    HW1 9350   1.743   0.844   1.538
 2817SOL    HW2 9351   1.746   0.705   1.453
 2818SOL     OW 9352   6.881   5.467   6.824
 2818SOL    HW1 9353   6.907   5.421   6.740
 2818SOL    HW2 9354   6.964   5.491   6.875
 2819SOL     OW 9355   0.338   2.210   0.846
 2819SOL    HW1 9356   0.296   2.275   0.909
 2819SOL    HW2 9357   0.436   2.227   0.842
 2820SOL     OW 9358   0.343   2.706   2.095
 2820SOL    HW1 9359   0.367   2.612   2.068
 2820SOL    HW2 9360   0.389   2.770   2.034
 2821SOL     OW 9361   2.755   4.417   6.070
 2821SOL    HW1 9362   2.795   4.342   6.124
 2821SOL    HW2 9363   2.804   4.426   5.984
 2822SOL     OW 9364   4.243   2.593   0.167
 2822SOL    HW1 9365   4.187   2.672   0.143
 2822SOL    HW2 9366   4.217   2.515   0.110
 2823SOL     OW 9367   2.433   6.884   1.867
 2823SOL    HW1 9368   2.444   6.786   1.882
 2823SOL    HW2 9369   2.436   6.932   1.954
 2824SOL     OW 9370   2.085   1.338   5.093
 2824SOL    HW1 9371   2.150   1.413   5.107
 2824SOL    HW2 9372   2.135   1.256   5.065
 2825SOL     OW 9373   0.255   6.754   0.767
 2825SOL    HW1 9374   0.251   6.821   0.841
 2825SOL    HW2 9375   0.256   6.801   0.679
 2826SOL     OW 9376   5.544   1.707   5.530
 2826SOL    HW1 9377   5.509   1.631   5.583
 2826SOL    HW2 9378   5.574   1.780   5.592
 2827SOL     OW 9379   6.910   1.522   4.963
 2827SOL    HW1 9380   6.893   1.424   4.976
 2827SOL    HW2 9381   6.903   1.569   5.051
 2828SOL     OW 9382   3.839   0.896   5.994
 2828SOL    HW1 9383   3.739   0.899   5.994
 2828SOL    HW2 9384   3.874   0.929   5.907
 2829SOL     OW 9385   3.707   4.864   6.301
 2829SOL    HW1 9386   3.695   4.807   6.220
 2829SOL    HW2 9387   3.759   4.946   6.277
 2830SOL     OW 9388   6.120   3.929   6.094
 2830SOL    HW1 9389   6.098   3.831   6.091
 2830SOL    HW2 9390   6.051   3.976   6.149
 2831SOL     OW 9391   6.156   6.030   4.636
 2831SOL    HW1 9392   6.157   6.075   4.726
 2831SOL    HW2 9393   6.207   6.086   4.571
 2832SOL     OW 9394   0.338   1.509   1.557
 2832SOL    HW1 9395   0.408   1.440   1.538
 2832SOL    HW2 9396   0.255   1.464   1.591
 2833SOL     OW 9397   5.878   1.965   2.014
 2833SOL    HW1 9398   5.974   1.939   2.003
 2833SOL    HW2 9399   5.819   1.887   1.995
 2834SOL     OW 9400   2.991   1.209   6.303
 2834SOL    HW1 9401   2.939   1.250   6.228
 2834SOL    HW2 9402   2.936   1.206   6.386
 2835SOL     OW 9403   0.087   6.977   1.861
 2835SOL    HW1 9404   0.154   0.012   1.811
 2835SOL    HW2 9405   7.020   6.977   1.811
 2836SOL     OW 9406   6.757   0.066   1.719
 2836SOL    HW1 9407   6.806   0.144   1.759
 2836SOL    HW2 9408   6.793   0.047   1.628
 2837SOL     OW 9409   5.115   3.388   3.095
 2837SOL    HW1 9410   5.102   3.449   3.017
 2837SOL    HW2 9411   5.027   3.352   3.124
 2838SOL     OW 9412   2.118   4.609   1.789
 2838SOL    HW1 9413   2.049   4.580   1.855
 2838SOL    HW2 9414   2.181   4.674   1.832
 2839SOL     OW 9415   5.521   1.031   2.143
 2839SOL    HW1 9416   5.592   0.968   2.174
 2839SOL    HW2 9417   5.456   1.048   2.217
 2840SOL     OW 9418   0.531   1.228   5.218
 2840SOL    HW1 9419   0.511   1.245   5.314
 2840SOL    HW2 9420   0.545   1.130   5.203
 2841SOL     OW 9421   0.571   6.522   0.007
 2841SOL    HW1 9422   0.666   6.535   0.035
 2841SOL    HW2 9423   0.543   6.428   0.028
 2842SOL     OW 9424   0.146   2.907   3.745
 2842SOL    HW1 9425   0.127   2.996   3.786
 2842SOL    HW2 9426   0.204   2.854   3.807
 2843SOL     OW 9427   3.601   1.386   4.387
 2843SOL    HW1 9428   3.541   1.314   4.422
 2843SOL    HW2 9429   3.642   1.435   4.464
 2844SOL     OW 9430   1.020   4.145   0.100
 2844SOL    HW1 9431   1.099   4.201   0.076
 2844SOL    HW2 9432   0.942   4.204   0.118
 2845SOL     OW 9433   0.821   3.667   0.534
 2845SOL    HW1 9434   0.808   3.568   0.536
 2845SOL    HW2 9435   0.747   3.711   0.584
 2846SOL     OW 9436   5.178   1.391   6.954
 2846SOL    HW1 9437   5.123   1.309   6.974
 2846SOL    HW2 9438   5.124   1.473   6.972
 2847SOL     OW 9439   5.400   3.854   3.308
 2847SOL    HW1 9440   5.403   3.946   3.347
 2847SOL    HW2 9441   5.305   3.825   3.300
 2848SOL     OW 9442   0.210   4.474   5.326
 2848SOL    HW1 9443   0.233   4.497   5.232
 2848SOL    HW2 9444   0.122   4.426   5.329
 2849SOL     OW 9445   3.516   1.079   0.911
 2849SOL    HW1 9446   3.599   1.108   0.958
 2849SOL    HW2 9447   3.535   1.070   0.813
 2850SOL     OW 9448   3.619   0.432   1.492
 2850SOL    HW1 9449   3.654   0.429   1.586
 2850SOL    HW2 9450   3.519   0.430   1.494
 2851SOL     OW 9451   1.018   4.518   5.238
 2851SOL    HW1 9452   1.085   4.528   5.165
 2851SOL    HW2 9453   1.049   4.568   5.319
 2852SOL     OW 9454   5.771   3.952   6.685
 2852SOL    HW1 9455   5.815   3.923   6.771
 2852SOL    HW2 9456   5.814   3.904   6.609
 2853SOL     OW 9457   3.352   2.529   0.446
 2853SOL    HW1 9458   3.300   2.459   0.494
 2853SOL    HW2 9459   3.319   2.537   0.352
 2854SOL     OW 9460   2.730   1.024   4.423
 2854SOL    HW1 9461   2.753   0.947   4.483
 2854SOL    HW2 9462   2.686   0.990   4.340
 2855SOL     OW 9463   2.095   0.484   6.002
 2855SOL    HW1 9464   2.026   0.496   5.930
 2855SOL    HW2 9465   2.173   0.544   5.983
 2856SOL     OW 9466   2.459   3.248   6.154
 2856SOL    HW1 9467   2.484   3.345   6.148
 2856SOL    HW2 9468   2.449   3.210   6.062
 2857SOL     OW 9469   2.989   1.796   1.532
 2857SOL    HW1 9470   2.977   1.714   1.588
 2857SOL    HW2 9471   3.079   1.835   1.550
 2858SOL     OW 9472   6.073   2.674   2.237
 2858SOL    HW1 9473   6.088   2.646   2.331
 2858SOL    HW2 9474   6.017   2.757   2.235
 2859SOL     OW 9475   4.576   1.003   0.729
 2859SOL    HW1 9476   4.619   1.058   0.800
 2859SOL    HW2 9477   4.503   1.056   0.686
 2860SOL     OW 9478   4.551   1.669   1.593
 2860SOL    HW1 9479   4.486   1.718   1.650
 2860SOL    HW2 9480   4.634   1.649   1.646
 2861SOL     OW 9481   4.394   5.633   5.639
 2861SOL    HW1 9482   4.348   5.690   5.706
 2861SOL    HW2 9483   4.404   5.540   5.674
 2862SOL     OW 9484   5.888   1.715   3.547
 2862SOL    HW1 9485   5.895   1.664   3.460
 2862SOL    HW2 9486   5.968   1.694   3.604
 2863SOL     OW 9487   6.174   1.494   0.243
 2863SOL    HW1 9488   6.191   1.505   0.146
 2863SOL    HW2 9489   6.077   1.473   0.258
 2864SOL     OW 9490   3.547   0.437   1.068
 2864SOL    HW1 9491   3.609   0.402   1.138
 2864SOL    HW2 9492   3.477   0.494   1.111
 2865SOL     OW 9493   4.601   4.416   5.296
 2865SOL    HW1 9494   4.624   4.394   5.391
 2865SOL    HW2 9495   4.656   4.360   5.234
 2866SOL     OW 9496   6.620   6.809   6.799
 2866SOL    HW1 9497   6.553   6.762   6.857
 2866SOL    HW2 9498   6.706   6.819   6.849
 2867SOL     OW 9499   5.998   4.305   2.259
 2867SOL    HW1 9500   6.003   4.388   2.315
 2867SOL    HW2 9501   5.923   4.247   2.292
 2868SOL     OW 9502   0.961   3.519   5.255
 2868SOL    HW1 9503   0.949   3.492   5.350
 2868SOL    HW2 9504   0.944   3.440   5.196
 2869SOL     OW 9505   6.214   0.790   2.400
 2869SOL    HW1 9506   6.164   0.711   2.364
 2869SOL    HW2 9507   6.260   0.838   2.325
 2870SOL     OW 9508   6.452   1.702   3.601
 2870SOL    HW1 9509   6.525   1.651   3.647
 2870SOL    HW2 9510   6.476   1.799   3.596
 2871SOL     OW 9511   2.174   2.045   6.396
 2871SOL    HW1 9512   2.194   1.979   6.469
 2871SOL    HW2 9513   2.181   2.137   6.433
 2872SOL     OW 9514   2.948   1.484   4.144
 2872SOL    HW1 9515   2.939   1.580   4.117
 2872SOL    HW2 9516   2.884   1.464   4.218
 2873SOL     OW 9517   0.698   6.128   3.024
 2873SOL    HW1 9518   0.656   6.064   3.088
 2873SOL    HW2 9519   0.634   6.201   3.001
 2874SOL     OW 9520   5.375   4.594   2.223
 2874SOL    HW1 9521   5.322   4.552   2.149
 2874SOL    HW2 9522   5.312   4.629   2.292
 2875SOL     OW 9523   3.836   6.439   6.377
 2875SOL    HW1 9524   3.802   6.453   6.284
 2875SOL    HW2 9525   3.915   6.378   6.375
 2876SOL     OW 9526   0.844   1.048   1.797
 2876SOL    HW1 9527   0.914   0.986   1.832
 2876SOL    HW2 9528   0.755   1.002   1.797
 2877SOL     OW 9529   3.286   2.992   5.274
 2877SOL    HW1 9530   3.271   2.901   5.235
 2877SOL    HW2 9531   3.376   3.025   5.248
 2878SOL     OW 9532   2.963   5.087   4.798
 2878SOL    HW1 9533   3.043   5.127   4.843
 2878SOL    HW2 9534   2.941   4.999   4.840
 2879SOL     OW 9535   5.085   5.162   0.220
 2879SOL    HW1 9536   5.009   5.204   0.171
 2879SOL    HW2 9537   5.169   5.171   0.166
 2880SOL     OW 9538   6.786   6.478   0.508
 2880SOL    HW1 9539   6.826   6.417   0.439
 2880SOL    HW2 9540   6.858   6.536   0.546
 2881SOL     OW 9541   6.724   6.114   1.531
 2881SOL    HW1 9542   6.810   6.161   1.511
 2881SOL    HW2 9543   6.733   6.064   1.617
 2882SOL     OW 9544   1.185   3.669   2.888
 2882SOL    HW1 9545   1.122   3.607   2.841
 2882SOL    HW2 9546   1.140   3.708   2.969
 2883SOL     OW 9547   3.653   6.987   3.552
 2883SOL    HW1 9548   3.681   6.981   3.456
 2883SOL    HW2 9549   3.563   0.011   3.557
 2884SOL     OW 9550   0.245   6.852   3.438
 2884SOL    HW1 9551   0.307   6.861   3.360
 2884SOL    HW2 9552   0.205   6.941   3.459
 2885SOL     OW 9553   0.360   2.456   3.063
 2885SOL    HW1 9554   0.395   2.494   3.149
 2885SOL    HW2 9555   0.262   2.439   3.072
 2886SOL     OW 9556   2.341   2.837   6.648
 2886SOL    HW1 9557   2.280   2.906   6.610
 2886SOL    HW2 9558   2.403   2.880   6.714
 2887SOL     OW 9559   2.639   6.553   5.353
 2887SOL    HW1 9560   2.549   6.545   5.312
 2887SOL    HW2 9561   2.705   6.500   5.299
 2888SOL     OW 9562   6.969   5.310   6.604
 2888SOL    HW1 9563   0.037   5.339   6.568
 2888SOL    HW2 9564   6.913   5.274   6.530
 2889SOL     OW 9565   1.592   1.137   1.573
 2889SOL    HW1 9566   1.606   1.212   1.637
 2889SOL    HW2 9567   1.660   1.142   1.500
 2890SOL     OW 9568   3.324   0.414   1.497
 2890SOL    HW1 9569   3.226   0.433   1.507
 2890SOL    HW2 9570   3.346   0.327   1.540
 2891SOL     OW 9571   1.963   4.888   3.605
 2891SOL    HW1 9572   1.865   4.878   3.618
 2891SOL    HW2 9573   1.982   4.970   3.550
 2892SOL     OW 9574   4.533   4.152   6.685
 2892SOL    HW1 9575   4.617   4.130   6.635
 2892SOL    HW2 9576   4.467   4.077   6.675
 2893SOL     OW 9577   2.273   6.322   5.924
 2893SOL    HW1 9578   2.221   6.407   5.920
 2893SOL    HW2 9579   2.210   6.244   5.918
 2894SOL     OW 9580   2.595   2.602   6.884
 2894SOL    HW1 9581   2.649   2.652   6.951
 2894SOL    HW2 9582   2.564   2.664   6.812
 2895SOL     OW 9583   3.702   3.153   6.499
 2895SOL    HW1 9584   3.619   3.150   6.554
 2895SOL    HW2 9585   3.709   3.068   6.445
 2896SOL     OW 9586   2.733   5.699   6.717
 2896SOL    HW1 9587   2.708   5.684   6.813
 2896SOL    HW2 9588   2.704   5.621   6.662
 2897SOL     OW 9589   2.178   6.546   3.701
 2897SOL    HW1 9590   2.154   6.602   3.780
 2897SOL    HW2 9591   2.218   6.460   3.732
 2898SOL     OW 9592   4.559   5.184   2.763
 2898SOL    HW1 9593   4.584   5.272   2.803
 2898SOL    HW2 9594   4.465   5.189   2.728
 2899SOL     OW 9595   0.521   0.635   6.772
 2899SOL    HW1 9596   0.587   0.620   6.698
 2899SOL    HW2 9597   0.474   0.722   6.758
 2900SOL     OW 9598   1.099   4.823   5.701
 2900SOL    HW1 9599   1.042   4.848   5.780
 2900SOL    HW2 9600   1.194   4.812   5.731
 2901SOL     OW 9601   2.225   0.386   2.348
 2901SOL    HW1 9602   2.175   0.444   2.285
 2901SOL    HW2 9603   2.168   0.365   2.428
 2902SOL     OW 9604   5.680   6.573   0.505
 2902SOL    HW1 9605   5.678   6.473   0.500
 2902SOL    HW2 9606   5.768   6.602   0.543
 2903SOL     OW 9607   3.487   0.507   2.189
 2903SOL    HW1 9608   3.511   0.574   2.118
 2903SOL    HW2 9609   3.571   0.465   2.224
 2904SOL     OW 9610   2.421   3.304   5.324
 2904SOL    HW1 9611   2.440   3.210   5.295
 2904SOL    HW2 9612   2.338   3.337   5.280
 2905SOL     OW 9613   1.913   1.084   2.625
 2905SOL    HW1 9614   1.955   1.161   2.674
 2905SOL    HW2 9615   1.819   1.108   2.600
 2906SOL     OW 9616   5.249   5.018   1.426
 2906SOL    HW1 9617   5.334   5.064   1.452
 2906SOL    HW2 9618   5.250   4.924   1.460
 2907SOL     OW 9619   6.530   1.513   5.175
 2907SOL    HW1 9620   6.472   1.573   5.231
 2907SOL    HW2 9621   6.547   1.557   5.086
 2908SOL     OW 9622   3.886   6.447   4.058
 2908SOL    HW1 9623   3.845   6.534   4.033
 2908SOL    HW2 9624   3.818   6.389   4.103
 2909SOL     OW 9625   0.363   5.133   4.518
 2909SOL    HW1 9626   0.330   5.098   4.605
 2909SOL    HW2 9627   0.383   5.056   4.457
 2910SOL     OW 9628   3.648   6.200   4.806
 2910SOL    HW1 9629   3.706   6.218   4.726
 2910SOL    HW2 9630   3.566   6.257   4.802
 2911SOL     OW 9631   2.265   5.191   3.315
 2911SOL    HW1 9632   2.361   5.202   3.341
 2911SOL    HW2 9633   2.213   5.151   3.391
 2912SOL     OW 9634   2.561   6.167   0.476
 2912SOL    HW1 9635   2.645   6.142   0.428
 2912SOL    HW2 9636   2.581   6.240   0.542
 2913SOL     OW 9637   2.007   4.073   2.805
 2913SOL    HW1 9638   2.082   4.051   2.743
 2913SOL    HW2 9639   1.967   4.161   2.779
 2914SOL     OW 9640   6.166   4.692   6.116
 2914SOL    HW1 9641   6.117   4.639   6.184
 2914SOL    HW2 9642   6.207   4.631   6.049
 2915SOL     OW 9643   4.642   1.408   4.067
 2915SOL    HW1 9644   4.618   1.447   4.156
 2915SOL    HW2 9645   4.611   1.468   3.994
 2916SOL     OW 9646   6.375   4.472   5.554
 2916SOL    HW1 9647   6.391   4.412   5.633
 2916SOL    HW2 9648   6.413   4.562   5.572
 2917SOL     OW 9649   3.956   0.056   0.613
 2917SOL    HW1 9650   3.894   0.105   0.674
 2917SOL    HW2 9651   3.957   6.979   0.639
 2918SOL     OW 9652   7.005   3.685   3.126
 2918SOL    HW1 9653   7.014   3.586   3.137
 2918SOL    HW2 9654   6.922   3.704   3.073
 2919SOL     OW 9655   6.103   6.760   0.411
 2919SOL    HW1 9656   6.167   6.815   0.466
 2919SOL    HW2 9657   6.024   6.816   0.386
 2920SOL     OW 9658   3.647   1.931   2.707
 2920SOL    HW1 9659   3.617   1.930   2.611
 2920SOL    HW2 9660   3.567   1.929   2.767
 2921SOL     OW 9661   0.251   1.490   2.639
 2921SOL    HW1 9662   0.162   1.530   2.622
 2921SOL    HW2 9663   0.315   1.519   2.568
 2922SOL     OW 9664   5.904   6.530   6.450
 2922SOL    HW1 9665   5.919   6.568   6.541
 2922SOL    HW2 9666   5.979   6.559   6.389
 2923SOL     OW 9667   6.781   5.675   2.709
 2923SOL    HW1 9668   6.734   5.726   2.637
 2923SOL    HW2 9669   6.761   5.717   2.798
 2924SOL     OW 9670   1.175   1.795   5.910
 2924SOL    HW1 9671   1.218   1.725   5.967
 2924SOL    HW2 9672   1.099   1.754   5.860
 2925SOL     OW 9673   5.814   1.806   2.436
 2925SOL    HW1 9674   5.835   1.807   2.534
 2925SOL    HW2 9675   5.725   1.850   2.421
 2926SOL     OW 9676   0.144   1.443   4.822
 2926SOL    HW1 9677   0.187   1.371   4.877
 2926SOL    HW2 9678   0.084   1.498   4.880
 2927SOL     OW 9679   1.397   3.034   2.260
 2927SOL    HW1 9680   1.366   2.940   2.251
 2927SOL    HW2 9681   1.472   3.039   2.325
 2928SOL     OW 9682   6.733   1.087   6.899
 2928SOL    HW1 9683   6.719   1.185   6.896
 2928SOL    HW2 9684   6.814   1.063   6.846
 2929SOL     OW 9685   0.455   1.022   5.999
 2929SOL    HW1 9686   0.452   1.114   6.037
 2929SOL    HW2 9687   0.481   0.957   6.070
 2930SOL     OW 9688   5.026   0.259   4.439
 2930SOL    HW1 9689   5.052   0.338   4.383
 2930SOL    HW2 9690   4.976   0.193   4.383
 2931SOL     OW 9691   5.074   5.443   6.594
 2931SOL    HW1 9692   5.121   5.446   6.505
 2931SOL    HW2 9693   4.981   5.409   6.581
 2932SOL     OW 9694   1.738   4.435   1.704
 2932SOL    HW1 9695   1.754   4.389   1.616
 2932SOL    HW2 9696   1.706   4.528   1.688
 2933SOL     OW 9697   5.687   2.205   4.137
 2933SOL    HW1 9698   5.625   2.211   4.215
 2933SOL    HW2 9699   5.642   2.156   4.062
 2934SOL     OW 9700   3.563   0.054   0.774
 2934SOL    HW1 9701   3.638   0.121   0.774
 2934SOL    HW2 9702   3.544   0.024   0.867
 2935SOL     OW 9703   6.309   3.556   1.485
 2935SOL    HW1 9704   6.287   3.653   1.487
 2935SOL    HW2 9705   6.390   3.539   1.542
 2936SOL     OW 9706   5.105   5.860   1.165
 2936SOL    HW1 9707   5.016   5.824   1.137
 2936SOL    HW2 9708   5.115   5.953   1.131
 2937SOL     OW 9709   3.265   5.169   0.846
 2937SOL    HW1 9710   3.233   5.264   0.841
 2937SOL    HW2 9711   3.242   5.131   0.935
 2938SOL     OW 9712   4.651   4.666   5.492
 2938SOL    HW1 9713   4.633   4.710   5.403
 2938SOL    HW2 9714   4.574   4.683   5.553
 2939SOL     OW 9715   6.396   0.010   4.528
 2939SOL    HW1 9716   6.386   6.985   4.439
 2939SOL    HW2 9717   6.312   7.020   4.581
 2940SOL     OW 9718   5.775   6.692   5.389
 2940SOL    HW1 9719   5.684   6.732   5.379
 2940SOL    HW2 9720   5.820   6.730   5.470
 2941SOL     OW 9721   1.722   2.151   5.721
 2941SOL    HW1 9722   1.676   2.217   5.661
 2941SOL    HW2 9723   1.767   2.199   5.796
 2942SOL     OW 9724   3.099   0.707   2.454
 2942SOL    HW1 9725   3.193   0.709   2.417
 2942SOL    HW2 9726   3.066   0.613   2.456
 2943SOL     OW 9727   5.289   3.381   2.368
 2943SOL    HW1 9728   5.374   3.403   2.417
 2943SOL    HW2 9729   5.232   3.324   2.427
 2944SOL     OW 9730   2.942   5.217   6.051
 2944SOL    HW1 9731   2.952   5.316   6.048
 2944SOL    HW2 9732   3.028   5.173   6.026
 2945SOL     OW 9733   3.833   3.734   2.771
 2945SOL    HW1 9734   3.885   3.793   2.709
 2945SOL    HW2 9735   3.791   3.791   2.843
 2946SOL     OW 9736   6.442   6.293   5.712
 2946SOL    HW1 9737   6.473   6.385   5.691
 2946SOL    HW2 9738   6.407   6.289   5.806
 2947SOL     OW 9739   6.935   3.813   6.318
 2947SOL    HW1 9740   6.924   3.726   6.271
 2947SOL    HW2 9741   7.016   3.860   6.281
 2948SOL     OW 9742   6.293   3.499   5.574
 2948SOL    HW1 9743   6.270   3.596   5.561
 2948SOL    HW2 9744   6.330   3.485   5.665
 2949SOL     OW 9745   1.841   6.414   1.196
 2949SOL    HW1 9746   1.792   6.386   1.113
 2949SOL    HW2 9747   1.855   6.335   1.255
 2950SOL     OW 9748   5.409   3.734   4.281
 2950SOL    HW1 9749   5.327   3.777   4.242
 2950SOL    HW2 9750   5.478   3.804   4.298
 2951SOL     OW 9751   6.712   2.266   0.260
 2951SOL    HW1 9752   6.720   2.261   0.360
 2951SOL    HW2 9753   6.659   2.188   0.227
 2952SOL     OW 9754   0.622   4.831   3.368
 2952SOL    HW1 9755   0.592   4.860   3.277
 2952SOL    HW2 9756   0.600   4.734   3.381
 2953SOL     OW 9757   5.023   2.793   2.280
 2953SOL    HW1 9758   5.058   2.886   2.275
 2953SOL    HW2 9759   5.069   2.737   2.211
 2954SOL     OW 9760   0.492   6.508   1.865
 2954SOL    HW1 9761   0.562   6.539   1.929
 2954SOL    HW2 9762   0.529   6.438   1.805
 2955SOL     OW 9763   0.624   2.957   0.400
 2955SOL    HW1 9764   0.617   2.908   0.488
 2955SOL    HW2 9765   0.589   3.050   0.411
 2956SOL     OW 9766   0.394   5.840   3.179
 2956SOL    HW1 9767   0.406   5.843   3.278
 2956SOL    HW2 9768   0.360   5.928   3.147
 2957SOL     OW 9769   0.381   3.821   0.432
 2957SOL    HW1 9770   0.440   3.746   0.401
 2957SOL    HW2 9771   0.287   3.789   0.438
 2958SOL     OW 9772   1.903   4.416   5.925
 2958SOL    HW1 9773   1.959   4.428   6.006
 2958SOL    HW2 9774   1.941   4.470   5.850
 2959SOL     OW 9775   5.792   4.693   5.916
 2959SOL    HW1 9776   5.873   4.744   5.886
 2959SOL    HW2 9777   5.820   4.624   5.983
 2960SOL     OW 9778   3.306   1.269   0.312
 2960SOL    HW1 9779   3.325   1.270   0.213
 2960SOL    HW2 9780   3.308   1.362   0.347
 2961SOL     OW 9781   5.347   3.173   4.879
 2961SOL    HW1 9782   5.390   3.083   4.870
 2961SOL    HW2 9783   5.323   3.189   4.975
 2962SOL     OW 9784   4.640   1.004   3.751
 2962SOL    HW1 9785   4.712   0.944   3.787
 2962SOL    HW2 9786   4.553   0.981   3.794
 2963SOL     OW 9787   1.835   1.766   5.394
 2963SOL    HW1 9788   1.755   1.804   5.347
 2963SOL    HW2 9789   1.913   1.765   5.332
 2964SOL     OW 9790   1.807   0.292   2.233
 2964SOL    HW1 9791   1.808   0.284   2.134
 2964SOL    HW2 9792   1.867   0.223   2.273
 2965SOL     OW 9793   0.295   0.723   5.124
 2965SOL    HW1 9794   0.265   0.818   5.135
 2965SOL    HW2 9795   0.384   0.711   5.168
 2966SOL     OW 9796   5.440   4.404   3.496
 2966SOL    HW1 9797   5.415   4.500   3.497
 2966SOL    HW2 9798   5.473   4.377   3.586
 2967SOL     OW 9799   6.201   2.512   3.681
 2967SOL    HW1 9800   6.210   2.577   3.606
 2967SOL    HW2 9801   6.277   2.525   3.745
 2968SOL     OW 9802   0.723   3.892   5.338
 2968SOL    HW1 9803   0.625   3.878   5.352
 2968SOL    HW2 9804   0.774   3.847   5.411
 2969SOL     OW 9805   5.687   1.931   4.957
 2969SOL    HW1 9806   5.591   1.905   4.964
 2969SOL    HW2 9807   5.741   1.872   5.018
 2970SOL     OW 9808   1.006   4.712   6.620
 2970SOL    HW1 9809   0.927   4.676   6.571
 2970SOL    HW2 9810   1.058   4.774   6.561
 2971SOL     OW 9811   5.942   3.314   3.634
 2971SOL    HW1 9812   5.967   3.407   3.662
 2971SOL    HW2 9813   5.861   3.285   3.686
 2972SOL     OW 9814   6.760   3.903   6.756
 2972SOL    HW1 9815   6.825   3.978   6.744
 2972SOL    HW2 9816   6.758   3.846   6.674
 2973SOL     OW 9817   5.430   0.433   4.036
 2973SOL    HW1 9818   5.352   0.432   3.973
 2973SOL    HW2 9819   5.427   0.353   4.095
 2974SOL     OW 9820   5.448   3.974   3.035
 2974SOL    HW1 9821   5.459   3.927   3.122
 2974SOL    HW2 9822   5.418   4.068   3.051
 2975SOL     OW 9823   0.560   1.507   5.142
 2975SOL    HW1 9824   0.555   1.410   5.167
 2975SOL    HW2 9825   0.653   1.530   5.115
 2976SOL     OW 9826   4.318   1.039   3.267
 2976SOL    HW1 9827   4.298   1.127   3.226
 2976SOL    HW2 9828   4.236   1.005   3.315
 2977SOL     OW 9829   2.634   0.228   4.142
 2977SOL    HW1 9830   2.537   0.207   4.148
 2977SOL    HW2 9831   2.681   0.196   4.224
 2978SOL     OW 9832   4.506   4.948   0.317
 2978SOL    HW1 9833   4.470   4.872   0.372
 2978SOL    HW2 9834   4.460   4.949   0.228
 2979SOL     OW 9835   3.220   0.501   3.814
 2979SOL    HW1 9836   3.219   0.578   3.749
 2979SOL    HW2 9837   3.129   0.461   3.818
 2980SOL     OW 9838   0.991   6.601   4.435
 2980SOL    HW1 9839   1.008   6.612   4.337
 2980SOL    HW2 9840   0.965   6.689   4.474
 2981SOL     OW 9841   1.415   0.501   5.746
 2981SOL    HW1 9842   1.507   0.529   5.717
 2981SOL    HW2 9843   1.349   0.570   5.719
 2982SOL     OW 9844   4.050   6.190   2.849
 2982SOL    HW1 9845   4.096   6.248   2.782
 2982SOL    HW2 9846   3.952   6.209   2.848
 2983SOL     OW 9847   0.293   0.939   4.141
 2983SOL    HW1 9848   0.245   0.852   4.141
 2983SOL    HW2 9849   0.391   0.923   4.150
 2984SOL     OW 9850   6.154   5.522   1.525
 2984SOL    HW1 9851   6.173   5.567   1.612
 2984SOL    HW2 9852   6.137   5.591   1.455
 2985SOL     OW 9853   1.091   1.768   4.570
 2985SOL    HW1 9854   1.136   1.834   4.510
 2985SOL    HW2 9855   1.151   1.689   4.583
 2986SOL     OW 9856   2.558   4.358   5.625
 2986SOL    HW1 9857   2.589   4.444   5.666
 2986SOL    HW2 9858   2.598   4.348   5.534
 2987SOL     OW 9859   4.927   0.858   4.323
 2987SOL    HW1 9860   5.015   0.826   4.358
 2987SOL    HW2 9861   4.941   0.904   4.235
 2988SOL     OW 9862   1.357   0.434   2.349
 2988SOL    HW1 9863   1.438   0.459   2.296
 2988SOL    HW2 9864   1.280   0.419   2.288
 2989SOL     OW 9865   6.360   5.390   1.386
 2989SOL    HW1 9866   6.405   5.312   1.431
 2989SOL    HW2 9867   6.303   5.438   1.451
 2990SOL     OW 9868   3.819   0.803   3.075
 2990SOL    HW1 9869   3.884   0.790   3.150
 2990SOL    HW2 9870   3.727   0.777   3.106
 2991SOL     OW 9871   0.361   4.359   0.602
 2991SOL    HW1 9872   0.441   4.398   0.555
 2991SOL    HW2 9873   0.354   4.262   0.581
 2992SOL     OW 9874   2.941   5.637   6.198
 2992SOL    HW1 9875   2.946   5.673   6.291
 2992SOL    HW2 9876   2.854   5.664   6.157
 2993SOL     OW 9877   1.854   4.633   2.195
 2993SOL    HW1 9878   1.864   4.534   2.202
 2993SOL    HW2 9879   1.934   4.672   2.148
 2994SOL     OW 9880   4.840   0.205   6.972
 2994SOL    HW1 9881   4.754   0.247   6.945
 2994SOL    HW2 9882   4.842   0.110   6.941
 2995SOL     OW 9883   1.358   1.955   0.167
 2995SOL    HW1 9884   1.304   1.989   0.244
 2995SOL    HW2 9885   1.428   2.023   0.144
 2996SOL     OW 9886   2.814   5.976   5.009
 2996SOL    HW1 9887   2.745   6.047   5.025
 2996SOL    HW2 9888   2.814   5.912   5.086
 2997SOL     OW 9889   5.119   5.909   1.968
 2997SOL    HW1 9890   5.191   5.957   2.018
 2997SOL    HW2 9891   5.030   5.928   2.011
 2998SOL     OW 9892   4.852   6.119   4.618
 2998SOL    HW1 9893   4.855   6.185   4.692
 2998SOL    HW2 9894   4.801   6.158   4.541
 2999SOL     OW 9895   3.251   5.954   3.576
 2999SOL    HW1 9896   3.233   6.052   3.589
 2999SOL    HW2 9897   3.170   5.910   3.537
 3000SOL     OW 9898   1.363   3.516   5.981
 3000SOL    HW1 9899   1.437   3.448   5.974
 3000SOL    HW2 9900   1.279   3.478   5.941
 3001SOL     OW 9901   4.701   6.984   6.461
 3001SOL    HW1 9902   4.746   6.897   6.443
 3001SOL    HW2 9903   4.733   0.032   6.395
 3002SOL     OW 9904   4.136   6.987   5.534
 3002SOL    HW1 9905   4.186   0.013   5.607
 3002SOL    HW2 9906   4.198   6.970   5.458
 3003SOL     OW 9907   2.790   6.328   6.114
 3003SOL    HW1 9908   2.839   6.307   6.199
 3003SOL    HW2 9909   2.857   6.348   6.042
 3004SOL     OW 9910   6.186   3.926   3.628
 3004SOL    HW1 9911   6.191   3.828   3.610
 3004SOL    HW2 9912   6.278   3.963   3.633
 3005SOL     OW 9913   3.373   3.229   1.594
 3005SOL    HW1 9914   3.427   3.196   1.517
 3005SOL    HW2 9915   3.385   3.168   1.672
 3006SOL     OW 9916   6.616   1.405   0.784
 3006SOL    HW1 9917   6.671   1.382   0.864
 3006SOL    HW2 9918   6.550   1.333   0.767
 3007SOL     OW 9919   5.422   5.102   2.133
 3007SOL    HW1 9920   5.389   5.051   2.212
 3007SOL    HW2 9921   5.458   5.191   2.162
 3008SOL     OW 9922   4.229   0.299   6.121
 3008SOL    HW1 9923   4.164   0.326   6.193
 3008SOL    HW2 9924   4.223   0.364   6.045
 3009SOL     OW 9925   0.398   0.391   2.714
 3009SOL    HW1 9926   0.406   0.461   2.643
 3009SOL    HW2 9927   0.359   0.432   2.797
 3010SOL     OW 9928   3.938   5.962   2.940
 3010SOL    HW1 9929   3.957   6.054   2.906
 3010SOL    HW2 9930   3.866   5.921   2.884
 3011SOL     OW 9931   6.305   0.962   6.664
 3011SOL    HW1 9932   6.321   0.879   6.610
 3011SOL    HW2 9933   6.324   1.042   6.607
 3012SOL     OW 9934   0.257   3.475   4.014
 3012SOL    HW1 9935   0.162   3.491   3.989
 3012SOL    HW2 9936   0.312   3.554   3.989
 3013SOL     OW 9937   5.791   5.959   2.807
 3013SOL    HW1 9938   5.751   5.952   2.716
 3013SOL    HW2 9939   5.827   6.052   2.821
 3014SOL     OW 9940   5.530   1.553   4.274
 3014SOL    HW1 9941   5.453   1.556   4.338
 3014SOL    HW2 9942   5.541   1.642   4.230
 3015SOL     OW 9943   2.526   2.294   0.160
 3015SOL    HW1 9944   2.510   2.307   0.258
 3015SOL    HW2 9945   2.624   2.301   0.142
 3016SOL     OW 9946   3.289   5.518   4.223
 3016SOL    HW1 9947   3.312   5.544   4.316
 3016SOL    HW2 9948   3.262   5.421   4.221
 3017SOL     OW 9949   0.747   5.699   0.971
 3017SOL    HW1 9950   0.779   5.608   0.942
 3017SOL    HW2 9951   0.824   5.753   1.002
 3018SOL     OW 9952   4.046   0.621   6.965
 3018SOL    HW1 9953   4.112   0.568   7.018
 3018SOL    HW2 9954   3.976   0.560   6.928
 3019SOL     OW 9955   3.216   6.557   1.053
 3019SOL    HW1 9956   3.284   6.486   1.070
 3019SOL    HW2 9957   3.141   6.520   0.998
 3020SOL     OW 9958   3.592   3.623   1.438
 3020SOL    HW1 9959   3.631   3.656   1.524
 3020SOL    HW2 9960   3.512   3.678   1.414
 3021SOL     OW 9961   1.794   1.978   6.610
 3021SOL    HW1 9962   1.763   2.026   6.527
 3021SOL    HW2 9963   1.789   2.040   6.688
 3022SOL     OW 9964   3.736   5.512   2.840
 3022SOL    HW1 9965   3.742   5.592   2.780
 3022SOL    HW2 9966   3.712   5.542   2.933
 3023SOL     OW 9967   3.390   6.023   3.325
 3023SOL    HW1 9968   3.299   6.028   3.285
 3023SOL    HW2 9969   3.386   5.974   3.412
 3024SOL     OW 9970   2.995   0.643   6.693
 3024SOL    HW1 9971   2.936   0.699   6.750
 3024SOL    HW2 9972   3.083   0.690   6.679
 3025SOL     OW 9973   3.214   3.214   0.942
 3025SOL    HW1 9974   3.252   3.121   0.940
 3025SOL    HW2 9975   3.167   3.233   0.856
 3026SOL     OW 9976   1.367   3.471   0.935
 3026SOL    HW1 9977   1.466   3.453   0.940
 3026SOL    HW2 9978   1.318   3.405   0.992
 3027SOL     OW 9979   3.986   0.771   2.706
 3027SOL    HW1 9980   3.968   0.790   2.609
 3027SOL    HW2 9981   4.083   0.787   2.725
 3028SOL     OW 9982   1.110   5.123   0.093
 3028SOL    HW1 9983   1.109   5.123   7.013
 3028SOL    HW2 9984   1.047   5.052   0.127
 3029SOL     OW 9985   6.194   4.777   5.412
 3029SOL    HW1 9986   6.177   4.823   5.326
 3029SOL    HW2 9987   6.135   4.696   5.419
 3030SOL     OW 9988   1.035   1.615   5.770
 3030SOL    HW1 9989   1.096   1.617   5.691
 3030SOL    HW2 9990   1.037   1.523   5.811
 3031SOL     OW 9991   0.615   3.760   0.691
 3031SOL    HW1 9992   0.557   3.834   0.725
 3031SOL    HW2 9993   0.563   3.675   0.689
 3032SOL     OW 9994   5.187   0.016   0.074
 3032SOL    HW1 9995   5.109   6.988   0.114
 3032SOL    HW2 9996   5.271   6.984   0.091
 3033SOL     OW 9997   0.755   2.696   0.342
 3033SOL    HW1 9998   0.807   2.670   0.260
 3033SOL    HW2 9999   0.727   2.791   0.334
 3034SOL     OW10000   1.972   6.447   3.302
 3034SOL    HW110001   2.042   6.376   3.295
 3034SOL    HW210002   1.941   6.454   3.397
 3035SOL     OW10003   6.587   1.548   0.514
 3035SOL    HW110004   6.490   1.558   0.493
 3035SOL    HW210005   6.598   1.489   0.595
 3036SOL     OW10006   1.680   3.949   6.855
 3036SOL    HW110007   1.621   3.922   6.780
 3036SOL    HW210008   1.709   3.868   6.906
 3037SOL     OW10009   5.883   5.741   4.739
 3037SOL    HW110010   5.896   5.761   4.836
 3037SOL    HW210011   5.940   5.663   4.714
 3038SOL     OW10012   5.666   6.738   6.169
 3038SOL    HW110013   5.577   6.712   6.130
 3038SOL    HW210014   5.653   6.767   6.264
 3039SOL     OW10015   6.455   4.591   2.524
 3039SOL    HW110016   6.533   4.529   2.526
 3039SOL    HW210017   6.488   4.685   2.515
 3040SOL     OW10018   4.235   3.951   6.240
 3040SOL    HW110019   4.334   3.969   6.234
 3040SOL    HW210020   4.187   4.038   6.251
 3041SOL     OW10021   2.110   3.002   5.833
 3041SOL    HW110022   2.101   3.014   5.734
 3041SOL    HW210023   2.019   2.994   5.873
 3042SOL     OW10024   4.969   0.299   2.242
 3042SOL    HW110025   4.950   0.390   2.279
 3042SOL    HW210026   5.060   0.299   2.199
 3043SOL     OW10027   0.593   5.543   0.334
 3043SOL    HW110028   0.552   5.628   0.301
 3043SOL    HW210029   0.687   5.535   0.299
 3044SOL     OW10030   3.619   4.618   5.685
 3044SOL    HW110031   3.630   4.627   5.586
 3044SOL    HW210032   3.565   4.537   5.706
 3045SOL     OW10033   5.222   0.688   2.852
 3045SOL    HW110034   5.307   0.706   2.901
 3045SOL    HW210035   5.145   0.710   2.912
 3046SOL     OW10036   0.919   3.319   5.074
 3046SOL    HW110037   1.004   3.275   5.045
 3046SOL    HW210038   0.883   3.375   5.000
 3047SOL     OW10039   5.582   5.203   1.697
 3047SOL    HW110040   5.519   5.148   1.753
 3047SOL    HW210041   5.584   5.167   1.604
 3048SOL     OW10042   4.291   3.210   1.409
 3048SOL    HW110043   4.388   3.186   1.410
 3048SOL    HW210044   4.260   3.220   1.314
 3049SOL     OW10045   0.919   0.020   1.399
 3049SOL    HW110046   0.986   0.094   1.388
 3049SOL    HW210047   0.966   6.952   1.393
 3050SOL     OW10048   3.243   7.002   3.378
 3050SOL    HW110049   3.243   6.993   3.278
 3050SOL    HW210050   3.266   0.076   3.403
 3051SOL     OW10051   2.240   4.712   6.888
 3051SOL    HW110052   2.315   4.760   6.933
 3051SOL    HW210053   2.154   4.733   6.936
 3052SOL     OW10054   3.841   0.291   3.404
 3052SOL    HW110055   3.880   0.382   3.417
 3052SOL    HW210056   3.774   0.294   3.330
 3053SOL     OW10057   6.079   0.319   0.001
 3053SOL    HW110058   6.154   0.385   0.007
 3053SOL    HW210059   6.089   0.264   6.939
 3054SOL     OW10060   6.624   3.091   6.878
 3054SOL    HW110061   6.615   3.180   6.923
 3054SOL    HW210062   6.631   3.019   6.946
 3055SOL     OW10063   5.207   0.391   3.881
 3055SOL    HW110064   5.164   0.480   3.863
 3055SOL    HW210065   5.250   0.358   3.797
 3056SOL     OW10066   6.308   0.278   0.214
 3056SOL    HW110067   6.242   0.326   0.156
 3056SOL    HW210068   6.323   0.186   0.179
 3057SOL     OW10069   4.776   5.464   2.670
 3057SOL    HW110070   4.846   5.532   2.649
 3057SOL    HW210071   4.778   5.391   2.601
 3058SOL     OW10072   6.609   5.979   1.318
 3058SOL    HW110073   6.633   6.015   1.408
 3058SOL    HW210074   6.690   5.937   1.277
 3059SOL     OW10075   1.214   3.201   5.107
 3059SOL    HW110076   1.233   3.299   5.104
 3059SOL    HW210077   1.270   3.154   5.040
 3060SOL     OW10078   0.767   6.913   0.241
 3060SOL    HW110079   0.857   6.956   0.251
 3060SOL    HW210080   0.697   6.972   0.281
 3061SOL     OW10081   0.200   0.534   4.975
 3061SOL    HW110082   0.256   0.602   5.023
 3061SOL    HW210083   0.213   0.445   5.019
 3062SOL     OW10084   2.296   6.829   1.587
 3062SOL    HW110085   2.372   6.817   1.651
 3062SOL    HW210086   2.271   6.926   1.583
 3063SOL     OW10087   2.102   4.915   1.993
 3063SOL    HW110088   2.069   4.996   1.944
 3063SOL    HW210089   2.179   4.876   1.943
 3064SOL     OW10090   5.576   3.426   3.906
 3064SOL    HW110091   5.582   3.473   3.994
 3064SOL    HW210092   5.555   3.492   3.834
 3065SOL     OW10093   2.127   0.630   6.351
 3065SOL    HW110094   2.224   0.637   6.330
 3065SOL    HW210095   2.113   0.564   6.425
 3066SOL     OW10096   6.025   4.362   0.012
 3066SOL    HW110097   6.123   4.373   0.027
 3066SOL    HW210098   5.981   4.336   0.097
 3067SOL     OW10099   3.818   0.875   4.966
 3067SOL    HW110100   3.838   0.968   4.994
 3067SOL    HW210101   3.902   0.822   4.961
 3068SOL     OW10102   5.933   5.965   0.851
 3068SOL    HW110103   5.993   6.041   0.877
 3068SOL    HW210104   5.884   5.932   0.931
 3069SOL     OW10105   0.327   5.800   1.814
 3069SOL    HW110106   0.411   5.748   1.807
 3069SOL    HW210107   0.321   5.864   1.738
 3070SOL     OW10108   2.367   1.357   2.779
 3070SOL    HW110109   2.319   1.424   2.836
 3070SOL    HW210110   2.340   1.265   2.808
 3071SOL     OW10111   6.208   7.008   3.684
 3071SOL    HW110112   6.267   6.932   3.709
 3071SOL    HW210113   6.115   6.974   3.666
 3072SOL     OW10114   0.642   6.883   1.811
 3072SOL    HW110115   0.685   6.913   1.727
 3072SOL    HW210116   0.559   6.831   1.789
 3073SOL     OW10117   0.563   3.470   5.033
 3073SOL    HW110118   0.639   3.529   5.058
 3073SOL    HW210119   0.596   3.377   5.017
 3074SOL     OW10120   4.702   3.054   6.981
 3074SOL    HW110121   4.686   3.153   6.988
 3074SOL    HW210122   4.754   3.024   0.041
 3075SOL     OW10123   1.684   6.900   1.695
 3075SOL    HW110124   1.701   6.961   1.617
 3075SOL    HW210125   1.679   6.806   1.662
 3076SOL     OW10126   6.493   0.482   4.806
 3076SOL    HW110127   6.430   0.421   4.758
 3076SOL    HW210128   6.582   0.438   4.813
 3077SOL     OW10129   5.822   4.575   3.539
 3077SOL    HW110130   5.792   4.484   3.568
 3077SOL    HW210131   5.919   4.587   3.562
 3078SOL     OW10132   2.140   3.765   1.907
 3078SOL    HW110133   2.093   3.760   1.819
 3078SOL    HW210134   2.152   3.672   1.944
 3079SOL     OW10135   1.536   2.699   5.204
 3079SOL    HW110136   1.441   2.722   5.224
 3079SOL    HW210137   1.543   2.669   5.109
 3080SOL     OW10138   6.341   5.184   1.572
 3080SOL    HW110139   6.251   5.224   1.587
 3080SOL    HW210140   6.339   5.125   1.492
 3081SOL     OW10141   0.434   4.674   5.976
 3081SOL    HW110142   0.477   4.616   6.045
 3081SOL    HW210143   0.470   4.767   5.982
 3082SOL     OW10144   4.010   6.673   3.616
 3082SOL    HW110145   4.049   6.616   3.689
 3082SOL    HW210146   4.049   6.765   3.622
 3083SOL     OW10147   3.908   6.952   2.894
 3083SOL    HW110148   3.924   6.958   2.796
 3083SOL    HW210149   3.810   6.946   2.912
 3084SOL     OW10150   4.585   4.504   4.127
 3084SOL    HW110151   4.673   4.483   4.170
 3084SOL    HW210152   4.591   4.484   4.029
 3085SOL     OW10153   0.119   4.622   3.277
 3085SOL    HW110154   0.165   4.577   3.353
 3085SOL    HW210155   0.146   4.718   3.272
 3086SOL     OW10156   4.188   1.195   2.088
 3086SOL    HW110157   4.123   1.128   2.122
 3086SOL    HW210158   4.155   1.231   2.000
 3087SOL     OW10159   6.639   4.527   3.529
 3087SOL    HW110160   6.645   4.507   3.627
 3087SOL    HW210161   6.702   4.468   3.479
 3088SOL     OW10162   2.906   4.975   5.236
 3088SOL    HW110163   2.817   4.978   5.189
 3088SOL    HW210164   2.892   4.990   5.334
 3089SOL     OW10165   1.239   2.952   0.030
 3089SOL    HW110166   1.155   2.963   6.997
 3089SOL    HW210167   1.234   3.009   0.112
 3090SOL     OW10168   1.921   1.398   1.209
 3090SOL    HW110169   1.901   1.423   1.114
 3090SOL    HW210170   1.844   1.425   1.267
 3091SOL     OW10171   3.219   0.089   0.291
 3091SOL    HW110172   3.196   0.047   0.379
 3091SOL    HW210173   3.188   0.184   0.290
 3092SOL     OW10174   5.578   6.532   0.052
 3092SOL    HW110175   5.650   6.592   0.015
 3092SOL    HW210176   5.568   6.452   7.013
 3093SOL     OW10177   5.843   4.949   5.761
 3093SOL    HW110178   5.884   4.869   5.719
 3093SOL    HW210179   5.757   4.971   5.714
 3094SOL     OW10180   2.950   6.207   5.030
 3094SOL    HW110181   2.979   6.231   4.937
 3094SOL    HW210182   2.912   6.115   5.030
 3095SOL     OW10183   2.505   4.472   4.434
 3095SOL    HW110184   2.456   4.440   4.353
 3095SOL    HW210185   2.584   4.526   4.406
 3096SOL     OW10186   6.738   0.407   4.739
 3096SOL    HW110187   6.820   0.364   4.778
 3096SOL    HW210188   6.760   0.501   4.711
 3097SOL     OW10189   0.839   2.510   0.767
 3097SOL    HW110190   0.809   2.424   0.725
 3097SOL    HW210191   0.869   2.573   0.696
 3098SOL     OW10192   2.513   3.098   1.308
 3098SOL    HW110193   2.574   3.079   1.230
 3098SOL    HW210194   2.470   3.187   1.295
 3099SOL     OW10195   6.849   5.661   4.587
 3099SOL    HW110196   6.771   5.677   4.526
 3099SOL    HW210197   6.831   5.579   4.642
 3100SOL     OW10198   6.934   0.040   4.650
 3100SOL    HW110199   6.997   0.112   4.621
 3100SOL    HW210200   6.917   0.049   4.749
 3101SOL     OW10201   4.713   5.853   5.241
 3101SOL    HW110202   4.632   5.812   5.283
 3101SOL    HW210203   4.753   5.920   5.303
 3102SOL     OW10204   0.901   4.308   1.348
 3102SOL    HW110205   0.919   4.378   1.418
 3102SOL    HW210206   0.919   4.347   1.258
 3103SOL     OW10207   3.675   2.216   0.709
 3103SOL    HW110208   3.582   2.247   0.728
 3103SOL    HW210209   3.672   2.135   0.650
 3104SOL     OW10210   5.317   5.894   4.301
 3104SOL    HW110211   5.327   5.993   4.311
 3104SOL    HW210212   5.404   5.854   4.271
 3105SOL     OW10213   5.695   6.024   3.431
 3105SOL    HW110214   5.792   6.034   3.456
 3105SOL    HW210215   5.660   6.110   3.395
 3106SOL     OW10216   6.298   2.257   2.132
 3106SOL    HW110217   6.226   2.274   2.065
 3106SOL    HW210218   6.388   2.272   2.090
 3107SOL     OW10219   3.318   0.501   4.088
 3107SOL    HW110220   3.290   0.484   3.994
 3107SOL    HW210221   3.237   0.516   4.145
 3108SOL     OW10222   1.672   0.855   4.305
 3108SOL    HW110223   1.703   0.944   4.340
 3108SOL    HW210224   1.619   0.869   4.221
 3109SOL     OW10225   5.191   5.793   2.564
 3109SOL    HW110226   5.155   5.702   2.581
 3109SOL    HW210227   5.202   5.806   2.465
 3110SOL     OW10228   0.385   2.877   4.087
 3110SOL    HW110229   0.468   2.823   4.073
 3110SOL    HW210230   0.393   2.964   4.039
 3111SOL     OW10231   6.227   5.186   4.200
 3111SOL    HW110232   6.248   5.281   4.222
 3111SOL    HW210233   6.232   5.174   4.101
 3112SOL     OW10234   4.466   2.458   6.012
 3112SOL    HW110235   4.497   2.552   6.026
 3112SOL    HW210236   4.377   2.459   5.967
 3113SOL     OW10237   2.393   0.161   3.849
 3113SOL    HW110238   2.386   0.123   3.942
 3113SOL    HW210239   2.470   0.118   3.801
 3114SOL     OW10240   5.491   3.843   6.608
 3114SOL    HW110241   5.547   3.922   6.634
 3114SOL    HW210242   5.550   3.771   6.573
 3115SOL     OW10243   3.874   4.213   0.246
 3115SOL    HW110244   3.799   4.230   0.183
 3115SOL    HW210245   3.884   4.115   0.262
 3116SOL     OW10246   6.659   2.669   6.514
 3116SOL    HW110247   6.758   2.673   6.523
 3116SOL    HW210248   6.629   2.734   6.444
 3117SOL     OW10249   4.411   3.520   5.540
 3117SOL    HW110250   4.508   3.538   5.558
 3117SOL    HW210251   4.390   3.545   5.445
 3118SOL     OW10252   6.766   4.714   6.637
 3118SOL    HW110253   6.756   4.710   6.736
 3118SOL    HW210254   6.703   4.650   6.593
 3119SOL     OW10255   2.055   4.312   4.994
 3119SOL    HW110256   2.099   4.224   4.978
 3119SOL    HW210257   1.969   4.297   5.042
 3120SOL     OW10258   2.159   5.955   4.371
 3120SOL    HW110259   2.070   6.002   4.365
 3120SOL    HW210260   2.153   5.867   4.325
 3121SOL     OW10261   0.665   1.654   1.835
 3121SOL    HW110262   0.711   1.666   1.923
 3121SOL    HW210263   0.680   1.561   1.801
 3122SOL     OW10264   2.956   5.405   6.336
 3122SOL    HW110265   3.017   5.333   6.303
 3122SOL    HW210266   2.942   5.472   6.263
 3123SOL     OW10267   3.345   6.417   3.632
 3123SOL    HW110268   3.308   6.327   3.607
 3123SOL    HW210269   3.361   6.470   3.549
 3124SOL     OW10270   4.700   0.637   5.266
 3124SOL    HW110271   4.687   0.694   5.347
 3124SOL    HW210272   4.710   0.695   5.185
 3125SOL     OW10273   6.361   1.857   5.473
 3125SOL    HW110274   6.329   1.838   5.380
 3125SOL    HW210275   6.285   1.848   5.537
 3126SOL     OW10276   5.478   4.468   5.963
 3126SOL    HW110277   5.413   4.496   5.893
 3126SOL    HW210278   5.439   4.486   6.053
 3127SOL     OW10279   0.862   1.638   3.319
 3127SOL    HW110280   0.887   1.668   3.411
 3127SOL    HW210281   0.814   1.550   3.324
 3128SOL     OW10282   1.696   0.758   0.450
 3128SOL    HW110283   1.733   0.812   0.525
 3128SOL    HW210284   1.714   0.804   0.363
 3129SOL     OW10285   0.869   3.828   5.565
 3129SOL    HW110286   0.955   3.777   5.573
 3129SOL    HW210287   0.794   3.770   5.595
 3130SOL     OW10288   2.556   4.693   2.338
 3130SOL    HW110289   2.540   4.630   2.415
 3130SOL    HW210290   2.653   4.713   2.331
 3131SOL     OW10291   1.079   2.857   3.210
 3131SOL    HW110292   1.168   2.812   3.205
 3131SOL    HW210293   1.093   2.956   3.217
 3132SOL     OW10294   5.365   5.960   5.180
 3132SOL    HW110295   5.425   5.902   5.236
 3132SOL    HW210296   5.387   6.056   5.197
 3133SOL     OW10297   2.301   1.900   4.243
 3133SOL    HW110298   2.235   1.964   4.204
 3133SOL    HW210299   2.254   1.836   4.303
 3134SOL     OW10300   5.157   3.326   1.514
 3134SOL    HW110301   5.113   3.237   1.511
 3134SOL    HW210302   5.199   3.346   1.426
 3135SOL     OW10303   4.036   2.077   4.582
 3135SOL    HW110304   4.061   1.981   4.586
 3135SOL    HW210305   4.118   2.134   4.577
 3136SOL     OW10306   5.871   5.840   6.300
 3136SOL    HW110307   5.932   5.890   6.362
 3136SOL    HW210308   5.908   5.845   6.207
 3137SOL     OW10309   5.041   1.677   4.009
 3137SOL    HW110310   5.053   1.583   3.979
 3137SOL    HW210311   5.120   1.732   3.984
 3138SOL     OW10312   6.223   1.781   4.688
 3138SOL    HW110313   6.286   1.857   4.673
 3138SOL    HW210314   6.139   1.814   4.731
 3139SOL     OW10315   4.957   6.196   6.035
 3139SOL    HW110316   4.942   6.163   5.942
 3139SOL    HW210317   4.914   6.134   6.100
 3140SOL     OW10318   6.654   6.677   6.564
 3140SOL    HW110319   6.654   6.736   6.645
 3140SOL    HW210320   6.584   6.708   6.500
 3141SOL     OW10321   0.208   6.407   6.999
 3141SOL    HW110322   0.261   6.482   0.018
 3141SOL    HW210323   0.175   6.348   0.053
 3142SOL     OW10324   5.040   6.067   0.288
 3142SOL    HW110325   5.014   6.078   0.192
 3142SOL    HW210326   5.035   5.970   0.313
 3143SOL     OW10327   6.804   2.084   6.822
 3143SOL    HW110328   6.862   2.017   6.867
 3143SOL    HW210329   6.809   2.171   6.871
 3144SOL     OW10330   1.909   3.523   0.942
 3144SOL    HW110331   1.986   3.473   0.900
 3144SOL    HW210332   1.944   3.604   0.990
 3145SOL     OW10333   3.026   5.945   2.933
 3145SOL    HW110334   2.971   5.963   3.014
 3145SOL    HW210335   3.119   5.977   2.947
 3146SOL     OW10336   1.522   6.898   3.293
 3146SOL    HW110337   1.613   6.882   3.332
 3146SOL    HW210338   1.525   6.885   3.194
 3147SOL     OW10339   4.636   4.986   0.561
 3147SOL    HW110340   4.705   5.055   0.581
 3147SOL    HW210341   4.627   4.976   0.462
 3148SOL     OW10342   4.108   5.067   4.079
 3148SOL    HW110343   4.069   5.157   4.098
 3148SOL    HW210344   4.158   5.069   3.993
 3149SOL     OW10345   3.269   0.711   5.452
 3149SOL    HW110346   3.259   0.805   5.484
 3149SOL    HW210347   3.268   0.648   5.530
 3150SOL     OW10348   5.150   6.541   4.641
 3150SOL    HW110349   5.100   6.536   4.728
 3150SOL    HW210350   5.127   6.461   4.585
 3151SOL     OW10351   4.956   1.130   6.503
 3151SOL    HW110352   4.934   1.093   6.413
 3151SOL    HW210353   5.035   1.081   6.541
 3152SOL     OW10354   0.818   5.295   1.439
 3152SOL    HW110355   0.759   5.354   1.494
 3152SOL    HW210356   0.856   5.222   1.496
 3153SOL     OW10357   6.144   4.275   1.435
 3153SOL    HW110358   6.159   4.205   1.505
 3153SOL    HW210359   6.232   4.311   1.405
 3154SOL     OW10360   6.637   2.268   6.428
 3154SOL    HW110361   6.681   2.345   6.474
 3154SOL    HW210362   6.540   2.267   6.449
 3155SOL     OW10363   6.298   5.086   1.106
 3155SOL    HW110364   6.380   5.136   1.076
 3155SOL    HW210365   6.218   5.145   1.098
 3156SOL     OW10366   3.479   4.158   3.191
 3156SOL    HW110367   3.510   4.252   3.177
 3156SOL    HW210368   3.478   4.109   3.104
 3157SOL     OW10369   2.135   3.618   4.833
 3157SOL    HW110370   2.120   3.520   4.837
 3157SOL    HW210371   2.164   3.651   4.924
 3158SOL     OW10372   5.019   6.693   1.326
 3158SOL    HW110373   4.955   6.744   1.268
 3158SOL    HW210374   5.079   6.757   1.373
 3159SOL     OW10375   5.001   5.638   6.137
 3159SOL    HW110376   4.982   5.675   6.046
 3159SOL    HW210377   5.091   5.594   6.138
 3160SOL     OW10378   5.590   3.478   5.752
 3160SOL    HW110379   5.649   3.501   5.830
 3160SOL    HW210380   5.502   3.445   5.785
 3161SOL     OW10381   1.629   0.984   2.647
 3161SOL    HW110382   1.588   1.063   2.602
 3161SOL    HW210383   1.661   1.009   2.738
 3162SOL     OW10384   0.670   5.532   6.950
 3162SOL    HW110385   0.745   5.593   6.976
 3162SOL    HW210386   0.595   5.586   6.912
 3163SOL     OW10387   3.965   2.979   6.696
 3163SOL    HW110388   4.031   3.047   6.664
 3163SOL    HW210389   3.910   3.018   6.771
 3164SOL     OW10390   5.377   4.113   1.077
 3164SOL    HW110391   5.391   4.063   1.162
 3164SOL    HW210392   5.455   4.098   1.016
 3165SOL     OW10393   0.556   0.152   2.111
 3165SOL    HW110394   0.490   0.087   2.072
 3165SOL    HW210395   0.632   0.164   2.046
 3166SOL     OW10396   4.834   2.905   6.019
 3166SOL    HW110397   4.828   2.988   5.964
 3166SOL    HW210398   4.896   2.840   5.974
 3167SOL     OW10399   0.058   4.259   1.916
 3167SOL    HW110400   0.118   4.180   1.929
 3167SOL    HW210401   0.047   4.276   1.818
 3168SOL     OW10402   5.610   2.832   0.586
 3168SOL    HW110403   5.606   2.782   0.672
 3168SOL    HW210404   5.531   2.894   0.579
 3169SOL     OW10405   0.954   2.907   5.832
 3169SOL    HW110406   0.949   3.007   5.827
 3169SOL    HW210407   0.950   2.878   5.928
 3170SOL     OW10408   4.225   0.629   6.600
 3170SOL    HW110409   4.223   0.531   6.582
 3170SOL    HW210410   4.310   0.668   6.564
 3171SOL     OW10411   6.572   0.292   1.983
 3171SOL    HW110412   6.571   0.388   2.008
 3171SOL    HW210413   6.632   0.278   1.904
 3172SOL     OW10414   6.587   6.757   4.747
 3172SOL    HW110415   6.604   6.697   4.825
 3172SOL    HW210416   6.489   6.764   4.730
 3173SOL     OW10417   2.551   0.305   2.064
 3173SOL    HW110418   2.530   0.320   2.161
 3173SOL    HW210419   2.479   0.345   2.008
 3174SOL     OW10420   2.978   2.791   5.740
 3174SOL    HW110421   3.061   2.735   5.747
 3174SOL    HW210422   2.960   2.811   5.644
 3175SOL     OW10423   0.919   6.210   6.864
 3175SOL    HW110424   0.962   6.297   6.888
 3175SOL    HW210425   0.965   6.171   6.785
 3176SOL     OW10426   1.485   4.468   6.615
 3176SOL    HW110427   1.481   4.459   6.714
 3176SOL    HW210428   1.514   4.381   6.574
 3177SOL     OW10429   5.251   4.990   5.481
 3177SOL    HW110430   5.283   4.909   5.530
 3177SOL    HW210431   5.154   5.004   5.499
 3178SOL     OW10432   0.313   4.385   2.458
 3178SOL    HW110433   0.412   4.374   2.457
 3178SOL    HW210434   0.280   4.396   2.552
 3179SOL     OW10435   2.067   2.273   2.168
 3179SOL    HW110436   2.030   2.333   2.097
 3179SOL    HW210437   2.006   2.194   2.179
 3180SOL     OW10438   5.494   7.008   5.518
 3180SOL    HW110439   5.420   7.012   5.584
 3180SOL    HW210440   5.576   6.969   5.561
 3181SOL     OW10441   0.595   1.101   3.221
 3181SOL    HW110442   0.562   1.184   3.266
 3181SOL    HW210443   0.694   1.093   3.235
 3182SOL     OW10444   0.370   6.205   5.782
 3182SOL    HW110445   0.281   6.250   5.773
 3182SOL    HW210446   0.389   6.187   5.878
 3183SOL     OW10447   4.458   5.290   1.907
 3183SOL    HW110448   4.422   5.219   1.966
 3183SOL    HW210449   4.436   5.269   1.812
 3184SOL     OW10450   2.802   1.984   3.134
 3184SOL    HW110451   2.830   2.079   3.145
 3184SOL    HW210452   2.778   1.946   3.223
 3185SOL     OW10453   0.710   6.660   4.960
 3185SOL    HW110454   0.671   6.744   4.996
 3185SOL    HW210455   0.666   6.581   5.004
 3186SOL     OW10456   3.587   1.264   2.850
 3186SOL    HW110457   3.680   1.233   2.870
 3186SOL    HW210458   3.587   1.364   2.837
 3187SOL     OW10459   3.366   4.481   6.960
 3187SOL    HW110460   3.351   4.558   6.899
 3187SOL    HW210461   3.386   4.514   0.032
 3188SOL     OW10462   3.647   5.659   3.053
 3188SOL    HW110463   3.732   5.713   3.051
 3188SOL    HW210464   3.599   5.675   3.139
 3189SOL     OW10465   0.825   0.581   3.298
 3189SOL    HW110466   0.741   0.527   3.295
 3189SOL    HW210467   0.890   0.539   3.361
 3190SOL     OW10468   1.494   5.826   1.932
 3190SOL    HW110469   1.432   5.752   1.906
 3190SOL    HW210470   1.588   5.793   1.931
 3191SOL     OW10471   3.849   0.834   0.841
 3191SOL    HW110472   3.777   0.796   0.900
 3191SOL    HW210473   3.927   0.861   0.897
 3192SOL     OW10474   0.810   2.552   1.831
 3192SOL    HW110475   0.820   2.635   1.775
 3192SOL    HW210476   0.810   2.577   1.928
 3193SOL     OW10477   4.537   1.804   6.447
 3193SOL    HW110478   4.615   1.792   6.385
 3193SOL    HW210479   4.571   1.825   6.539
 3194SOL     OW10480   1.400   3.769   6.044
 3194SOL    HW110481   1.474   3.776   5.977
 3194SOL    HW210482   1.360   3.678   6.040
 3195SOL     OW10483   1.414   3.018   3.638
 3195SOL    HW110484   1.318   3.005   3.614
 3195SOL    HW210485   1.450   3.097   3.588
 3196SOL     OW10486   0.347   0.372   4.797
 3196SOL    HW110487   0.410   0.405   4.867
 3196SOL    HW210488   0.281   0.444   4.775
 3197SOL     OW10489   1.130   4.973   3.553
 3197SOL    HW110490   1.227   4.996   3.558
 3197SOL    HW210491   1.089   4.979   3.644
 3198SOL     OW10492   0.382   1.554   6.262
 3198SOL    HW110493   0.425   1.635   6.300
 3198SOL    HW210494   0.345   1.575   6.171
 3199SOL     OW10495   4.382   1.743   2.268
 3199SOL    HW110496   4.446   1.813   2.240
 3199SOL    HW210497   4.395   1.723   2.366
 3200SOL     OW10498   6.593   2.551   0.338
 3200SOL    HW110499   6.643   2.502   0.409
 3200SOL    HW210500   6.547   2.486   0.278
 3201SOL     OW10501   5.310   3.886   3.952
 3201SOL    HW110502   5.316   3.926   3.860
 3201SOL    HW210503   5.253   3.805   3.949
 3202SOL     OW10504   1.820   4.999   2.063
 3202SOL    HW110505   1.817   5.091   2.100
 3202SOL    HW210506   1.910   4.980   2.025
 3203SOL     OW10507   6.817   0.990   1.104
 3203SOL    HW110508   6.816   0.938   1.189
 3203SOL    HW210509   6.784   0.931   1.029
 3204SOL     OW10510   7.014   5.836   2.011
 3204SOL    HW110511   0.016   5.774   2.087
 3204SOL    HW210512   0.031   5.799   1.926
 3205SOL     OW10513   6.886   3.624   5.197
 3205SOL    HW110514   6.847   3.547   5.147
 3205SOL    HW210515   6.979   3.642   5.165
 3206SOL     OW10516   1.496   6.667   5.725
 3206SOL    HW110517   1.525   6.575   5.752
 3206SOL    HW210518   1.560   6.703   5.657
 3207SOL     OW10519   0.784   1.048   4.869
 3207SOL    HW110520   0.868   1.079   4.913
 3207SOL    HW210521   0.758   0.959   4.906
 3208SOL     OW10522   4.567   5.386   5.134
 3208SOL    HW110523   4.657   5.342   5.126
 3208SOL    HW210524   4.557   5.424   5.226
 3209SOL     OW10525   2.531   0.396   3.960
 3209SOL    HW110526   2.457   0.349   3.911
 3209SOL    HW210527   2.570   0.334   4.028
 3210SOL     OW10528   6.655   4.425   2.590
 3210SOL    HW110529   6.711   4.372   2.527
 3210SOL    HW210530   6.683   4.406   2.684
 3211SOL     OW10531   2.098   4.552   1.211
 3211SOL    HW110532   2.009   4.580   1.248
 3211SOL    HW210533   2.104   4.453   1.210
 3212SOL     OW10534   4.614   2.538   6.776
 3212SOL    HW110535   4.536   2.564   6.832
 3212SOL    HW210536   4.607   2.441   6.752
 3213SOL     OW10537   5.744   5.446   2.693
 3213SOL    HW110538   5.816   5.476   2.755
 3213SOL    HW210539   5.710   5.357   2.723
 3214SOL     OW10540   4.369   5.674   6.840
 3214SOL    HW110541   4.429   5.655   6.761
 3214SOL    HW210542   4.274   5.681   6.809
 3215SOL     OW10543   6.127   2.713   6.558
 3215SOL    HW110544   6.096   2.672   6.645
 3215SOL    HW210545   6.069   2.792   6.536
 3216SOL     OW10546   5.821   6.845   3.245
 3216SOL    HW110547   5.788   6.935   3.274
 3216SOL    HW210548   5.744   6.782   3.239
 3217SOL     OW10549   0.039   4.557   2.211
 3217SOL    HW110550   0.048   4.503   2.295
 3217SOL    HW210551   7.020   4.646   2.232
 3218SOL     OW10552   4.242   0.432   3.561
 3218SOL    HW110553   4.167   0.367   3.554
 3218SOL    HW210554   4.247   0.486   3.478
 3219SOL     OW10555   0.604   0.482   3.048
 3219SOL    HW110556   0.657   0.417   3.101
 3219SOL    HW210557   0.606   0.571   3.093
 3220SOL     OW10558   0.286   4.656   5.091
 3220SOL    HW110559   0.276   4.628   4.996
 3220SOL    HW210560   0.242   4.745   5.104
 3221SOL     OW10561   2.810   0.107   3.474
 3221SOL    HW110562   2.764   0.019   3.476
 3221SOL    HW210563   2.856   0.118   3.386
 3222SOL     OW10564   5.643   2.245   3.158
 3222SOL    HW110565   5.680   2.275   3.246
 3222SOL    HW210566   5.549   2.277   3.149
 3223SOL     OW10567   2.350   4.797   6.031
 3223SOL    HW110568   2.358   4.822   6.128
 3223SOL    HW210569   2.344   4.697   6.023
 3224SOL     OW10570   4.299   5.218   0.556
 3224SOL    HW110571   4.251   5.281   0.495
 3224SOL    HW210572   4.388   5.195   0.517
 3225SOL     OW10573   2.907   3.529   0.247
 3225SOL    HW110574   2.807   3.532   0.248
 3225SOL    HW210575   2.939   3.450   0.195
 3226SOL     OW10576   1.543   0.862   4.074
 3226SOL    HW110577   1.444   0.867   4.089
 3226SOL    HW210578   1.572   0.942   4.022
 3227SOL     OW10579   3.712   1.084   5.585
 3227SOL    HW110580   3.703   1.021   5.508
 3227SOL    HW210581   3.763   1.165   5.556
 3228SOL     OW10582   5.170   3.753   4.677
 3228SOL    HW110583   5.171   3.821   4.604
 3228SOL    HW210584   5.100   3.684   4.658
 3229SOL     OW10585   4.489   1.581   5.429
 3229SOL    HW110586   4.504   1.677   5.451
 3229SOL    HW210587   4.396   1.569   5.395
 3230SOL     OW10588   0.604   0.559   3.733
 3230SOL    HW110589   0.618   0.470   3.776
 3230SOL    HW210590   0.519   0.600   3.768
 3231SOL     OW10591   6.012   6.208   0.956
 3231SOL    HW110592   6.106   6.239   0.971
 3231SOL    HW210593   5.948   6.281   0.982
 3232SOL     OW10594   2.697   4.776   4.403
 3232SOL    HW110595   2.703   4.874   4.385
 3232SOL    HW210596   2.640   4.761   4.484
 3233SOL     OW10597   0.427   4.099   1.373
 3233SOL    HW110598   0.396   4.121   1.280
 3233SOL    HW210599   0.481   4.175   1.408
 3234SOL     OW10600   0.438   1.498   6.677
 3234SOL    HW110601   0.462   1.572   6.615
 3234SOL    HW210602   0.502   1.421   6.663
 3235SOL     OW10603   5.613   6.770   2.396
 3235SOL    HW110604   5.646   6.763   2.302
 3235SOL    HW210605   5.689   6.758   2.460
 3236SOL     OW10606   1.063   3.386   2.822
 3236SOL    HW110607   1.133   3.361   2.755
 3236SOL    HW210608   0.988   3.320   2.818
 3237SOL     OW10609   3.302   6.934   5.176
 3237SOL    HW110610   3.305   6.857   5.239
 3237SOL    HW210611   3.364   7.006   5.208
 3238SOL     OW10612   0.167   6.472   6.312
 3238SOL    HW110613   0.189   6.415   6.233
 3238SOL    HW210614   0.243   6.471   6.377
 3239SOL     OW10615   6.726   0.369   5.358
 3239SOL    HW110616   6.749   0.392   5.264
 3239SOL    HW210617   6.635   0.327   5.361
 3240SOL     OW10618   1.409   0.231   4.817
 3240SOL    HW110619   1.325   0.285   4.807
 3240SOL    HW210620   1.488   0.290   4.802
 3241SOL     OW10621   4.878   1.058   4.092
 3241SOL    HW110622   4.789   1.103   4.083
 3241SOL    HW210623   4.947   1.109   4.041
 3242SOL     OW10624   3.981   6.360   6.909
 3242SOL    HW110625   4.012   6.350   7.003
 3242SOL    HW210626   3.887   6.326   6.901
 3243SOL     OW10627   4.579   5.253   1.096
 3243SOL    HW110628   4.483   5.268   1.070
 3243SOL    HW210629   4.583   5.215   1.189
 3244SOL     OW10630   3.162   6.164   6.999
 3244SOL    HW110631   3.204   6.216   6.925
 3244SOL    HW210632   3.143   6.071   6.967
 3245SOL     OW10633   3.552   2.442   6.902
 3245SOL    HW110634   3.611   2.441   6.982
 3245SOL    HW210635   3.607   2.460   6.820
 3246SOL     OW10636   5.127   5.977   3.013
 3246SOL    HW110637   5.066   6.043   3.059
 3246SOL    HW210638   5.208   5.962   3.069
 3247SOL     OW10639   0.580   2.724   3.854
 3247SOL    HW110640   0.623   2.636   3.873
 3247SOL    HW210641   0.650   2.790   3.828
 3248SOL     OW10642   6.080   3.216   1.325
 3248SOL    HW110643   6.159   3.238   1.268
 3248SOL    HW210644   6.014   3.164   1.271
 3249SOL     OW10645   2.619   4.729   4.863
 3249SOL    HW110646   2.550   4.719   4.934
 3249SOL    HW210647   2.707   4.694   4.896
 3250SOL     OW10648   4.820   6.369   2.461
 3250SOL    HW110649   4.791   6.351   2.555
 3250SOL    HW210650   4.742   6.400   2.407
 3251SOL     OW10651   3.638   2.123   2.999
 3251SOL    HW110652   3.718   2.124   2.940
 3251SOL    HW210653   3.568   2.064   2.959
 3252SOL     OW10654   3.015   1.025   2.913
 3252SOL    HW110655   3.042   1.121   2.926
 3252SOL    HW210656   3.098   0.969   2.905
 3253SOL     OW10657   5.144   3.085   1.238
 3253SOL    HW110658   5.090   3.168   1.248
 3253SOL    HW210659   5.148   3.058   1.142
 3254SOL     OW10660   4.527   4.487   3.140
 3254SOL    HW110661   4.470   4.542   3.079
 3254SOL    HW210662   4.521   4.525   3.233
 3255SOL     OW10663   4.732   5.389   0.340
 3255SOL    HW110664   4.658   5.324   0.357
 3255SOL    HW210665   4.791   5.354   0.267
 3256SOL     OW10666   5.133   6.571   5.749
 3256SOL    HW110667   5.069   6.535   5.817
 3256SOL    HW210668   5.156   6.665   5.772
 3257SOL     OW10669   1.612   2.531   1.249
 3257SOL    HW110670   1.517   2.524   1.279
 3257SOL    HW210671   1.615   2.537   1.149
 3258SOL     OW10672   5.366   6.700   1.931
 3258SOL    HW110673   5.310   6.688   2.013
 3258SOL    HW210674   5.319   6.661   1.852
 3259SOL     OW10675   4.400   6.235   3.968
 3259SOL    HW110676   4.335   6.211   3.896
 3259SOL    HW210677   4.354   6.234   4.057
 3260SOL     OW10678   2.191   2.027   0.308
 3260SOL    HW110679   2.266   2.079   0.348
 3260SOL    HW210680   2.157   2.074   0.227
 3261SOL     OW10681   4.315   0.108   1.123
 3261SOL    HW110682   4.384   0.172   1.155
 3261SOL    HW210683   4.256   0.153   1.056
 3262SOL     OW10684   4.129   1.861   3.131
 3262SOL    HW110685   4.073   1.789   3.171
 3262SOL    HW210686   4.078   1.947   3.132
 3263SOL     OW10687   4.298   6.657   1.669
 3263SOL    HW110688   4.300   6.662   1.569
 3263SOL    HW210689   4.275   6.563   1.697
 3264SOL     OW10690   6.697   4.677   6.892
 3264SOL    HW110691   6.628   4.624   6.941
 3264SOL    HW210692   6.706   4.768   6.933
 3265SOL     OW10693   5.163   0.163   6.029
 3265SOL    HW110694   5.084   0.218   5.999
 3265SOL    HW210695   5.244   0.191   5.978
 3266SOL     OW10696   1.006   1.427   5.986
 3266SOL    HW110697   1.091   1.380   5.961
 3266SOL    HW210698   1.002   1.439   6.085
 3267SOL     OW10699   3.639   2.116   1.127
 3267SOL    HW110700   3.576   2.043   1.099
 3267SOL    HW210701   3.626   2.136   1.224
 3268SOL     OW10702   1.196   4.346   6.023
 3268SOL    HW110703   1.164   4.440   6.024
 3268SOL    HW210704   1.272   4.337   5.959
 3269SOL     OW10705   4.257   4.720   1.220
 3269SOL    HW110706   4.339   4.775   1.209
 3269SOL    HW210707   4.282   4.626   1.243
 3270SOL     OW10708   0.877   6.148   4.313
 3270SOL    HW110709   0.907   6.164   4.408
 3270SOL    HW210710   0.778   6.159   4.308
 3271SOL     OW10711   6.113   1.633   1.177
 3271SOL    HW110712   6.042   1.636   1.107
 3271SOL    HW210713   6.148   1.725   1.193
 3272SOL     OW10714   4.235   0.156   0.400
 3272SOL    HW110715   4.153   0.124   0.353
 3272SOL    HW210716   4.240   0.116   0.491
 3273SOL     OW10717   0.338   6.900   2.500
 3273SOL    HW110718   0.363   6.844   2.421
 3273SOL    HW210719   0.251   6.946   2.481
 3274SOL     OW10720   3.015   2.071   5.883
 3274SOL    HW110721   3.051   2.102   5.971
 3274SOL    HW210722   3.078   2.100   5.810
 3275SOL     OW10723   2.417   0.297   6.742
 3275SOL    HW110724   2.516   0.296   6.756
 3275SOL    HW210725   2.395   0.362   6.669
 3276SOL     OW10726   3.221   6.530   0.160
 3276SOL    HW110727   3.284   6.589   0.110
 3276SOL    HW210728   3.240   6.537   0.258
 3277SOL     OW10729   0.108   5.935   5.127
 3277SOL    HW110730   0.069   5.912   5.038
 3277SOL    HW210731   0.208   5.925   5.124
 3278SOL     OW10732   1.224   0.630   6.072
 3278SOL    HW110733   1.261   0.600   5.984
 3278SOL    HW210734   1.136   0.585   6.088
 3279SOL     OW10735   1.147   0.111   1.067
 3279SOL    HW110736   1.161   0.181   1.137
 3279SOL    HW210737   1.059   0.065   1.083
 3280SOL     OW10738   1.599   4.780   5.953
 3280SOL    HW110739   1.580   4.878   5.945
 3280SOL    HW210740   1.528   4.737   6.008
 3281SOL     OW10741   2.506   5.569   0.803
 3281SOL    HW110742   2.503   5.607   0.896
 3281SOL    HW210743   2.601   5.567   0.771
 3282SOL     OW10744   2.457   5.411   3.213
 3282SOL    HW110745   2.510   5.347   3.157
 3282SOL    HW210746   2.360   5.401   3.193
 3283SOL     OW10747   2.525   1.173   3.627
 3283SOL    HW110748   2.499   1.269   3.636
 3283SOL    HW210749   2.601   1.164   3.563
 3284SOL     OW10750   0.064   4.932   6.918
 3284SOL    HW110751   0.037   4.891   7.005
 3284SOL    HW210752   0.055   5.032   6.925
 3285SOL     OW10753   0.772   1.661   3.652
 3285SOL    HW110754   0.713   1.662   3.733
 3285SOL    HW210755   0.859   1.617   3.675
 3286SOL     OW10756   3.590   3.415   4.457
 3286SOL    HW110757   3.576   3.514   4.451
 3286SOL    HW210758   3.686   3.394   4.442
 3287SOL     OW10759   1.353   5.494   0.612
 3287SOL    HW110760   1.435   5.526   0.564
 3287SOL    HW210761   1.342   5.546   0.696
 3288SOL     OW10762   0.699   6.300   6.342
 3288SOL    HW110763   0.764   6.362   6.299
 3288SOL    HW210764   0.606   6.331   6.323
 3289SOL     OW10765   1.508   6.331   4.696
 3289SOL    HW110766   1.415   6.315   4.661
 3289SOL    HW210767   1.511   6.421   4.740
 3290SOL     OW10768   6.600   4.988   1.411
 3290SOL    HW110769   6.509   4.961   1.379
 3290SOL    HW210770   6.627   4.931   1.488
 3291SOL     OW10771   1.308   6.551   0.320
 3291SOL    HW110772   1.392   6.594   0.356
 3291SOL    HW210773   1.256   6.512   0.395
 3292SOL     OW10774   7.002   6.798   5.657
 3292SOL    HW110775   6.940   6.829   5.729
 3292SOL    HW210776   0.076   6.821   5.682
 3293SOL     OW10777   0.008   1.300   2.556
 3293SOL    HW110778   6.979   1.360   2.619
 3293SOL    HW210779   0.007   1.340   2.464
 3294SOL     OW10780   7.001   0.513   0.078
 3294SOL    HW110781   0.050   0.585   0.086
 3294SOL    HW210782   7.002   0.456   0.161
 3295SOL     OW10783   1.927   3.078   0.541
 3295SOL    HW110784   1.895   3.170   0.562
 3295SOL    HW210785   1.925   3.064   0.442
 3296SOL     OW10786   2.141   6.673   2.375
 3296SOL    HW110787   2.073   6.631   2.435
 3296SOL    HW210788   2.232   6.664   2.416
 3297SOL     OW10789   2.882   2.487   6.545
 3297SOL    HW110790   2.926   2.404   6.510
 3297SOL    HW210791   2.815   2.520   6.479
 3298SOL     OW10792   6.460   2.998   2.943
 3298SOL    HW110793   6.409   3.003   3.029
 3298SOL    HW210794   6.454   2.905   2.906
 3299SOL     OW10795   1.965   6.913   5.073
 3299SOL    HW110796   1.927   6.892   4.984
 3299SOL    HW210797   2.013   7.001   5.069
 3300SOL     OW10798   6.263   6.184   4.430
 3300SOL    HW110799   6.355   6.149   4.447
 3300SOL    HW210800   6.263   6.284   4.437
 3301SOL     OW10801   0.601   3.814   3.144
 3301SOL    HW110802   0.640   3.747   3.208
 3301SOL    HW210803   0.673   3.877   3.114
 3302SOL     OW10804   1.163   4.846   4.052
 3302SOL    HW110805   1.123   4.776   3.993
 3302SOL    HW210806   1.153   4.819   4.148
 3303SOL     OW10807   3.737   3.615   3.421
 3303SOL    HW110808   3.808   3.670   3.467
 3303SOL    HW210809   3.661   3.674   3.396
 3304SOL     OW10810   0.458   6.375   4.325
 3304SOL    HW110811   0.400   6.322   4.262
 3304SOL    HW210812   0.417   6.464   4.341
 3305SOL     OW10813   2.368   1.177   2.096
 3305SOL    HW110814   2.300   1.189   2.168
 3305SOL    HW210815   2.450   1.231   2.117
 3306SOL     OW10816   1.481   3.923   3.611
 3306SOL    HW110817   1.543   3.987   3.564
 3306SOL    HW210818   1.390   3.964   3.617
 3307SOL     OW10819   6.939   5.795   6.922
 3307SOL    HW110820   7.017   5.824   6.977
 3307SOL    HW210821   6.888   5.724   6.971
 3308SOL     OW10822   5.038   5.881   0.598
 3308SOL    HW110823   4.944   5.849   0.591
 3308SOL    HW210824   5.041   5.965   0.652
 3309SOL     OW10825   0.200   4.636   2.861
 3309SOL    HW110826   0.222   4.730   2.888
 3309SOL    HW210827   0.214   4.575   2.939
 3310SOL     OW10828   0.845   5.180   2.250
 3310SOL    HW110829   0.919   5.117   2.273
 3310SOL    HW210830   0.867   5.272   2.283
 3311SOL     OW10831   4.192   6.560   1.071
 3311SOL    HW110832   4.200   6.557   0.972
 3311SOL    HW210833   4.100   6.590   1.097
 3312SOL     OW10834   3.409   3.622   7.017
 3312SOL    HW110835   3.369   3.572   6.940
 3312SOL    HW210836   3.489   3.672   6.985
 3313SOL     OW10837   6.880   5.494   3.593
 3313SOL    HW110838   6.819   5.478   3.670
 3313SOL    HW210839   6.899   5.407   3.547
 3314SOL     OW10840   1.399   3.512   5.525
 3314SOL    HW110841   1.371   3.569   5.602
 3314SOL    HW210842   1.446   3.568   5.457
 3315SOL     OW10843   0.192   2.063   3.942
 3315SOL    HW110844   0.274   2.051   3.999
 3315SOL    HW210845   0.214   2.125   3.866
 3316SOL     OW10846   4.616   1.851   6.707
 3316SOL    HW110847   4.579   1.772   6.757
 3316SOL    HW210848   4.695   1.887   6.757
 3317SOL     OW10849   4.418   2.673   0.902
 3317SOL    HW110850   4.351   2.746   0.885
 3317SOL    HW210851   4.376   2.585   0.881
 3318SOL     OW10852   2.749   5.750   5.728
 3318SOL    HW110853   2.770   5.652   5.735
 3318SOL    HW210854   2.796   5.788   5.648
 3319SOL     OW10855   0.378   5.884   5.061
 3319SOL    HW110856   0.405   5.853   4.970
 3319SOL    HW210857   0.453   5.936   5.102
 3320SOL     OW10858   6.279   1.188   5.916
 3320SOL    HW110859   6.200   1.130   5.900
 3320SOL    HW210860   6.358   1.153   5.865
 3321SOL     OW10861   3.479   3.429   2.995
 3321SOL    HW110862   3.451   3.429   3.091
 3321SOL    HW210863   3.402   3.400   2.938
 3322SOL     OW10864   3.726   1.602   0.429
 3322SOL    HW110865   3.788   1.680   0.437
 3322SOL    HW210866   3.751   1.547   0.349
 3323SOL     OW10867   2.323   4.908   0.697
 3323SOL    HW110868   2.338   5.007   0.698
 3323SOL    HW210869   2.253   4.886   0.630
 3324SOL     OW10870   1.008   2.788   0.950
 3324SOL    HW110871   1.091   2.763   0.901
 3324SOL    HW210872   1.018   2.765   1.047
 3325SOL     OW10873   1.307   2.675   1.118
 3325SOL    HW110874   1.363   2.733   1.059
 3325SOL    HW210875   1.219   2.720   1.133
 3326SOL     OW10876   6.297   1.450   1.135
 3326SOL    HW110877   6.292   1.423   1.039
 3326SOL    HW210878   6.256   1.540   1.147
 3327SOL     OW10879   2.915   6.674   2.169
 3327SOL    HW110880   2.877   6.712   2.085
 3327SOL    HW210881   2.938   6.748   2.232
 3328SOL     OW10882   4.785   1.069   2.004
 3328SOL    HW110883   4.716   1.060   2.075
 3328SOL    HW210884   4.831   0.981   1.992
 3329SOL     OW10885   4.757   7.011   5.330
 3329SOL    HW110886   4.725   6.998   5.236
 3329SOL    HW210887   4.689   6.974   5.393
 3330SOL     OW10888   6.224   6.102   2.815
 3330SOL    HW110889   6.310   6.100   2.764
 3330SOL    HW210890   6.175   6.016   2.801
 3331SOL     OW10891   2.167   3.358   2.682
 3331SOL    HW110892   2.070   3.372   2.704
 3331SOL    HW210893   2.219   3.349   2.766
 3332SOL     OW10894   4.259   5.644   1.204
 3332SOL    HW110895   4.357   5.663   1.201
 3332SOL    HW210896   4.223   5.633   1.111
 3333SOL     OW10897   4.086   3.708   1.548
 3333SOL    HW110898   4.147   3.630   1.530
 3333SOL    HW210899   3.995   3.675   1.571
 3334SOL     OW10900   1.694   2.146   2.888
 3334SOL    HW110901   1.792   2.166   2.883
 3334SOL    HW210902   1.643   2.232   2.886
 3335SOL     OW10903   4.060   4.444   5.336
 3335SOL    HW110904   4.056   4.534   5.380
 3335SOL    HW210905   4.135   4.443   5.270
 3336SOL     OW10906   4.683   6.075   4.078
 3336SOL    HW110907   4.680   6.065   3.979
 3336SOL    HW210908   4.594   6.049   4.117
 3337SOL     OW10909   3.434   3.734   3.166
 3337SOL    HW110910   3.369   3.657   3.171
 3337SOL    HW210911   3.481   3.744   3.254
 3338SOL     OW10912   2.145   1.565   1.282
 3338SOL    HW110913   2.091   1.486   1.256
 3338SOL    HW210914   2.121   1.643   1.224
 3339SOL     OW10915   2.210   0.089   5.421
 3339SOL    HW110916   2.183   0.025   5.349
 3339SOL    HW210917   2.301   0.064   5.454
 3340SOL     OW10918   4.240   0.995   4.465
 3340SOL    HW110919   4.315   1.055   4.437
 3340SOL    HW210920   4.165   1.050   4.501
 3341SOL     OW10921   2.368   4.341   2.800
 3341SOL    HW110922   2.317   4.296   2.726
 3341SOL    HW210923   2.362   4.284   2.882
 3342SOL     OW10924   6.982   0.578   3.116
 3342SOL    HW110925   0.005   0.533   3.194
 3342SOL    HW210926   7.017   0.672   3.107
 3343SOL     OW10927   4.878   5.112   6.938
 3343SOL    HW110928   4.908   5.034   6.882
 3343SOL    HW210929   4.897   5.197   6.890
 3344SOL     OW10930   0.312   2.802   3.131
 3344SOL    HW110931   0.306   2.743   3.051
 3344SOL    HW210932   0.408   2.820   3.152
 3345SOL     OW10933   6.931   4.608   0.503
 3345SOL    HW110934   0.007   4.599   0.477
 3345SOL    HW210935   6.918   4.696   0.550
 3346SOL     OW10936   2.130   0.978   0.004
 3346SOL    HW110937   2.167   1.033   0.078
 3346SOL    HW210938   2.201   0.963   6.955
 3347SOL     OW10939   0.086   3.509   6.401
 3347SOL    HW110940   0.028   3.538   6.325
 3347SOL    HW210941   0.167   3.464   6.365
 3348SOL     OW10942   3.982   3.822   5.870
 3348SOL    HW110943   3.908   3.860   5.924
 3348SOL    HW210944   4.019   3.741   5.915
 3349SOL     OW10945   2.138   5.291   3.701
 3349SOL    HW110946   2.198   5.370   3.689
 3349SOL    HW210947   2.177   5.229   3.769
 3350SOL     OW10948   0.282   3.860   5.305
 3350SOL    HW110949   0.301   3.763   5.290
 3350SOL    HW210950   0.349   3.897   5.370
 3351SOL     OW10951   5.637   0.930   1.275
 3351SOL    HW110952   5.666   0.869   1.348
 3351SOL    HW210953   5.677   1.021   1.289
 3352SOL     OW10954   5.088   2.338   6.851
 3352SOL    HW110955   5.162   2.285   6.810
 3352SOL    HW210956   5.119   2.431   6.867
 3353SOL     OW10957   2.745   0.541   1.747
 3353SOL    HW110958   2.717   0.551   1.651
 3353SOL    HW210959   2.844   0.558   1.754
 3354SOL     OW10960   3.583   3.442   6.350
 3354SOL    HW110961   3.596   3.422   6.447
 3354SOL    HW210962   3.639   3.521   6.325
 3355SOL     OW10963   2.374   0.511   5.212
 3355SOL    HW110964   2.349   0.606   5.229
 3355SOL    HW210965   2.465   0.493   5.250
 3356SOL     OW10966   1.766   6.795   5.257
 3356SOL    HW110967   1.837   6.832   5.198
 3356SOL    HW210968   1.801   6.715   5.306
 3357SOL     OW10969   3.554   3.458   1.687
 3357SOL    HW110970   3.649   3.471   1.660
 3357SOL    HW210971   3.498   3.439   1.607
 3358SOL     OW10972   0.283   1.202   2.453
 3358SOL    HW110973   0.205   1.239   2.504
 3358SOL    HW210974   0.266   1.208   2.355
 3359SOL     OW10975   6.539   6.171   4.179
 3359SOL    HW110976   6.516   6.257   4.133
 3359SOL    HW210977   6.526   6.095   4.116
 3360SOL     OW10978   0.026   3.042   5.445
 3360SOL    HW110979   0.093   3.051   5.519
 3360SOL    HW210980   6.985   3.121   5.445
 3361SOL     OW10981   0.257   0.721   4.431
 3361SOL    HW110982   0.353   0.736   4.409
 3361SOL    HW210983   0.217   0.805   4.466
 3362SOL     OW10984   3.724   1.601   3.878
 3362SOL    HW110985   3.778   1.685   3.871
 3362SOL    HW210986   3.780   1.528   3.915
 3363SOL     OW10987   5.812   3.863   0.864
 3363SOL    HW110988   5.912   3.865   0.865
 3363SOL    HW210989   5.780   3.796   0.931
 3364SOL     OW10990   1.907   4.212   4.031
 3364SOL    HW110991   1.955   4.285   3.983
 3364SOL    HW210992   1.926   4.219   4.129
 3365SOL     OW10993   2.104   3.817   3.971
 3365SOL    HW110994   2.030   3.882   3.987
 3365SOL    HW210995   2.124   3.768   4.056
 3366SOL     OW10996   5.505   3.903   4.612
 3366SOL    HW110997   5.414   3.943   4.599
 3366SOL    HW210998   5.498   3.823   4.672
 3367SOL     OW10999   4.129   3.471   3.854
 3367SOL    HW111000   4.081   3.410   3.791
 3367SOL    HW211001   4.217   3.497   3.813
 3368SOL     OW11002   1.246   6.048   0.753
 3368SOL    HW111003   1.268   6.126   0.811
 3368SOL    HW211004   1.215   6.080   0.664
 3369SOL     OW11005   4.404   2.729   1.175
 3369SOL    HW111006   4.307   2.751   1.182
 3369SOL    HW211007   4.434   2.740   1.080
 3370SOL     OW11008   0.312   5.629   2.781
 3370SOL    HW111009   0.269   5.657   2.867
 3370SOL    HW211010   0.410   5.622   2.795
 3371SOL     OW11011   1.675   2.741   3.193
 3371SOL    HW111012   1.676   2.833   3.153
 3371SOL    HW211013   1.620   2.742   3.276
 3372SOL     OW11014   6.762   3.793   1.605
 3372SOL    HW111015   6.675   3.804   1.652
 3372SOL    HW211016   6.808   3.711   1.638
 3373SOL     OW11017   0.060   2.844   1.204
 3373SOL    HW111018   7.011   2.773   1.216
 3373SOL    HW211019   0.116   2.850   1.287
 3374SOL     OW11020   0.297   0.488   4.242
 3374SOL    HW111021   0.286   0.392   4.264
 3374SOL    HW211022   0.291   0.543   4.326
 3375SOL     OW11023   6.545   5.131   6.016
 3375SOL    HW111024   6.533   5.134   6.115
 3375SOL    HW211025   6.456   5.131   5.971
 3376SOL     OW11026   2.651   3.832   5.297
 3376SOL    HW111027   2.733   3.874   5.256
 3376SOL    HW211028   2.570   3.880   5.265
 3377SOL     OW11029   5.911   4.390   3.215
 3377SOL    HW111030   5.992   4.401   3.274
 3377SOL    HW211031   5.831   4.374   3.273
 3378SOL     OW11032   1.031   6.286   0.304
 3378SOL    HW111033   0.998   6.376   0.333
 3378SOL    HW211034   1.092   6.297   0.225
 3379SOL     OW11035   6.612   4.401   3.769
 3379SOL    HW111036   6.694   4.410   3.826
 3379SOL    HW211037   6.556   4.325   3.802
 3380SOL     OW11038   3.319   4.208   6.428
 3380SOL    HW111039   3.395   4.265   6.459
 3380SOL    HW211040   3.240   4.266   6.409
 3381SOL     OW11041   1.245   3.910   0.937
 3381SOL    HW111042   1.145   3.902   0.939
 3381SOL    HW211043   1.285   3.844   1.000
 3382SOL     OW11044   0.206   2.787   1.427
 3382SOL    HW111045   0.191   2.691   1.450
 3382SOL    HW211046   0.204   2.842   1.511
 3383SOL     OW11047   5.328   5.318   0.289
 3383SOL    HW111048   5.397   5.320   0.216
 3383SOL    HW211049   5.353   5.248   0.356
 3384SOL     OW11050   2.583   4.823   0.157
 3384SOL    HW111051   2.492   4.858   0.180
 3384SOL    HW211052   2.609   4.753   0.224
 3385SOL     OW11053   0.424   1.953   3.723
 3385SOL    HW111054   0.506   1.969   3.668
 3385SOL    HW211055   0.343   1.973   3.668
 3386SOL     OW11056   6.710   4.573   6.342
 3386SOL    HW111057   6.715   4.502   6.271
 3386SOL    HW211058   6.783   4.640   6.327
 3387SOL     OW11059   6.453   0.315   3.904
 3387SOL    HW111060   6.365   0.277   3.876
 3387SOL    HW211061   6.440   0.372   3.985
 3388SOL     OW11062   6.287   3.398   1.259
 3388SOL    HW111063   6.232   3.430   1.182
 3388SOL    HW211064   6.268   3.454   1.340
 3389SOL     OW11065   6.398   6.250   0.678
 3389SOL    HW111066   6.418   6.303   0.596
 3389SOL    HW211067   6.480   6.246   0.736
 3390SOL     OW11068   3.865   6.787   6.202
 3390SOL    HW111069   3.937   6.733   6.246
 3390SOL    HW211070   3.868   6.880   6.237
 3391SOL     OW11071   5.472   3.096   4.021
 3391SOL    HW111072   5.446   3.001   4.040
 3391SOL    HW211073   5.452   3.118   3.926
 3392SOL     OW11074   4.435   6.607   5.852
 3392SOL    HW111075   4.442   6.560   5.764
 3392SOL    HW211076   4.403   6.544   5.922
 3393SOL     OW11077   5.100   6.108   1.524
 3393SOL    HW111078   5.199   6.105   1.539
 3393SOL    HW211079   5.065   6.015   1.513
 3394SOL     OW11080   2.969   5.545   1.437
 3394SOL    HW111081   3.061   5.506   1.434
 3394SOL    HW211082   2.918   5.505   1.512
 3395SOL     OW11083   2.908   0.487   3.362
 3395SOL    HW111084   2.933   0.560   3.298
 3395SOL    HW211085   2.900   0.401   3.313
 3396SOL     OW11086   4.539   2.105   4.444
 3396SOL    HW111087   4.566   2.135   4.352
 3396SOL    HW211088   4.559   2.008   4.455
 3397SOL     OW11089   2.249   5.618   0.440
 3397SOL    HW111090   2.232   5.557   0.363
 3397SOL    HW211091   2.347   5.624   0.458
 3398SOL     OW11092   6.762   1.772   4.317
 3398SOL    HW111093   6.764   1.850   4.381
 3398SOL    HW211094   6.724   1.692   4.363
 3399SOL     OW11095   6.618   5.376   2.315
 3399SOL    HW111096   6.677   5.448   2.352
 3399SOL    HW211097   6.580   5.406   2.228
 3400SOL     OW11098   5.485   1.810   6.142
 3400SOL    HW111099   5.460   1.780   6.050
 3400SOL    HW211100   5.448   1.902   6.158
 3401SOL     OW11101   6.974   3.343   5.430
 3401SOL    HW111102   6.874   3.340   5.423
 3401SOL    HW211103   7.014   3.346   5.338
 3402SOL     OW11104   6.542   4.099   1.565
 3402SOL    HW111105   6.589   4.135   1.485
 3402SOL    HW211106   6.599   4.112   1.646
 3403SOL     OW11107   4.482   6.139   0.193
 3403SOL    HW111108   4.512   6.113   0.284
 3403SOL    HW211109   4.384   6.123   0.184
 3404SOL     OW11110   5.255   4.011   4.825
 3404SOL    HW111111   5.224   3.918   4.807
 3404SOL    HW211112   5.317   4.011   4.903
 3405SOL     OW11113   5.150   5.783   5.709
 3405SOL    HW111114   5.066   5.767   5.657
 3405SOL    HW211115   5.225   5.804   5.647
 3406SOL     OW11116   1.796   4.959   1.726
 3406SOL    HW111117   1.781   5.013   1.643
 3406SOL    HW211118   1.892   4.968   1.755
 3407SOL     OW11119   1.108   3.795   0.371
 3407SOL    HW111120   1.208   3.789   0.377
 3407SOL    HW211121   1.071   3.828   0.458
 3408SOL     OW11122   5.086   2.520   3.836
 3408SOL    HW111123   5.081   2.619   3.845
 3408SOL    HW211124   5.150   2.496   3.763
 3409SOL     OW11125   4.447   0.367   0.592
 3409SOL    HW111126   4.414   0.296   0.654
 3409SOL    HW211127   4.369   0.417   0.554
 3410SOL     OW11128   4.902   0.143   2.454
 3410SOL    HW111129   4.969   0.192   2.509
 3410SOL    HW211130   4.911   0.171   2.358
 3411SOL     OW11131   6.489   2.627   0.717
 3411SOL    HW111132   6.504   2.581   0.805
 3411SOL    HW211133   6.454   2.719   0.733
 3412SOL     OW11134   5.334   3.356   1.279
 3412SOL    HW111135   5.368   3.264   1.302
 3412SOL    HW211136   5.403   3.403   1.223
 3413SOL     OW11137   6.960   2.656   6.134
 3413SOL    HW111138   6.877   2.619   6.176
 3413SOL    HW211139   0.016   2.592   6.149
 3414SOL     OW11140   3.252   3.881   0.783
 3414SOL    HW111141   3.181   3.940   0.822
 3414SOL    HW211142   3.305   3.932   0.716
 3415SOL     OW11143   2.173   2.814   5.524
 3415SOL    HW111144   2.096   2.869   5.559
 3415SOL    HW211145   2.237   2.874   5.476
 3416SOL     OW11146   5.705   6.897   6.402
 3416SOL    HW111147   5.792   6.937   6.374
 3416SOL    HW211148   5.640   6.971   6.423
 3417SOL     OW11149   6.480   0.218   2.792
 3417SOL    HW111150   6.384   0.234   2.767
 3417SOL    HW211151   6.484   0.156   2.870
 3418SOL     OW11152   5.188   4.599   0.911
 3418SOL    HW111153   5.280   4.561   0.923
 3418SOL    HW211154   5.121   4.525   0.915
 3419SOL     OW11155   2.994   6.197   5.691
 3419SOL    HW111156   2.979   6.154   5.780
 3419SOL    HW211157   3.012   6.126   5.623
 3420SOL     OW11158   4.352   2.296   3.150
 3420SOL    HW111159   4.394   2.316   3.239
 3420SOL    HW211160   4.300   2.211   3.157
 3421SOL     OW11161   6.257   2.391   3.332
 3421SOL    HW111162   6.167   2.371   3.372
 3421SOL    HW211163   6.247   2.409   3.234
 3422SOL     OW11164   2.414   0.208   1.036
 3422SOL    HW111165   2.467   0.184   1.118
 3422SOL    HW211166   2.463   0.177   0.954
 3423SOL     OW11167   1.021   4.990   5.928
 3423SOL    HW111168   1.060   5.081   5.917
 3423SOL    HW211169   1.083   4.933   5.981
 3424SOL     OW11170   4.512   0.698   1.758
 3424SOL    HW111171   4.458   0.645   1.822
 3424SOL    HW211172   4.469   0.787   1.742
 3425SOL     OW11173   5.694   3.658   1.026
 3425SOL    HW111174   5.721   3.623   1.116
 3425SOL    HW211175   5.678   3.581   0.964
 3426SOL     OW11176   5.266   2.942   6.794
 3426SOL    HW111177   5.180   2.891   6.796
 3426SOL    HW211178   5.315   2.920   6.710
 3427SOL     OW11179   1.494   2.578   0.479
 3427SOL    HW111180   1.434   2.645   0.437
 3427SOL    HW211181   1.581   2.576   0.429
 3428SOL     OW11182   4.649   5.835   6.390
 3428SOL    HW111183   4.725   5.867   6.447
 3428SOL    HW211184   4.567   5.888   6.412
 3429SOL     OW11185   6.574   0.352   0.973
 3429SOL    HW111186   6.595   0.344   1.071
 3429SOL    HW211187   6.508   0.426   0.959
 3430SOL     OW11188   2.179   4.468   5.234
 3430SOL    HW111189   2.122   4.408   5.179
 3430SOL    HW211190   2.273   4.433   5.235
 3431SOL     OW11191   1.726   5.859   3.283
 3431SOL    HW111192   1.672   5.857   3.199
 3431SOL    HW211193   1.735   5.766   3.319
 3432SOL     OW11194   1.810   4.108   1.203
 3432SOL    HW111195   1.774   4.182   1.146
 3432SOL    HW211196   1.763   4.023   1.181
 3433SOL     OW11197   2.419   1.433   6.945
 3433SOL    HW111198   2.435   1.381   0.008
 3433SOL    HW211199   2.321   1.445   6.931
 3434SOL     OW11200   2.995   2.590   0.726
 3434SOL    HW111201   2.996   2.624   0.820
 3434SOL    HW211202   3.024   2.494   0.726
 3435SOL     OW11203   2.493   0.446   0.349
 3435SOL    HW111204   2.498   0.471   0.252
 3435SOL    HW211205   2.411   0.486   0.390
 3436SOL     OW11206   3.012   5.931   0.184
 3436SOL    HW111207   2.947   5.969   0.117
 3436SOL    HW211208   3.080   6.000   0.207
 3437SOL     OW11209   1.574   6.573   6.592
 3437SOL    HW111210   1.616   6.557   6.681
 3437SOL    HW211211   1.639   6.548   6.520
 3438SOL     OW11212   1.125   3.976   1.506
 3438SOL    HW111213   1.189   4.045   1.541
 3438SOL    HW211214   1.125   3.897   1.566
 3439SOL     OW11215   2.490   5.585   2.201
 3439SOL    HW111216   2.479   5.598   2.103
 3439SOL    HW211217   2.558   5.650   2.236
 3440SOL     OW11218   3.810   3.631   4.442
 3440SOL    HW111219   3.733   3.691   4.417
 3440SOL    HW211220   3.790   3.585   4.528
 3441SOL     OW11221   5.399   4.841   5.808
 3441SOL    HW111222   5.431   4.820   5.901
 3441SOL    HW211223   5.402   4.939   5.793
 3442SOL     OW11224   3.498   3.193   0.720
 3442SOL    HW111225   3.431   3.266   0.733
 3442SOL    HW211226   3.565   3.196   0.795
 3443SOL     OW11227   1.691   6.594   2.158
 3443SOL    HW111228   1.605   6.554   2.123
 3443SOL    HW211229   1.707   6.559   2.250
 3444SOL     OW11230   6.285   3.800   0.372
 3444SOL    HW111231   6.192   3.812   0.338
 3444SOL    HW211232   6.304   3.869   0.442
 3445SOL     OW11233   5.851   4.477   2.962
 3445SOL    HW111234   5.866   4.464   3.060
 3445SOL    HW211235   5.939   4.487   2.916
 3446SOL     OW11236   5.177   1.021   1.241
 3446SOL    HW111237   5.096   1.078   1.222
 3446SOL    HW211238   5.235   1.067   1.309
 3447SOL     OW11239   5.691   1.341   6.898
 3447SOL    HW111240   5.727   1.248   6.893
 3447SOL    HW211241   5.615   1.344   6.963
 3448SOL     OW11242   1.487   6.214   5.023
 3448SOL    HW111243   1.487   6.277   4.945
 3448SOL    HW211244   1.409   6.233   5.081
 3449SOL     OW11245   6.723   4.079   5.253
 3449SOL    HW111246   6.714   4.171   5.214
 3449SOL    HW211247   6.781   4.023   5.194
 3450SOL     OW11248   1.423   6.340   1.118
 3450SOL    HW111249   1.423   6.335   1.218
 3450SOL    HW211250   1.385   6.428   1.089
 3451SOL     OW11251   2.367   0.919   1.532
 3451SOL    HW111252   2.371   0.971   1.618
 3451SOL    HW211253   2.358   0.822   1.553
 3452SOL     OW11254   4.630   0.004   4.963
 3452SOL    HW111255   4.646   6.930   4.936
 3452SOL    HW211256   4.548   0.010   5.019
 3453SOL     OW11257   4.465   6.249   6.256
 3453SOL    HW111258   4.406   6.290   6.325
 3453SOL    HW211259   4.535   6.194   6.301
 3454SOL     OW11260   1.070   2.737   1.574
 3454SOL    HW111261   0.985   2.689   1.552
 3454SOL    HW211262   1.064   2.831   1.541
 3455SOL     OW11263   0.485   3.232   5.651
 3455SOL    HW111264   0.501   3.329   5.672
 3455SOL    HW211265   0.569   3.192   5.616
 3456SOL     OW11266   5.550   4.399   2.295
 3456SOL    HW111267   5.479   4.467   2.277
 3456SOL    HW211268   5.626   4.443   2.344
 3457SOL     OW11269   4.064   5.188   5.812
 3457SOL    HW111270   3.980   5.168   5.762
 3457SOL    HW211271   4.105   5.102   5.843
 3458SOL     OW11272   4.173   1.250   2.642
 3458SOL    HW111273   4.152   1.325   2.705
 3458SOL    HW211274   4.206   1.288   2.555
 3459SOL     OW11275   4.712   6.498   3.148
 3459SOL    HW111276   4.643   6.558   3.108
 3459SOL    HW211277   4.709   6.409   3.103
 3460SOL     OW11278   4.213   1.420   5.012
 3460SOL    HW111279   4.192   1.330   5.050
 3460SOL    HW211280   4.247   1.409   4.918
 3461SOL     OW11281   5.897   5.512   4.989
 3461SOL    HW111282   5.899   5.579   5.063
 3461SOL    HW211283   5.977   5.524   4.931
 3462SOL     OW11284   1.678   4.208   6.794
 3462SOL    HW111285   1.757   4.269   6.807
 3462SOL    HW211286   1.705   4.114   6.814
 3463SOL     OW11287   6.249   4.310   1.048
 3463SOL    HW111288   6.328   4.365   1.075
 3463SOL    HW211289   6.270   4.213   1.059
 3464SOL     OW11290   6.774   4.880   6.031
 3464SOL    HW111291   6.794   4.834   6.118
 3464SOL    HW211292   6.675   4.886   6.019
 3465SOL     OW11293   1.798   0.403   1.273
 3465SOL    HW111294   1.880   0.394   1.217
 3465SOL    HW211295   1.721   0.358   1.228
 3466SOL     OW11296   6.727   4.357   5.208
 3466SOL    HW111297   6.642   4.379   5.256
 3466SOL    HW211298   6.797   4.425   5.231
 3467SOL     OW11299   1.968   1.985   6.847
 3467SOL    HW111300   1.956   1.915   6.776
 3467SOL    HW211301   2.009   2.066   6.806
 3468SOL     OW11302   3.186   6.834   4.150
 3468SOL    HW111303   3.099   6.880   4.129
 3468SOL    HW211304   3.184   6.803   4.245
 3469SOL     OW11305   5.514   2.203   2.595
 3469SOL    HW111306   5.523   2.110   2.631
 3469SOL    HW211307   5.597   2.229   2.546
 3470SOL     OW11308   0.184   5.964   1.001
 3470SOL    HW111309   0.269   5.965   1.055
 3470SOL    HW211310   0.173   5.875   0.957
 3471SOL     OW11311   3.730   6.548   4.468
 3471SOL    HW111312   3.666   6.617   4.434
 3471SOL    HW211313   3.698   6.515   4.557
 3472SOL     OW11314   3.042   1.207   5.461
 3472SOL    HW111315   3.081   1.153   5.386
 3472SOL    HW211316   3.029   1.148   5.541
 3473SOL     OW11317   5.162   0.623   6.098
 3473SOL    HW111318   5.141   0.702   6.156
 3473SOL    HW211319   5.147   0.648   6.002
 3474SOL     OW11320   5.113   5.542   1.029
 3474SOL    HW111321   5.148   5.505   1.115
 3474SOL    HW211322   5.172   5.617   0.998
 3475SOL     OW11323   1.390   5.823   4.335
 3475SOL    HW111324   1.358   5.917   4.341
 3475SOL    HW211325   1.385   5.780   4.425
 3476SOL     OW11326   4.990   0.608   4.464
 3476SOL    HW111327   5.028   0.564   4.382
 3476SOL    HW211328   4.895   0.579   4.476
 3477SOL     OW11329   4.019   6.311   1.152
 3477SOL    HW111330   4.037   6.250   1.229
 3477SOL    HW211331   3.959   6.385   1.182
 3478SOL     OW11332   4.049   4.804   0.737
 3478SOL    HW111333   4.134   4.851   0.715
 3478SOL    HW211334   3.978   4.833   0.673
 3479SOL     OW11335   0.885   0.780   2.300
 3479SOL    HW111336   0.942   0.718   2.246
 3479SOL    HW211337   0.807   0.810   2.245
 3480SOL     OW11338   0.779   1.368   3.352
 3480SOL    HW111339   0.775   1.297   3.422
 3480SOL    HW211340   0.835   1.337   3.275
 3481SOL     OW11341   2.348   6.261   0.150
 3481SOL    HW111342   2.353   6.192   0.079
 3481SOL    HW211343   2.293   6.226   0.227
 3482SOL     OW11344   0.463   2.378   0.501
 3482SOL    HW111345   0.557   2.375   0.467
 3482SOL    HW211346   0.401   2.397   0.425
 3483SOL     OW11347   3.150   0.074   1.494
 3483SOL    HW111348   3.225   0.101   1.555
 3483SOL    HW211349   3.065   0.070   1.546
 3484SOL     OW11350   3.566   4.060   3.435
 3484SOL    HW111351   3.540   4.103   3.349
 3484SOL    HW211352   3.515   4.102   3.511
 3485SOL     OW11353   1.059   2.317   5.126
 3485SOL    HW111354   1.139   2.358   5.084
 3485SOL    HW211355   1.083   2.280   5.216
 3486SOL     OW11356   4.361   1.803   1.811
 3486SOL    HW111357   4.277   1.797   1.757
 3486SOL    HW211358   4.348   1.754   1.898
 3487SOL     OW11359   6.448   1.038   6.905
 3487SOL    HW111360   6.412   1.005   6.817
 3487SOL    HW211361   6.548   1.036   6.903
 3488SOL     OW11362   5.249   3.471   3.696
 3488SOL    HW111363   5.305   3.526   3.633
 3488SOL    HW211364   5.163   3.519   3.713
 3489SOL     OW11365   3.452   0.079   1.308
 3489SOL    HW111366   3.453   0.029   1.395
 3489SOL    HW211367   3.381   0.149   1.310
 3490SOL     OW11368   3.961   4.124   6.964
 3490SOL    HW111369   4.033   4.088   0.004
 3490SOL    HW211370   3.872   4.112   7.007
 3491SOL     OW11371   0.350   3.088   4.695
 3491SOL    HW111372   0.395   3.106   4.782
 3491SOL    HW211373   0.349   3.172   4.640
 3492SOL     OW11374   6.659   4.362   6.765
 3492SOL    HW111375   6.649   4.340   6.862
 3492SOL    HW211376   6.635   4.458   6.750
 3493SOL     OW11377   6.545   4.394   0.886
 3493SOL    HW111378   6.499   4.460   0.827
 3493SOL    HW211379   6.500   4.305   0.878
 3494SOL     OW11380   3.223   0.318   0.581
 3494SOL    HW111381   3.154   0.300   0.511
 3494SOL    HW211382   3.304   0.262   0.562
 3495SOL     OW11383   5.073   4.716   0.510
 3495SOL    HW111384   5.095   4.752   0.601
 3495SOL    HW211385   5.039   4.790   0.452
 3496SOL     OW11386   2.306   2.989   1.128
 3496SOL    HW111387   2.388   2.975   1.184
 3496SOL    HW211388   2.225   2.968   1.183
 3497SOL     OW11389   4.590   0.213   3.680
 3497SOL    HW111390   4.606   0.264   3.596
 3497SOL    HW211391   4.492   0.196   3.690
 3498SOL     OW11392   2.732   1.665   1.919
 3498SOL    HW111393   2.817   1.615   1.900
 3498SOL    HW211394   2.717   1.670   2.017
 3499SOL     OW11395   6.539   3.258   3.851
 3499SOL    HW111396   6.509   3.354   3.849
 3499SOL    HW211397   6.600   3.241   3.774
 3500SOL     OW11398   6.154   3.608   0.108
 3500SOL    HW111399   6.148   3.683   0.175
 3500SOL    HW211400   6.249   3.578   0.100
 3501SOL     OW11401   1.744   4.543   4.544
 3501SOL    HW111402   1.816   4.542   4.613
 3501SOL    HW211403   1.681   4.618   4.562
 3502SOL     OW11404   0.935   3.201   1.351
 3502SOL    HW111405   0.986   3.274   1.307
 3502SOL    HW211406   0.838   3.227   1.359
 3503SOL     OW11407   5.004   5.905   4.745
 3503SOL    HW111408   4.953   5.974   4.694
 3503SOL    HW211409   5.068   5.859   4.684
 3504SOL     OW11410   2.235   3.198   1.734
 3504SOL    HW111411   2.281   3.275   1.779
 3504SOL    HW211412   2.221   3.219   1.637
 3505SOL     OW11413   5.347   4.993   5.213
 3505SOL    HW111414   5.299   5.021   5.296
 3505SOL    HW211415   5.284   4.942   5.154
 3506SOL     OW11416   4.754   5.518   3.040
 3506SOL    HW111417   4.832   5.455   3.034
 3506SOL    HW211418   4.718   5.536   2.948
 3507SOL     OW11419   0.910   7.020   6.279
 3507SOL    HW111420   0.857   6.967   6.345
 3507SOL    HW211421   0.849   0.061   6.228
 3508SOL     OW11422   5.814   3.344   6.675
 3508SOL    HW111423   5.749   3.389   6.613
 3508SOL    HW211424   5.871   3.412   6.720
 3509SOL     OW11425   6.635   6.831   0.894
 3509SOL    HW111426   6.607   6.756   0.834
 3509SOL    HW211427   6.733   6.846   0.884
 3510SOL     OW11428   2.028   3.040   1.978
 3510SOL    HW111429   2.002   3.034   1.881
 3510SOL    HW211430   2.070   2.954   2.006
 3511SOL     OW11431   0.736   2.004   6.295
 3511SOL    HW111432   0.709   2.099   6.309
 3511SOL    HW211433   0.803   1.999   6.221
 3512SOL     OW11434   2.505   3.196   0.803
 3512SOL    HW111435   2.559   3.112   0.806
 3512SOL    HW211436   2.566   3.275   0.804
 3513SOL     OW11437   6.312   4.983   1.341
 3513SOL    HW111438   6.214   4.967   1.357
 3513SOL    HW211439   6.323   5.040   1.259
 3514SOL     OW11440   0.613   6.142   1.228
 3514SOL    HW111441   0.544   6.211   1.250
 3514SOL    HW211442   0.693   6.156   1.285
 3515SOL     OW11443   2.775   6.381   3.763
 3515SOL    HW111444   2.742   6.354   3.853
 3515SOL    HW211445   2.832   6.463   3.772
 3516SOL     OW11446   3.098   1.192   1.215
 3516SOL    HW111447   3.032   1.134   1.167
 3516SOL    HW211448   3.108   1.279   1.167
 3517SOL     OW11449   0.831   0.885   6.094
 3517SOL    HW111450   0.917   0.937   6.089
 3517SOL    HW211451   0.852   0.788   6.087
 3518SOL     OW11452   4.165   2.956   5.957
 3518SOL    HW111453   4.080   2.903   5.962
 3518SOL    HW211454   4.143   3.053   5.949
 3519SOL     OW11455   1.881   6.203   0.384
 3519SOL    HW111456   1.822   6.154   0.320
 3519SOL    HW211457   1.848   6.188   0.477
 3520SOL     OW11458   4.193   6.022   0.990
 3520SOL    HW111459   4.181   6.024   1.090
 3520SOL    HW211460   4.209   6.115   0.957
 3521SOL     OW11461   5.898   2.906   0.850
 3521SOL    HW111462   5.841   2.950   0.781
 3521SOL    HW211463   5.979   2.867   0.806
 3522SOL     OW11464   2.930   4.993   2.138
 3522SOL    HW111465   2.879   4.918   2.095
 3522SOL    HW211466   2.889   5.014   2.227
 3523SOL     OW11467   2.346   4.697   5.576
 3523SOL    HW111468   2.439   4.687   5.539
 3523SOL    HW211469   2.310   4.608   5.602
 3524SOL     OW11470   2.886   0.415   0.405
 3524SOL    HW111471   2.794   0.399   0.442
 3524SOL    HW211472   2.942   0.462   0.474
 3525SOL     OW11473   0.797   2.518   2.850
 3525SOL    HW111474   0.832   2.427   2.827
 3525SOL    HW211475   0.842   2.551   2.932
 3526SOL     OW11476   2.193   1.177   2.329
 3526SOL    HW111477   2.112   1.155   2.384
 3526SOL    HW211478   2.275   1.167   2.384
 3527SOL     OW11479   5.249   2.350   5.694
 3527SOL    HW111480   5.210   2.259   5.700
 3527SOL    HW211481   5.247   2.394   5.784
 3528SOL     OW11482   0.362   6.660   4.921
 3528SOL    HW111483   0.288   6.594   4.939
 3528SOL    HW211484   0.384   6.658   4.823
 3529SOL     OW11485   3.659   6.142   6.504
 3529SOL    HW111486   3.700   6.053   6.518
 3529SOL    HW211487   3.627   6.179   6.591
 3530SOL     OW11488   1.739   6.174   3.533
 3530SOL    HW111489   1.810   6.105   3.524
 3530SOL    HW211490   1.687   6.158   3.617
 3531SOL     OW11491   5.305   3.452   6.623
 3531SOL    HW111492   5.245   3.510   6.568
 3531SOL    HW211493   5.332   3.502   6.705
 3532SOL     OW11494   1.834   6.704   0.212
 3532SOL    HW111495   1.761   6.681   0.148
 3532SOL    HW211496   1.902   6.630   0.212
 3533SOL     OW11497   1.486   1.308   3.044
 3533SOL    HW111498   1.413   1.370   3.073
 3533SOL    HW211499   1.565   1.320   3.104
 3534SOL     OW11500   5.272   0.919   4.738
 3534SOL    HW111501   5.191   0.936   4.683
 3534SOL    HW211502   5.244   0.899   4.832
 3535SOL     OW11503   5.481   5.286   6.165
 3535SOL    HW111504   5.447   5.314   6.254
 3535SOL    HW211505   5.528   5.363   6.121
 3536SOL     OW11506   0.960   4.242   3.622
 3536SOL    HW111507   0.913   4.213   3.538
 3536SOL    HW211508   1.000   4.332   3.608
 3537SOL     OW11509   2.332   5.389   1.122
 3537SOL    HW111510   2.380   5.473   1.094
 3537SOL    HW211511   2.398   5.327   1.165
 3538SOL     OW11512   2.436   1.053   4.493
 3538SOL    HW111513   2.484   0.973   4.528
 3538SOL    HW211514   2.463   1.134   4.545
 3539SOL     OW11515   5.138   5.262   5.853
 3539SOL    HW111516   5.185   5.260   5.765
 3539SOL    HW211517   5.191   5.318   5.917
 3540SOL     OW11518   3.002   3.739   6.562
 3540SOL    HW111519   3.028   3.730   6.466
 3540SOL    HW211520   3.008   3.835   6.589
 3541SOL     OW11521   3.361   2.688   0.920
 3541SOL    HW111522   3.453   2.649   0.930
 3541SOL    HW211523   3.293   2.619   0.943
 3542SOL     OW11524   5.590   2.141   6.050
 3542SOL    HW111525   5.527   2.216   6.070
 3542SOL    HW211526   5.623   2.102   6.136
 3543SOL     OW11527   1.089   2.612   3.575
 3543SOL    HW111528   1.113   2.539   3.512
 3543SOL    HW211529   1.147   2.607   3.656
 3544SOL     OW11530   2.535   4.500   6.210
 3544SOL    HW111531   2.618   4.471   6.162
 3544SOL    HW211532   2.557   4.575   6.272
 3545SOL     OW11533   3.536   6.981   1.571
 3545SOL    HW111534   3.635   6.989   1.580
 3545SOL    HW211535   3.510   6.885   1.575
 3546SOL     OW11536   6.986   3.908   3.271
 3546SOL    HW111537   6.992   3.825   3.216
 3546SOL    HW211538   6.898   3.913   3.317
 3547SOL     OW11539   0.700   4.145   5.529
 3547SOL    HW111540   0.722   4.182   5.439
 3547SOL    HW211541   0.784   4.119   5.576
 3548SOL     OW11542   6.224   0.560   5.228
 3548SOL    HW111543   6.262   0.537   5.317
 3548SOL    HW211544   6.210   0.659   5.221
 3549SOL     OW11545   2.845   6.082   0.044
 3549SOL    HW111546   2.871   6.172   0.006
 3549SOL    HW211547   2.754   6.058   0.012
 3550SOL     OW11548   5.469   0.970   5.126
 3550SOL    HW111549   5.491   1.067   5.116
 3550SOL    HW211550   5.515   0.933   5.207
 3551SOL     OW11551   4.295   1.923   4.074
 3551SOL    HW111552   4.372   1.893   4.131
 3551SOL    HW211553   4.210   1.888   4.113
 3552SOL     OW11554   0.633   6.388   3.176
 3552SOL    HW111555   0.570   6.357   3.105
 3552SOL    HW211556   0.726   6.391   3.138
 3553SOL     OW11557   4.874   5.285   0.133
 3553SOL    HW111558   4.917   5.354   0.075
 3553SOL    HW211559   4.840   5.211   0.076
 3554SOL     OW11560   5.055   3.363   1.199
 3554SOL    HW111561   5.041   3.378   1.101
 3554SOL    HW211562   5.153   3.363   1.219
 3555SOL     OW11563   2.298   1.924   5.402
 3555SOL    HW111564   2.344   1.837   5.422
 3555SOL    HW211565   2.363   1.999   5.411
 3556SOL     OW11566   4.950   0.566   5.579
 3556SOL    HW111567   4.871   0.529   5.529
 3556SOL    HW211568   4.921   0.640   5.639
 3557SOL     OW11569   6.560   1.009   1.348
 3557SOL    HW111570   6.545   0.955   1.266
 3557SOL    HW211571   6.623   0.961   1.409
 3558SOL     OW11572   3.305   6.233   1.980
 3558SOL    HW111573   3.207   6.237   1.961
 3558SOL    HW211574   3.348   6.319   1.951
 3559SOL     OW11575   4.023   6.199   4.861
 3559SOL    HW111576   3.971   6.115   4.841
 3559SOL    HW211577   4.063   6.193   4.952
 3560SOL     OW11578   2.382   5.613   4.217
 3560SOL    HW111579   2.391   5.586   4.313
 3560SOL    HW211580   2.469   5.649   4.184
 3561SOL     OW11581   5.089   3.960   5.547
 3561SOL    HW111582   5.123   4.051   5.522
 3561SOL    HW211583   5.021   3.968   5.620
 3562SOL     OW11584   2.388   1.285   5.606
 3562SOL    HW111585   2.414   1.234   5.524
 3562SOL    HW211586   2.457   1.269   5.677
 3563SOL     OW11587   5.666   2.557   5.013
 3563SOL    HW111588   5.704   2.502   4.939
 3563SOL    HW211589   5.619   2.498   5.078
 3564SOL     OW11590   6.411   4.129   2.112
 3564SOL    HW111591   6.463   4.050   2.081
 3564SOL    HW211592   6.363   4.170   2.034
 3565SOL     OW11593   3.886   5.708   3.345
 3565SOL    HW111594   3.847   5.620   3.370
 3565SOL    HW211595   3.982   5.696   3.319
 3566SOL     OW11596   1.499   0.630   5.478
 3566SOL    HW111597   1.553   0.661   5.557
 3566SOL    HW211598   1.559   0.612   5.401
 3567SOL     OW11599   0.706   3.907   6.276
 3567SOL    HW111600   0.629   3.937   6.332
 3567SOL    HW211601   0.675   3.835   6.214
 3568SOL     OW11602   6.019   3.662   6.061
 3568SOL    HW111603   6.046   3.600   5.987
 3568SOL    HW211604   6.055   3.629   6.148
 3569SOL     OW11605   1.695   1.941   5.217
 3569SOL    HW111606   1.690   2.012   5.287
 3569SOL    HW211607   1.773   1.959   5.157
 3570SOL     OW11608   6.263   1.629   4.060
 3570SOL    HW111609   6.352   1.646   4.018
 3570SOL    HW211610   6.277   1.602   4.155
 3571SOL     OW11611   6.295   5.927   5.703
 3571SOL    HW111612   6.225   5.994   5.726
 3571SOL    HW211613   6.327   5.942   5.610
 3572SOL     OW11614   5.640   4.547   4.692
 3572SOL    HW111615   5.672   4.637   4.721
 3572SOL    HW211616   5.559   4.557   4.633
 3573SOL     OW11617   1.265   3.107   2.833
 3573SOL    HW111618   1.282   3.139   2.926
 3573SOL    HW211619   1.198   3.032   2.835
 3574SOL     OW11620   0.339   4.110   0.510
 3574SOL    HW111621   0.407   4.042   0.482
 3574SOL    HW211622   0.282   4.072   0.583
 3575SOL     OW11623   5.776   4.549   1.958
 3575SOL    HW111624   5.856   4.584   2.007
 3575SOL    HW211625   5.806   4.482   1.890
 3576SOL     OW11626   0.596   1.327   6.394
 3576SOL    HW111627   0.528   1.264   6.356
 3576SOL    HW211628   0.573   1.421   6.369
 3577SOL     OW11629   0.855   2.981   0.119
 3577SOL    HW111630   0.869   3.078   0.136
 3577SOL    HW211631   0.758   2.962   0.106
 3578SOL     OW11632   3.335   5.040   0.609
 3578SOL    HW111633   3.413   4.980   0.625
 3578SOL    HW211634   3.309   5.084   0.695
 3579SOL     OW11635   6.831   3.842   4.547
 3579SOL    HW111636   6.811   3.940   4.540
 3579SOL    HW211637   6.785   3.793   4.473
 3580SOL     OW11638   6.096   2.223   1.932
 3580SOL    HW111639   6.082   2.173   1.847
 3580SOL    HW211640   6.011   2.266   1.960
 3581SOL     OW11641   0.323   0.508   2.968
 3581SOL    HW111642   0.420   0.512   2.994
 3581SOL    HW211643   0.282   0.425   3.005
 3582SOL     OW11644   1.396   0.306   6.378
 3582SOL    HW111645   1.463   0.282   6.308
 3582SOL    HW211646   1.349   0.223   6.410
 3583SOL     OW11647   1.255   5.629   0.052
 3583SOL    HW111648   1.279   5.606   0.146
 3583SOL    HW211649   1.271   5.727   0.036
 3584SOL     OW11650   5.319   6.134   6.413
 3584SOL    HW111651   5.251   6.182   6.358
 3584SOL    HW211652   5.273   6.080   6.484
 3585SOL     OW11653   3.210   4.927   4.074
 3585SOL    HW111654   3.121   4.882   4.076
 3585SOL    HW211655   3.241   4.946   4.168
 3586SOL     OW11656   6.598   3.403   5.733
 3586SOL    HW111657   6.501   3.404   5.758
 3586SOL    HW211658   6.619   3.483   5.677
 3587SOL     OW11659   4.299   6.587   6.962
 3587SOL    HW111660   4.251   6.576   6.875
 3587SOL    HW211661   4.390   6.546   6.955
 3588SOL     OW11662   1.065   2.352   6.069
 3588SOL    HW111663   1.161   2.379   6.082
 3588SOL    HW211664   1.008   2.434   6.067
 3589SOL     OW11665   2.995   1.012   5.667
 3589SOL    HW111666   2.951   0.996   5.755
 3589SOL    HW211667   2.956   0.950   5.599
 3590SOL     OW11668   1.647   5.262   6.273
 3590SOL    HW111669   1.676   5.168   6.256
 3590SOL    HW211670   1.659   5.316   6.189
 3591SOL     OW11671   5.060   2.088   6.059
 3591SOL    HW111672   5.078   2.181   6.090
 3591SOL    HW211673   5.142   2.048   6.019
 3592SOL     OW11674   5.307   2.876   2.704
 3592SOL    HW111675   5.306   2.971   2.735
 3592SOL    HW211676   5.339   2.872   2.610
 3593SOL     OW11677   1.453   6.569   3.899
 3593SOL    HW111678   1.373   6.627   3.881
 3593SOL    HW211679   1.532   6.627   3.919
 3594SOL     OW11680   2.760   1.430   4.332
 3594SOL    HW111681   2.746   1.343   4.379
 3594SOL    HW211682   2.727   1.505   4.389
 3595SOL     OW11683   2.939   6.028   6.164
 3595SOL    HW111684   2.848   6.035   6.204
 3595SOL    HW211685   2.957   6.109   6.108
 3596SOL     OW11686   6.344   1.995   2.215
 3596SOL    HW111687   6.443   1.989   2.213
 3596SOL    HW211688   6.315   2.084   2.179
 3597SOL     OW11689   2.984   5.797   3.925
 3597SOL    HW111690   2.916   5.730   3.955
 3597SOL    HW211691   2.946   5.852   3.851
 3598SOL     OW11692   1.289   0.061   6.393
 3598SOL    HW111693   1.314   6.995   6.349
 3598SOL    HW211694   1.285   0.047   6.492
 3599SOL     OW11695   0.281   1.785   4.915
 3599SOL    HW111696   0.184   1.803   4.930
 3599SOL    HW211697   0.295   1.757   4.819
 3600SOL     OW11698   5.913   2.570   0.742
 3600SOL    HW111699   5.882   2.632   0.669
 3600SOL    HW211700   6.007   2.542   0.724
 3601SOL     OW11701   0.181   3.988   6.610
 3601SOL    HW111702   0.209   4.020   6.520
 3601SOL    HW211703   0.185   3.888   6.613
 3602SOL     OW11704   1.961   1.032   6.788
 3602SOL    HW111705   2.013   0.988   6.861
 3602SOL    HW211706   1.966   0.976   6.705
 3603SOL     OW11707   3.938   4.828   3.671
 3603SOL    HW111708   4.007   4.809   3.602
 3603SOL    HW211709   3.959   4.779   3.755
 3604SOL     OW11710   0.333   2.311   2.720
 3604SOL    HW111711   0.411   2.274   2.769
 3604SOL    HW211712   0.256   2.323   2.783
 3605SOL     OW11713   6.064   3.285   6.074
 3605SOL    HW111714   6.093   3.337   5.994
 3605SOL    HW211715   5.988   3.332   6.119
 3606SOL     OW11716   0.259   4.203   5.518
 3606SOL    HW111717   0.283   4.275   5.452
 3606SOL    HW211718   0.190   4.143   5.477
 3607SOL     OW11719   5.399   6.945   0.797
 3607SOL    HW111720   5.315   6.896   0.776
 3607SOL    HW211721   5.377   0.013   0.840
 3608SOL     OW11722   0.611   2.177   1.434
 3608SOL    HW111723   0.621   2.161   1.336
 3608SOL    HW211724   0.701   2.192   1.475
 3609SOL     OW11725   6.649   0.660   4.993
 3609SOL    HW111726   6.612   0.618   4.910
 3609SOL    HW211727   6.721   0.724   4.968
 3610SOL     OW11728   1.512   6.497   6.055
 3610SOL    HW111729   1.460   6.453   6.128
 3610SOL    HW211730   1.490   6.454   5.967
 3611SOL     OW11731   3.586   5.354   5.628
 3611SOL    HW111732   3.552   5.324   5.717
 3611SOL    HW211733   3.679   5.389   5.637
 3612SOL     OW11734   1.321   6.576   1.013
 3612SOL    HW111735   1.362   6.588   0.923
 3612SOL    HW211736   1.271   6.659   1.039
 3613SOL     OW11737   5.617   4.939   6.922
 3613SOL    HW111738   5.654   4.940   6.829
 3613SOL    HW211739   5.560   4.858   6.934
 3614SOL     OW11740   3.619   3.157   2.962
 3614SOL    HW111741   3.520   3.161   2.970
 3614SOL    HW211742   3.648   3.063   2.941
 3615SOL     OW11743   5.587   5.411   5.478
 3615SOL    HW111744   5.521   5.430   5.405
 3615SOL    HW211745   5.642   5.331   5.453
 3616SOL     OW11746   6.912   2.140   5.477
 3616SOL    HW111747   6.915   2.041   5.466
 3616SOL    HW211748   6.975   2.182   5.412
 3617SOL     OW11749   6.681   1.490   6.390
 3617SOL    HW111750   6.722   1.568   6.439
 3617SOL    HW211751   6.745   1.457   6.321
 3618SOL     OW11752   1.722   1.829   6.212
 3618SOL    HW111753   1.767   1.832   6.122
 3618SOL    HW211754   1.786   1.792   6.279
 3619SOL     OW11755   5.592   2.029   3.941
 3619SOL    HW111756   5.679   1.991   3.910
 3619SOL    HW211757   5.521   2.007   3.875
 3620SOL     OW11758   6.102   0.250   5.517
 3620SOL    HW111759   6.011   0.243   5.559
 3620SOL    HW211760   6.133   0.345   5.522
 3621SOL     OW11761   2.654   3.130   5.767
 3621SOL    HW111762   2.555   3.127   5.780
 3621SOL    HW211763   2.679   3.216   5.723
 3622SOL     OW11764   1.333   1.960   2.333
 3622SOL    HW111765   1.410   1.983   2.273
 3622SOL    HW211766   1.291   1.875   2.301
 3623SOL     OW11767   4.873   5.175   3.575
 3623SOL    HW111768   4.918   5.162   3.486
 3623SOL    HW211769   4.916   5.252   3.623
 3624SOL     OW11770   2.487   6.892   3.046
 3624SOL    HW111771   2.454   6.804   3.078
 3624SOL    HW211772   2.549   6.879   2.968
 3625SOL     OW11773   5.882   2.901   5.725
 3625SOL    HW111774   5.866   2.980   5.783
 3625SOL    HW211775   5.839   2.916   5.635
 3626SOL     OW11776   2.091   3.970   5.587
 3626SOL    HW111777   2.146   4.054   5.587
 3626SOL    HW211778   1.999   3.990   5.554
 3627SOL     OW11779   3.387   3.795   3.655
 3627SOL    HW111780   3.405   3.743   3.738
 3627SOL    HW211781   3.442   3.879   3.656
 3628SOL     OW11782   2.285   5.463   2.348
 3628SOL    HW111783   2.347   5.533   2.312
 3628SOL    HW211784   2.290   5.381   2.292
 3629SOL     OW11785   6.063   1.888   5.060
 3629SOL    HW111786   6.043   1.863   4.965
 3629SOL    HW211787   5.978   1.885   5.113
 3630SOL     OW11788   6.131   2.300   4.533
 3630SOL    HW111789   6.039   2.341   4.529
 3630SOL    HW211790   6.159   2.290   4.629
 3631SOL     OW11791   2.383   0.094   4.147
 3631SOL    HW111792   2.307   0.029   4.146
 3631SOL    HW211793   2.416   0.105   4.241
 3632SOL     OW11794   4.897   0.961   0.864
 3632SOL    HW111795   4.928   0.895   0.795
 3632SOL    HW211796   4.931   1.052   0.841
 3633SOL     OW11797   3.159   2.862   6.161
 3633SOL    HW111798   3.194   2.796   6.094
 3633SOL    HW211799   3.059   2.856   6.163
 3634SOL     OW11800   1.931   6.426   4.624
 3634SOL    HW111801   1.891   6.477   4.700
 3634SOL    HW211802   1.907   6.330   4.632
 3635SOL     OW11803   2.778   1.679   5.581
 3635SOL    HW111804   2.709   1.641   5.642
 3635SOL    HW211805   2.862   1.697   5.633
 3636SOL     OW11806   0.267   5.854   5.864
 3636SOL    HW111807   0.238   5.949   5.851
 3636SOL    HW211808   0.260   5.805   5.777
 3637SOL     OW11809   5.655   1.359   1.561
 3637SOL    HW111810   5.705   1.288   1.510
 3637SOL    HW211811   5.715   1.400   1.629
 3638SOL     OW11812   6.625   4.350   4.140
 3638SOL    HW111813   6.531   4.354   4.108
 3638SOL    HW211814   6.635   4.408   4.221
 3639SOL     OW11815   2.622   4.062   0.836
 3639SOL    HW111816   2.609   3.964   0.820
 3639SOL    HW211817   2.651   4.076   0.931
 3640SOL     OW11818   3.087   6.119   1.105
 3640SOL    HW111819   3.063   6.047   1.040
 3640SOL    HW211820   3.186   6.136   1.101
 3641SOL     OW11821   3.272   1.156   5.013
 3641SOL    HW111822   3.304   1.106   4.933
 3641SOL    HW211823   3.261   1.253   4.990
 3642SOL     OW11824   4.762   0.287   4.957
 3642SOL    HW111825   4.740   0.195   4.926
 3642SOL    HW211826   4.790   0.343   4.879
 3643SOL     OW11827   3.175   5.140   4.949
 3643SOL    HW111828   3.242   5.191   5.003
 3643SOL    HW211829   3.171   5.045   4.980
 3644SOL     OW11830   6.589   2.435   0.982
 3644SOL    HW111831   6.657   2.469   1.047
 3644SOL    HW211832   6.518   2.384   1.032
 3645SOL     OW11833   4.598   1.498   3.430
 3645SOL    HW111834   4.655   1.494   3.348
 3645SOL    HW211835   4.655   1.515   3.510
 3646SOL     OW11836   0.223   4.911   5.742
 3646SOL    HW111837   0.295   4.962   5.696
 3646SOL    HW211838   0.232   4.813   5.722
 3647SOL     OW11839   1.331   2.810   0.539
 3647SOL    HW111840   1.321   2.750   0.618
 3647SOL    HW211841   1.385   2.890   0.564
 3648SOL     OW11842   3.715   5.459   2.028
 3648SOL    HW111843   3.619   5.442   2.053
 3648SOL    HW211844   3.774   5.400   2.083
 3649SOL     OW11845   4.289   3.859   0.942
 3649SOL    HW111846   4.296   3.951   0.904
 3649SOL    HW211847   4.193   3.837   0.960
 3650SOL     OW11848   0.215   6.253   1.142
 3650SOL    HW111849   0.271   6.293   1.070
 3650SOL    HW211850   0.119   6.276   1.127
 3651SOL     OW11851   0.465   5.781   2.454
 3651SOL    HW111852   0.492   5.824   2.539
 3651SOL    HW211853   0.431   5.850   2.390
 3652SOL     OW11854   4.750   6.127   3.702
 3652SOL    HW111855   4.829   6.171   3.746
 3652SOL    HW211856   4.673   6.190   3.703
 3653SOL     OW11857   5.753   1.579   3.142
 3653SOL    HW111858   5.753   1.590   3.043
 3653SOL    HW211859   5.713   1.491   3.166
 3654SOL     OW11860   2.164   6.613   0.413
 3654SOL    HW111861   2.090   6.606   0.480
 3654SOL    HW211862   2.210   6.525   0.405
 3655SOL     OW11863   1.769   0.047   4.705
 3655SOL    HW111864   1.743   0.140   4.683
 3655SOL    HW211865   1.750   0.029   4.802
 3656SOL     OW11866   2.131   2.469   1.793
 3656SOL    HW111867   2.130   2.413   1.710
 3656SOL    HW211868   2.182   2.422   1.865
 3657SOL     OW11869   3.864   5.825   0.407
 3657SOL    HW111870   3.929   5.901   0.404
 3657SOL    HW211871   3.914   5.739   0.414
 3658SOL     OW11872   1.063   5.596   5.154
 3658SOL    HW111873   1.068   5.545   5.240
 3658SOL    HW211874   1.143   5.575   5.098
 3659SOL     OW11875   2.833   4.921   0.095
 3659SOL    HW111876   2.742   4.884   0.111
 3659SOL    HW211877   2.898   4.878   0.157
 3660SOL     OW11878   4.751   6.216   1.742
 3660SOL    HW111879   4.693   6.284   1.787
 3660SOL    HW211880   4.759   6.135   1.800
 3661SOL     OW11881   5.311   2.051   0.809
 3661SOL    HW111882   5.352   2.059   0.718
 3661SOL    HW211883   5.238   2.119   0.819
 3662SOL     OW11884   3.627   0.151   5.149
 3662SOL    HW111885   3.651   0.064   5.192
 3662SOL    HW211886   3.574   0.206   5.213
 3663SOL     OW11887   1.593   2.178   0.245
 3663SOL    HW111888   1.631   2.118   0.316
 3663SOL    HW211889   1.591   2.129   0.158
 3664SOL     OW11890   5.018   1.425   0.403
 3664SOL    HW111891   5.020   1.465   0.495
 3664SOL    HW211892   5.012   1.326   0.410
 3665SOL     OW11893   0.601   6.883   5.019
 3665SOL    HW111894   0.633   6.968   5.059
 3665SOL    HW211895   0.501   6.883   5.015
 3666SOL     OW11896   1.492   4.480   3.946
 3666SOL    HW111897   1.413   4.420   3.933
 3666SOL    HW211898   1.567   4.428   3.989
 3667SOL     OW11899   6.345   0.711   6.521
 3667SOL    HW111900   6.345   0.699   6.421
 3667SOL    HW211901   6.439   0.713   6.554
 3668SOL     OW11902   1.304   0.038   2.915
 3668SOL    HW111903   1.346   0.124   2.885
 3668SOL    HW211904   1.312   0.031   3.015
 3669SOL     OW11905   6.012   2.041   4.467
 3669SOL    HW111906   6.072   2.120   4.484
 3669SOL    HW211907   6.067   1.964   4.437
 3670SOL     OW11908   1.961   5.380   0.128
 3670SOL    HW111909   1.911   5.415   0.049
 3670SOL    HW211910   1.901   5.378   0.207
 3671SOL     OW11911   0.271   0.636   3.463
 3671SOL    HW111912   0.189   0.601   3.417
 3671SOL    HW211913   0.258   0.732   3.486
 3672SOL     OW11914   6.478   2.309   0.505
 3672SOL    HW111915   6.427   2.287   0.422
 3672SOL    HW211916   6.502   2.406   0.505
 3673SOL     OW11917   4.428   1.171   6.681
 3673SOL    HW111918   4.342   1.210   6.648
 3673SOL    HW211919   4.451   1.091   6.625
 3674SOL     OW11920   0.288   6.709   6.910
 3674SOL    HW111921   0.214   6.660   6.864
 3674SOL    HW211922   0.368   6.713   6.851
 3675SOL     OW11923   1.585   2.661   5.949
 3675SOL    HW111924   1.670   2.612   5.930
 3675SOL    HW211925   1.517   2.598   5.985
 3676SOL     OW11926   3.620   5.075   4.203
 3676SOL    HW111927   3.520   5.077   4.193
 3676SOL    HW211928   3.660   5.030   4.123
 3677SOL     OW11929   0.101   0.064   2.948
 3677SOL    HW111930   0.005   0.089   2.961
 3677SOL    HW211931   0.143   0.126   2.882
 3678SOL     OW11932   1.824   2.545   3.879
 3678SOL    HW111933   1.818   2.458   3.928
 3678SOL    HW211934   1.917   2.581   3.886
 3679SOL     OW11935   0.580   1.181   2.539
 3679SOL    HW111936   0.490   1.219   2.521
 3679SOL    HW211937   0.589   1.093   2.493
 3680SOL     OW11938   6.174   2.866   3.791
 3680SOL    HW111939   6.174   2.894   3.695
 3680SOL    HW211940   6.237   2.924   3.843
 3681SOL     OW11941   1.022   0.407   6.076
 3681SOL    HW111942   1.056   0.347   6.148
 3681SOL    HW211943   0.946   0.362   6.028
 3682SOL     OW11944   6.726   1.567   5.421
 3682SOL    HW111945   6.743   1.643   5.483
 3682SOL    HW211946   6.637   1.579   5.377
 3683SOL     OW11947   6.171   6.383   4.718
 3683SOL    HW111948   6.179   6.310   4.787
 3683SOL    HW211949   6.076   6.412   4.711
 3684SOL     OW11950   1.972   3.075   1.715
 3684SOL    HW111951   2.047   3.139   1.734
 3684SOL    HW211952   2.007   3.000   1.659
 3685SOL     OW11953   6.365   5.895   6.195
 3685SOL    HW111954   6.321   5.923   6.280
 3685SOL    HW211955   6.461   5.875   6.212
 3686SOL     OW11956   6.075   4.830   2.381
 3686SOL    HW111957   5.988   4.864   2.347
 3686SOL    HW211958   6.139   4.818   2.305
 3687SOL     OW11959   2.639   6.660   6.751
 3687SOL    HW111960   2.637   6.603   6.833
 3687SOL    HW211961   2.573   6.734   6.760
 3688SOL     OW11962   0.933   3.473   0.197
 3688SOL    HW111963   0.974   3.427   0.119
 3688SOL    HW211964   1.005   3.495   0.264
 3689SOL     OW11965   1.838   1.166   5.283
 3689SOL    HW111966   1.849   1.264   5.267
 3689SOL    HW211967   1.752   1.151   5.332
 3690SOL     OW11968   5.120   0.694   5.834
 3690SOL    HW111969   5.039   0.750   5.819
 3690SOL    HW211970   5.200   0.740   5.797
 3691SOL     OW11971   2.857   3.726   6.982
 3691SOL    HW111972   2.879   3.635   6.945
 3691SOL    HW211973   2.918   3.746   0.039
 3692SOL     OW11974   1.007   5.950   4.872
 3692SOL    HW111975   0.945   6.007   4.818
 3692SOL    HW211976   0.991   5.854   4.851
 3693SOL     OW11977   2.390   2.301   3.556
 3693SOL    HW111978   2.386   2.245   3.473
 3693SOL    HW211979   2.303   2.348   3.568
 3694SOL     OW11980   0.659   5.893   3.192
 3694SOL    HW111981   0.699   5.888   3.284
 3694SOL    HW211982   0.580   5.832   3.187
 3695SOL     OW11983   1.596   2.009   2.671
 3695SOL    HW111984   1.510   2.060   2.664
 3695SOL    HW211985   1.651   2.045   2.746
 3696SOL     OW11986   4.374   6.154   5.317
 3696SOL    HW111987   4.384   6.174   5.219
 3696SOL    HW211988   4.437   6.210   5.369
 3697SOL     OW11989   6.762   7.013   3.508
 3697SOL    HW111990   6.761   6.923   3.552
 3697SOL    HW211991   6.829   7.012   3.434
 3698SOL     OW11992   3.414   0.670   5.212
 3698SOL    HW111993   3.352   0.656   5.135
 3698SOL    HW211994   3.362   0.706   5.289
 3699SOL     OW11995   0.021   3.280   2.829
 3699SOL    HW111996   0.060   3.250   2.916
 3699SOL    HW211997   0.088   3.266   2.756
 3700SOL     OW11998   6.174   7.000   4.297
 3700SOL    HW111999   6.138   6.907   4.285
 3700SOL    HW212000   6.180   0.024   4.207
 3701SOL     OW12001   6.954   0.869   3.902
 3701SOL    HW112002   6.951   0.808   3.822
 3701SOL    HW212003   6.909   0.955   3.881
 3702SOL     OW12004   4.045   0.291   1.657
 3702SOL    HW112005   4.096   0.205   1.650
 3702SOL    HW212006   4.042   0.320   1.753
 3703SOL     OW12007   4.251   4.322   6.010
 3703SOL    HW112008   4.341   4.365   6.009
 3703SOL    HW212009   4.181   4.394   6.015
 3704SOL     OW12010   2.972   1.151   2.532
 3704SOL    HW112011   2.883   1.126   2.570
 3704SOL    HW212012   3.002   1.237   2.572
 3705SOL     OW12013   4.856   0.593   4.159
 3705SOL    HW112014   4.814   0.535   4.229
 3705SOL    HW212015   4.816   0.684   4.163
 3706SOL     OW12016   1.739   3.066   4.476
 3706SOL    HW112017   1.776   3.158   4.464
 3706SOL    HW212018   1.725   3.048   4.573
 3707SOL     OW12019   5.165   2.099   5.751
 3707SOL    HW112020   5.078   2.051   5.761
 3707SOL    HW212021   5.228   2.069   5.823
 3708SOL     OW12022   6.298   0.497   7.005
 3708SOL    HW112023   6.270   0.540   6.920
 3708SOL    HW212024   6.390   0.459   6.994
 3709SOL     OW12025   4.185   0.470   5.916
 3709SOL    HW112026   4.255   0.521   5.866
 3709SOL    HW212027   4.122   0.535   5.959
 3710SOL     OW12028   6.560   5.480   0.295
 3710SOL    HW112029   6.495   5.528   0.354
 3710SOL    HW212030   6.552   5.515   0.201
 3711SOL     OW12031   0.582   6.281   2.347
 3711SOL    HW112032   0.482   6.273   2.350
 3711SOL    HW212033   0.617   6.288   2.440
 3712SOL     OW12034   0.566   6.513   6.722
 3712SOL    HW112035   0.558   6.524   6.821
 3712SOL    HW212036   0.655   6.547   6.692
 3713SOL     OW12037   2.473   5.907   4.745
 3713SOL    HW112038   2.531   5.835   4.708
 3713SOL    HW212039   2.502   5.995   4.707
 3714SOL     OW12040   4.555   0.103   4.213
 3714SOL    HW112041   4.543   0.185   4.156
 3714SOL    HW212042   4.471   0.049   4.212
 3715SOL     OW12043   5.731   5.070   4.037
 3715SOL    HW112044   5.718   5.073   4.136
 3715SOL    HW212045   5.784   5.150   4.008
 3716SOL     OW12046   6.368   0.298   4.559
 3716SOL    HW112047   6.423   0.343   4.488
 3716SOL    HW212048   6.363   0.200   4.541
 3717SOL     OW12049   6.301   5.709   1.006
 3717SOL    HW112050   6.337   5.702   1.099
 3717SOL    HW212051   6.377   5.727   0.943
 3718SOL     OW12052   1.177   6.770   7.003
 3718SOL    HW112053   1.100   6.780   6.940
 3718SOL    HW212054   1.217   6.860   7.020
 3719SOL     OW12055   5.110   4.872   0.106
 3719SOL    HW112056   5.104   4.919   0.194
 3719SOL    HW212057   5.126   4.774   0.122
 3720SOL     OW12058   6.680   1.773   6.564
 3720SOL    HW112059   6.756   1.718   6.600
 3720SOL    HW212060   6.594   1.733   6.595
 3721SOL     OW12061   6.429   4.757   6.844
 3721SOL    HW112062   6.527   4.748   6.829
 3721SOL    HW212063   6.391   4.822   6.778
 3722SOL     OW12064   6.986   5.899   2.746
 3722SOL    HW112065   0.030   5.863   2.678
 3722SOL    HW212066   6.915   5.952   2.699
 3723SOL     OW12067   5.833   6.671   1.944
 3723SOL    HW112068   5.757   6.623   1.900
 3723SOL    HW212069   5.910   6.608   1.956
 3724SOL     OW12070   0.859   5.143   0.412
 3724SOL    HW112071   0.766   5.178   0.399
 3724SOL    HW212072   0.878   5.072   0.345
 3725SOL     OW12073   6.496   6.469   6.800
 3725SOL    HW112074   6.511   6.460   6.702
 3725SOL    HW212075   6.422   6.534   6.817
 3726SOL     OW12076   6.252   3.819   1.810
 3726SOL    HW112077   6.241   3.880   1.888
 3726SOL    HW212078   6.170   3.824   1.753
 3727SOL     OW12079   0.819   2.948   4.997
 3727SOL    HW112080   0.818   3.047   4.983
 3727SOL    HW212081   0.913   2.914   4.990
 3728SOL     OW12082   2.126   3.075   0.730
 3728SOL    HW112083   2.060   3.074   0.655
 3728SOL    HW212084   2.202   3.135   0.707
 3729SOL     OW12085   0.885   2.246   2.832
 3729SOL    HW112086   0.901   2.193   2.915
 3729SOL    HW212087   0.929   2.201   2.754
 3730SOL     OW12088   3.254   0.592   6.954
 3730SOL    HW112089   3.258   0.671   6.893
 3730SOL    HW212090   3.159   0.575   6.980
 3731SOL     OW12091   4.597   1.690   1.206
 3731SOL    HW112092   4.684   1.696   1.254
 3731SOL    HW212093   4.543   1.772   1.223
 3732SOL     OW12094   2.191   3.353   5.773
 3732SOL    HW112095   2.170   3.311   5.861
 3732SOL    HW212096   2.184   3.452   5.780
 3733SOL     OW12097   2.637   3.905   1.401
 3733SOL    HW112098   2.674   3.818   1.369
 3733SOL    HW212099   2.689   3.935   1.481
 3734SOL     OW12100   4.491   1.307   2.506
 3734SOL    HW112101   4.521   1.361   2.584
 3734SOL    HW212102   4.525   1.214   2.514
 3735SOL     OW12103   1.729   2.452   2.848
 3735SOL    HW112104   1.672   2.461   2.930
 3735SOL    HW212105   1.788   2.533   2.840
 3736SOL     OW12106   6.906   2.886   0.808
 3736SOL    HW112107   6.837   2.953   0.837
 3736SOL    HW212108   6.863   2.797   0.794
 3737SOL     OW12109   5.074   0.289   2.650
 3737SOL    HW112110   5.074   0.300   2.749
 3737SOL    HW212111   5.155   0.239   2.621
 3738SOL     OW12112   6.229   6.151   3.528
 3738SOL    HW112113   6.214   6.248   3.511
 3738SOL    HW212114   6.155   6.114   3.585
 3739SOL     OW12115   1.629   3.875   2.440
 3739SOL    HW112116   1.609   3.835   2.529
 3739SOL    HW212117   1.725   3.857   2.417
 3740SOL     OW12118   5.053   1.155   0.033
 3740SOL    HW112119   5.033   1.079   6.991
 3740SOL    HW212120   4.972   1.174   0.089
 3741SOL     OW12121   4.197   3.547   0.875
 3741SOL    HW112122   4.282   3.534   0.927
 3741SOL    HW212123   4.203   3.497   0.788
 3742SOL     OW12124   3.330   1.817   5.842
 3742SOL    HW112125   3.380   1.764   5.774
 3742SOL    HW212126   3.335   1.914   5.819
 3743SOL     OW12127   6.664   5.236   0.326
 3743SOL    HW112128   6.717   5.232   0.411
 3743SOL    HW212129   6.638   5.331   0.308
 3744SOL     OW12130   0.282   5.102   3.859
 3744SOL    HW112131   0.216   5.155   3.805
 3744SOL    HW212132   0.295   5.146   3.948
 3745SOL     OW12133   3.507   5.403   2.697
 3745SOL    HW112134   3.460   5.454   2.624
 3745SOL    HW212135   3.576   5.461   2.740
 3746SOL     OW12136   4.601   1.979   1.511
 3746SOL    HW112137   4.673   2.011   1.573
 3746SOL    HW212138   4.604   1.880   1.504
 3747SOL     OW12139   3.299   6.773   0.024
 3747SOL    HW112140   3.242   6.830   0.083
 3747SOL    HW212141   3.393   6.774   0.059
 3748SOL     OW12142   6.185   1.042   1.198
 3748SOL    HW112143   6.229   1.129   1.221
 3748SOL    HW212144   6.216   1.011   1.108
 3749SOL     OW12145   1.228   0.008   3.919
 3749SOL    HW112146   1.187   0.093   3.887
 3749SOL    HW212147   1.205   7.014   4.015
 3750SOL     OW12148   0.072   3.776   0.350
 3750SOL    HW112149   0.109   3.866   0.329
 3750SOL    HW212150   0.071   3.720   0.267
 3751SOL     OW12151   0.118   4.056   3.101
 3751SOL    HW112152   0.186   3.993   3.063
 3751SOL    HW212153   0.062   4.007   3.168
 3752SOL     OW12154   5.902   1.284   5.800
 3752SOL    HW112155   5.928   1.190   5.820
 3752SOL    HW212156   5.964   1.346   5.849
 3753SOL     OW12157   6.212   1.207   3.955
 3753SOL    HW112158   6.296   1.190   4.007
 3753SOL    HW212159   6.213   1.300   3.919
 3754SOL     OW12160   2.221   1.573   2.240
 3754SOL    HW112161   2.163   1.533   2.311
 3754SOL    HW212162   2.186   1.547   2.150
 3755SOL     OW12163   2.937   4.807   4.083
 3755SOL    HW112164   2.898   4.734   4.139
 3755SOL    HW212165   2.873   4.829   4.009
 3756SOL     OW12166   2.307   6.089   0.482
 3756SOL    HW112167   2.287   6.018   0.415
 3756SOL    HW212168   2.398   6.127   0.465
 3757SOL     OW12169   6.591   4.401   1.748
 3757SOL    HW112170   6.508   4.449   1.777
 3757SOL    HW212171   6.614   4.331   1.817
 3758SOL     OW12172   1.830   0.481   3.435
 3758SOL    HW112173   1.918   0.447   3.401
 3758SOL    HW212174   1.756   0.435   3.386
 3759SOL     OW12175   5.335   0.219   4.224
 3759SOL    HW112176   5.426   0.215   4.266
 3759SOL    HW212177   5.270   0.168   4.281
 3760SOL     OW12178   6.725   0.707   3.940
 3760SOL    HW112179   6.711   0.639   3.868
 3760SOL    HW212180   6.807   0.761   3.919
 3761SOL     OW12181   5.369   1.182   4.459
 3761SOL    HW112182   5.353   1.087   4.488
 3761SOL    HW212183   5.293   1.239   4.489
 3762SOL     OW12184   1.018   3.987   2.690
 3762SOL    HW112185   0.959   3.906   2.687
 3762SOL    HW212186   1.080   3.986   2.612
 3763SOL     OW12187   0.069   4.295   0.301
 3763SOL    HW112188   0.029   4.332   0.218
 3763SOL    HW212189   0.166   4.278   0.287
 3764SOL     OW12190   1.640   0.398   3.278
 3764SOL    HW112191   1.628   0.314   3.225
 3764SOL    HW212192   1.659   0.474   3.216
 3765SOL     OW12193   6.016   1.676   1.471
 3765SOL    HW112194   5.934   1.630   1.505
 3765SOL    HW212195   6.041   1.640   1.381
 3766SOL     OW12196   1.750   3.580   3.721
 3766SOL    HW112197   1.765   3.489   3.682
 3766SOL    HW212198   1.829   3.638   3.700
 3767SOL     OW12199   2.984   4.554   6.182
 3767SOL    HW112200   3.045   4.483   6.217
 3767SOL    HW212201   2.904   4.512   6.140
 3768SOL     OW12202   1.450   0.182   5.125
 3768SOL    HW112203   1.351   0.182   5.112
 3768SOL    HW212204   1.480   0.091   5.153
 3769SOL     OW12205   4.655   5.926   4.743
 3769SOL    HW112206   4.735   5.986   4.744
 3769SOL    HW212207   4.641   5.891   4.650
 3770SOL     OW12208   0.947   1.527   0.488
 3770SOL    HW112209   0.977   1.437   0.522
 3770SOL    HW212210   0.982   1.542   0.396
 3771SOL     OW12211   0.188   4.551   0.529
 3771SOL    HW112212   0.236   4.467   0.554
 3771SOL    HW212213   0.191   4.615   0.605
 3772SOL     OW12214   1.291   6.238   0.491
 3772SOL    HW112215   1.350   6.214   0.414
 3772SOL    HW212216   1.197   6.210   0.470
 3773SOL     OW12217   5.954   3.078   5.933
 3773SOL    HW112218   5.941   2.982   5.959
 3773SOL    HW212219   5.979   3.131   6.013
 3774SOL     OW12220   5.438   6.206   1.641
 3774SOL    HW112221   5.524   6.245   1.674
 3774SOL    HW212222   5.458   6.141   1.568
 3775SOL     OW12223   3.983   4.927   3.232
 3775SOL    HW112224   4.069   4.878   3.238
 3775SOL    HW212225   3.937   4.926   3.321
 3776SOL     OW12226   3.383   2.857   6.750
 3776SOL    HW112227   3.309   2.921   6.773
 3776SOL    HW212228   3.441   2.843   6.830
 3777SOL     OW12229   2.860   6.015   4.660
 3777SOL    HW112230   2.771   6.057   4.640
 3777SOL    HW212231   2.851   5.916   4.658
 3778SOL     OW12232   3.251   5.585   4.865
 3778SOL    HW112233   3.179   5.517   4.878
 3778SOL    HW212234   3.228   5.644   4.788
 3779SOL     OW12235   0.252   5.183   0.347
 3779SOL    HW112236   0.286   5.185   0.442
 3779SOL    HW212237   0.272   5.271   0.304
 3780SOL     OW12238   6.690   2.822   1.289
 3780SOL    HW112239   6.709   2.917   1.265
 3780SOL    HW212240   6.775   2.769   1.284
 3781SOL     OW12241   2.029   6.331   5.242
 3781SOL    HW112242   2.019   6.251   5.301
 3781SOL    HW212243   2.118   6.328   5.197
 3782SOL     OW12244   4.817   6.120   1.497
 3782SOL    HW112245   4.788   6.136   1.591
 3782SOL    HW212246   4.915   6.138   1.488
 3783SOL     OW12247   5.425   5.086   6.017
 3783SOL    HW112248   5.483   5.005   6.027
 3783SOL    HW212249   5.460   5.160   6.074
 3784SOL     OW12250   5.416   2.535   3.783
 3784SOL    HW112251   5.481   2.464   3.756
 3784SOL    HW212252   5.392   2.590   3.703
 3785SOL     OW12253   0.990   3.770   4.742
 3785SOL    HW112254   0.955   3.691   4.691
 3785SOL    HW212255   0.920   3.841   4.745
 3786SOL     OW12256   2.313   2.437   4.463
 3786SOL    HW112257   2.375   2.449   4.386
 3786SOL    HW212258   2.277   2.343   4.462
 3787SOL     OW12259   4.327   0.182   3.166
 3787SOL    HW112260   4.353   0.275   3.141
 3787SOL    HW212261   4.330   0.172   3.265
 3788SOL     OW12262   0.188   2.969   5.256
 3788SOL    HW112263   0.124   2.995   5.328
 3788SOL    HW212264   0.183   2.870   5.241
 3789SOL     OW12265   1.706   2.725   2.599
 3789SOL    HW112266   1.804   2.728   2.576
 3789SOL    HW212267   1.695   2.731   2.699
 3790SOL     OW12268   0.562   6.911   0.576
 3790SOL    HW112269   0.558   6.981   0.504
 3790SOL    HW212270   0.623   6.943   0.648
 3791SOL     OW12271   5.733   0.765   5.678
 3791SOL    HW112272   5.713   0.826   5.601
 3791SOL    HW212273   5.656   0.704   5.693
 3792SOL     OW12274   0.594   0.997   3.882
 3792SOL    HW112275   0.688   1.029   3.895
 3792SOL    HW212276   0.583   0.965   3.788
 3793SOL     OW12277   6.461   6.385   0.455
 3793SOL    HW112278   6.537   6.444   0.482
 3793SOL    HW212279   6.426   6.416   0.366
 3794SOL     OW12280   2.172   4.089   0.812
 3794SOL    HW112281   2.187   4.080   0.911
 3794SOL    HW212282   2.147   4.183   0.791
 3795SOL     OW12283   2.473   5.643   1.063
 3795SOL    HW112284   2.425   5.722   1.101
 3795SOL    HW212285   2.563   5.635   1.106
 3796SOL     OW12286   3.997   1.810   0.112
 3796SOL    HW112287   3.901   1.791   0.133
 3796SOL    HW212288   4.001   1.875   0.036
 3797SOL     OW12289   0.799   4.335   3.199
 3797SOL    HW112290   0.825   4.254   3.252
 3797SOL    HW212291   0.850   4.414   3.233
 3798SOL     OW12292   2.480   6.214   3.136
 3798SOL    HW112293   2.478   6.119   3.104
 3798SOL    HW212294   2.523   6.271   3.067
 3799SOL     OW12295   6.662   2.544   3.106
 3799SOL    HW112296   6.717   2.597   3.171
 3799SOL    HW212297   6.709   2.542   3.018
 3800SOL     OW12298   5.461   1.862   3.191
 3800SOL    HW112299   5.416   1.779   3.158
 3800SOL    HW212300   5.552   1.840   3.227
 3801SOL     OW12301   5.389   0.187   2.243
 3801SOL    HW112302   5.371   0.091   2.222
 3801SOL    HW212303   5.487   0.203   2.246
 3802SOL     OW12304   6.261   1.892   1.855
 3802SOL    HW112305   6.235   1.797   1.838
 3802SOL    HW212306   6.355   1.895   1.890
 3803SOL     OW12307   2.944   3.535   4.126
 3803SOL    HW112308   2.947   3.518   4.027
 3803SOL    HW212309   2.958   3.632   4.143
 3804SOL     OW12310   3.551   0.151   4.674
 3804SOL    HW112311   3.634   0.095   4.679
 3804SOL    HW212312   3.520   0.157   4.579
 3805SOL     OW12313   2.177   3.221   0.265
 3805SOL    HW112314   2.085   3.183   0.274
 3805SOL    HW212315   2.244   3.148   0.271
 3806SOL     OW12316   4.373   4.371   6.712
 3806SOL    HW112317   4.363   4.388   6.810
 3806SOL    HW212318   4.431   4.290   6.698
 3807SOL     OW12319   1.100   4.992   3.827
 3807SOL    HW112320   1.092   5.088   3.856
 3807SOL    HW212321   1.142   4.938   3.899
 3808SOL     OW12322   4.701   6.645   6.286
 3808SOL    HW112323   4.602   6.659   6.291
 3808SOL    HW212324   4.729   6.637   6.191
 3809SOL     OW12325   5.335   1.852   1.423
 3809SOL    HW112326   5.387   1.919   1.476
 3809SOL    HW212327   5.333   1.765   1.473
 3810SOL     OW12328   6.440   2.385   2.403
 3810SOL    HW112329   6.402   2.392   2.311
 3810SOL    HW212330   6.386   2.320   2.456
 3811SOL     OW12331   6.872   5.472   5.084
 3811SOL    HW112332   6.854   5.414   5.005
 3811SOL    HW212333   6.904   5.562   5.054
 3812SOL     OW12334   3.840   6.039   7.003
 3812SOL    HW112335   3.787   5.980   0.044
 3812SOL    HW212336   3.937   6.034   0.008
 3813SOL     OW12337   6.818   3.537   1.029
 3813SOL    HW112338   6.854   3.499   1.115
 3813SOL    HW212339   6.718   3.533   1.030
 3814SOL     OW12340   6.664   0.141   4.504
 3814SOL    HW112341   6.612   0.081   4.565
 3814SOL    HW212342   6.685   0.227   4.551
 3815SOL     OW12343   4.522   3.187   0.370
 3815SOL    HW112344   4.487   3.133   0.447
 3815SOL    HW212345   4.617   3.161   0.352
 3816SOL     OW12346   1.378   5.989   5.598
 3816SOL    HW112347   1.416   5.903   5.631
 3816SOL    HW212348   1.417   6.011   5.509
 3817SOL     OW12349   4.907   3.377   2.392
 3817SOL    HW112350   5.006   3.367   2.393
 3817SOL    HW212351   4.881   3.441   2.320
 3818SOL     OW12352   0.440   0.959   2.123
 3818SOL    HW112353   0.406   0.930   2.213
 3818SOL    HW212354   0.518   1.022   2.136
 3819SOL     OW12355   6.375   4.509   3.314
 3819SOL    HW112356   6.332   4.586   3.266
 3819SOL    HW212357   6.461   4.539   3.355
 3820SOL     OW12358   5.510   6.598   4.235
 3820SOL    HW112359   5.591   6.658   4.239
 3820SOL    HW212360   5.436   6.639   4.288
 3821SOL     OW12361   0.727   6.827   6.728
 3821SOL    HW112362   0.627   6.840   6.729
 3821SOL    HW212363   0.761   6.826   6.822
 3822SOL     OW12364   3.725   1.068   6.739
 3822SOL    HW112365   3.680   1.071   6.829
 3822SOL    HW212366   3.742   0.972   6.714
 3823SOL     OW12367   4.940   4.903   6.220
 3823SOL    HW112368   4.861   4.909   6.159
 3823SOL    HW212369   4.989   4.991   6.219
 3824SOL     OW12370   1.779   3.317   0.200
 3824SOL    HW112371   1.728   3.351   0.121
 3824SOL    HW212372   1.714   3.284   0.269
 3825SOL     OW12373   1.369   4.064   6.746
 3825SOL    HW112374   1.441   4.120   6.705
 3825SOL    HW212375   1.331   4.002   6.676
 3826SOL     OW12376   6.299   4.271   1.853
 3826SOL    HW112377   6.210   4.281   1.898
 3826SOL    HW212378   6.334   4.362   1.830
 3827SOL     OW12379   0.603   1.025   1.370
 3827SOL    HW112380   0.611   1.113   1.323
 3827SOL    HW212381   0.694   0.995   1.400
 3828SOL     OW12382   3.608   3.946   4.792
 3828SOL    HW112383   3.677   3.958   4.721
 3828SOL    HW212384   3.606   3.850   4.821
 3829SOL     OW12385   7.017   4.822   2.326
 3829SOL    HW112386   0.091   4.823   2.361
 3829SOL    HW212387   6.953   4.836   2.402
 3830SOL     OW12388   0.517   0.488   5.003
 3830SOL    HW112389   0.546   0.569   4.952
 3830SOL    HW212390   0.596   0.450   5.052
 3831SOL     OW12391   4.752   1.497   3.198
 3831SOL    HW112392   4.757   1.588   3.157
 3831SOL    HW212393   4.721   1.432   3.129
 3832SOL     OW12394   0.552   0.557   2.334
 3832SOL    HW112395   0.546   0.592   2.241
 3832SOL    HW212396   0.624   0.487   2.339
 3833SOL     OW12397   1.397   6.875   6.257
 3833SOL    HW112398   1.321   6.890   6.194
 3833SOL    HW212399   1.482   6.871   6.205
 3834SOL     OW12400   4.718   4.076   1.034
 3834SOL    HW112401   4.759   4.143   0.972
 3834SOL    HW212402   4.686   3.997   0.980
 3835SOL     OW12403   3.385   5.838   5.397
 3835SOL    HW112404   3.472   5.821   5.352
 3835SOL    HW212405   3.386   5.798   5.489
 3836SOL     OW12406   0.490   5.569   6.562
 3836SOL    HW112407   0.505   5.639   6.491
 3836SOL    HW212408   0.523   5.603   6.650
 3837SOL     OW12409   3.987   4.777   5.353
 3837SOL    HW112410   3.968   4.735   5.442
 3837SOL    HW212411   3.923   4.852   5.337
 3838SOL     OW12412   1.937   0.854   3.298
 3838SOL    HW112413   1.842   0.833   3.322
 3838SOL    HW212414   1.960   0.945   3.332
 3839SOL     OW12415   4.588   0.072   3.305
 3839SOL    HW112416   4.620   0.146   3.245
 3839SOL    HW212417   4.501   0.099   3.347
 3840SOL     OW12418   2.545   0.479   0.080
 3840SOL    HW112419   2.473   0.426   0.034
 3840SOL    HW212420   2.585   0.542   0.014
 3841SOL     OW12421   6.736   4.852   4.311
 3841SOL    HW112422   6.692   4.800   4.384
 3841SOL    HW212423   6.680   4.931   4.287
 3842SOL     OW12424   2.362   2.793   4.811
 3842SOL    HW112425   2.391   2.851   4.887
 3842SOL    HW212426   2.263   2.801   4.799
 3843SOL     OW12427   4.948   3.004   0.787
 3843SOL    HW112428   4.857   3.044   0.782
 3843SOL    HW212429   5.002   3.033   0.708
 3844SOL     OW12430   1.404   5.178   0.391
 3844SOL    HW112431   1.391   5.243   0.317
 3844SOL    HW212432   1.360   5.092   0.368
 3845SOL     OW12433   1.848   5.753   0.218
 3845SOL    HW112434   1.832   5.765   0.316
 3845SOL    HW212435   1.941   5.721   0.202
 3846SOL     OW12436   0.880   3.296   4.455
 3846SOL    HW112437   0.891   3.233   4.377
 3846SOL    HW212438   0.783   3.315   4.469
 3847SOL     OW12439   5.594   1.635   4.841
 3847SOL    HW112440   5.631   1.604   4.929
 3847SOL    HW212441   5.549   1.558   4.795
 3848SOL     OW12442   4.949   3.002   2.596
 3848SOL    HW112443   4.904   3.043   2.517
 3848SOL    HW212444   4.977   2.908   2.573
 3849SOL     OW12445   0.647   6.349   5.921
 3849SOL    HW112446   0.717   6.407   5.961
 3849SOL    HW212447   0.618   6.387   5.833
 3850SOL     OW12448   2.862   2.630   1.515
 3850SOL    HW112449   2.771   2.670   1.522
 3850SOL    HW212450   2.897   2.641   1.421
 3851SOL     OW12451   0.294   5.220   3.363
 3851SOL    HW112452   0.233   5.153   3.405
 3851SOL    HW212453   0.331   5.280   3.433
 3852SOL     OW12454   2.878   6.837   4.403
 3852SOL    HW112455   2.787   6.848   4.442
 3852SOL    HW212456   2.891   6.742   4.374
 3853SOL     OW12457   2.129   1.556   4.019
 3853SOL    HW112458   2.159   1.528   4.110
 3853SOL    HW212459   2.040   1.514   3.999
 3854SOL     OW12460   1.481   2.995   2.723
 3854SOL    HW112461   1.415   3.050   2.773
 3854SOL    HW212462   1.464   2.898   2.741
 3855SOL     OW12463   4.488   6.458   0.357
 3855SOL    HW112464   4.574   6.440   0.309
 3855SOL    HW212465   4.506   6.500   0.446
 3856SOL     OW12466   0.324   1.947   6.427
 3856SOL    HW112467   0.363   1.978   6.514
 3856SOL    HW212468   0.323   2.023   6.362
 3857SOL     OW12469   2.420   6.748   5.998
 3857SOL    HW112470   2.355   6.689   5.950
 3857SOL    HW212471   2.486   6.692   6.048
 3858SOL     OW12472   3.884   1.282   5.470
 3858SOL    HW112473   3.935   1.355   5.515
 3858SOL    HW212474   3.812   1.321   5.412
 3859SOL     OW12475   5.726   0.919   0.963
 3859SOL    HW112476   5.670   0.988   1.008
 3859SOL    HW212477   5.668   0.846   0.927
 3860SOL     OW12478   1.758   0.608   4.710
 3860SOL    HW112479   1.820   0.571   4.640
 3860SOL    HW212480   1.774   0.706   4.720
 3861SOL     OW12481   4.113   5.846   2.710
 3861SOL    HW112482   4.190   5.903   2.680
 3861SOL    HW212483   4.064   5.892   2.784
 3862SOL     OW12484   0.537   0.544   4.114
 3862SOL    HW112485   0.503   0.505   4.028
 3862SOL    HW212486   0.459   0.572   4.170
 3863SOL     OW12487   5.448   0.819   0.138
 3863SOL    HW112488   5.404   0.863   0.060
 3863SOL    HW212489   5.475   0.889   0.205
 3864SOL     OW12490   2.696   0.591   5.129
 3864SOL    HW112491   2.645   0.664   5.085
 3864SOL    HW212492   2.653   0.503   5.109
 3865SOL     OW12493   4.824   0.992   0.248
 3865SOL    HW112494   4.831   1.091   0.236
 3865SOL    HW212495   4.886   0.946   0.184
 3866SOL     OW12496   3.690   1.709   6.826
 3866SOL    HW112497   3.761   1.680   6.762
 3866SOL    HW212498   3.632   1.630   6.849
 3867SOL     OW12499   1.252   4.796   3.039
 3867SOL    HW112500   1.345   4.777   3.069
 3867SOL    HW212501   1.230   4.738   2.960
 3868SOL     OW12502   3.973   0.571   6.444
 3868SOL    HW112503   4.009   0.664   6.435
 3868SOL    HW212504   3.948   0.555   6.539
 3869SOL     OW12505   6.666   3.489   4.097
 3869SOL    HW112506   6.643   3.424   4.169
 3869SOL    HW212507   6.599   3.481   4.023
 3870SOL     OW12508   6.673   6.746   2.611
 3870SOL    HW112509   6.621   6.687   2.673
 3870SOL    HW212510   6.628   6.835   2.603
 3871SOL     OW12511   3.043   6.859   3.532
 3871SOL    HW112512   3.102   6.923   3.482
 3871SOL    HW212513   3.078   6.848   3.625
 3872SOL     OW12514   3.323   2.890   3.762
 3872SOL    HW112515   3.291   2.795   3.759
 3872SOL    HW212516   3.259   2.945   3.817
 3873SOL     OW12517   5.110   4.144   0.728
 3873SOL    HW112518   5.183   4.110   0.669
 3873SOL    HW212519   5.037   4.075   0.733
 3874SOL     OW12520   4.234   0.432   0.321
 3874SOL    HW112521   4.246   0.341   0.359
 3874SOL    HW212522   4.318   0.461   0.276
 3875SOL     OW12523   2.143   3.167   3.991
 3875SOL    HW112524   2.120   3.179   4.087
 3875SOL    HW212525   2.063   3.134   3.941
 3876SOL     OW12526   3.692   5.661   0.553
 3876SOL    HW112527   3.756   5.617   0.616
 3876SOL    HW212528   3.740   5.731   0.501
 3877SOL     OW12529   6.365   2.229   0.743
 3877SOL    HW112530   6.422   2.278   0.677
 3877SOL    HW212531   6.393   2.133   0.747
 3878SOL     OW12532   4.816   6.564   4.463
 3878SOL    HW112533   4.814   6.591   4.559
 3878SOL    HW212534   4.737   6.506   4.444
 3879SOL     OW12535   6.085   4.933   0.273
 3879SOL    HW112536   6.080   4.841   0.236
 3879SOL    HW212537   6.032   4.938   0.358
 3880SOL     OW12538   4.871   3.707   4.404
 3880SOL    HW112539   4.893   3.663   4.317
 3880SOL    HW212540   4.892   3.804   4.398
 3881SOL     OW12541   1.322   3.691   1.106
 3881SOL    HW112542   1.382   3.658   1.178
 3881SOL    HW212543   1.331   3.631   1.026
 3882SOL     OW12544   1.677   1.281   0.037
 3882SOL    HW112545   1.722   1.366   0.010
 3882SOL    HW212546   1.681   1.215   6.982
 3883SOL     OW12547   4.627   0.785   2.689
 3883SOL    HW112548   4.571   0.761   2.611
 3883SOL    HW212549   4.713   0.826   2.657
 3884SOL     OW12550   0.522   5.738   2.946
 3884SOL    HW112551   0.602   5.682   2.969
 3884SOL    HW212552   0.474   5.765   3.029
 3885SOL     OW12553   5.860   6.380   3.351
 3885SOL    HW112554   5.940   6.379   3.292
 3885SOL    HW212555   5.876   6.440   3.429
 3886SOL     OW12556   4.624   5.738   5.554
 3886SOL    HW112557   4.594   5.823   5.509
 3886SOL    HW212558   4.544   5.689   5.588
 3887SOL     OW12559   1.056   6.787   0.274
 3887SOL    HW112560   1.144   6.799   0.320
 3887SOL    HW212561   1.037   6.866   0.215
 3888SOL     OW12562   6.157   6.171   4.894
 3888SOL    HW112563   6.078   6.204   4.946
 3888SOL    HW212564   6.226   6.135   4.957
 3889SOL     OW12565   6.380   2.518   6.887
 3889SOL    HW112566   6.293   2.481   6.919
 3889SOL    HW212567   6.383   2.616   6.904
 3890SOL     OW12568   5.340   4.512   3.829
 3890SOL    HW112569   5.407   4.437   3.833
 3890SOL    HW212570   5.377   4.587   3.774
 3891SOL     OW12571   4.960   3.768   3.612
 3891SOL    HW112572   4.946   3.671   3.631
 3891SOL    HW212573   5.057   3.785   3.595
 3892SOL     OW12574   0.455   2.993   1.361
 3892SOL    HW112575   0.514   2.971   1.283
 3892SOL    HW212576   0.360   2.976   1.337
 3893SOL     OW12577   4.041   3.966   1.353
 3893SOL    HW112578   4.098   4.047   1.338
 3893SOL    HW212579   4.074   3.917   1.433
 3894SOL     OW12580   5.484   0.722   6.600
 3894SOL    HW112581   5.459   0.686   6.690
 3894SOL    HW212582   5.424   0.684   6.530
 3895SOL     OW12583   1.881   0.393   5.358
 3895SOL    HW112584   1.968   0.354   5.329
 3895SOL    HW212585   1.898   0.469   5.420
 3896SOL     OW12586   0.699   0.974   6.429
 3896SOL    HW112587   0.734   0.957   6.521
 3896SOL    HW212588   0.745   1.054   6.390
 3897SOL     OW12589   4.266   5.757   2.398
 3897SOL    HW112590   4.184   5.776   2.344
 3897SOL    HW212591   4.274   5.825   2.471
 3898SOL     OW12592   3.199   2.183   6.893
 3898SOL    HW112593   3.260   2.210   6.818
 3898SOL    HW212594   3.211   2.245   6.970
 3899SOL     OW12595   4.373   6.467   6.115
 3899SOL    HW112596   4.368   6.547   6.175
 3899SOL    HW212597   4.416   6.391   6.164
 3900SOL     OW12598   4.928   2.771   4.118
 3900SOL    HW112599   4.930   2.779   4.218
 3900SOL    HW212600   5.019   2.748   4.084
 3901SOL     OW12601   3.535   0.637   6.234
 3901SOL    HW112602   3.477   0.682   6.302
 3901SOL    HW212603   3.630   0.664   6.249
 3902SOL     OW12604   6.447   2.971   2.181
 3902SOL    HW112605   6.427   2.891   2.238
 3902SOL    HW212606   6.361   3.005   2.141
 3903SOL     OW12607   3.532   6.687   0.148
 3903SOL    HW112608   3.568   6.670   0.240
 3903SOL    HW212609   3.576   6.625   0.083
 3904SOL     OW12610   1.769   0.467   6.712
 3904SOL    HW112611   1.737   0.547   6.662
 3904SOL    HW212612   1.736   0.384   6.667
 3905SOL     OW12613   6.850   6.430   5.781
 3905SOL    HW112614   6.778   6.437   5.711
 3905SOL    HW212615   6.924   6.492   5.758
 3906SOL     OW12616   5.836   6.531   6.110
 3906SOL    HW112617   5.923   6.552   6.153
 3906SOL    HW212618   5.777   6.612   6.111
 3907SOL     OW12619   5.873   0.955   4.243
 3907SOL    HW112620   5.949   0.980   4.303
 3907SOL    HW212621   5.884   1.003   4.156
 3908SOL     OW12622   0.454   2.528   0.015
 3908SOL    HW112623   0.549   2.501   0.030
 3908SOL    HW212624   0.417   2.477   6.957
 3909SOL     OW12625   5.987   5.845   4.528
 3909SOL    HW112626   5.959   5.805   4.616
 3909SOL    HW212627   6.046   5.924   4.546
 3910SOL     OW12628   3.430   3.475   2.240
 3910SOL    HW112629   3.421   3.526   2.326
 3910SOL    HW212630   3.379   3.389   2.247
 3911SOL     OW12631   5.954   1.547   5.141
 3911SOL    HW112632   6.052   1.556   5.123
 3911SOL    HW212633   5.937   1.565   5.237
 3912SOL     OW12634   5.842   0.413   5.050
 3912SOL    HW112635   5.834   0.510   5.076
 3912SOL    HW212636   5.839   0.405   4.950
 3913SOL     OW12637   2.408   6.263   6.295
 3913SOL    HW112638   2.437   6.228   6.384
 3913SOL    HW212639   2.381   6.358   6.304
 3914SOL     OW12640   3.055   1.003   1.552
 3914SOL    HW112641   3.091   0.935   1.615
 3914SOL    HW212642   3.127   1.070   1.530
 3915SOL     OW12643   5.304   6.337   1.124
 3915SOL    HW112644   5.345   6.428   1.126
 3915SOL    HW212645   5.206   6.344   1.142
 3916SOL     OW12646   0.903   0.018   3.821
 3916SOL    HW112647   0.875   0.104   3.865
 3916SOL    HW212648   0.931   6.973   3.892
 3917SOL     OW12649   6.914   6.422   6.676
 3917SOL    HW112650   6.879   6.346   6.730
 3917SOL    HW212651   6.894   6.406   6.579
 3918SOL     OW12652   5.692   5.450   1.089
 3918SOL    HW112653   5.638   5.521   1.134
 3918SOL    HW212654   5.673   5.451   0.991
 3919SOL     OW12655   4.563   6.808   0.479
 3919SOL    HW112656   4.602   6.753   0.405
 3919SOL    HW212657   4.626   6.884   0.501
 3920SOL     OW12658   2.834   3.342   0.580
 3920SOL    HW112659   2.924   3.301   0.596
 3920SOL    HW212660   2.803   3.387   0.663
 3921SOL     OW12661   6.991   3.111   1.267
 3921SOL    HW112662   7.011   3.117   1.365
 3921SOL    HW212663   7.017   3.020   1.234
 3922SOL     OW12664   6.711   3.621   1.829
 3922SOL    HW112665   6.787   3.629   1.894
 3922SOL    HW212666   6.639   3.686   1.853
 3923SOL     OW12667   0.754   1.266   0.361
 3923SOL    HW112668   0.700   1.339   0.320
 3923SOL    HW212669   0.707   1.231   0.442
 3924SOL     OW12670   5.001   5.311   3.772
 3924SOL    HW112671   4.997   5.325   3.871
 3924SOL    HW212672   5.073   5.367   3.733
 3925SOL     OW12673   1.790   5.228   1.199
 3925SOL    HW112674   1.864   5.221   1.133
 3925SOL    HW212675   1.775   5.139   1.242
 3926SOL     OW12676   5.440   5.037   1.865
 3926SOL    HW112677   5.412   4.942   1.850
 3926SOL    HW212678   5.446   5.054   1.964
 3927SOL     OW12679   6.353   2.771   4.918
 3927SOL    HW112680   6.267   2.818   4.896
 3927SOL    HW212681   6.350   2.678   4.881
 3928SOL     OW12682   3.951   5.865   6.773
 3928SOL    HW112683   3.954   5.874   6.873
 3928SOL    HW212684   4.035   5.900   6.734
 3929SOL     OW12685   0.158   0.535   4.687
 3929SOL    HW112686   0.135   0.617   4.741
 3929SOL    HW212687   0.147   0.555   4.590
 3930SOL     OW12688   2.856   2.083   4.377
 3930SOL    HW112689   2.802   2.166   4.373
 3930SOL    HW212690   2.859   2.049   4.472
 3931SOL     OW12691   1.739   1.487   1.390
 3931SOL    HW112692   1.779   1.543   1.463
 3931SOL    HW212693   1.652   1.448   1.421
 3932SOL     OW12694   0.856   4.415   3.975
 3932SOL    HW112695   0.843   4.339   3.912
 3932SOL    HW212696   0.777   4.476   3.970
 3933SOL     OW12697   1.879   6.322   6.690
 3933SOL    HW112698   1.841   6.295   6.601
 3933SOL    HW212699   1.974   6.292   6.695
 3934SOL     OW12700   0.073   1.022   0.078
 3934SOL    HW112701   7.020   1.061   0.134
 3934SOL    HW212702   0.132   1.095   0.044
 3935SOL     OW12703   2.868   6.837   6.850
 3935SOL    HW112704   2.794   6.786   6.808
 3935SOL    HW212705   2.894   6.914   6.792
 3936SOL     OW12706   6.630   5.120   5.161
 3936SOL    HW112707   6.612   5.215   5.132
 3936SOL    HW212708   6.728   5.104   5.161
 3937SOL     OW12709   0.303   1.709   3.031
 3937SOL    HW112710   0.394   1.672   3.012
 3937SOL    HW212711   0.304   1.808   3.013
 3938SOL     OW12712   0.476   2.106   3.148
 3938SOL    HW112713   0.420   2.065   3.077
 3938SOL    HW212714   0.424   2.112   3.233
 3939SOL     OW12715   1.885   3.171   3.043
 3939SOL    HW112716   1.789   3.187   3.021
 3939SOL    HW212717   1.893   3.132   3.135
 3940SOL     OW12718   4.944   4.463   1.204
 3940SOL    HW112719   4.944   4.445   1.106
 3940SOL    HW212720   5.034   4.496   1.232
 3941SOL     OW12721   5.377   3.501   5.227
 3941SOL    HW112722   5.353   3.555   5.308
 3941SOL    HW212723   5.434   3.557   5.166
 3942SOL     OW12724   0.411   6.724   6.657
 3942SOL    HW112725   0.352   6.730   6.576
 3942SOL    HW212726   0.463   6.639   6.654
 3943SOL     OW12727   0.183   2.654   3.591
 3943SOL    HW112728   0.142   2.735   3.634
 3943SOL    HW212729   0.281   2.652   3.610
 3944SOL     OW12730   4.978   2.667   4.878
 3944SOL    HW112731   4.896   2.721   4.896
 3944SOL    HW212732   4.985   2.592   4.944
 3945SOL     OW12733   0.275   2.086   0.296
 3945SOL    HW112734   0.363   2.132   0.280
 3945SOL    HW212735   0.260   2.075   0.394
 3946SOL     OW12736   5.189   4.769   4.339
 3946SOL    HW112737   5.122   4.754   4.267
 3946SOL    HW212738   5.213   4.866   4.342
 3947SOL     OW12739   5.353   6.138   0.065
 3947SOL    HW112740   5.397   6.185   7.008
 3947SOL    HW212741   5.420   6.120   0.136
 3948SOL     OW12742   6.683   5.185   2.771
 3948SOL    HW112743   6.667   5.126   2.850
 3948SOL    HW212744   6.775   5.224   2.778
 3949SOL     OW12745   5.123   0.003   3.414
 3949SOL    HW112746   5.141   7.016   3.512
 3949SOL    HW212747   5.024   7.019   3.398
 3950SOL     OW12748   1.885   4.213   0.703
 3950SOL    HW112749   1.964   4.247   0.753
 3950SOL    HW212750   1.804   4.266   0.729
 3951SOL     OW12751   4.526   0.567   1.408
 3951SOL    HW112752   4.543   0.510   1.487
 3951SOL    HW212753   4.594   0.641   1.405
 3952SOL     OW12754   6.721   2.602   1.855
 3952SOL    HW112755   6.766   2.542   1.789
 3952SOL    HW212756   6.780   2.615   1.934
 3953SOL     OW12757   4.092   4.892   1.389
 3953SOL    HW112758   4.138   4.820   1.338
 3953SOL    HW212759   3.993   4.876   1.388
 3954SOL     OW12760   3.946   5.329   5.363
 3954SOL    HW112761   4.008   5.305   5.287
 3954SOL    HW212762   3.879   5.395   5.330
 3955SOL     OW12763   3.006   0.014   6.400
 3955SOL    HW112764   3.029   6.997   6.310
 3955SOL    HW212765   3.074   0.083   6.426
 3956SOL     OW12766   1.116   0.768   2.804
 3956SOL    HW112767   1.114   0.743   2.707
 3956SOL    HW212768   1.209   0.756   2.839
 3957SOL     OW12769   4.707   6.930   4.017
 3957SOL    HW112770   4.758   6.992   4.076
 3957SOL    HW212771   4.640   6.981   3.964
 3958SOL     OW12772   5.379   1.550   4.531
 3958SOL    HW112773   5.425   1.637   4.548
 3958SOL    HW212774   5.415   1.480   4.593
 3959SOL     OW12775   4.748   6.458   0.268
 3959SOL    HW112776   4.822   6.476   0.333
 3959SOL    HW212777   4.772   6.495   0.178
 3960SOL     OW12778   5.170   0.998   6.600
 3960SOL    HW112779   5.236   1.060   6.641
 3960SOL    HW212780   5.179   0.907   6.641
 3961SOL     OW12781   5.455   1.190   2.567
 3961SOL    HW112782   5.535   1.237   2.528
 3961SOL    HW212783   5.482   1.146   2.653
 3962SOL     OW12784   2.303   4.992   6.703
 3962SOL    HW112785   2.244   5.051   6.758
 3962SOL    HW212786   2.257   4.968   6.618
 3963SOL     OW12787   4.563   5.455   2.821
 3963SOL    HW112788   4.501   5.533   2.822
 3963SOL    HW212789   4.643   5.476   2.765
 3964SOL     OW12790   4.166   4.755   3.539
 3964SOL    HW112791   4.225   4.690   3.587
 3964SOL    HW212792   4.184   4.749   3.440
 3965SOL     OW12793   5.057   3.100   4.576
 3965SOL    HW112794   5.051   3.056   4.666
 3965SOL    HW212795   5.104   3.188   4.585
 3966SOL     OW12796   4.201   5.971   6.690
 3966SOL    HW112797   4.282   6.029   6.697
 3966SOL    HW212798   4.229   5.876   6.676
 3967SOL     OW12799   2.181   3.960   2.080
 3967SOL    HW112800   2.209   3.899   2.007
 3967SOL    HW212801   2.262   4.007   2.117
 3968SOL     OW12802   4.566   0.716   0.703
 3968SOL    HW112803   4.598   0.808   0.678
 3968SOL    HW212804   4.644   0.653   0.704
 3969SOL     OW12805   1.047   4.693   2.228
 3969SOL    HW112806   1.030   4.649   2.139
 3969SOL    HW212807   1.126   4.651   2.272
 3970SOL     OW12808   5.201   6.171   3.393
 3970SOL    HW112809   5.236   6.087   3.352
 3970SOL    HW212810   5.102   6.167   3.399
 3971SOL     OW12811   3.205   5.148   3.925
 3971SOL    HW112812   3.298   5.170   3.896
 3971SOL    HW212813   3.207   5.066   3.983
 3972SOL     OW12814   1.395   3.834   0.418
 3972SOL    HW112815   1.406   3.782   0.503
 3972SOL    HW212816   1.439   3.924   0.429
 3973SOL     OW12817   1.400   5.648   6.294
 3973SOL    HW112818   1.496   5.671   6.308
 3973SOL    HW212819   1.361   5.707   6.223
 3974SOL     OW12820   1.960   6.635   5.393
 3974SOL    HW112821   2.060   6.628   5.385
 3974SOL    HW212822   1.926   6.558   5.448
 3975SOL     OW12823   5.384   1.308   6.149
 3975SOL    HW112824   5.407   1.381   6.214
 3975SOL    HW212825   5.343   1.231   6.198
 3976SOL     OW12826   1.854   6.192   2.321
 3976SOL    HW112827   1.943   6.237   2.310
 3976SOL    HW212828   1.867   6.093   2.317
 3977SOL     OW12829   2.047   3.296   6.020
 3977SOL    HW112830   1.977   3.234   6.055
 3977SOL    HW212831   2.061   3.370   6.086
 3978SOL     OW12832   5.705   5.392   3.322
 3978SOL    HW112833   5.642   5.399   3.245
 3978SOL    HW212834   5.736   5.297   3.331
 3979SOL     OW12835   4.018   1.044   6.787
 3979SOL    HW112836   3.919   1.050   6.798
 3979SOL    HW212837   4.051   0.959   6.828
 3980SOL     OW12838   5.796   6.357   6.679
 3980SOL    HW112839   5.696   6.347   6.686
 3980SOL    HW212840   5.829   6.299   6.604
 3981SOL     OW12841   3.623   6.555   0.388
 3981SOL    HW112842   3.719   6.530   0.400
 3981SOL    HW212843   3.565   6.486   0.431
 3982SOL     OW12844   2.522   6.568   3.455
 3982SOL    HW112845   2.564   6.482   3.427
 3982SOL    HW212846   2.564   6.599   3.540
 3983SOL     OW12847   4.919   4.750   4.156
 3983SOL    HW112848   4.890   4.672   4.212
 3983SOL    HW212849   4.852   4.823   4.165
 3984SOL     OW12850   6.839   1.127   1.885
 3984SOL    HW112851   6.773   1.075   1.831
 3984SOL    HW212852   6.925   1.077   1.890
 3985SOL     OW12853   2.959   4.521   6.761
 3985SOL    HW112854   3.046   4.483   6.792
 3985SOL    HW212855   2.889   4.507   6.831
 3986SOL     OW12856   5.011   1.485   2.579
 3986SOL    HW112857   5.059   1.568   2.608
 3986SOL    HW212858   5.076   1.420   2.541
 3987SOL     OW12859   3.930   5.187   3.841
 3987SOL    HW112860   4.030   5.200   3.844
 3987SOL    HW212861   3.908   5.093   3.865
 3988SOL     OW12862   3.149   5.041   6.953
 3988SOL    HW112863   3.116   5.110   7.017
 3988SOL    HW212864   3.152   4.951   6.998
 3989SOL     OW12865   6.588   2.455   6.665
 3989SOL    HW112866   6.607   2.533   6.605
 3989SOL    HW212867   6.516   2.480   6.730
 3990SOL     OW12868   4.419   2.402   2.438
 3990SOL    HW112869   4.486   2.367   2.372
 3990SOL    HW212870   4.453   2.487   2.478
 3991SOL     OW12871   6.850   1.291   2.113
 3991SOL    HW112872   6.828   1.272   2.208
 3991SOL    HW212873   6.856   1.206   2.062
 3992SOL     OW12874   3.315   1.399   0.027
 3992SOL    HW112875   3.264   1.485   0.028
 3992SOL    HW212876   3.297   1.350   6.962
 3993SOL     OW12877   1.481   3.218   2.021
 3993SOL    HW112878   1.431   3.161   2.086
 3993SOL    HW212879   1.571   3.241   2.058
 3994SOL     OW12880   2.615   6.796   6.215
 3994SOL    HW112881   2.692   6.799   6.152
 3994SOL    HW212882   2.558   6.877   6.201
 3995SOL     OW12883   2.091   4.103   6.102
 3995SOL    HW112884   2.074   4.012   6.140
 3995SOL    HW212885   2.162   4.097   6.032
 3996SOL     OW12886   0.608   6.459   4.754
 3996SOL    HW112887   0.614   6.502   4.664
 3996SOL    HW212888   0.645   6.521   4.823
 3997SOL     OW12889   5.738   1.973   3.122
 3997SOL    HW112890   5.688   2.060   3.123
 3997SOL    HW212891   5.698   1.912   3.190
 3998SOL     OW12892   3.962   1.155   3.964
 3998SOL    HW112893   3.998   1.123   4.052
 3998SOL    HW212894   3.867   1.184   3.975
 3999SOL     OW12895   5.975   2.516   3.846
 3999SOL    HW112896   6.040   2.555   3.781
 3999SOL    HW212897   5.978   2.569   3.931
 4000SOL     OW12898   3.016   0.219   3.651
 4000SOL    HW112899   2.947   0.161   3.608
 4000SOL    HW212900   2.973   0.303   3.685
 4001SOL     OW12901   2.606   1.838   4.264
 4001SOL    HW112902   2.519   1.873   4.230
 4001SOL    HW212903   2.679   1.862   4.199
 4002SOL     OW12904   3.251   4.138   1.347
 4002SOL    HW112905   3.208   4.153   1.436
 4002SOL    HW212906   3.184   4.156   1.274
 4003SOL     OW12907   3.043   0.192   4.128
 4003SOL    HW112908   2.983   0.192   4.048
 4003SOL    HW212909   3.065   0.287   4.152
 4004SOL     OW12910   5.830   2.271   4.455
 4004SOL    HW112911   5.731   2.265   4.467
 4004SOL    HW212912   5.869   2.179   4.453
 4005SOL     OW12913   5.121   5.153   6.487
 4005SOL    HW112914   5.089   5.126   6.578
 4005SOL    HW212915   5.170   5.240   6.494
 4006SOL     OW12916   4.230   5.221   2.122
 4006SOL    HW112917   4.243   5.122   2.136
 4006SOL    HW212918   4.187   5.236   2.033
 4007SOL     OW12919   6.977   2.806   6.984
 4007SOL    HW112920   0.013   2.771   6.909
 4007SOL    HW212921   6.941   2.896   6.960
 4008SOL     OW12922   2.731   2.076   4.887
 4008SOL    HW112923   2.640   2.118   4.886
 4008SOL    HW212924   2.779   2.099   4.803
 4009SOL     OW12925   4.586   3.134   1.416
 4009SOL    HW112926   4.591   3.053   1.359
 4009SOL    HW212927   4.580   3.107   1.512
 4010SOL     OW12928   2.359   2.934   1.449
 4010SOL    HW112929   2.413   3.001   1.397
 4010SOL    HW212930   2.368   2.953   1.547
 4011SOL     OW12931   1.191   1.701   2.107
 4011SOL    HW112932   1.191   1.614   2.057
 4011SOL    HW212933   1.222   1.774   2.046
 4012SOL     OW12934   6.619   4.289   2.021
 4012SOL    HW112935   6.709   4.271   2.060
 4012SOL    HW212936   6.554   4.221   2.055
 4013SOL     OW12937   3.590   1.828   4.835
 4013SOL    HW112938   3.557   1.866   4.921
 4013SOL    HW212939   3.690   1.820   4.838
 4014SOL     OW12940   5.781   6.330   2.489
 4014SOL    HW112941   5.764   6.386   2.408
 4014SOL    HW212942   5.834   6.249   2.463
 4015SOL     OW12943   5.141   4.224   6.132
 4015SOL    HW112944   5.110   4.245   6.224
 4015SOL    HW212945   5.131   4.304   6.074
 4016SOL     OW12946   2.476   5.904   5.905
 4016SOL    HW112947   2.474   5.980   5.970
 4016SOL    HW212948   2.566   5.898   5.863
 4017SOL     OW12949   6.875   6.085   0.789
 4017SOL    HW112950   6.879   5.986   0.807
 4017SOL    HW212951   6.960   6.127   0.820
 4018SOL     OW12952   4.252   6.113   2.350
 4018SOL    HW112953   4.214   6.093   2.260
 4018SOL    HW212954   4.343   6.152   2.340
 4019SOL     OW12955   5.246   4.436   2.929
 4019SOL    HW112956   5.272   4.530   2.908
 4019SOL    HW212957   5.250   4.381   2.846
 4020SOL     OW12958   4.621   2.460   5.304
 4020SOL    HW112959   4.643   2.377   5.354
 4020SOL    HW212960   4.532   2.495   5.333
 4021SOL     OW12961   3.456   5.171   6.610
 4021SOL    HW112962   3.376   5.209   6.657
 4021SOL    HW212963   3.493   5.095   6.663
 4022SOL     OW12964   4.731   1.817   0.134
 4022SOL    HW112965   4.817   1.824   0.084
 4022SOL    HW212966   4.748   1.817   0.232
 4023SOL     OW12967   6.476   2.273   4.694
 4023SOL    HW112968   6.478   2.286   4.594
 4023SOL    HW212969   6.538   2.338   4.737
 4024SOL     OW12970   3.941   5.632   4.359
 4024SOL    HW112971   3.868   5.663   4.420
 4024SOL    HW212972   3.906   5.564   4.296
 4025SOL     OW12973   0.702   3.627   3.334
 4025SOL    HW112974   0.797   3.610   3.363
 4025SOL    HW212975   0.641   3.613   3.412
 4026SOL     OW12976   5.288   6.172   4.067
 4026SOL    HW112977   5.335   6.238   4.126
 4026SOL    HW212978   5.356   6.112   4.024
 4027SOL     OW12979   3.612   4.419   1.711
 4027SOL    HW112980   3.581   4.404   1.617
 4027SOL    HW212981   3.633   4.516   1.724
 4028SOL     OW12982   1.901   1.871   4.134
 4028SOL    HW112983   1.864   1.890   4.225
 4028SOL    HW212984   1.900   1.772   4.118
 4029SOL     OW12985   2.284   4.156   5.558
 4029SOL    HW112986   2.326   4.122   5.642
 4029SOL    HW212987   2.354   4.192   5.497
 4030SOL     OW12988   0.226   2.056   5.535
 4030SOL    HW112989   0.242   1.968   5.491
 4030SOL    HW212990   0.171   2.043   5.618
 4031SOL     OW12991   4.225   5.510   4.002
 4031SOL    HW112992   4.290   5.437   4.022
 4031SOL    HW212993   4.172   5.486   3.920
 4032SOL     OW12994   5.680   0.006   3.673
 4032SOL    HW112995   5.648   0.008   3.767
 4032SOL    HW212996   5.627   6.959   3.621
 4033SOL     OW12997   3.069   3.109   4.250
 4033SOL    HW112998   3.097   3.017   4.275
 4033SOL    HW212999   2.998   3.105   4.180
 4034SOL     OW13000   6.632   1.583   4.507
 4034SOL    HW113001   6.537   1.574   4.536
 4034SOL    HW213002   6.691   1.589   4.588
 4035SOL     OW13003   0.483   4.110   6.490
 4035SOL    HW113004   0.503   4.019   6.527
 4035SOL    HW213005   0.491   4.178   6.562
 4036SOL     OW13006   6.179   6.575   2.832
 4036SOL    HW113007   6.197   6.492   2.778
 4036SOL    HW213008   6.207   6.560   2.926
 4037SOL     OW13009   0.938   3.436   6.595
 4037SOL    HW113010   0.960   3.340   6.578
 4037SOL    HW213011   0.872   3.467   6.527
 4038SOL     OW13012   5.301   4.489   3.233
 4038SOL    HW113013   5.389   4.445   3.254
 4038SOL    HW213014   5.288   4.488   3.134
 4039SOL     OW13015   5.533   6.153   0.271
 4039SOL    HW113016   5.622   6.191   0.297
 4039SOL    HW213017   5.463   6.188   0.334
 4040SOL     OW13018   3.454   6.717   1.451
 4040SOL    HW113019   3.373   6.696   1.395
 4040SOL    HW213020   3.537   6.702   1.397
 4041SOL     OW13021   1.137   6.264   3.761
 4041SOL    HW113022   1.112   6.168   3.751
 4041SOL    HW213023   1.142   6.307   3.671
 4042SOL     OW13024   5.787   5.323   1.816
 4042SOL    HW113025   5.720   5.262   1.774
 4042SOL    HW213026   5.795   5.406   1.760
 4043SOL     OW13027   5.624   2.089   2.048
 4043SOL    HW113028   5.543   2.056   2.000
 4043SOL    HW213029   5.702   2.029   2.029
 4044SOL     OW13030   6.047   0.099   3.444
 4044SOL    HW113031   6.127   0.083   3.387
 4044SOL    HW213032   5.987   0.166   3.400
 4045SOL     OW13033   1.683   5.364   6.572
 4045SOL    HW113034   1.636   5.307   6.505
 4045SOL    HW213035   1.663   5.460   6.556
 4046SOL     OW13036   0.715   2.850   1.749
 4046SOL    HW113037   0.770   2.931   1.763
 4046SOL    HW213038   0.676   2.851   1.657
 4047SOL     OW13039   2.795   3.644   1.745
 4047SOL    HW113040   2.826   3.736   1.724
 4047SOL    HW213041   2.792   3.631   1.845
 4048SOL     OW13042   4.768   0.311   0.914
 4048SOL    HW113043   4.771   0.231   0.854
 4048SOL    HW213044   4.685   0.307   0.970
 4049SOL     OW13045   5.517   6.792   5.359
 4049SOL    HW113046   5.519   6.858   5.434
 4049SOL    HW213047   5.428   6.793   5.315
 4050SOL     OW13048   1.538   6.633   0.794
 4050SOL    HW113049   1.604   6.652   0.866
 4050SOL    HW213050   1.556   6.543   0.756
 4051SOL     OW13051   3.320   4.215   0.993
 4051SOL    HW113052   3.417   4.242   0.990
 4051SOL    HW213053   3.264   4.294   1.019
 4052SOL     OW13054   0.350   0.812   0.722
 4052SOL    HW113055   0.347   0.892   0.663
 4052SOL    HW213056   0.267   0.758   0.710
 4053SOL     OW13057   3.550   4.929   3.664
 4053SOL    HW113058   3.486   4.925   3.587
 4053SOL    HW213059   3.586   5.022   3.672
 4054SOL     OW13060   3.601   2.569   0.984
 4054SOL    HW113061   3.580   2.481   1.026
 4054SOL    HW213062   3.635   2.632   1.054
 4055SOL     OW13063   3.937   1.611   5.883
 4055SOL    HW113064   3.989   1.695   5.896
 4055SOL    HW213065   3.997   1.532   5.894
 4056SOL     OW13066   3.750   3.408   6.976
 4056SOL    HW113067   3.725   3.484   6.917
 4056SOL    HW213068   3.719   3.426   0.049
 4057SOL     OW13069   4.628   2.762   6.406
 4057SOL    HW113070   4.558   2.833   6.401
 4057SOL    HW213071   4.681   2.761   6.321
 4058SOL     OW13072   2.314   0.880   5.620
 4058SOL    HW113073   2.245   0.845   5.557
 4058SOL    HW213074   2.282   0.965   5.661
 4059SOL     OW13075   1.141   1.833   5.445
 4059SOL    HW113076   1.234   1.839   5.410
 4059SOL    HW213077   1.115   1.921   5.486
 4060SOL     OW13078   4.493   5.024   4.362
 4060SOL    HW113079   4.539   5.112   4.347
 4060SOL    HW213080   4.395   5.038   4.372
 4061SOL     OW13081   3.037   3.726   2.116
 4061SOL    HW113082   3.038   3.826   2.120
 4061SOL    HW213083   2.942   3.694   2.110
 4062SOL     OW13084   2.985   0.871   3.311
 4062SOL    HW113085   3.041   0.953   3.300
 4062SOL    HW213086   2.908   0.874   3.247
 4063SOL     OW13087   2.395   5.179   6.212
 4063SOL    HW113088   2.377   5.081   6.222
 4063SOL    HW213089   2.437   5.196   6.123
 4064SOL     OW13090   6.654   1.521   3.666
 4064SOL    HW113091   6.732   1.494   3.723
 4064SOL    HW213092   6.588   1.446   3.663
 4065SOL     OW13093   6.868   0.088   0.288
 4065SOL    HW113094   6.951   0.057   0.335
 4065SOL    HW213095   6.869   0.054   0.194
 4066SOL     OW13096   6.313   4.591   1.533
 4066SOL    HW113097   6.351   4.499   1.543
 4066SOL    HW213098   6.291   4.607   1.437
 4067SOL     OW13099   6.067   1.603   2.562
 4067SOL    HW113100   6.021   1.673   2.617
 4067SOL    HW213101   6.081   1.638   2.469
 4068SOL     OW13102   5.976   0.362   3.794
 4068SOL    HW113103   5.913   0.303   3.845
 4068SOL    HW213104   5.923   0.424   3.736
 4069SOL     OW13105   5.642   4.991   0.984
 4069SOL    HW113106   5.635   4.894   0.962
 4069SOL    HW213107   5.646   5.045   0.900
 4070SOL     OW13108   1.591   3.635   3.455
 4070SOL    HW113109   1.652   3.561   3.426
 4070SOL    HW213110   1.644   3.705   3.502
 4071SOL     OW13111   1.061   0.226   4.001
 4071SOL    HW113112   0.964   0.210   3.983
 4071SOL    HW213113   1.083   0.322   3.983
 4072SOL     OW13114   1.663   0.060   4.976
 4072SOL    HW113115   1.592   0.001   4.938
 4072SOL    HW213116   1.621   0.131   5.033
 4073SOL     OW13117   2.225   5.874   0.311
 4073SOL    HW113118   2.214   5.831   0.222
 4073SOL    HW213119   2.246   5.804   0.380
 4074SOL     OW13120   1.480   2.857   0.990
 4074SOL    HW113121   1.471   2.934   0.926
 4074SOL    HW213122   1.569   2.862   1.035
 4075SOL     OW13123   4.717   1.763   3.078
 4075SOL    HW113124   4.634   1.808   3.045
 4075SOL    HW213125   4.790   1.774   3.010
 4076SOL     OW13126   1.607   3.702   4.435
 4076SOL    HW113127   1.630   3.776   4.371
 4076SOL    HW213128   1.550   3.634   4.388
 4077SOL     OW13129   3.819   1.126   0.974
 4077SOL    HW113130   3.833   1.146   0.877
 4077SOL    HW213131   3.829   1.210   1.027
 4078SOL     OW13132   6.251   4.030   1.080
 4078SOL    HW113133   6.178   3.984   1.131
 4078SOL    HW213134   6.334   4.031   1.137
 4079SOL     OW13135   0.269   0.867   3.827
 4079SOL    HW113136   0.245   0.955   3.868
 4079SOL    HW213137   0.227   0.860   3.736
 4080SOL     OW13138   3.443   3.735   1.843
 4080SOL    HW113139   3.474   3.648   1.804
 4080SOL    HW213140   3.414   3.721   1.938
 4081SOL     OW13141   2.012   2.201   5.541
 4081SOL    HW113142   1.954   2.262   5.595
 4081SOL    HW213143   1.991   2.106   5.563
 4082SOL     OW13144   1.224   2.840   4.377
 4082SOL    HW113145   1.306   2.783   4.388
 4082SOL    HW213146   1.205   2.851   4.279
 4083SOL     OW13147   5.418   5.191   2.807
 4083SOL    HW113148   5.382   5.187   2.714
 4083SOL    HW213149   5.506   5.144   2.811
 4084SOL     OW13150   4.566   0.854   3.297
 4084SOL    HW113151   4.517   0.778   3.254
 4084SOL    HW213152   4.500   0.916   3.339
 4085SOL     OW13153   2.855   5.151   1.915
 4085SOL    HW113154   2.864   5.083   1.987
 4085SOL    HW213155   2.831   5.106   1.829
 4086SOL     OW13156   6.184   5.314   5.848
 4086SOL    HW113157   6.088   5.296   5.869
 4086SOL    HW213158   6.206   5.408   5.871
 4087SOL     OW13159   2.774   0.135   2.499
 4087SOL    HW113160   2.713   0.058   2.479
 4087SOL    HW213161   2.865   0.101   2.520
 4088SOL     OW13162   0.584   1.673   5.915
 4088SOL    HW113163   0.551   1.764   5.939
 4088SOL    HW213164   0.658   1.681   5.848
 4089SOL     OW13165   0.328   0.228   3.876
 4089SOL    HW113166   0.276   0.156   3.832
 4089SOL    HW213167   0.265   0.294   3.918
 4090SOL     OW13168   2.764   0.379   5.691
 4090SOL    HW113169   2.807   0.391   5.780
 4090SOL    HW213170   2.825   0.414   5.620
 4091SOL     OW13171   1.943   5.527   1.743
 4091SOL    HW113172   1.912   5.494   1.654
 4091SOL    HW213173   1.973   5.622   1.735
 4092SOL     OW13174   4.861   3.060   4.077
 4092SOL    HW113175   4.846   3.104   4.165
 4092SOL    HW213176   4.884   2.963   4.091
 4093SOL     OW13177   4.142   5.402   2.858
 4093SOL    HW113178   4.187   5.465   2.795
 4093SOL    HW213179   4.212   5.351   2.909
 4094SOL     OW13180   6.425   5.653   6.529
 4094SOL    HW113181   6.453   5.745   6.504
 4094SOL    HW213182   6.464   5.628   6.617
 4095SOL     OW13183   0.398   5.047   6.647
 4095SOL    HW113184   0.363   5.088   6.563
 4095SOL    HW213185   0.402   5.116   6.718
 4096SOL     OW13186   1.683   1.677   6.688
 4096SOL    HW113187   1.650   1.762   6.728
 4096SOL    HW213188   1.720   1.695   6.596
 4097SOL     OW13189   6.999   5.093   4.710
 4097SOL    HW113190   6.904   5.080   4.682
 4097SOL    HW213191   0.033   5.014   4.680
 4098SOL     OW13192   2.111   4.813   3.246
 4098SOL    HW113193   2.184   4.813   3.177
 4098SOL    HW213194   2.043   4.882   3.221
 4099SOL     OW13195   4.738   4.702   5.856
 4099SOL    HW113196   4.736   4.787   5.804
 4099SOL    HW213197   4.659   4.646   5.831
 4100SOL     OW13198   1.142   0.233   3.638
 4100SOL    HW113199   1.141   0.138   3.605
 4100SOL    HW213200   1.049   0.262   3.658
 4101SOL     OW13201   6.231   0.164   0.458
 4101SOL    HW113202   6.139   0.185   0.489
 4101SOL    HW213203   6.255   0.222   0.380
 4102SOL     OW13204   1.319   1.019   0.006
 4102SOL    HW113205   1.379   0.968   0.068
 4102SOL    HW213206   1.313   1.114   0.037
 4103SOL     OW13207   1.429   6.553   2.763
 4103SOL    HW113208   1.510   6.610   2.747
 4103SOL    HW213209   1.450   6.485   2.834
 4104SOL     OW13210   0.858   5.777   4.572
 4104SOL    HW113211   0.929   5.847   4.565
 4104SOL    HW213212   0.768   5.819   4.560
 4105SOL     OW13213   4.848   1.076   1.249
 4105SOL    HW113214   4.815   1.023   1.328
 4105SOL    HW213215   4.823   1.029   1.165
 4106SOL     OW13216   0.179   2.436   3.728
 4106SOL    HW113217   0.128   2.364   3.681
 4106SOL    HW213218   0.183   2.517   3.670
 4107SOL     OW13219   0.185   6.376   6.724
 4107SOL    HW113220   0.100   6.422   6.698
 4107SOL    HW213221   0.203   6.391   6.821
 4108SOL     OW13222   6.481   5.371   3.966
 4108SOL    HW113223   6.387   5.365   4.001
 4108SOL    HW213224   6.543   5.390   4.042
 4109SOL     OW13225   5.902   6.624   2.811
 4109SOL    HW113226   5.999   6.601   2.808
 4109SOL    HW213227   5.852   6.552   2.858
 4110SOL     OW13228   4.344   4.101   0.308
 4110SOL    HW113229   4.281   4.083   0.232
 4110SOL    HW213230   4.309   4.176   0.363
 4111SOL     OW13231   6.186   4.193   3.979
 4111SOL    HW113232   6.141   4.240   4.055
 4111SOL    HW213233   6.211   4.101   4.007
 4112SOL     OW13234   4.903   6.933   5.631
 4112SOL    HW113235   4.874   0.000   5.593
 4112SOL    HW213236   5.003   6.926   5.628
 4113SOL     OW13237   4.108   4.966   5.123
 4113SOL    HW113238   4.049   4.905   5.176
 4113SOL    HW213239   4.175   4.912   5.072
 4114SOL     OW13240   0.270   1.796   2.095
 4114SOL    HW113241   0.174   1.794   2.067
 4114SOL    HW213242   0.329   1.799   2.015
 4115SOL     OW13243   3.866   5.097   4.358
 4115SOL    HW113244   3.771   5.097   4.327
 4115SOL    HW213245   3.869   5.084   4.457
 4116SOL     OW13246   5.438   2.641   3.506
 4116SOL    HW113247   5.477   2.723   3.548
 4116SOL    HW213248   5.504   2.601   3.442
 4117SOL     OW13249   1.288   2.154   3.175
 4117SOL    HW113250   1.290   2.093   3.254
 4117SOL    HW213251   1.344   2.116   3.102
 4118SOL     OW13252   0.075   6.601   5.868
 4118SOL    HW113253   0.137   6.669   5.829
 4118SOL    HW213254   0.124   6.545   5.935
 4119SOL     OW13255   1.998   1.390   3.668
 4119SOL    HW113256   1.898   1.386   3.666
 4119SOL    HW213257   2.035   1.300   3.647
 4120SOL     OW13258   1.536   1.091   6.082
 4120SOL    HW113259   1.499   1.157   6.147
 4120SOL    HW213260   1.511   0.998   6.110
 4121SOL     OW13261   6.552   6.590   1.756
 4121SOL    HW113262   6.585   6.554   1.668
 4121SOL    HW213263   6.576   6.687   1.762
 4122SOL     OW13264   6.776   4.764   3.525
 4122SOL    HW113265   6.743   4.682   3.571
 4122SOL    HW213266   6.700   4.810   3.480
 4123SOL     OW13267   3.884   5.294   2.192
 4123SOL    HW113268   3.973   5.310   2.235
 4123SOL    HW213269   3.823   5.249   2.257
 4124SOL     OW13270   6.701   5.766   0.069
 4124SOL    HW113271   6.634   5.800   0.135
 4124SOL    HW213272   6.707   5.829   7.012
 4125SOL     OW13273   5.683   1.771   1.980
 4125SOL    HW113274   5.748   1.699   2.002
 4125SOL    HW213275   5.590   1.734   1.986
 4126SOL     OW13276   1.446   3.537   2.607
 4126SOL    HW113277   1.474   3.488   2.525
 4126SOL    HW213278   1.378   3.606   2.583
 4127SOL     OW13279   3.873   1.845   3.857
 4127SOL    HW113280   3.816   1.922   3.886
 4127SOL    HW213281   3.907   1.861   3.765
 4128SOL     OW13282   0.218   3.264   0.579
 4128SOL    HW113283   0.232   3.297   0.673
 4128SOL    HW213284   0.126   3.225   0.572
 4129SOL     OW13285   2.400   2.452   0.359
 4129SOL    HW113286   2.368   2.534   0.406
 4129SOL    HW213287   2.426   2.475   0.266
 4130SOL     OW13288   5.134   2.722   1.081
 4130SOL    HW113289   5.208   2.673   1.125
 4130SOL    HW213290   5.163   2.816   1.060
 4131SOL     OW13291   4.532   0.577   2.875
 4131SOL    HW113292   4.539   0.642   2.799
 4131SOL    HW213293   4.444   0.530   2.870
 4132SOL     OW13294   6.540   4.686   3.950
 4132SOL    HW113295   6.619   4.708   4.007
 4132SOL    HW213296   6.535   4.587   3.937
 4133SOL     OW13297   5.731   0.180   2.512
 4133SOL    HW113298   5.659   0.167   2.580
 4133SOL    HW213299   5.699   0.241   2.440
 4134SOL     OW13300   1.976   3.237   1.097
 4134SOL    HW113301   2.039   3.160   1.089
 4134SOL    HW213302   2.027   3.320   1.119
 4135SOL     OW13303   6.910   1.495   2.745
 4135SOL    HW113304   6.837   1.516   2.680
 4135SOL    HW213305   6.869   1.457   2.829
 4136SOL     OW13306   1.655   4.719   1.670
 4136SOL    HW113307   1.582   4.710   1.738
 4136SOL    HW213308   1.707   4.803   1.688
 4137SOL     OW13309   1.950   2.421   0.192
 4137SOL    HW113310   1.977   2.425   0.289
 4137SOL    HW213311   2.022   2.376   0.139
 4138SOL     OW13312   5.031   6.532   0.686
 4138SOL    HW113313   5.116   6.495   0.724
 4138SOL    HW213314   5.022   6.628   0.714
 4139SOL     OW13315   1.983   2.703   2.572
 4139SOL    HW113316   1.991   2.683   2.475
 4139SOL    HW213317   2.036   2.785   2.594
 4140SOL     OW13318   2.557   2.627   5.417
 4140SOL    HW113319   2.458   2.614   5.414
 4140SOL    HW213320   2.603   2.539   5.406
 4141SOL     OW13321   4.902   6.685   6.678
 4141SOL    HW113322   4.919   6.680   6.580
 4141SOL    HW213323   4.966   6.750   6.720
 4142SOL     OW13324   6.940   4.248   3.100
 4142SOL    HW113325   6.852   4.201   3.109
 4142SOL    HW213326   7.014   4.180   3.102
 4143SOL     OW13327   6.086   3.241   0.260
 4143SOL    HW113328   6.126   3.190   0.184
 4143SOL    HW213329   6.059   3.178   0.332
 4144SOL     OW13330   5.702   2.301   0.880
 4144SOL    HW113331   5.781   2.323   0.937
 4144SOL    HW213332   5.622   2.286   0.939
 4145SOL     OW13333   6.909   6.956   1.514
 4145SOL    HW113334   6.998   7.001   1.522
 4145SOL    HW213335   6.923   6.859   1.493
 4146SOL     OW13336   5.022   6.413   3.537
 4146SOL    HW113337   5.002   6.330   3.485
 4146SOL    HW213338   4.994   6.493   3.484
 4147SOL     OW13339   5.230   4.136   5.844
 4147SOL    HW113340   5.172   4.207   5.805
 4147SOL    HW213341   5.211   4.126   5.941
 4148SOL     OW13342   2.831   1.303   6.125
 4148SOL    HW113343   2.739   1.278   6.154
 4148SOL    HW213344   2.837   1.294   6.025
 4149SOL     OW13345   2.176   2.833   0.305
 4149SOL    HW113346   2.225   2.918   0.326
 4149SOL    HW213347   2.159   2.828   0.206
 4150SOL     OW13348   6.105   1.930   5.635
 4150SOL    HW113349   6.024   1.968   5.679
 4150SOL    HW213350   6.122   1.979   5.549
 4151SOL     OW13351   2.549   6.859   4.193
 4151SOL    HW113352   2.602   6.806   4.260
 4151SOL    HW213353   2.510   6.940   4.238
 4152SOL     OW13354   2.955   5.070   1.142
 4152SOL    HW113355   2.886   5.140   1.120
 4152SOL    HW213356   2.948   5.046   1.239
 4153SOL     OW13357   6.776   5.048   1.714
 4153SOL    HW113358   6.847   5.100   1.666
 4153SOL    HW213359   6.820   4.985   1.778
 4154SOL     OW13360   1.242   6.067   4.287
 4154SOL    HW113361   1.265   6.161   4.314
 4154SOL    HW213362   1.159   6.038   4.337
 4155SOL     OW13363   0.799   2.077   1.211
 4155SOL    HW113364   0.814   2.019   1.131
 4155SOL    HW213365   0.837   2.168   1.195
 4156SOL     OW13366   6.615   5.389   5.139
 4156SOL    HW113367   6.697   5.445   5.134
 4156SOL    HW213368   6.536   5.447   5.158
 4157SOL     OW13369   6.630   6.129   2.066
 4157SOL    HW113370   6.612   6.105   2.162
 4157SOL    HW213371   6.714   6.182   2.060
 4158SOL     OW13372   1.278   2.813   2.353
 4158SOL    HW113373   1.347   2.778   2.417
 4158SOL    HW213374   1.200   2.751   2.351
 4159SOL     OW13375   3.005   1.348   3.909
 4159SOL    HW113376   2.922   1.358   3.855
 4159SOL    HW213377   2.993   1.395   3.997
 4160SOL     OW13378   6.314   7.019   6.488
 4160SOL    HW113379   6.324   0.065   6.414
 4160SOL    HW213380   6.375   0.022   6.563
 4161SOL     OW13381   3.226   2.511   1.459
 4161SOL    HW113382   3.241   2.595   1.407
 4161SOL    HW213383   3.148   2.523   1.520
 4162SOL     OW13384   5.924   5.823   1.699
 4162SOL    HW113385   5.986   5.891   1.739
 4162SOL    HW213386   5.830   5.846   1.724
 4163SOL     OW13387   3.939   6.629   1.107
 4163SOL    HW113388   3.879   6.568   1.159
 4163SOL    HW213389   3.885   6.689   1.049
 4164SOL     OW13390   6.468   0.034   4.842
 4164SOL    HW113391   6.429   0.047   4.751
 4164SOL    HW213392   6.479   6.956   4.859
 4165SOL     OW13393   4.793   1.101   5.280
 4165SOL    HW113394   4.735   1.030   5.320
 4165SOL    HW213395   4.782   1.101   5.181
 4166SOL     OW13396   5.986   0.874   2.046
 4166SOL    HW113397   6.012   0.785   2.007
 4166SOL    HW213398   6.061   0.939   2.033
 4167SOL     OW13399   4.271   5.233   5.432
 4167SOL    HW113400   4.233   5.246   5.341
 4167SOL    HW213401   4.294   5.323   5.471
 4168SOL     OW13402   5.002   4.212   6.820
 4168SOL    HW113403   4.905   4.237   6.822
 4168SOL    HW213404   5.048   4.262   6.747
 4169SOL     OW13405   4.920   3.808   4.905
 4169SOL    HW113406   4.850   3.746   4.942
 4169SOL    HW213407   5.009   3.762   4.905
 4170SOL     OW13408   6.225   3.786   4.529
 4170SOL    HW113409   6.138   3.829   4.555
 4170SOL    HW213410   6.235   3.699   4.578
 4171SOL     OW13411   0.740   3.767   0.934
 4171SOL    HW113412   0.698   3.769   0.843
 4171SOL    HW213413   0.806   3.842   0.942
 4172SOL     OW13414   2.792   4.281   0.479
 4172SOL    HW113415   2.699   4.244   0.478
 4172SOL    HW213416   2.840   4.248   0.560
 4173SOL     OW13417   4.952   2.795   5.198
 4173SOL    HW113418   4.923   2.734   5.271
 4173SOL    HW213419   4.884   2.792   5.124
 4174SOL     OW13420   4.165   0.774   4.347
 4174SOL    HW113421   4.210   0.689   4.374
 4174SOL    HW213422   4.202   0.850   4.401
 4175SOL     OW13423   1.741   4.565   6.692
 4175SOL    HW113424   1.661   4.526   6.647
 4175SOL    HW213425   1.799   4.491   6.727
 4176SOL     OW13426   5.226   6.498   6.605
 4176SOL    HW113427   5.277   6.523   6.687
 4176SOL    HW213428   5.281   6.516   6.524
 4177SOL     OW13429   4.498   4.569   3.398
 4177SOL    HW113430   4.475   4.665   3.383
 4177SOL    HW213431   4.527   4.557   3.493
 4178SOL     OW13432   3.515   5.671   2.298
 4178SOL    HW113433   3.456   5.669   2.379
 4178SOL    HW213434   3.479   5.739   2.234
 4179SOL     OW13435   4.789   3.064   4.919
 4179SOL    HW113436   4.852   3.061   4.997
 4179SOL    HW213437   4.795   3.154   4.876
 4180SOL     OW13438   4.973   3.665   0.385
 4180SOL    HW113439   5.018   3.579   0.361
 4180SOL    HW213440   4.891   3.676   0.329
 4181SOL     OW13441   4.954   0.175   5.590
 4181SOL    HW113442   5.025   0.167   5.520
 4181SOL    HW213443   4.952   0.270   5.624
 4182SOL     OW13444   6.821   6.192   4.260
 4182SOL    HW113445   6.728   6.218   4.235
 4182SOL    HW213446   6.818   6.139   4.345
 4183SOL     OW13447   3.333   1.673   1.938
 4183SOL    HW113448   3.352   1.666   2.036
 4183SOL    HW213449   3.257   1.737   1.923
 4184SOL     OW13450   3.039   5.830   3.478
 4184SOL    HW113451   2.983   5.849   3.397
 4184SOL    HW213452   2.984   5.843   3.560
 4185SOL     OW13453   6.150   3.554   3.321
 4185SOL    HW113454   6.124   3.466   3.360
 4185SOL    HW213455   6.243   3.548   3.286
 4186SOL     OW13456   1.495   6.285   0.249
 4186SOL    HW113457   1.567   6.215   0.259
 4186SOL    HW213458   1.532   6.374   0.274
 4187SOL     OW13459   1.769   3.781   0.039
 4187SOL    HW113460   1.737   3.819   0.126
 4187SOL    HW213461   1.842   3.715   0.056
 4188SOL     OW13462   4.755   7.018   6.741
 4188SOL    HW113463   4.674   6.979   6.785
 4188SOL    HW213464   4.736   0.016   6.645
 4189SOL     OW13465   4.864   5.794   3.029
 4189SOL    HW113466   4.831   5.705   3.060
 4189SOL    HW213467   4.962   5.790   3.012
 4190SOL     OW13468   0.391   6.952   0.930
 4190SOL    HW113469   0.341   6.972   1.014
 4190SOL    HW213470   0.362   7.013   0.857
 4191SOL     OW13471   4.665   4.341   6.402
 4191SOL    HW113472   4.570   4.361   6.378
 4191SOL    HW213473   4.714   4.307   6.321
 4192SOL     OW13474   1.639   2.597   1.974
 4192SOL    HW113475   1.540   2.597   1.985
 4192SOL    HW213476   1.670   2.504   1.952
 4193SOL     OW13477   6.687   0.678   0.946
 4193SOL    HW113478   6.597   0.636   0.944
 4193SOL    HW213479   6.685   0.763   0.893
 4194SOL     OW13480   4.504   0.899   5.199
 4194SOL    HW113481   4.527   0.875   5.293
 4194SOL    HW213482   4.542   0.830   5.137
 4195SOL     OW13483   4.648   5.866   1.651
 4195SOL    HW113484   4.669   5.908   1.563
 4195SOL    HW213485   4.726   5.813   1.683
 4196SOL     OW13486   0.165   2.306   3.289
 4196SOL    HW113487   0.073   2.305   3.327
 4196SOL    HW213488   0.183   2.394   3.246
 4197SOL     OW13489   3.497   6.466   6.165
 4197SOL    HW113490   3.438   6.446   6.086
 4197SOL    HW213491   3.489   6.391   6.231
 4198SOL     OW13492   6.299   0.973   2.180
 4198SOL    HW113493   6.386   1.021   2.195
 4198SOL    HW213494   6.277   0.976   2.082
 4199SOL     OW13495   1.297   3.943   6.216
 4199SOL    HW113496   1.219   3.991   6.176
 4199SOL    HW213497   1.344   3.891   6.145
 4200SOL     OW13498   4.717   0.673   4.775
 4200SOL    HW113499   4.731   0.577   4.749
 4200SOL    HW213500   4.725   0.731   4.694
 4201SOL     OW13501   5.657   0.256   3.626
 4201SOL    HW113502   5.558   0.264   3.641
 4201SOL    HW213503   5.686   0.162   3.644
 4202SOL     OW13504   4.213   5.405   0.376
 4202SOL    HW113505   4.302   5.449   0.376
 4202SOL    HW213506   4.191   5.371   0.285
 4203SOL     OW13507   5.906   5.492   6.989
 4203SOL    HW113508   5.811   5.514   7.010
 4203SOL    HW213509   5.928   5.527   6.898
 4204SOL     OW13510   3.273   3.594   5.693
 4204SOL    HW113511   3.243   3.521   5.754
 4204SOL    HW213512   3.370   3.613   5.709
 4205SOL     OW13513   3.705   5.369   5.244
 4205SOL    HW113514   3.701   5.330   5.152
 4205SOL    HW213515   3.612   5.379   5.280
 4206SOL     OW13516   1.792   1.916   4.817
 4206SOL    HW113517   1.709   1.962   4.847
 4206SOL    HW213518   1.827   1.860   4.892
 4207SOL     OW13519   2.124   2.172   1.542
 4207SOL    HW113520   2.128   2.128   1.631
 4207SOL    HW213521   2.216   2.188   1.507
 4208SOL     OW13522   1.906   3.778   5.022
 4208SOL    HW113523   1.986   3.720   5.008
 4208SOL    HW213524   1.833   3.750   4.960
 4209SOL     OW13525   0.159   6.186   2.858
 4209SOL    HW113526   0.121   6.276   2.838
 4209SOL    HW213527   0.205   6.150   2.777
 4210SOL     OW13528   4.119   3.519   4.675
 4210SOL    HW113529   4.083   3.425   4.681
 4210SOL    HW213530   4.158   3.534   4.584
 4211SOL     OW13531   3.735   2.040   5.162
 4211SOL    HW113532   3.705   2.078   5.250
 4211SOL    HW213533   3.665   1.978   5.127
 4212SOL     OW13534   6.728   1.612   3.413
 4212SOL    HW113535   6.766   1.703   3.395
 4212SOL    HW213536   6.724   1.598   3.512
 4213SOL     OW13537   3.385   0.482   2.890
 4213SOL    HW113538   3.481   0.507   2.903
 4213SOL    HW213539   3.377   0.384   2.875
 4214SOL     OW13540   1.080   5.223   4.297
 4214SOL    HW113541   1.165   5.185   4.333
 4214SOL    HW213542   1.096   5.315   4.262
 4215SOL     OW13543   4.651   6.401   5.097
 4215SOL    HW113544   4.562   6.376   5.059
 4215SOL    HW213545   4.717   6.329   5.080
 4216SOL     OW13546   2.289   0.067   2.495
 4216SOL    HW113547   2.244   0.040   2.580
 4216SOL    HW213548   2.352   0.143   2.512
 4217SOL     OW13549   1.048   0.615   2.075
 4217SOL    HW113550   1.052   0.570   2.164
 4217SOL    HW213551   1.050   0.546   2.003
 4218SOL     OW13552   3.652   1.348   1.297
 4218SOL    HW113553   3.712   1.293   1.355
 4218SOL    HW213554   3.646   1.441   1.333
 4219SOL     OW13555   3.991   6.387   3.819
 4219SOL    HW113556   3.951   6.303   3.783
 4219SOL    HW213557   3.961   6.399   3.914
 4220SOL     OW13558   4.447   2.206   1.562
 4220SOL    HW113559   4.515   2.276   1.584
 4220SOL    HW213560   4.495   2.122   1.535
 4221SOL     OW13561   6.396   5.536   6.252
 4221SOL    HW113562   6.448   5.618   6.228
 4221SOL    HW213563   6.392   5.526   6.351
 4222SOL     OW13564   5.363   2.184   3.725
 4222SOL    HW113565   5.368   2.085   3.711
 4222SOL    HW213566   5.274   2.217   3.696
 4223SOL     OW13567   3.932   4.232   1.655
 4223SOL    HW113568   4.013   4.256   1.601
 4223SOL    HW213569   3.897   4.315   1.699
 4224SOL     OW13570   5.047   4.138   4.705
 4224SOL    HW113571   5.111   4.080   4.755
 4224SOL    HW213572   5.065   4.234   4.729
 4225SOL     OW13573   0.857   2.237   4.959
 4225SOL    HW113574   0.911   2.292   5.024
 4225SOL    HW213575   0.762   2.234   4.989
 4226SOL     OW13576   0.963   5.618   4.893
 4226SOL    HW113577   0.992   5.608   4.988
 4226SOL    HW213578   0.963   5.529   4.848
 4227SOL     OW13579   4.872   5.735   1.733
 4227SOL    HW113580   4.904   5.721   1.826
 4227SOL    HW213581   4.883   5.651   1.680
 4228SOL     OW13582   1.065   5.959   4.502
 4228SOL    HW113583   1.154   5.924   4.531
 4228SOL    HW213584   1.028   6.020   4.572
 4229SOL     OW13585   5.791   5.112   6.434
 4229SOL    HW113586   5.749   5.203   6.428
 4229SOL    HW213587   5.811   5.091   6.530
 4230SOL     OW13588   1.471   0.230   2.504
 4230SOL    HW113589   1.398   0.279   2.456
 4230SOL    HW213590   1.484   0.140   2.462
 4231SOL     OW13591   5.542   0.817   5.353
 4231SOL    HW113592   5.452   0.774   5.346
 4231SOL    HW213593   5.609   0.750   5.384
 4232SOL     OW13594   2.271   5.500   3.977
 4232SOL    HW113595   2.279   5.527   4.073
 4232SOL    HW213596   2.223   5.571   3.927
 4233SOL     OW13597   5.854   6.501   3.599
 4233SOL    HW113598   5.854   6.409   3.637
 4233SOL    HW213599   5.912   6.560   3.656
 4234SOL     OW13600   2.194   5.540   5.760
 4234SOL    HW113601   2.115   5.558   5.701
 4234SOL    HW213602   2.267   5.605   5.739
 4235SOL     OW13603   6.690   4.547   5.634
 4235SOL    HW113604   6.658   4.453   5.642
 4235SOL    HW213605   6.754   4.555   5.558
 4236SOL     OW13606   0.499   5.124   2.467
 4236SOL    HW113607   0.550   5.074   2.396
 4236SOL    HW213608   0.424   5.175   2.424
 4237SOL     OW13609   6.499   4.063   4.186
 4237SOL    HW113610   6.488   3.966   4.162
 4237SOL    HW213611   6.545   4.070   4.275
 4238SOL     OW13612   1.514   0.874   3.063
 4238SOL    HW113613   1.553   0.959   3.030
 4238SOL    HW213614   1.429   0.893   3.113
 4239SOL     OW13615   4.190   1.132   3.028
 4239SOL    HW113616   4.187   1.190   2.946
 4239SOL    HW213617   4.111   1.153   3.085
 4240SOL     OW13618   0.943   5.271   0.662
 4240SOL    HW113619   0.991   5.183   0.662
 4240SOL    HW213620   0.878   5.272   0.586
 4241SOL     OW13621   6.931   1.808   0.207
 4241SOL    HW113622   7.010   1.773   0.258
 4241SOL    HW213623   6.875   1.864   0.268
 4242SOL     OW13624   2.538   2.280   4.596
 4242SOL    HW113625   2.492   2.369   4.602
 4242SOL    HW213626   2.634   2.290   4.623
 4243SOL     OW13627   5.444   0.774   2.986
 4243SOL    HW113628   5.525   0.762   3.043
 4243SOL    HW213629   5.439   0.868   2.954
 4244SOL     OW13630   3.784   3.665   2.273
 4244SOL    HW113631   3.710   3.616   2.320
 4244SOL    HW213632   3.778   3.648   2.174
 4245SOL     OW13633   0.127   2.009   5.782
 4245SOL    HW113634   0.056   1.999   5.852
 4245SOL    HW213635   0.210   2.047   5.823
 4246SOL     OW13636   6.785   3.738   2.994
 4246SOL    HW113637   6.799   3.814   2.930
 4246SOL    HW213638   6.725   3.670   2.952
 4247SOL     OW13639   0.038   6.099   5.359
 4247SOL    HW113640   0.136   6.119   5.366
 4247SOL    HW213641   0.024   6.022   5.296
 4248SOL     OW13642   1.421   2.590   5.626
 4248SOL    HW113643   1.374   2.652   5.564
 4248SOL    HW213644   1.519   2.610   5.624
 4249SOL     OW13645   6.569   2.916   5.474
 4249SOL    HW113646   6.650   2.883   5.427
 4249SOL    HW213647   6.595   2.985   5.542
 4250SOL     OW13648   6.905   5.227   3.497
 4250SOL    HW113649   6.938   5.163   3.428
 4250SOL    HW213650   6.838   5.182   3.556
 4251SOL     OW13651   5.764   4.057   0.412
 4251SOL    HW113652   5.685   4.004   0.443
 4251SOL    HW213653   5.849   4.014   0.445
 4252SOL     OW13654   6.383   5.880   5.113
 4252SOL    HW113655   6.476   5.858   5.143
 4252SOL    HW213656   6.379   5.976   5.085
 4253SOL     OW13657   4.563   1.261   1.564
 4253SOL    HW113658   4.477   1.261   1.514
 4253SOL    HW213659   4.546   1.242   1.661
 4254SOL     OW13660   1.630   3.162   1.386
 4254SOL    HW113661   1.540   3.198   1.409
 4254SOL    HW213662   1.655   3.190   1.293
 4255SOL     OW13663   5.898   2.827   3.733
 4255SOL    HW113664   5.995   2.837   3.755
 4255SOL    HW213665   5.872   2.731   3.744
 4256SOL     OW13666   1.455   0.017   1.520
 4256SOL    HW113667   1.379   7.000   1.573
 4256SOL    HW213668   1.532   0.036   1.581
 4257SOL     OW13669   3.430   1.663   5.204
 4257SOL    HW113670   3.438   1.711   5.292
 4257SOL    HW213671   3.385   1.575   5.218
 4258SOL     OW13672   5.676   6.731   2.150
 4258SOL    HW113673   5.747   6.725   2.079
 4258SOL    HW213674   5.610   6.802   2.125
 4259SOL     OW13675   2.620   1.619   6.894
 4259SOL    HW113676   2.559   1.540   6.902
 4259SOL    HW213677   2.611   1.660   6.803
 4260SOL     OW13678   4.121   5.782   3.627
 4260SOL    HW113679   4.046   5.836   3.588
 4260SOL    HW213680   4.204   5.800   3.575
 4261SOL     OW13681   2.572   6.608   1.747
 4261SOL    HW113682   2.584   6.612   1.648
 4261SOL    HW213683   2.483   6.568   1.768
 4262SOL     OW13684   1.713   4.983   6.204
 4262SOL    HW113685   1.736   4.895   6.162
 4262SOL    HW213686   1.668   4.967   6.292
 4263SOL     OW13687   2.114   6.152   4.906
 4263SOL    HW113688   2.207   6.174   4.933
 4263SOL    HW213689   2.114   6.115   4.813
 4264SOL     OW13690   6.759   1.937   0.361
 4264SOL    HW113691   6.669   1.924   0.320
 4264SOL    HW213692   6.761   2.024   0.410
 4265SOL     OW13693   6.430   2.097   0.071
 4265SOL    HW113694   6.406   2.044   7.009
 4265SOL    HW213695   6.483   2.177   0.044
 4266SOL     OW13696   2.802   5.480   0.225
 4266SOL    HW113697   2.849   5.442   0.145
 4266SOL    HW213698   2.780   5.576   0.209
 4267SOL     OW13699   2.168   3.732   5.122
 4267SOL    HW113700   2.250   3.786   5.106
 4267SOL    HW213701   2.190   3.654   5.180
 4268SOL     OW13702   1.684   6.418   0.401
 4268SOL    HW113703   1.731   6.506   0.400
 4268SOL    HW213704   1.751   6.345   0.384
 4269SOL     OW13705   2.819   2.487   0.173
 4269SOL    HW113706   2.910   2.450   0.188
 4269SOL    HW213707   2.769   2.490   0.260
 4270SOL     OW13708   3.840   3.007   4.355
 4270SOL    HW113709   3.866   3.104   4.348
 4270SOL    HW213710   3.797   2.979   4.269
 4271SOL     OW13711   0.146   7.013   5.499
 4271SOL    HW113712   0.210   0.005   5.575
 4271SOL    HW213713   0.196   7.013   5.413
 4272SOL     OW13714   0.070   5.153   4.959
 4272SOL    HW113715   0.038   5.157   4.864
 4272SOL    HW213716   0.162   5.190   4.965
 4273SOL     OW13717   4.558   6.229   4.773
 4273SOL    HW113718   4.474   6.284   4.766
 4273SOL    HW213719   4.536   6.139   4.811
 4274SOL     OW13720   0.916   6.635   3.379
 4274SOL    HW113721   0.982   6.625   3.305
 4274SOL    HW213722   0.894   6.545   3.417
 4275SOL     OW13723   0.028   0.915   5.806
 4275SOL    HW113724   7.009   1.000   5.770
 4275SOL    HW213725   6.991   0.882   5.882
 4276SOL     OW13726   1.791   5.250   2.962
 4276SOL    HW113727   1.759   5.333   2.916
 4276SOL    HW213728   1.891   5.246   2.957
 4277SOL     OW13729   6.402   5.153   3.799
 4277SOL    HW113730   6.443   5.077   3.850
 4277SOL    HW213731   6.431   5.240   3.840
 4278SOL     OW13732   6.369   6.472   4.895
 4278SOL    HW113733   6.308   6.476   4.816
 4278SOL    HW213734   6.314   6.471   4.979
 4279SOL     OW13735   3.594   6.502   5.420
 4279SOL    HW113736   3.566   6.448   5.499
 4279SOL    HW213737   3.514   6.534   5.370
 4280SOL     OW13738   6.227   1.554   5.131
 4280SOL    HW113739   6.241   1.475   5.190
 4280SOL    HW213740   6.240   1.527   5.035
 4281SOL     OW13741   1.925   4.765   4.849
 4281SOL    HW113742   1.827   4.748   4.845
 4281SOL    HW213743   1.974   4.686   4.812
 4282SOL     OW13744   2.747   2.734   0.056
 4282SOL    HW113745   2.829   2.777   0.017
 4282SOL    HW213746   2.773   2.650   0.103
 4283SOL     OW13747   1.406   0.270   3.642
 4283SOL    HW113748   1.430   0.304   3.733
 4283SOL    HW213749   1.307   0.275   3.629
 4284SOL     OW13750   5.453   0.385   2.632
 4284SOL    HW113751   5.464   0.416   2.727
 4284SOL    HW213752   5.403   0.298   2.632
 4285SOL     OW13753   6.911   6.974   5.858
 4285SOL    HW113754   6.821   6.985   5.900
 4285SOL    HW213755   6.977   6.947   5.927
 4286SOL     OW13756   5.045   5.467   6.979
 4286SOL    HW113757   5.124   5.427   6.932
 4286SOL    HW213758   5.070   5.493   0.051
 4287SOL     OW13759   5.875   6.805   4.993
 4287SOL    HW113760   5.924   6.889   4.969
 4287SOL    HW213761   5.783   6.829   5.026
 4288SOL     OW13762   0.647   6.929   4.017
 4288SOL    HW113763   0.605   6.840   4.003
 4288SOL    HW213764   0.746   6.923   4.002
 4289SOL     OW13765   5.401   2.203   1.502
 4289SOL    HW113766   5.475   2.135   1.501
 4289SOL    HW213767   5.354   2.202   1.414
 4290SOL     OW13768   2.075   6.682   1.743
 4290SOL    HW113769   2.082   6.686   1.843
 4290SOL    HW213770   2.085   6.774   1.705
 4291SOL     OW13771   4.808   3.174   1.155
 4291SOL    HW113772   4.852   3.228   1.227
 4291SOL    HW213773   4.803   3.078   1.184
 4292SOL     OW13774   6.448   4.411   5.286
 4292SOL    HW113775   6.422   4.422   5.382
 4292SOL    HW213776   6.365   4.395   5.231
 4293SOL     OW13777   0.161   3.714   6.576
 4293SOL    HW113778   0.146   3.681   6.669
 4293SOL    HW213779   0.125   3.648   6.511
 4294SOL     OW13780   4.221   2.453   6.612
 4294SOL    HW113781   4.152   2.491   6.551
 4294SOL    HW213782   4.309   2.497   6.594
 4295SOL     OW13783   3.365   0.194   4.910
 4295SOL    HW113784   3.361   0.294   4.914
 4295SOL    HW213785   3.439   0.167   4.849
 4296SOL     OW13786   2.655   2.235   0.464
 4296SOL    HW113787   2.596   2.161   0.431
 4296SOL    HW213788   2.659   2.233   0.564
 4297SOL     OW13789   4.825   6.302   4.813
 4297SOL    HW113790   4.890   6.270   4.882
 4297SOL    HW213791   4.732   6.272   4.837
 4298SOL     OW13792   1.396   5.794   0.848
 4298SOL    HW113793   1.361   5.863   0.785
 4298SOL    HW213794   1.483   5.759   0.814
 4299SOL     OW13795   1.103   3.464   5.903
 4299SOL    HW113796   1.051   3.431   5.981
 4299SOL    HW213797   1.098   3.564   5.900
 4300SOL     OW13798   2.967   1.010   6.604
 4300SOL    HW113799   2.895   1.047   6.545
 4300SOL    HW213800   2.927   0.944   6.668
 4301SOL     OW13801   2.335   1.815   0.471
 4301SOL    HW113802   2.421   1.804   0.421
 4301SOL    HW213803   2.330   1.907   0.509
 4302SOL     OW13804   1.436   6.033   6.281
 4302SOL    HW113805   1.527   6.023   6.239
 4302SOL    HW213806   1.441   6.005   6.377
 4303SOL     OW13807   6.727   4.059   3.153
 4303SOL    HW113808   6.649   4.109   3.116
 4303SOL    HW213809   6.695   3.983   3.209
 4304SOL     OW13810   3.447   3.522   4.096
 4304SOL    HW113811   3.453   3.422   4.092
 4304SOL    HW213812   3.535   3.559   4.124
 4305SOL     OW13813   6.234   1.160   3.145
 4305SOL    HW113814   6.218   1.245   3.094
 4305SOL    HW213815   6.198   1.171   3.238
 4306SOL     OW13816   0.071   3.833   6.081
 4306SOL    HW113817   7.011   3.892   6.073
 4306SOL    HW213818   0.050   3.742   6.045
 4307SOL     OW13819   4.850   3.978   5.759
 4307SOL    HW113820   4.917   3.968   5.832
 4307SOL    HW213821   4.760   3.946   5.791
 4308SOL     OW13822   4.888   5.762   5.569
 4308SOL    HW113823   4.789   5.752   5.579
 4308SOL    HW213824   4.908   5.844   5.516
 4309SOL     OW13825   1.302   0.714   0.348
 4309SOL    HW113826   1.357   0.636   0.379
 4309SOL    HW213827   1.268   0.696   0.256
 4310SOL     OW13828   1.904   2.813   3.420
 4310SOL    HW113829   1.859   2.894   3.382
 4310SOL    HW213830   1.855   2.784   3.503
 4311SOL     OW13831   1.600   6.145   2.807
 4311SOL    HW113832   1.616   6.089   2.889
 4311SOL    HW213833   1.526   6.209   2.825
 4312SOL     OW13834   1.695   5.829   1.670
 4312SOL    HW113835   1.619   5.777   1.628
 4312SOL    HW213836   1.715   5.790   1.759
 4313SOL     OW13837   5.780   1.195   1.388
 4313SOL    HW113838   5.824   1.237   1.309
 4313SOL    HW213839   5.837   1.120   1.422
 4314SOL     OW13840   4.711   2.873   2.782
 4314SOL    HW113841   4.720   2.817   2.700
 4314SOL    HW213842   4.733   2.817   2.862
 4315SOL     OW13843   2.726   0.917   2.237
 4315SOL    HW113844   2.675   0.832   2.221
 4315SOL    HW213845   2.673   0.994   2.200
 4316SOL     OW13846   4.754   6.923   0.955
 4316SOL    HW113847   4.772   7.016   0.923
 4316SOL    HW213848   4.656   6.905   0.953
 4317SOL     OW13849   3.484   1.436   5.560
 4317SOL    HW113850   3.388   1.414   5.546
 4317SOL    HW213851   3.491   1.519   5.617
 4318SOL     OW13852   0.908   3.920   3.911
 4318SOL    HW113853   1.002   3.947   3.891
 4318SOL    HW213854   0.895   3.917   4.010
 4319SOL     OW13855   2.339   3.396   6.507
 4319SOL    HW113856   2.282   3.362   6.432
 4319SOL    HW213857   2.357   3.493   6.493
 4320SOL     OW13858   1.504   6.438   2.468
 4320SOL    HW113859   1.601   6.416   2.471
 4320SOL    HW213860   1.490   6.532   2.498
 4321SOL     OW13861   6.036   0.793   4.652
 4321SOL    HW113862   6.053   0.867   4.717
 4321SOL    HW213863   6.033   0.830   4.559
 4322SOL     OW13864   0.119   1.169   6.321
 4322SOL    HW113865   0.068   1.253   6.337
 4322SOL    HW213866   0.157   1.136   6.408
 4323SOL     OW13867   5.539   2.914   1.877
 4323SOL    HW113868   5.486   2.829   1.879
 4323SOL    HW213869   5.623   2.902   1.929
 4324SOL     OW13870   5.874   3.788   6.496
 4324SOL    HW113871   5.970   3.765   6.510
 4324SOL    HW213872   5.841   3.745   6.411
 4325SOL     OW13873   2.187   0.506   0.133
 4325SOL    HW113874   2.248   0.434   0.100
 4325SOL    HW213875   2.094   0.490   0.098
 4326SOL     OW13876   6.848   3.142   5.030
 4326SOL    HW113877   6.946   3.128   5.021
 4326SOL    HW213878   6.805   3.056   5.058
 4327SOL     OW13879   5.121   5.248   2.219
 4327SOL    HW113880   5.190   5.265   2.149
 4327SOL    HW213881   5.145   5.297   2.302
 4328SOL     OW13882   4.699   4.936   6.075
 4328SOL    HW113883   4.665   5.012   6.020
 4328SOL    HW213884   4.672   4.849   6.033
 4329SOL     OW13885   3.338   1.598   6.054
 4329SOL    HW113886   3.353   1.531   5.982
 4329SOL    HW213887   3.366   1.689   6.022
 4330SOL     OW13888   2.578   0.233   5.944
 4330SOL    HW113889   2.597   0.281   5.858
 4330SOL    HW213890   2.512   0.160   5.928
 4331SOL     OW13891   5.160   3.240   0.470
 4331SOL    HW113892   5.076   3.197   0.504
 4331SOL    HW213893   5.238   3.181   0.489
 4332SOL     OW13894   5.341   3.440   2.107
 4332SOL    HW113895   5.412   3.510   2.096
 4332SOL    HW213896   5.305   3.442   2.200
 4333SOL     OW13897   5.025   1.539   5.227
 4333SOL    HW113898   5.060   1.504   5.140
 4333SOL    HW213899   4.979   1.465   5.276
 4334SOL     OW13900   2.948   2.043   2.014
 4334SOL    HW113901   2.907   2.133   2.026
 4334SOL    HW213902   2.995   2.016   2.098
 4335SOL     OW13903   2.925   3.517   3.864
 4335SOL    HW113904   2.972   3.605   3.874
 4335SOL    HW213905   2.907   3.500   3.767
 4336SOL     OW13906   1.540   6.125   5.391
 4336SOL    HW113907   1.610   6.097   5.325
 4336SOL    HW213908   1.557   6.220   5.418
 4337SOL     OW13909   0.594   5.123   0.282
 4337SOL    HW113910   0.615   5.179   0.203
 4337SOL    HW213911   0.585   5.027   0.254
 4338SOL     OW13912   5.503   5.256   4.926
 4338SOL    HW113913   5.407   5.281   4.938
 4338SOL    HW213914   5.558   5.339   4.922
 4339SOL     OW13915   6.092   2.653   4.521
 4339SOL    HW113916   6.151   2.678   4.597
 4339SOL    HW213917   6.040   2.570   4.544
 4340SOL     OW13918   6.702   2.981   2.589
 4340SOL    HW113919   6.755   3.051   2.637
 4340SOL    HW213920   6.764   2.918   2.543
 4341SOL     OW13921   1.783   4.130   2.221
 4341SOL    HW113922   1.706   4.087   2.175
 4341SOL    HW213923   1.839   4.060   2.265
 4342SOL     OW13924   0.480   2.554   3.357
 4342SOL    HW113925   0.556   2.576   3.296
 4342SOL    HW213926   0.485   2.612   3.439
 4343SOL     OW13927   3.872   1.063   0.050
 4343SOL    HW113928   3.799   1.112   0.003
 4343SOL    HW213929   3.917   1.124   0.115
 4344SOL     OW13930   1.579   4.828   3.409
 4344SOL    HW113931   1.513   4.841   3.483
 4344SOL    HW213932   1.623   4.916   3.389
 4345SOL     OW13933   1.627   3.130   5.417
 4345SOL    HW113934   1.702   3.081   5.374
 4345SOL    HW213935   1.619   3.222   5.377
 4346SOL     OW13936   2.438   3.018   1.717
 4346SOL    HW113937   2.506   3.078   1.675
 4346SOL    HW213938   2.355   3.071   1.736
 4347SOL     OW13939   6.918   0.717   1.682
 4347SOL    HW113940   6.966   0.711   1.769
 4347SOL    HW213941   6.978   0.689   1.607
 4348SOL     OW13942   0.371   3.799   1.907
 4348SOL    HW113943   0.467   3.824   1.916
 4348SOL    HW213944   0.359   3.703   1.935
 4349SOL     OW13945   0.534   1.712   3.287
 4349SOL    HW113946   0.501   1.690   3.379
 4349SOL    HW213947   0.553   1.628   3.237
 4350SOL     OW13948   5.374   2.426   4.601
 4350SOL    HW113949   5.296   2.422   4.664
 4350SOL    HW213950   5.403   2.521   4.590
 4351SOL     OW13951   2.587   6.322   2.121
 4351SOL    HW113952   2.642   6.295   2.200
 4351SOL    HW213953   2.551   6.240   2.076
 4352SOL     OW13954   0.476   2.214   1.795
 4352SOL    HW113955   0.539   2.264   1.736
 4352SOL    HW213956   0.516   2.204   1.886
 4353SOL     OW13957   2.116   5.617   1.082
 4353SOL    HW113958   2.085   5.548   1.148
 4353SOL    HW213959   2.175   5.574   1.014
 4354SOL     OW13960   2.263   6.535   0.146
 4354SOL    HW113961   2.324   6.580   0.211
 4354SOL    HW213962   2.289   6.439   0.136
 4355SOL     OW13963   4.085   0.839   1.536
 4355SOL    HW113964   4.162   0.816   1.476
 4355SOL    HW213965   4.020   0.895   1.484
 4356SOL     OW13966   4.491   3.812   1.622
 4356SOL    HW113967   4.495   3.901   1.576
 4356SOL    HW213968   4.571   3.801   1.681
 4357SOL     OW13969   6.015   0.823   0.197
 4357SOL    HW113970   5.945   0.776   0.143
 4357SOL    HW213971   6.030   0.914   0.159
 4358SOL     OW13972   0.165   6.651   1.144
 4358SOL    HW113973   0.192   6.589   1.218
 4358SOL    HW213974   0.220   6.630   1.063
 4359SOL     OW13975   1.447   2.658   4.482
 4359SOL    HW113976   1.436   2.643   4.581
 4359SOL    HW213977   1.478   2.751   4.466
 4360SOL     OW13978   0.611   3.962   2.467
 4360SOL    HW113979   0.698   3.985   2.511
 4360SOL    HW213980   0.622   3.966   2.367
 4361SOL     OW13981   4.053   2.886   1.760
 4361SOL    HW113982   4.056   2.981   1.726
 4361SOL    HW213983   3.991   2.832   1.703
 4362SOL     OW13984   6.162   3.368   5.381
 4362SOL    HW113985   6.210   3.423   5.449
 4362SOL    HW213986   6.143   3.277   5.418
 4363SOL     OW13987   4.631   2.240   5.465
 4363SOL    HW113988   4.657   2.232   5.561
 4363SOL    HW213989   4.537   2.209   5.453
 4364SOL     OW13990   3.068   4.020   5.338
 4364SOL    HW113991   3.007   3.972   5.275
 4364SOL    HW213992   3.038   4.114   5.348
 4365SOL     OW13993   3.522   1.890   2.473
 4365SOL    HW113994   3.521   1.987   2.448
 4365SOL    HW213995   3.575   1.838   2.406
 4366SOL     OW13996   6.296   6.463   1.512
 4366SOL    HW113997   6.385   6.423   1.490
 4366SOL    HW213998   6.278   6.541   1.451
 4367SOL     OW13999   1.152   4.957   5.168
 4367SOL    HW114000   1.093   4.925   5.243
 4367SOL    HW214001   1.239   4.989   5.206
 4368SOL     OW14002   4.712   5.324   1.477
 4368SOL    HW114003   4.720   5.424   1.482
 4368SOL    HW214004   4.800   5.286   1.449
 4369SOL     OW14005   4.966   5.013   2.346
 4369SOL    HW114006   4.871   5.045   2.340
 4369SOL    HW214007   5.022   5.066   2.283
 4370SOL     OW14008   5.860   4.759   3.108
 4370SOL    HW114009   5.794   4.732   3.177
 4370SOL    HW214010   5.907   4.678   3.073
 4371SOL     OW14011   6.675   0.767   1.869
 4371SOL    HW114012   6.630   0.682   1.896
 4371SOL    HW214013   6.756   0.745   1.815
 4372SOL     OW14014   4.548   1.063   3.101
 4372SOL    HW114015   4.578   0.977   3.061
 4372SOL    HW214016   4.472   1.047   3.164
 4373SOL     OW14017   6.379   2.798   6.527
 4373SOL    HW114018   6.289   2.755   6.525
 4373SOL    HW214019   6.449   2.728   6.536
 4374SOL     OW14020   1.557   1.968   2.155
 4374SOL    HW114021   1.592   2.050   2.202
 4374SOL    HW214022   1.602   1.887   2.193
 4375SOL     OW14023   2.626   0.009   3.794
 4375SOL    HW114024   2.595   6.978   3.715
 4375SOL    HW214025   2.677   6.969   3.856
 4376SOL     OW14026   6.530   7.014   2.615
 4376SOL    HW114027   6.439   6.997   2.577
 4376SOL    HW214028   6.533   0.084   2.657
 4377SOL     OW14029   5.343   3.690   0.331
 4377SOL    HW114030   5.370   3.721   0.422
 4377SOL    HW214031   5.271   3.621   0.339
 4378SOL     OW14032   2.394   0.563   3.660
 4378SOL    HW114033   2.346   0.489   3.707
 4378SOL    HW214034   2.327   0.631   3.630
 4379SOL     OW14035   2.661   1.166   5.039
 4379SOL    HW114036   2.644   1.112   5.122
 4379SOL    HW214037   2.710   1.110   4.973
 4380SOL     OW14038   1.150   1.046   1.218
 4380SOL    HW114039   1.111   1.042   1.310
 4380SOL    HW214040   1.248   1.028   1.222
 4381SOL     OW14041   0.668   5.134   4.890
 4381SOL    HW114042   0.657   5.053   4.832
 4381SOL    HW214043   0.759   5.132   4.932
 4382SOL     OW14044   6.706   3.422   5.377
 4382SOL    HW114045   6.627   3.394   5.431
 4382SOL    HW214046   6.697   3.387   5.284
 4383SOL     OW14047   5.866   3.021   6.305
 4383SOL    HW114048   5.876   2.948   6.373
 4383SOL    HW214049   5.952   3.032   6.255
 4384SOL     OW14050   6.866   1.245   3.587
 4384SOL    HW114051   6.839   1.171   3.526
 4384SOL    HW214052   6.957   1.277   3.563
 4385SOL     OW14053   4.868   1.984   4.470
 4385SOL    HW114054   4.875   2.084   4.469
 4385SOL    HW214055   4.959   1.944   4.477
 4386SOL     OW14056   1.210   3.943   5.724
 4386SOL    HW114057   1.137   4.011   5.733
 4386SOL    HW214058   1.299   3.989   5.719
 4387SOL     OW14059   5.976   3.567   0.700
 4387SOL    HW114060   6.069   3.581   0.733
 4387SOL    HW214061   5.915   3.551   0.778
 4388SOL     OW14062   5.437   1.669   6.423
 4388SOL    HW114063   5.418   1.752   6.372
 4388SOL    HW214064   5.533   1.669   6.453
 4389SOL     OW14065   6.920   3.298   1.771
 4389SOL    HW114066   6.839   3.292   1.829
 4389SOL    HW214067   6.918   3.383   1.719
 4390SOL     OW14068   5.671   6.973   0.697
 4390SOL    HW114069   5.575   6.959   0.721
 4390SOL    HW214070   5.725   6.893   0.722
 4391SOL     OW14071   1.957   5.411   6.518
 4391SOL    HW114072   1.860   5.406   6.544
 4391SOL    HW214073   1.983   5.507   6.504
 4392SOL     OW14074   0.711   1.648   4.073
 4392SOL    HW114075   0.794   1.592   4.080
 4392SOL    HW214076   0.734   1.737   4.033
 4393SOL     OW14077   6.274   0.472   1.595
 4393SOL    HW114078   6.220   0.389   1.614
 4393SOL    HW214079   6.230   0.523   1.521
 4394SOL     OW14080   0.864   0.612   1.521
 4394SOL    HW114081   0.940   0.636   1.461
 4394SOL    HW214082   0.846   0.514   1.516
 4395SOL     OW14083   2.174   0.047   2.050
 4395SOL    HW114084   2.143   0.132   2.008
 4395SOL    HW214085   2.274   0.046   2.056
 4396SOL     OW14086   1.690   1.389   3.720
 4396SOL    HW114087   1.593   1.401   3.699
 4396SOL    HW214088   1.710   1.292   3.729
 4397SOL     OW14089   2.396   2.614   3.669
 4397SOL    HW114090   2.331   2.548   3.632
 4397SOL    HW214091   2.475   2.566   3.705
 4398SOL     OW14092   2.052   3.831   6.416
 4398SOL    HW114093   2.138   3.867   6.378
 4398SOL    HW214094   2.072   3.778   6.498
 4399SOL     OW14095   2.316   6.500   1.834
 4399SOL    HW114096   2.248   6.537   1.770
 4399SOL    HW214097   2.274   6.484   1.923
 4400SOL     OW14098   1.254   6.760   3.867
 4400SOL    HW114099   1.244   6.859   3.873
 4400SOL    HW214100   1.172   6.720   3.825
 4401SOL     OW14101   3.743   6.216   5.347
 4401SOL    HW114102   3.721   6.148   5.416
 4401SOL    HW214103   3.718   6.182   5.256
 4402SOL     OW14104   1.371   0.738   2.880
 4402SOL    HW114105   1.420   0.786   2.953
 4402SOL    HW214106   1.429   0.730   2.800
 4403SOL     OW14107   0.982   5.448   1.241
 4403SOL    HW114108   0.953   5.544   1.247
 4403SOL    HW214109   0.922   5.392   1.298
 4404SOL     OW14110   1.284   5.538   5.759
 4404SOL    HW114111   1.235   5.623   5.741
 4404SOL    HW214112   1.256   5.502   5.848
 4405SOL     OW14113   2.772   4.765   3.298
 4405SOL    HW114114   2.832   4.808   3.365
 4405SOL    HW214115   2.717   4.694   3.342
 4406SOL     OW14116   6.130   3.174   2.096
 4406SOL    HW114117   6.112   3.185   1.999
 4406SOL    HW214118   6.150   3.264   2.136
 4407SOL     OW14119   0.148   6.094   2.383
 4407SOL    HW114120   0.179   6.116   2.475
 4407SOL    HW214121   0.150   5.995   2.370
 4408SOL     OW14122   3.665   6.675   6.892
 4408SOL    HW114123   3.759   6.678   6.925
 4408SOL    HW214124   3.659   6.616   6.811
 4409SOL     OW14125   3.939   0.612   2.939
 4409SOL    HW114126   3.913   0.697   2.984
 4409SOL    HW214127   3.933   0.624   2.839
 4410SOL     OW14128   0.425   6.204   0.962
 4410SOL    HW114129   0.404   6.208   0.864
 4410SOL    HW214130   0.392   6.117   0.999
 4411SOL     OW14131   3.324   4.601   5.908
 4411SOL    HW114132   3.317   4.560   5.999
 4411SOL    HW214133   3.377   4.541   5.848
 4412SOL     OW14134   4.668   6.648   4.058
 4412SOL    HW114135   4.673   6.748   4.048
 4412SOL    HW214136   4.756   6.608   4.034
 4413SOL     OW14137   3.164   0.063   4.352
 4413SOL    HW114138   3.189   0.151   4.392
 4413SOL    HW214139   3.114   0.077   4.267
 4414SOL     OW14140   5.075   5.121   1.898
 4414SOL    HW114141   5.005   5.063   1.940
 4414SOL    HW214142   5.051   5.139   1.803
 4415SOL     OW14143   3.323   4.132   1.760
 4415SOL    HW114144   3.316   4.050   1.704
 4415SOL    HW214145   3.418   4.150   1.782
 4416SOL     OW14146   4.102   1.553   4.473
 4416SOL    HW114147   4.068   1.497   4.398
 4416SOL    HW214148   4.053   1.640   4.475
 4417SOL     OW14149   0.326   2.805   4.373
 4417SOL    HW114150   0.416   2.825   4.411
 4417SOL    HW214151   0.322   2.834   4.277
 4418SOL     OW14152   6.487   1.203   1.635
 4418SOL    HW114153   6.568   1.232   1.585
 4418SOL    HW214154   6.483   1.250   1.723
 4419SOL     OW14155   6.655   5.826   5.594
 4419SOL    HW114156   6.653   5.925   5.601
 4419SOL    HW214157   6.748   5.793   5.611
 4420SOL     OW14158   3.969   2.142   1.526
 4420SOL    HW114159   3.963   2.136   1.626
 4420SOL    HW214160   4.042   2.205   1.501
 4421SOL     OW14161   1.279   2.858   4.817
 4421SOL    HW114162   1.203   2.811   4.863
 4421SOL    HW214163   1.244   2.905   4.736
 4422SOL     OW14164   0.784   4.567   0.098
 4422SOL    HW114165   0.697   4.608   0.125
 4422SOL    HW214166   0.768   4.476   0.060
 4423SOL     OW14167   6.419   4.390   6.031
 4423SOL    HW114168   6.507   4.395   6.078
 4423SOL    HW214169   6.348   4.364   6.095
 4424SOL     OW14170   4.826   5.732   4.284
 4424SOL    HW114171   4.871   5.688   4.362
 4424SOL    HW214172   4.893   5.746   4.211
 4425SOL     OW14173   1.560   4.718   1.399
 4425SOL    HW114174   1.574   4.736   1.496
 4425SOL    HW214175   1.510   4.794   1.357
 4426SOL     OW14176   0.982   0.101   4.279
 4426SOL    HW114177   0.910   0.123   4.346
 4426SOL    HW214178   0.949   0.123   4.187
 4427SOL     OW14179   3.397   6.606   3.022
 4427SOL    HW114180   3.494   6.629   3.011
 4427SOL    HW214181   3.357   6.585   2.933
 4428SOL     OW14182   5.339   0.600   4.251
 4428SOL    HW114183   5.361   0.528   4.185
 4428SOL    HW214184   5.372   0.573   4.341
 4429SOL     OW14185   2.861   6.458   3.277
 4429SOL    HW114186   2.829   6.545   3.240
 4429SOL    HW214187   2.783   6.404   3.307
 4430SOL     OW14188   5.452   4.713   3.689
 4430SOL    HW114189   5.469   4.809   3.711
 4430SOL    HW214190   5.405   4.707   3.601
 4431SOL     OW14191   3.610   0.491   3.897
 4431SOL    HW114192   3.517   0.455   3.904
 4431SOL    HW214193   3.669   0.421   3.856
 4432SOL     OW14194   1.550   3.809   6.650
 4432SOL    HW114195   1.484   3.741   6.618
 4432SOL    HW214196   1.569   3.874   6.576
 4433SOL     OW14197   0.792   1.581   5.022
 4433SOL    HW114198   0.785   1.483   5.004
 4433SOL    HW214199   0.860   1.622   4.960
 4434SOL     OW14200   0.011   1.794   1.428
 4434SOL    HW114201   0.105   1.785   1.397
 4434SOL    HW214202   0.004   1.766   1.524
 4435SOL     OW14203   2.843   3.880   0.523
 4435SOL    HW114204   2.751   3.857   0.494
 4435SOL    HW214205   2.894   3.916   0.444
 4436SOL     OW14206   4.417   2.232   0.681
 4436SOL    HW114207   4.417   2.268   0.588
 4436SOL    HW214208   4.482   2.156   0.688
 4437SOL     OW14209   0.080   3.384   2.356
 4437SOL    HW114210   7.015   3.390   2.304
 4437SOL    HW214211   0.067   3.426   2.445
 4438SOL     OW14212   4.441   6.467   5.616
 4438SOL    HW114213   4.373   6.409   5.662
 4438SOL    HW214214   4.481   6.418   5.540
 4439SOL     OW14215   1.573   6.861   3.037
 4439SOL    HW114216   1.654   6.864   2.979
 4439SOL    HW214217   1.552   6.766   3.060
 4440SOL     OW14218   1.864   4.839   0.900
 4440SOL    HW114219   1.900   4.746   0.900
 4440SOL    HW214220   1.912   4.894   0.969
 4441SOL     OW14221   1.043   1.782   0.485
 4441SOL    HW114222   1.113   1.759   0.417
 4441SOL    HW214223   0.988   1.702   0.506
 4442SOL     OW14224   1.423   4.990   5.923
 4442SOL    HW114225   1.351   4.985   5.992
 4442SOL    HW214226   1.451   5.085   5.911
 4443SOL     OW14227   0.745   4.687   6.513
 4443SOL    HW114228   0.731   4.778   6.474
 4443SOL    HW214229   0.739   4.619   6.440
 4444SOL     OW14230   4.813   4.306   0.915
 4444SOL    HW114231   4.906   4.335   0.890
 4444SOL    HW214232   4.759   4.387   0.938
 4445SOL     OW14233   0.232   5.664   6.787
 4445SOL    HW114234   0.219   5.758   6.818
 4445SOL    HW214235   0.329   5.640   6.791
 4446SOL     OW14236   4.812   1.161   0.488
 4446SOL    HW114237   4.718   1.192   0.507
 4446SOL    HW214238   4.812   1.102   0.407
 4447SOL     OW14239   5.369   4.540   4.905
 4447SOL    HW114240   5.390   4.458   4.852
 4447SOL    HW214241   5.455   4.583   4.934
 4448SOL     OW14242   2.886   6.679   1.520
 4448SOL    HW114243   2.881   6.584   1.550
 4448SOL    HW214244   2.834   6.737   1.584
 4449SOL     OW14245   4.622   1.262   6.333
 4449SOL    HW114246   4.572   1.179   6.357
 4449SOL    HW214247   4.603   1.333   6.402
 4450SOL     OW14248   4.240   1.088   0.035
 4450SOL    HW114249   4.157   1.077   7.000
 4450SOL    HW214250   4.257   1.004   0.086
 4451SOL     OW14251   4.740   4.775   3.703
 4451SOL    HW114252   4.744   4.699   3.638
 4451SOL    HW214253   4.782   4.747   3.789
 4452SOL     OW14254   5.321   6.078   4.574
 4452SOL    HW114255   5.310   6.166   4.527
 4452SOL    HW214256   5.235   6.027   4.571
 4453SOL     OW14257   0.323   3.261   1.247
 4453SOL    HW114258   0.319   3.217   1.157
 4453SOL    HW214259   0.279   3.203   1.315
 4454SOL     OW14260   0.831   1.624   0.109
 4454SOL    HW114261   0.787   1.580   0.031
 4454SOL    HW214262   0.844   1.721   0.090
 4455SOL     OW14263   6.111   5.471   4.740
 4455SOL    HW114264   6.147   5.517   4.659
 4455SOL    HW214265   6.077   5.380   4.714
 4456SOL     OW14266   1.574   7.016   3.663
 4456SOL    HW114267   1.666   0.008   3.624
 4456SOL    HW214268   1.521   0.078   3.648
 4457SOL     OW14269   1.279   2.129   4.911
 4457SOL    HW114270   1.189   2.106   4.874
 4457SOL    HW214271   1.291   2.228   4.910
 4458SOL     OW14272   2.358   3.718   1.735
 4458SOL    HW114273   2.315   3.790   1.790
 4458SOL    HW214274   2.337   3.629   1.774
 4459SOL     OW14275   1.486   2.399   4.347
 4459SOL    HW114276   1.561   2.370   4.407
 4459SOL    HW214277   1.442   2.480   4.386
 4460SOL     OW14278   0.269   3.243   4.174
 4460SOL    HW114279   0.214   3.172   4.130
 4460SOL    HW214280   0.263   3.328   4.122
 4461SOL     OW14281   2.597   0.850   1.783
 4461SOL    HW114282   2.687   0.809   1.799
 4461SOL    HW214283   2.589   0.934   1.837
 4462SOL     OW14284   6.267   3.561   1.872
 4462SOL    HW114285   6.284   3.644   1.819
 4462SOL    HW214286   6.236   3.585   1.963
 4463SOL     OW14287   5.271   1.332   1.093
 4463SOL    HW114288   5.303   1.306   1.184
 4463SOL    HW214289   5.287   1.256   1.030
 4464SOL     OW14290   0.268   5.475   0.312
 4464SOL    HW114291   0.179   5.510   0.343
 4464SOL    HW214292   0.341   5.536   0.344
 4465SOL     OW14293   2.057   5.978   0.639
 4465SOL    HW114294   2.145   6.026   0.630
 4465SOL    HW214295   2.049   5.942   0.732
 4466SOL     OW14296   2.103   2.072   4.058
 4466SOL    HW114297   2.009   2.038   4.056
 4466SOL    HW214298   2.102   2.172   4.049
 4467SOL     OW14299   2.898   5.936   3.710
 4467SOL    HW114300   2.802   5.944   3.682
 4467SOL    HW214301   2.932   6.026   3.738
 4468SOL     OW14302   1.347   2.995   1.860
 4468SOL    HW114303   1.247   2.991   1.864
 4468SOL    HW214304   1.382   2.912   1.816
 4469SOL     OW14305   2.883   0.092   1.568
 4469SOL    HW114306   2.854   0.036   1.491
 4469SOL    HW214307   2.812   0.160   1.589
 4470SOL     OW14308   1.326   0.516   2.615
 4470SOL    HW114309   1.331   0.474   2.524
 4470SOL    HW214310   1.382   0.599   2.617
 4471SOL     OW14311   2.163   2.317   6.441
 4471SOL    HW114312   2.169   2.324   6.541
 4471SOL    HW214313   2.229   2.379   6.399
 4472SOL     OW14314   1.682   3.301   1.160
 4472SOL    HW114315   1.767   3.278   1.112
 4472SOL    HW214316   1.626   3.360   1.102
 4473SOL     OW14317   0.459   3.128   3.968
 4473SOL    HW114318   0.375   3.175   3.994
 4473SOL    HW214319   0.482   3.149   3.873
 4474SOL     OW14320   3.533   0.971   1.915
 4474SOL    HW114321   3.519   1.055   1.967
 4474SOL    HW214322   3.631   0.955   1.902
 4475SOL     OW14323   0.925   3.695   2.309
 4475SOL    HW114324   0.903   3.791   2.294
 4475SOL    HW214325   0.845   3.639   2.290
 4476SOL     OW14326   5.441   1.314   4.119
 4476SOL    HW114327   5.405   1.375   4.048
 4476SOL    HW214328   5.459   1.365   4.202
 4477SOL     OW14329   3.299   0.006   5.497
 4477SOL    HW114330   3.271   6.992   5.587
 4477SOL    HW214331   3.229   0.069   5.463
 4478SOL     OW14332   1.401   0.156   0.460
 4478SOL    HW114333   1.316   0.109   0.483
 4478SOL    HW214334   1.477   0.091   0.463
 4479SOL     OW14335   0.533   2.236   0.227
 4479SOL    HW114336   0.630   2.262   0.225
 4479SOL    HW214337   0.478   2.310   0.190
 4480SOL     OW14338   6.566   5.214   4.875
 4480SOL    HW114339   6.531   5.238   4.965
 4480SOL    HW214340   6.500   5.241   4.805
 4481SOL     OW14341   2.446   4.971   5.636
 4481SOL    HW114342   2.500   4.980   5.720
 4481SOL    HW214343   2.394   4.886   5.638
 4482SOL     OW14344   2.694   5.378   6.388
 4482SOL    HW114345   2.780   5.429   6.394
 4482SOL    HW214346   2.697   5.318   6.308
 4483SOL     OW14347   0.652   3.036   1.983
 4483SOL    HW114348   0.736   3.027   2.036
 4483SOL    HW214349   0.675   3.050   1.887
 4484SOL     OW14350   2.456   3.287   6.968
 4484SOL    HW114351   2.456   3.188   6.952
 4484SOL    HW214352   2.362   3.317   6.985
 4485SOL     OW14353   4.413   2.441   4.703
 4485SOL    HW114354   4.476   2.518   4.710
 4485SOL    HW214355   4.460   2.363   4.662
 4486SOL     OW14356   5.315   4.552   5.175
 4486SOL    HW114357   5.356   4.624   5.231
 4486SOL    HW214358   5.359   4.550   5.085
 4487SOL     OW14359   1.578   2.616   0.043
 4487SOL    HW114360   1.642   2.684   0.007
 4487SOL    HW214361   1.628   2.533   0.067
 4488SOL     OW14362   0.809   4.862   4.344
 4488SOL    HW114363   0.847   4.798   4.411
 4488SOL    HW214364   0.800   4.816   4.256
 4489SOL     OW14365   4.554   5.499   5.378
 4489SOL    HW114366   4.529   5.469   5.470
 4489SOL    HW214367   4.648   5.533   5.380
 4490SOL     OW14368   5.348   2.090   1.246
 4490SOL    HW114369   5.447   2.104   1.236
 4490SOL    HW214370   5.329   1.992   1.252
 4491SOL     OW14371   1.195   2.848   2.915
 4491SOL    HW114372   1.167   2.754   2.935
 4491SOL    HW214373   1.293   2.858   2.933
 4492SOL     OW14374   5.548   0.629   1.678
 4492SOL    HW114375   5.495   0.585   1.751
 4492SOL    HW214376   5.488   0.687   1.623
 4493SOL     OW14377   5.156   0.026   4.853
 4493SOL    HW114378   5.128   6.967   4.907
 4493SOL    HW214379   5.255   0.021   4.837
 4494SOL     OW14380   0.464   0.565   0.002
 4494SOL    HW114381   0.481   0.584   6.926
 4494SOL    HW214382   0.474   0.649   0.055
 4495SOL     OW14383   3.833   6.038   2.016
 4495SOL    HW114384   3.876   6.087   2.092
 4495SOL    HW214385   3.816   5.943   2.042
 4496SOL     OW14386   4.200   6.379   5.933
 4496SOL    HW114387   4.242   6.437   6.003
 4496SOL    HW214388   4.101   6.379   5.945
 4497SOL     OW14389   3.888   2.108   6.539
 4497SOL    HW114390   3.865   2.144   6.449
 4497SOL    HW214391   3.987   2.100   6.548
 4498SOL     OW14392   0.008   5.207   5.645
 4498SOL    HW114393   6.963   5.166   5.708
 4498SOL    HW214394   0.052   5.285   5.688
 4499SOL     OW14395   6.267   1.798   2.684
 4499SOL    HW114396   6.218   1.725   2.636
 4499SOL    HW214397   6.278   1.876   2.623
 4500SOL     OW14398   3.771   5.353   0.494
 4500SOL    HW114399   3.685   5.319   0.456
 4500SOL    HW214400   3.755   5.389   0.586
 4501SOL     OW14401   5.880   1.590   2.017
 4501SOL    HW114402   5.980   1.599   2.015
 4501SOL    HW214403   5.850   1.575   2.112
 4502SOL     OW14404   0.746   3.264   0.100
 4502SOL    HW114405   0.808   3.302   0.168
 4502SOL    HW214406   0.765   3.304   0.010
 4503SOL     OW14407   3.025   0.461   2.331
 4503SOL    HW114408   3.102   0.443   2.270
 4503SOL    HW214409   2.946   0.407   2.302
 4504SOL     OW14410   0.332   2.109   3.354
 4504SOL    HW114411   0.285   2.023   3.372
 4504SOL    HW214412   0.264   2.183   3.349
 4505SOL     OW14413   6.335   4.043   2.480
 4505SOL    HW114414   6.334   4.115   2.410
 4505SOL    HW214415   6.243   4.031   2.517
 4506SOL     OW14416   5.185   2.803   4.685
 4506SOL    HW114417   5.201   2.725   4.745
 4506SOL    HW214418   5.138   2.875   4.735
 4507SOL     OW14419   6.659   3.265   3.288
 4507SOL    HW114420   6.705   3.354   3.288
 4507SOL    HW214421   6.603   3.257   3.205
 4508SOL     OW14422   0.260   5.015   0.905
 4508SOL    HW114423   0.185   4.951   0.919
 4508SOL    HW214424   0.292   5.009   0.811
 4509SOL     OW14425   4.177   1.854   2.393
 4509SOL    HW114426   4.235   1.791   2.341
 4509SOL    HW214427   4.224   1.942   2.404
 4510SOL     OW14428   4.692   1.661   4.275
 4510SOL    HW114429   4.787   1.686   4.256
 4510SOL    HW214430   4.688   1.564   4.302
 4511SOL     OW14431   0.099   4.680   1.305
 4511SOL    HW114432   0.181   4.695   1.250
 4511SOL    HW214433   0.053   4.596   1.275
 4512SOL     OW14434   3.767   2.254   5.559
 4512SOL    HW114435   3.775   2.317   5.481
 4512SOL    HW214436   3.730   2.303   5.637
 4513SOL     OW14437   1.474   5.986   6.537
 4513SOL    HW114438   1.441   5.916   6.601
 4513SOL    HW214439   1.573   5.992   6.542
 4514SOL     OW14440   3.246   3.484   6.462
 4514SOL    HW114441   3.314   3.486   6.535
 4514SOL    HW214442   3.156   3.507   6.500
 4515SOL     OW14443   5.387   6.779   4.997
 4515SOL    HW114444   5.485   6.761   5.006
 4515SOL    HW214445   5.342   6.758   5.084
 4516SOL     OW14446   3.542   1.657   5.721
 4516SOL    HW114447   3.580   1.622   5.807
 4516SOL    HW214448   3.561   1.754   5.713
 4517SOL     OW14449   4.365   0.574   5.707
 4517SOL    HW114450   4.342   0.481   5.680
 4517SOL    HW214451   4.460   0.578   5.737
 4518SOL     OW14452   1.769   0.069   1.501
 4518SOL    HW114453   1.856   0.098   1.542
 4518SOL    HW214454   1.787   0.001   1.430
 4519SOL     OW14455   5.730   6.631   0.264
 4519SOL    HW114456   5.706   6.606   0.357
 4519SOL    HW214457   5.671   6.581   0.200
 4520SOL     OW14458   4.106   6.526   4.993
 4520SOL    HW114459   4.172   6.587   4.948
 4520SOL    HW214460   4.023   6.520   4.938
 4521SOL     OW14461   4.962   2.417   5.034
 4521SOL    HW114462   4.949   2.376   5.124
 4521SOL    HW214463   4.943   2.348   4.964
 4522SOL     OW14464   5.276   3.451   3.359
 4522SOL    HW114465   5.251   3.360   3.392
 4522SOL    HW214466   5.373   3.468   3.374
 4523SOL     OW14467   0.325   3.364   6.366
 4523SOL    HW114468   0.410   3.406   6.398
 4523SOL    HW214469   0.282   3.315   6.441
 4524SOL     OW14470   0.427   3.102   2.757
 4524SOL    HW114471   0.405   3.129   2.851
 4524SOL    HW214472   0.425   3.183   2.698
 4525SOL     OW14473   2.161   2.704   5.777
 4525SOL    HW114474   2.158   2.777   5.845
 4525SOL    HW214475   2.167   2.744   5.685
 4526SOL     OW14476   0.701   0.098   6.121
 4526SOL    HW114477   0.698   7.018   6.111
 4526SOL    HW214478   0.607   0.133   6.122
 4527SOL     OW14479   6.454   0.069   3.004
 4527SOL    HW114480   6.496   7.001   3.027
 4527SOL    HW214481   6.487   0.138   3.069
 4528SOL     OW14482   4.544   1.267   5.007
 4528SOL    HW114483   4.606   1.343   5.029
 4528SOL    HW214484   4.509   1.227   5.091
 4529SOL     OW14485   2.817   0.885   5.518
 4529SOL    HW114486   2.742   0.951   5.523
 4529SOL    HW214487   2.809   0.831   5.435
 4530SOL     OW14488   2.251   6.340   5.080
 4530SOL    HW114489   2.239   6.400   5.001
 4530SOL    HW214490   2.315   6.266   5.057
 4531SOL     OW14491   0.762   4.735   6.207
 4531SOL    HW114492   0.756   4.745   6.107
 4531SOL    HW214493   0.769   4.638   6.230
 4532SOL     OW14494   5.461   0.471   2.899
 4532SOL    HW114495   5.434   0.567   2.907
 4532SOL    HW214496   5.554   0.460   2.933
 4533SOL     OW14497   2.340   0.789   2.172
 4533SOL    HW114498   2.274   0.792   2.248
 4533SOL    HW214499   2.355   0.882   2.139
 4534SOL     OW14500   4.698   1.781   4.515
 4534SOL    HW114501   4.752   1.865   4.504
 4534SOL    HW214502   4.689   1.737   4.426
 4535SOL     OW14503   3.044   1.864   1.164
 4535SOL    HW114504   3.035   1.855   1.065
 4535SOL    HW214505   3.053   1.773   1.205
 4536SOL     OW14506   2.684   1.724   5.967
 4536SOL    HW114507   2.665   1.751   6.061
 4536SOL    HW214508   2.669   1.802   5.906
 4537SOL     OW14509   3.210   3.701   4.532
 4537SOL    HW114510   3.114   3.728   4.523
 4537SOL    HW214511   3.265   3.779   4.561
 4538SOL     OW14512   6.719   2.431   1.239
 4538SOL    HW114513   6.643   2.473   1.288
 4538SOL    HW214514   6.694   2.336   1.216
 4539SOL     OW14515   1.449   5.459   5.386
 4539SOL    HW114516   1.496   5.546   5.395
 4539SOL    HW214517   1.515   5.388   5.359
 4540SOL     OW14518   6.951   1.244   1.076
 4540SOL    HW114519   6.885   1.319   1.078
 4540SOL    HW214520   6.903   1.157   1.065
 4541SOL     OW14521   4.176   2.040   6.205
 4541SOL    HW114522   4.270   2.035   6.240
 4541SOL    HW214523   4.136   1.949   6.204
 4542SOL     OW14524   6.906   2.660   1.314
 4542SOL    HW114525   6.937   2.654   1.409
 4542SOL    HW214526   6.858   2.575   1.289
 4543SOL     OW14527   3.360   1.972   6.947
 4543SOL    HW114528   3.304   2.048   6.915
 4543SOL    HW214529   3.456   1.987   6.922
 4544SOL     OW14530   5.771   5.075   0.504
 4544SOL    HW114531   5.736   5.100   0.414
 4544SOL    HW214532   5.812   4.984   0.500
 4545SOL     OW14533   1.352   3.805   4.978
 4545SOL    HW114534   1.340   3.808   4.879
 4545SOL    HW214535   1.426   3.866   5.005
 4546SOL     OW14536   2.570   1.210   6.060
 4546SOL    HW114537   2.595   1.133   6.119
 4546SOL    HW214538   2.525   1.281   6.114
 4547SOL     OW14539   6.004   0.557   0.371
 4547SOL    HW114540   5.985   0.646   0.329
 4547SOL    HW214541   6.088   0.564   0.424
 4548SOL     OW14542   2.174   3.001   2.392
 4548SOL    HW114543   2.137   2.972   2.480
 4548SOL    HW214544   2.165   3.100   2.382
 4549SOL     OW14545   5.730   4.176   2.335
 4549SOL    HW114546   5.688   4.093   2.299
 4549SOL    HW214547   5.668   4.254   2.322
 4550SOL     OW14548   0.486   4.397   2.853
 4550SOL    HW114549   0.457   4.322   2.795
 4550SOL    HW214550   0.467   4.374   2.949
 4551SOL     OW14551   1.797   3.524   5.297
 4551SOL    HW114552   1.883   3.483   5.326
 4551SOL    HW214553   1.786   3.613   5.341
 4552SOL     OW14554   5.989   1.237   1.723
 4552SOL    HW114555   5.948   1.327   1.736
 4552SOL    HW214556   6.078   1.247   1.678
 4553SOL     OW14557   5.328   4.544   6.162
 4553SOL    HW114558   5.401   4.583   6.218
 4553SOL    HW214559   5.252   4.608   6.156
 4554SOL     OW14560   0.583   6.721   1.488
 4554SOL    HW114561   0.614   6.626   1.492
 4554SOL    HW214562   0.541   6.746   1.575
 4555SOL     OW14563   1.100   1.213   6.736
 4555SOL    HW114564   1.027   1.224   6.803
 4555SOL    HW214565   1.088   1.281   6.663
 4556SOL     OW14566   6.213   3.110   5.845
 4556SOL    HW114567   6.248   3.066   5.928
 4556SOL    HW214568   6.113   3.105   5.845
 4557SOL     OW14569   5.810   5.131   3.402
 4557SOL    HW114570   5.739   5.140   3.472
 4557SOL    HW214571   5.858   5.044   3.414
 4558SOL     OW14572   6.601   2.856   4.980
 4558SOL    HW114573   6.606   2.889   5.074
 4558SOL    HW214574   6.524   2.793   4.971
 4559SOL     OW14575   0.918   2.888   2.813
 4559SOL    HW114576   0.971   2.940   2.746
 4559SOL    HW214577   0.825   2.876   2.780
 4560SOL     OW14578   6.476   4.903   2.119
 4560SOL    HW114579   6.544   4.842   2.078
 4560SOL    HW214580   6.482   4.993   2.077
 4561SOL     OW14581   3.314   2.091   4.315
 4561SOL    HW114582   3.221   2.064   4.289
 4561SOL    HW214583   3.372   2.095   4.233
 4562SOL     OW14584   1.780   0.365   0.867
 4562SOL    HW114585   1.746   0.303   0.797
 4562SOL    HW214586   1.849   0.319   0.923
 4563SOL     OW14587   0.435   3.243   1.725
 4563SOL    HW114588   0.354   3.191   1.753
 4563SOL    HW214589   0.453   3.314   1.794
 4564SOL     OW14590   0.221   4.445   2.037
 4564SOL    HW114591   0.158   4.388   1.984
 4564SOL    HW214592   0.178   4.473   2.122
 4565SOL     OW14593   2.251   6.843   4.883
 4565SOL    HW114594   2.278   6.814   4.975
 4565SOL    HW214595   2.152   6.832   4.872
 4566SOL     OW14596   6.722   4.151   1.743
 4566SOL    HW114597   6.714   4.085   1.817
 4566SOL    HW214598   6.819   4.175   1.730
 4567SOL     OW14599   0.256   6.822   6.068
 4567SOL    HW114600   0.266   6.847   5.972
 4567SOL    HW214601   0.163   6.787   6.084
 4568SOL     OW14602   0.641   4.963   3.916
 4568SOL    HW114603   0.541   4.963   3.916
 4568SOL    HW214604   0.674   5.056   3.935
 4569SOL     OW14605   2.945   1.317   3.209
 4569SOL    HW114606   2.856   1.347   3.244
 4569SOL    HW214607   2.999   1.396   3.181
 4570SOL     OW14608   6.449   5.737   1.314
 4570SOL    HW114609   6.448   5.687   1.401
 4570SOL    HW214610   6.484   5.830   1.330
 4571SOL     OW14611   3.784   2.930   6.351
 4571SOL    HW114612   3.699   2.896   6.393
 4571SOL    HW214613   3.838   2.852   6.320
 4572SOL     OW14614   2.590   3.105   0.488
 4572SOL    HW114615   2.608   3.188   0.541
 4572SOL    HW214616   2.615   3.025   0.542
 4573SOL     OW14617   0.974   6.749   1.416
 4573SOL    HW114618   1.004   6.732   1.322
 4573SOL    HW214619   0.879   6.718   1.426
 4574SOL     OW14620   6.471   3.349   0.377
 4574SOL    HW114621   6.412   3.384   0.450
 4574SOL    HW214622   6.552   3.407   0.369
 4575SOL     OW14623   6.208   0.978   4.199
 4575SOL    HW114624   6.181   0.991   4.295
 4575SOL    HW214625   6.127   0.979   4.141
 4576SOL     OW14626   2.706   5.337   5.037
 4576SOL    HW114627   2.689   5.320   5.134
 4576SOL    HW214628   2.628   5.306   4.983
 4577SOL     OW14629   2.029   1.912   3.168
 4577SOL    HW114630   1.993   2.006   3.173
 4577SOL    HW214631   2.127   1.916   3.145
 4578SOL     OW14632   1.750   0.589   2.636
 4578SOL    HW114633   1.799   0.556   2.716
 4578SOL    HW214634   1.720   0.511   2.580
 4579SOL     OW14635   4.176   0.108   2.023
 4579SOL    HW114636   4.235   0.089   1.945
 4579SOL    HW214637   4.213   0.063   2.104
 4580SOL     OW14638   6.382   3.489   0.142
 4580SOL    HW114639   6.462   3.531   0.100
 4580SOL    HW214640   6.403   3.394   0.167
 4581SOL     OW14641   3.748   6.870   2.142
 4581SOL    HW114642   3.720   6.935   2.213
 4581SOL    HW214643   3.732   6.777   2.174
 4582SOL     OW14644   5.755   0.685   2.639
 4582SOL    HW114645   5.834   0.724   2.592
 4582SOL    HW214646   5.755   0.714   2.735
 4583SOL     OW14647   2.082   0.001   6.605
 4583SOL    HW114648   2.037   6.935   6.584
 4583SOL    HW214649   2.048   0.036   6.692
 4584SOL     OW14650   1.786   0.106   6.176
 4584SOL    HW114651   1.856   0.107   6.105
 4584SOL    HW214652   1.826   0.073   6.262
 4585SOL     OW14653   1.489   4.440   3.052
 4585SOL    HW114654   1.436   4.513   3.009
 4585SOL    HW214655   1.533   4.476   3.135
 4586SOL     OW14656   5.088   4.322   0.070
 4586SOL    HW114657   5.057   4.260   0.142
 4586SOL    HW214658   5.069   4.282   7.000
 4587SOL     OW14659   3.201   3.440   4.470
 4587SOL    HW114660   3.229   3.535   4.477
 4587SOL    HW214661   3.105   3.436   4.441
 4588SOL     OW14662   2.912   4.091   6.004
 4588SOL    HW114663   2.812   4.093   6.013
 4588SOL    HW214664   2.953   4.137   6.082
 4589SOL     OW14665   5.239   6.132   2.337
 4589SOL    HW114666   5.309   6.148   2.406
 4589SOL    HW214667   5.148   6.137   2.378
 4590SOL     OW14668   3.450   5.465   2.112
 4590SOL    HW114669   3.468   5.511   2.199
 4590SOL    HW214670   3.369   5.407   2.121
 4591SOL     OW14671   2.588   6.935   5.230
 4591SOL    HW114672   2.505   6.975   5.268
 4591SOL    HW214673   2.647   6.904   5.304
 4592SOL     OW14674   2.411   1.263   4.770
 4592SOL    HW114675   2.317   1.293   4.783
 4592SOL    HW214676   2.462   1.278   4.855
 4593SOL     OW14677   6.946   5.820   3.227
 4593SOL    HW114678   6.905   5.910   3.232
 4593SOL    HW214679   7.019   5.820   3.158
 4594SOL     OW14680   2.211   0.268   3.018
 4594SOL    HW114681   2.231   0.303   2.927
 4594SOL    HW214682   2.247   0.175   3.026
 4595SOL     OW14683   5.017   1.400   6.366
 4595SOL    HW114684   4.990   1.310   6.399
 4595SOL    HW214685   5.104   1.426   6.408
 4596SOL     OW14686   0.898   1.084   2.219
 4596SOL    HW114687   0.931   0.997   2.183
 4596SOL    HW214688   0.843   1.129   2.148
 4597SOL     OW14689   2.295   5.490   0.183
 4597SOL    HW114690   2.295   5.409   0.125
 4597SOL    HW214691   2.388   5.508   0.216
 4598SOL     OW14692   1.615   5.399   0.168
 4598SOL    HW114693   1.553   5.329   0.134
 4598SOL    HW214694   1.661   5.367   0.251
 4599SOL     OW14695   1.413   4.015   2.911
 4599SOL    HW114696   1.387   3.936   2.855
 4599SOL    HW214697   1.513   4.022   2.913
 4600SOL     OW14698   0.131   6.286   5.634
 4600SOL    HW114699   0.096   6.378   5.655
 4600SOL    HW214700   0.073   6.218   5.678
 4601SOL     OW14701   0.647   1.019   4.287
 4601SOL    HW114702   0.641   0.931   4.241
 4601SOL    HW214703   0.610   1.090   4.227
 4602SOL     OW14704   3.373   0.421   6.776
 4602SOL    HW114705   3.323   0.477   6.841
 4602SOL    HW214706   3.372   0.325   6.806
 4603SOL     OW14707   4.425   5.919   1.404
 4603SOL    HW114708   4.522   5.923   1.382
 4603SOL    HW214709   4.384   5.840   1.360
 4604SOL     OW14710   4.925   6.490   5.921
 4604SOL    HW114711   4.865   6.547   5.978
 4604SOL    HW214712   4.913   6.394   5.947
 4605SOL     OW14713   2.568   0.029   1.718
 4605SOL    HW114714   2.520   0.061   1.637
 4605SOL    HW214715   2.506   6.996   1.775
 4606SOL     OW14716   0.181   6.636   2.875
 4606SOL    HW114717   0.247   6.643   2.951
 4606SOL    HW214718   0.215   6.688   2.797
 4607SOL     OW14719   1.865   3.591   3.127
 4607SOL    HW114720   1.944   3.530   3.133
 4607SOL    HW214721   1.838   3.620   3.219
 4608SOL     OW14722   6.947   3.242   4.750
 4608SOL    HW114723   6.931   3.252   4.848
 4608SOL    HW214724   6.968   3.331   4.710
 4609SOL     OW14725   4.159   6.505   6.756
 4609SOL    HW114726   4.101   6.439   6.805
 4609SOL    HW214727   4.101   6.561   6.697
 4610SOL     OW14728   5.448   2.136   0.532
 4610SOL    HW114729   5.521   2.068   0.532
 4610SOL    HW214730   5.485   2.225   0.558
 4611SOL     OW14731   0.897   0.655   5.822
 4611SOL    HW114732   0.893   0.557   5.803
 4611SOL    HW214733   0.823   0.680   5.884
 4612SOL     OW14734   2.233   6.393   2.549
 4612SOL    HW114735   2.199   6.318   2.606
 4612SOL    HW214736   2.330   6.407   2.566
 4613SOL     OW14737   1.992   4.485   1.554
 4613SOL    HW114738   2.048   4.533   1.621
 4613SOL    HW214739   1.977   4.391   1.585
 4614SOL     OW14740   5.763   3.459   4.306
 4614SOL    HW114741   5.824   3.382   4.289
 4614SOL    HW214742   5.693   3.432   4.373
 4615SOL     OW14743   1.334   1.481   1.073
 4615SOL    HW114744   1.408   1.488   1.006
 4615SOL    HW214745   1.352   1.404   1.135
 4616SOL     OW14746   6.322   2.760   4.422
 4616SOL    HW114747   6.330   2.827   4.495
 4616SOL    HW214748   6.241   2.704   4.436
 4617SOL     OW14749   0.448   2.859   1.901
 4617SOL    HW114750   0.460   2.811   1.815
 4617SOL    HW214751   0.530   2.912   1.922
 4618SOL     OW14752   2.506   4.141   5.757
 4618SOL    HW114753   2.552   4.069   5.705
 4618SOL    HW214754   2.521   4.229   5.711
 4619SOL     OW14755   3.088   5.745   4.645
 4619SOL    HW114756   3.009   5.746   4.706
 4619SOL    HW214757   3.059   5.723   4.552
 4620SOL     OW14758   0.699   5.393   1.918
 4620SOL    HW114759   0.746   5.444   1.990
 4620SOL    HW214760   0.752   5.312   1.894
 4621SOL     OW14761   5.089   0.554   2.595
 4621SOL    HW114762   5.071   0.457   2.613
 4621SOL    HW214763   5.119   0.598   2.680
 4622SOL     OW14764   4.038   5.818   1.369
 4622SOL    HW114765   4.005   5.817   1.274
 4622SOL    HW214766   4.074   5.728   1.392
 4623SOL     OW14767   3.304   5.251   1.237
 4623SOL    HW114768   3.346   5.297   1.158
 4623SOL    HW214769   3.258   5.168   1.207
 4624SOL     OW14770   3.545   1.175   3.267
 4624SOL    HW114771   3.610   1.099   3.275
 4624SOL    HW214772   3.481   1.156   3.193
 4625SOL     OW14773   1.602   5.131   1.948
 4625SOL    HW114774   1.647   5.045   1.971
 4625SOL    HW214775   1.661   5.184   1.886
 4626SOL     OW14776   3.958   3.966   1.677
 4626SOL    HW114777   3.940   4.063   1.695
 4626SOL    HW214778   4.054   3.946   1.696
 4627SOL     OW14779   6.791   6.188   4.920
 4627SOL    HW114780   6.877   6.192   4.870
 4627SOL    HW214781   6.805   6.143   5.008
 4628SOL     OW14782   4.772   5.143   3.217
 4628SOL    HW114783   4.699   5.186   3.271
 4628SOL    HW214784   4.736   5.120   3.126
 4629SOL     OW14785   1.796   5.554   6.958
 4629SOL    HW114786   1.735   5.503   6.898
 4629SOL    HW214787   1.746   5.587   0.018
 4630SOL     OW14788   1.475   4.489   2.556
 4630SOL    HW114789   1.498   4.397   2.525
 4630SOL    HW214790   1.398   4.523   2.502
 4631SOL     OW14791   0.100   0.748   4.104
 4631SOL    HW114792   0.040   0.668   4.113
 4631SOL    HW214793   0.075   0.798   4.021
 4632SOL     OW14794   2.987   5.098   2.542
 4632SOL    HW114795   3.075   5.134   2.574
 4632SOL    HW214796   3.003   5.013   2.493
 4633SOL     OW14797   5.075   1.399   3.947
 4633SOL    HW114798   5.086   1.351   4.034
 4633SOL    HW214799   5.022   1.343   3.884
 4634SOL     OW14800   2.923   3.558   4.692
 4634SOL    HW114801   2.944   3.471   4.647
 4634SOL    HW214802   2.893   3.540   4.786
 4635SOL     OW14803   5.453   5.661   0.534
 4635SOL    HW114804   5.391   5.647   0.611
 4635SOL    HW214805   5.493   5.573   0.507
 4636SOL     OW14806   1.750   5.304   0.385
 4636SOL    HW114807   1.764   5.215   0.343
 4636SOL    HW214808   1.801   5.310   0.470
 4637SOL     OW14809   2.078   0.120   2.344
 4637SOL    HW114810   2.102   0.087   2.253
 4637SOL    HW214811   2.150   0.094   2.409
 4638SOL     OW14812   3.954   5.155   0.856
 4638SOL    HW114813   4.002   5.230   0.811
 4638SOL    HW214814   4.017   5.079   0.873
 4639SOL     OW14815   2.032   2.356   0.483
 4639SOL    HW114816   1.944   2.310   0.490
 4639SOL    HW214817   2.075   2.360   0.573
 4640SOL     OW14818   6.353   3.090   5.404
 4640SOL    HW114819   6.329   3.092   5.307
 4640SOL    HW214820   6.409   3.009   5.423
 4641SOL     OW14821   0.595   5.880   3.736
 4641SOL    HW114822   0.681   5.836   3.758
 4641SOL    HW214823   0.610   5.978   3.724
 4642SOL     OW14824   1.957   1.858   3.435
 4642SOL    HW114825   1.986   1.763   3.443
 4642SOL    HW214826   1.966   1.888   3.340
 4643SOL     OW14827   6.784   2.315   7.014
 4643SOL    HW114828   6.817   2.409   7.011
 4643SOL    HW214829   6.779   2.284   0.089
 4644SOL     OW14830   1.723   1.101   6.862
 4644SOL    HW114831   1.811   1.079   6.820
 4644SOL    HW214832   1.699   1.029   6.928
 4645SOL     OW14833   1.173   1.014   3.723
 4645SOL    HW114834   1.110   1.034   3.798
 4645SOL    HW214835   1.132   0.946   3.662
 4646SOL     OW14836   1.865   5.655   3.625
 4646SOL    HW114837   1.882   5.752   3.643
 4646SOL    HW214838   1.841   5.609   3.711
 4647SOL     OW14839   2.031   6.363   2.899
 4647SOL    HW114840   1.986   6.311   2.826
 4647SOL    HW214841   1.962   6.414   2.950
 4648SOL     OW14842   3.453   1.314   3.962
 4648SOL    HW114843   3.389   1.238   3.948
 4648SOL    HW214844   3.403   1.392   4.001
 4649SOL     OW14845   6.020   0.749   0.718
 4649SOL    HW114846   5.982   0.665   0.756
 4649SOL    HW214847   6.116   0.734   0.694
 4650SOL     OW14848   5.085   6.296   1.320
 4650SOL    HW114849   5.125   6.370   1.374
 4650SOL    HW214850   5.102   6.208   1.365
 4651SOL     OW14851   6.642   3.409   6.142
 4651SOL    HW114852   6.731   3.364   6.152
 4651SOL    HW214853   6.627   3.432   6.046
 4652SOL     OW14854   6.851   6.365   4.666
 4652SOL    HW114855   6.873   6.396   4.574
 4652SOL    HW214856   6.753   6.380   4.684
 4653SOL     OW14857   5.223   5.718   0.695
 4653SOL    HW114858   5.278   5.774   0.756
 4653SOL    HW214859   5.156   5.775   0.648
 4654SOL     OW14860   6.887   6.635   4.963
 4654SOL    HW114861   6.836   6.617   5.047
 4654SOL    HW214862   6.956   6.564   4.949
 4655SOL     OW14863   4.733   2.417   0.919
 4655SOL    HW114864   4.673   2.380   0.990
 4655SOL    HW214865   4.827   2.417   0.952
 4656SOL     OW14866   0.607   0.943   1.693
 4656SOL    HW114867   0.527   0.996   1.666
 4656SOL    HW214868   0.665   0.928   1.613
 4657SOL     OW14869   5.204   6.669   2.137
 4657SOL    HW114870   5.114   6.680   2.094
 4657SOL    HW214871   5.198   6.601   2.210
 4658SOL     OW14872   2.768   2.452   5.143
 4658SOL    HW114873   2.818   2.374   5.107
 4658SOL    HW214874   2.694   2.477   5.080
 4659SOL     OW14875   3.312   4.691   0.770
 4659SOL    HW114876   3.375   4.747   0.717
 4659SOL    HW214877   3.240   4.654   0.710
 4660SOL     OW14878   1.060   6.615   4.154
 4660SOL    HW114879   1.069   6.516   4.161
 4660SOL    HW214880   0.970   6.637   4.114
 4661SOL     OW14881   2.031   3.840   5.825
 4661SOL    HW114882   2.013   3.909   5.895
 4661SOL    HW214883   2.068   3.883   5.743
 4662SOL     OW14884   3.023   6.246   4.744
 4662SOL    HW114885   2.961   6.168   4.730
 4662SOL    HW214886   3.083   6.256   4.665
 4663SOL     OW14887   1.134   0.497   6.928
 4663SOL    HW114888   1.038   0.477   6.911
 4663SOL    HW214889   1.171   0.550   6.852
 4664SOL     OW14890   6.586   7.017   0.609
 4664SOL    HW114891   6.561   0.051   0.690
 4664SOL    HW214892   6.667   6.962   0.629
 4665SOL     OW14893   2.308   0.494   5.527
 4665SOL    HW114894   2.237   0.508   5.597
 4665SOL    HW214895   2.276   0.529   5.439
 4666SOL     OW14896   1.998   2.536   6.399
 4666SOL    HW114897   2.057   2.617   6.408
 4666SOL    HW214898   2.054   2.454   6.401
 4667SOL     OW14899   6.393   3.340   1.758
 4667SOL    HW114900   6.351   3.431   1.761
 4667SOL    HW214901   6.325   3.273   1.730
 4668SOL     OW14902   3.930   2.176   4.814
 4668SOL    HW114903   3.969   2.140   4.730
 4668SOL    HW214904   3.831   2.179   4.806
 4669SOL     OW14905   5.458   6.803   0.381
 4669SOL    HW114906   5.518   6.880   0.401
 4669SOL    HW214907   5.508   6.733   0.330
 4670SOL     OW14908   1.262   3.366   0.235
 4670SOL    HW114909   1.227   3.434   0.298
 4670SOL    HW214910   1.194   3.349   0.163
 4671SOL     OW14911   0.801   3.706   0.275
 4671SOL    HW114912   0.845   3.628   0.230
 4671SOL    HW214913   0.807   3.694   0.374
 4672SOL     OW14914   3.707   4.274   5.782
 4672SOL    HW114915   3.784   4.221   5.746
 4672SOL    HW214916   3.652   4.215   5.841
 4673SOL     OW14917   5.553   0.360   6.550
 4673SOL    HW114918   5.543   0.339   6.647
 4673SOL    HW214919   5.596   0.450   6.539
 4674SOL     OW14920   0.474   1.756   0.276
 4674SOL    HW114921   0.492   1.801   0.363
 4674SOL    HW214922   0.375   1.746   0.263
 4675SOL     OW14923   3.208   6.111   0.378
 4675SOL    HW114924   3.287   6.049   0.381
 4675SOL    HW214925   3.234   6.194   0.330
 4676SOL     OW14926   0.672   6.521   4.490
 4676SOL    HW114927   0.615   6.504   4.410
 4676SOL    HW214928   0.756   6.568   4.462
 4677SOL     OW14929   3.940   0.272   6.651
 4677SOL    HW114930   3.963   0.222   6.735
 4677SOL    HW214931   3.841   0.285   6.646
 4678SOL     OW14932   1.980   4.593   0.960
 4678SOL    HW114933   2.004   4.592   1.057
 4678SOL    HW214934   2.058   4.625   0.907
 4679SOL     OW14935   2.872   0.579   6.366
 4679SOL    HW114936   2.818   0.547   6.288
 4679SOL    HW214937   2.814   0.633   6.426
 4680SOL     OW14938   1.625   4.513   1.255
 4680SOL    HW114939   1.655   4.562   1.174
 4680SOL    HW214940   1.573   4.575   1.314
 4681SOL     OW14941   0.388   5.064   5.586
 4681SOL    HW114942   0.397   5.149   5.637
 4681SOL    HW214943   0.472   5.010   5.597
 4682SOL     OW14944   3.969   6.610   0.152
 4682SOL    HW114945   3.944   6.653   0.065
 4682SOL    HW214946   3.968   6.678   0.224
 4683SOL     OW14947   6.170   3.708   2.474
 4683SOL    HW114948   6.150   3.724   2.378
 4683SOL    HW214949   6.198   3.613   2.487
 4684SOL     OW14950   1.296   2.352   4.674
 4684SOL    HW114951   1.246   2.344   4.588
 4684SOL    HW214952   1.393   2.336   4.657
 4685SOL     OW14953   5.548   5.294   4.061
 4685SOL    HW114954   5.626   5.235   4.040
 4685SOL    HW214955   5.523   5.347   3.980
 4686SOL     OW14956   5.243   5.403   6.796
 4686SOL    HW114957   5.319   5.457   6.759
 4686SOL    HW214958   5.165   5.409   6.735
 4687SOL     OW14959   6.306   4.407   4.595
 4687SOL    HW114960   6.352   4.384   4.681
 4687SOL    HW214961   6.277   4.324   4.549
 4688SOL     OW14962   0.535   3.608   0.084
 4688SOL    HW114963   0.624   3.627   0.043
 4688SOL    HW214964   0.511   3.512   0.068
 4689SOL     OW14965   6.932   6.344   5.457
 4689SOL    HW114966   6.999   6.270   5.444
 4689SOL    HW214967   6.977   6.421   5.502
 4690SOL     OW14968   1.786   1.502   6.869
 4690SOL    HW114969   1.748   1.562   6.799
 4690SOL    HW214970   1.850   1.438   6.826
 4691SOL     OW14971   2.557   4.332   0.719
 4691SOL    HW114972   2.569   4.233   0.734
 4691SOL    HW214973   2.618   4.382   0.779
 4692SOL     OW14974   6.995   5.083   3.061
 4692SOL    HW114975   6.998   5.029   3.145
 4692SOL    HW214976   0.063   5.131   3.050
 4693SOL     OW14977   0.587   1.192   4.551
 4693SOL    HW114978   0.638   1.122   4.500
 4693SOL    HW214979   0.518   1.233   4.491
 4694SOL     OW14980   2.013   1.595   0.117
 4694SOL    HW114981   2.090   1.655   0.140
 4694SOL    HW214982   1.927   1.639   0.143
 4695SOL     OW14983   4.137   3.131   1.671
 4695SOL    HW114984   4.160   3.143   1.574
 4695SOL    HW214985   4.146   3.218   1.718
 4696SOL     OW14986   0.338   3.627   6.102
 4696SOL    HW114987   0.332   3.676   6.189
 4696SOL    HW214988   0.248   3.628   6.058
 4697SOL     OW14989   1.255   4.272   0.006
 4697SOL    HW114990   1.332   4.274   0.070
 4697SOL    HW214991   1.287   4.239   6.937
 4698SOL     OW14992   5.450   4.123   1.442
 4698SOL    HW114993   5.370   4.077   1.405
 4698SOL    HW214994   5.449   4.117   1.542
 4699SOL     OW14995   0.142   0.580   2.600
 4699SOL    HW114996   0.124   0.678   2.612
 4699SOL    HW214997   0.098   0.529   2.673
 4700SOL     OW14998   5.323   1.596   1.035
 4700SOL    HW114999   5.265   1.626   0.960
 4700SOL    HW215000   5.309   1.498   1.051
 4701SOL     OW15001   1.049   1.573   0.239
 4701SOL    HW115002   1.135   1.596   0.195
 4701SOL    HW215003   0.973   1.595   0.178
 4702SOL     OW15004   3.660   4.031   6.443
 4702SOL    HW115005   3.614   4.111   6.481
 4702SOL    HW215006   3.609   3.948   6.466
 4703SOL     OW15007   1.946   1.114   3.019
 4703SOL    HW115008   2.037   1.076   3.002
 4703SOL    HW215009   1.942   1.151   3.112
 4704SOL     OW15010   0.736   0.037   0.713
 4704SOL    HW115011   0.679   0.043   0.794
 4704SOL    HW215012   0.831   0.060   0.737
 4705SOL     OW15013   3.588   2.943   4.049
 4705SOL    HW115014   3.602   2.848   4.022
 4705SOL    HW215015   3.675   2.992   4.046
 4706SOL     OW15016   3.741   6.267   6.878
 4706SOL    HW115017   3.759   6.176   6.914
 4706SOL    HW215018   3.699   6.323   6.950
 4707SOL     OW15019   1.731   5.730   1.291
 4707SOL    HW115020   1.773   5.753   1.204
 4707SOL    HW215021   1.714   5.632   1.295
 4708SOL     OW15022   3.389   2.912   1.078
 4708SOL    HW115023   3.478   2.953   1.058
 4708SOL    HW215024   3.379   2.828   1.025
 4709SOL     OW15025   4.094   4.842   5.678
 4709SOL    HW115026   4.128   4.802   5.763
 4709SOL    HW215027   3.997   4.821   5.668
 4710SOL     OW15028   5.324   0.878   6.895
 4710SOL    HW115029   5.230   0.911   6.902
 4710SOL    HW215030   5.387   0.955   6.887
 4711SOL     OW15031   3.024   0.049   2.544
 4711SOL    HW115032   3.009   6.979   2.586
 4711SOL    HW215033   3.110   0.087   2.578
 4712SOL     OW15034   2.092   4.356   0.853
 4712SOL    HW115035   2.045   4.426   0.907
 4712SOL    HW215036   2.165   4.399   0.800
 4713SOL     OW15037   2.132   5.459   1.384
 4713SOL    HW115038   2.099   5.527   1.448
 4713SOL    HW215039   2.132   5.369   1.427
 4714SOL     OW15040   2.874   1.551   1.632
 4714SOL    HW115041   2.783   1.547   1.590
 4714SOL    HW215042   2.875   1.492   1.713
 4715SOL     OW15043   6.879   2.743   2.972
 4715SOL    HW115044   6.947   2.687   2.926
 4715SOL    HW215045   6.791   2.734   2.925
 4716SOL     OW15046   3.517   5.701   0.230
 4716SOL    HW115047   3.574   5.633   0.277
 4716SOL    HW215048   3.425   5.664   0.216
 4717SOL     OW15049   0.987   5.934   3.007
 4717SOL    HW115050   0.909   5.971   2.956
 4717SOL    HW215051   1.040   5.874   2.948
 4718SOL     OW15052   5.582   1.423   6.438
 4718SOL    HW115053   5.591   1.446   6.535
 4718SOL    HW215054   5.665   1.377   6.407
 4719SOL     OW15055   5.583   3.645   2.133
 4719SOL    HW115056   5.640   3.619   2.055
 4719SOL    HW215057   5.572   3.567   2.195
 4720SOL     OW15058   2.543   6.945   5.893
 4720SOL    HW115059   2.634   6.921   5.928
 4720SOL    HW215060   2.475   6.883   5.931
 4721SOL     OW15061   1.634   2.177   1.102
 4721SOL    HW115062   1.619   2.177   1.003
 4721SOL    HW215063   1.546   2.184   1.149
 4722SOL     OW15064   1.504   6.712   0.495
 4722SOL    HW115065   1.601   6.731   0.509
 4722SOL    HW215066   1.470   6.654   0.569
 4723SOL     OW15067   2.746   6.551   6.516
 4723SOL    HW115068   2.681   6.599   6.574
 4723SOL    HW215069   2.755   6.598   6.429
 4724SOL     OW15070   3.910   6.647   2.005
 4724SOL    HW115071   3.838   6.694   1.953
 4724SOL    HW215072   3.877   6.557   2.032
 4725SOL     OW15073   5.346   6.582   3.043
 4725SOL    HW115074   5.293   6.644   2.985
 4725SOL    HW215075   5.286   6.543   3.112
 4726SOL     OW15076   1.044   3.679   6.922
 4726SOL    HW115077   1.038   3.723   6.833
 4726SOL    HW215078   1.098   3.735   6.984
 4727SOL     OW15079   0.167   5.776   0.139
 4727SOL    HW115080   0.071   5.779   0.168
 4727SOL    HW215081   0.214   5.858   0.173
 4728SOL     OW15082   6.630   0.777   6.600
 4728SOL    HW115083   6.659   0.866   6.565
 4728SOL    HW215084   6.709   0.729   6.639
 4729SOL     OW15085   2.965   6.903   2.323
 4729SOL    HW115086   2.977   6.961   2.404
 4729SOL    HW215087   2.935   6.959   2.246
 4730SOL     OW15088   2.236   6.041   5.692
 4730SOL    HW115089   2.219   6.127   5.645
 4730SOL    HW215090   2.334   6.030   5.708
 4731SOL     OW15091   5.616   0.810   4.957
 4731SOL    HW115092   5.564   0.742   4.907
 4731SOL    HW215093   5.554   0.866   5.013
 4732SOL     OW15094   6.818   3.048   6.650
 4732SOL    HW115095   6.773   3.043   6.739
 4732SOL    HW215096   6.822   3.143   6.620
 4733SOL     OW15097   0.002   3.581   3.505
 4733SOL    HW115098   6.924   3.598   3.495
 4733SOL    HW215099   0.017   3.492   3.546
 4734SOL     OW15100   4.362   3.717   0.119
 4734SOL    HW115101   4.398   3.677   0.203
 4734SOL    HW215102   4.436   3.765   0.072
 4735SOL     OW15103   0.800   4.767   4.098
 4735SOL    HW115104   0.736   4.813   4.037
 4735SOL    HW215105   0.833   4.683   4.054
 4736SOL     OW15106   1.183   0.965   6.783
 4736SOL    HW115107   1.152   1.056   6.755
 4736SOL    HW215108   1.234   0.972   6.868
 4737SOL     OW15109   2.568   4.986   1.773
 4737SOL    HW115110   2.571   4.980   1.873
 4737SOL    HW215111   2.492   5.046   1.747
 4738SOL     OW15112   7.015   6.631   1.750
 4738SOL    HW115113   6.939   6.696   1.742
 4738SOL    HW215114   6.990   6.546   1.705
 4739SOL     OW15115   4.223   0.679   2.458
 4739SOL    HW115116   4.227   0.588   2.500
 4739SOL    HW215117   4.190   0.671   2.364
 4740SOL     OW15118   0.921   1.878   2.716
 4740SOL    HW115119   0.878   1.862   2.627
 4740SOL    HW215120   0.850   1.898   2.784
 4741SOL     OW15121   4.480   3.383   1.696
 4741SOL    HW115122   4.444   3.439   1.621
 4741SOL    HW215123   4.570   3.418   1.724
 4742SOL     OW15124   3.138   0.034   0.558
 4742SOL    HW115125   3.161   6.982   0.623
 4742SOL    HW215126   3.049   0.073   0.581
 4743SOL     OW15127   2.013   4.916   1.469
 4743SOL    HW115128   1.969   4.831   1.497
 4743SOL    HW215129   2.031   4.913   1.371
 4744SOL     OW15130   1.904   6.948   0.905
 4744SOL    HW115131   1.999   6.918   0.914
 4744SOL    HW215132   1.892   0.016   0.950
 4745SOL     OW15133   1.835   4.022   0.516
 4745SOL    HW115134   1.868   4.104   0.564
 4745SOL    HW215135   1.902   3.995   0.447
 4746SOL     OW15136   4.585   5.268   4.303
 4746SOL    HW115137   4.682   5.250   4.320
 4746SOL    HW215138   4.554   5.343   4.362
 4747SOL     OW15139   1.799   2.708   0.773
 4747SOL    HW115140   1.847   2.622   0.753
 4747SOL    HW215141   1.790   2.761   0.688
 4748SOL     OW15142   2.141   6.643   3.213
 4748SOL    HW115143   2.086   6.568   3.248
 4748SOL    HW215144   2.099   6.677   3.128
 4749SOL     OW15145   1.792   0.244   0.495
 4749SOL    HW115146   1.708   0.287   0.460
 4749SOL    HW215147   1.812   0.162   0.442
 4750SOL     OW15148   5.583   3.665   5.428
 4750SOL    HW115149   5.633   3.727   5.367
 4750SOL    HW215150   5.636   3.581   5.441
 4751SOL     OW15151   4.896   1.104   2.893
 4751SOL    HW115152   4.937   1.096   2.983
 4751SOL    HW215153   4.803   1.140   2.901
 4752SOL     OW15154   3.983   1.947   6.842
 4752SOL    HW115155   3.936   1.993   6.767
 4752SOL    HW215156   4.034   1.868   6.807
 4753SOL     OW15157   2.412   6.154   4.956
 4753SOL    HW115158   2.508   6.170   4.977
 4753SOL    HW215159   2.400   6.062   4.921
 4754SOL     OW15160   4.511   4.779   6.622
 4754SOL    HW115161   4.499   4.835   6.540
 4754SOL    HW215162   4.489   4.684   6.601
 4755SOL     OW15163   1.129   0.964   1.492
 4755SOL    HW115164   1.137   0.866   1.476
 4755SOL    HW215165   1.201   0.994   1.554
 4756SOL     OW15166   6.252   4.457   6.441
 4756SOL    HW115167   6.255   4.448   6.541
 4756SOL    HW215168   6.301   4.380   6.400
 4757SOL     OW15169   1.925   3.196   1.404
 4757SOL    HW115170   1.914   3.228   1.310
 4757SOL    HW215171   2.021   3.200   1.430
 4758SOL     OW15172   2.043   6.862   2.652
 4758SOL    HW115173   2.025   6.946   2.703
 4758SOL    HW215174   2.124   6.816   2.689
 4759SOL     OW15175   0.976   4.862   1.575
 4759SOL    HW115176   0.985   4.819   1.664
 4759SOL    HW215177   0.891   4.833   1.531
 4760SOL     OW15178   1.999   6.519   0.899
 4760SOL    HW115179   1.921   6.465   0.869
 4760SOL    HW215180   2.044   6.474   0.976
 4761SOL     OW15181   0.653   6.854   0.979
 4761SOL    HW115182   0.638   6.791   0.903
 4761SOL    HW215183   0.568   6.866   1.030
 4762SOL     OW15184   2.004   5.420   2.288
 4762SOL    HW115185   2.006   5.329   2.329
 4762SOL    HW215186   2.079   5.475   2.326
 4763SOL     OW15187   4.800   5.973   1.887
 4763SOL    HW115188   4.770   5.939   1.977
 4763SOL    HW215189   4.832   5.896   1.832
 4764SOL     OW15190   4.200   3.953   5.767
 4764SOL    HW115191   4.274   3.886   5.764
 4764SOL    HW215192   4.114   3.907   5.787
 4765SOL     OW15193   3.942   1.450   5.068
 4765SOL    HW115194   4.031   1.464   5.024
 4765SOL    HW215195   3.905   1.538   5.097
 4766SOL     OW15196   6.938   0.143   4.358
 4766SOL    HW115197   6.888   0.134   4.444
 4766SOL    HW215198   7.001   0.067   4.348
 4767SOL     OW15199   2.353   5.461   4.695
 4767SOL    HW115200   2.317   5.380   4.740
 4767SOL    HW215201   2.439   5.488   4.739
 4768SOL     OW15202   4.586   2.328   0.188
 4768SOL    HW115203   4.682   2.355   0.195
 4768SOL    HW215204   4.573   2.272   0.106
 4769SOL     OW15205   3.260   5.907   1.276
 4769SOL    HW115206   3.241   6.003   1.293
 4769SOL    HW215207   3.177   5.853   1.288
 4770SOL     OW15208   0.549   1.409   5.730
 4770SOL    HW115209   0.643   1.438   5.748
 4770SOL    HW215210   0.488   1.487   5.743
 4771SOL     OW15211   2.383   6.745   5.108
 4771SOL    HW115212   2.355   6.672   5.171
 4771SOL    HW215213   2.477   6.727   5.076
 4772SOL     OW15214   2.194   6.125   1.253
 4772SOL    HW115215   2.230   6.146   1.344
 4772SOL    HW215216   2.173   6.027   1.248
 4773SOL     OW15217   2.415   5.482   5.260
 4773SOL    HW115218   2.402   5.543   5.339
 4773SOL    HW215219   2.496   5.426   5.276
 4774SOL     OW15220   1.797   3.727   0.368
 4774SOL    HW115221   1.711   3.763   0.334
 4774SOL    HW215222   1.865   3.801   0.374
 4775SOL     OW15223   5.874   6.579   5.129
 4775SOL    HW115224   5.896   6.667   5.088
 4775SOL    HW215225   5.844   6.593   5.223
 4776SOL     OW15226   0.850   0.622   6.152
 4776SOL    HW115227   0.910   0.556   6.106
 4776SOL    HW215228   0.759   0.582   6.163
 4777SOL     OW15229   0.899   6.500   1.008
 4777SOL    HW115230   0.856   6.415   0.979
 4777SOL    HW215231   0.866   6.525   1.099
 4778SOL     OW15232   1.442   2.989   5.258
 4778SOL    HW115233   1.516   2.981   5.324
 4778SOL    HW215234   1.357   3.014   5.306
 4779SOL     OW15235   5.489   0.938   3.666
 4779SOL    HW115236   5.536   0.854   3.693
 4779SOL    HW215237   5.491   1.003   3.742
 4780SOL     OW15238   6.522   2.399   5.054
 4780SOL    HW115239   6.453   2.440   4.994
 4780SOL    HW215240   6.608   2.388   5.003
 4781SOL     OW15241   2.102   5.842   2.712
 4781SOL    HW115242   2.145   5.800   2.793
 4781SOL    HW215243   2.007   5.864   2.733
 4782SOL     OW15244   5.842   5.054   4.754
 4782SOL    HW115245   5.746   5.076   4.774
 4782SOL    HW215246   5.873   5.111   4.679
 4783SOL     OW15247   6.500   2.806   1.007
 4783SOL    HW115248   6.450   2.780   1.090
 4783SOL    HW215249   6.598   2.794   1.022
 4784SOL     OW15250   5.627   2.034   6.310
 4784SOL    HW115251   5.662   2.109   6.365
 4784SOL    HW215252   5.687   1.955   6.319
 4785SOL     OW15253   0.718   6.117   3.631
 4785SOL    HW115254   0.698   6.128   3.533
 4785SOL    HW215255   0.764   6.198   3.665
 4786SOL     OW15256   2.500   6.642   0.697
 4786SOL    HW115257   2.518   6.737   0.723
 4786SOL    HW215258   2.403   6.621   0.712
 4787SOL     OW15259   3.647   1.599   4.577
 4787SOL    HW115260   3.581   1.672   4.593
 4787SOL    HW215261   3.707   1.591   4.656
 4788SOL     OW15262   6.511   6.181   6.483
 4788SOL    HW115263   6.555   6.270   6.495
 4788SOL    HW215264   6.461   6.156   6.566
 4789SOL     OW15265   4.938   0.550   2.370
 4789SOL    HW115266   4.969   0.559   2.464
 4789SOL    HW215267   4.985   0.618   2.313
 4790SOL     OW15268   6.115   2.594   5.088
 4790SOL    HW115269   6.055   2.516   5.071
 4790SOL    HW215270   6.146   2.593   5.183
 4791SOL     OW15271   6.787   2.356   0.799
 4791SOL    HW115272   6.708   2.394   0.848
 4791SOL    HW215273   6.782   2.256   0.800
 4792SOL     OW15274   2.186   3.651   4.162
 4792SOL    HW115275   2.277   3.639   4.200
 4792SOL    HW215276   2.169   3.580   4.093
 4793SOL     OW15277   0.688   3.412   5.719
 4793SOL    HW115278   0.693   3.510   5.696
 4793SOL    HW215279   0.678   3.402   5.818
 4794SOL     OW15280   4.661   0.812   4.164
 4794SOL    HW115281   4.598   0.816   4.087
 4794SOL    HW215282   4.717   0.895   4.167
 4795SOL     OW15283   0.988   0.721   5.402
 4795SOL    HW115284   1.002   0.634   5.356
 4795SOL    HW215285   0.917   0.773   5.353
 4796SOL     OW15286   3.911   1.479   5.637
 4796SOL    HW115287   3.948   1.531   5.715
 4796SOL    HW215288   3.843   1.535   5.589
 4797SOL     OW15289   1.031   5.373   4.634
 4797SOL    HW115290   1.021   5.449   4.570
 4797SOL    HW215291   0.943   5.325   4.642
 4798SOL     OW15292   5.148   4.732   6.096
 4798SOL    HW115293   5.066   4.764   6.143
 4798SOL    HW215294   5.198   4.811   6.058
 4799SOL     OW15295   3.610   3.053   6.847
 4799SOL    HW115296   3.702   3.089   6.859
 4799SOL    HW215297   3.555   3.117   6.793
 4800SOL     OW15298   1.153   4.799   6.936
 4800SOL    HW115299   1.090   4.851   6.877
 4800SOL    HW215300   1.111   4.710   6.959
 4801SOL     OW15301   4.874   2.399   1.586
 4801SOL    HW115302   4.917   2.354   1.664
 4801SOL    HW215303   4.920   2.486   1.567
 4802SOL     OW15304   0.006   0.035   2.115
 4802SOL    HW115305   6.926   0.029   2.119
 4802SOL    HW215306   0.039   7.009   2.033
 4803SOL     OW15307   5.778   4.088   5.937
 4803SOL    HW115308   5.793   3.990   5.940
 4803SOL    HW215309   5.773   4.125   6.029
 4804SOL     OW15310   5.409   1.270   0.828
 4804SOL    HW115311   5.393   1.355   0.778
 4804SOL    HW215312   5.356   1.196   0.787
 4805SOL     OW15313   6.192   1.929   1.051
 4805SOL    HW115314   6.292   1.925   1.043
 4805SOL    HW215315   6.166   1.908   1.145
 4806SOL     OW15316   1.101   2.291   3.501
 4806SOL    HW115317   1.059   2.202   3.521
 4806SOL    HW215318   1.065   2.327   3.416
 4807SOL     OW15319   1.181   3.029   6.253
 4807SOL    HW115320   1.204   3.018   6.157
 4807SOL    HW215321   1.118   2.957   6.282
 4808SOL     OW15322   4.426   5.893   0.874
 4808SOL    HW115323   4.357   5.920   0.941
 4808SOL    HW215324   4.384   5.839   0.802
 4809SOL     OW15325   3.589   4.998   1.727
 4809SOL    HW115326   3.585   4.955   1.637
 4809SOL    HW215327   3.501   5.041   1.747
 4810SOL     OW15328   1.062   4.623   3.907
 4810SOL    HW115329   1.015   4.546   3.950
 4810SOL    HW215330   1.033   4.632   3.812
 4811SOL     OW15331   2.940   3.743   4.518
 4811SOL    HW115332   2.939   3.667   4.583
 4811SOL    HW215333   2.919   3.709   4.426
 4812SOL     OW15334   0.345   0.190   2.334
 4812SOL    HW115335   0.405   0.216   2.409
 4812SOL    HW215336   0.398   0.146   2.262
 4813SOL     OW15337   6.206   1.513   6.983
 4813SOL    HW115338   6.207   1.422   6.940
 4813SOL    HW215339   6.284   1.566   6.950
 4814SOL     OW15340   0.286   3.691   1.373
 4814SOL    HW115341   0.308   3.607   1.421
 4814SOL    HW215342   0.308   3.770   1.430
 4815SOL     OW15343   5.763   4.864   2.652
 4815SOL    HW115344   5.861   4.847   2.664
 4815SOL    HW215345   5.716   4.848   2.739
 4816SOL     OW15346   1.684   0.394   2.447
 4816SOL    HW115347   1.596   0.353   2.474
 4816SOL    HW215348   1.713   0.354   2.360
 4817SOL     OW15349   4.101   1.188   1.287
 4817SOL    HW115350   4.108   1.239   1.202
 4817SOL    HW215351   4.146   1.099   1.276
 4818SOL     OW15352   3.341   0.512   4.842
 4818SOL    HW115353   3.294   0.541   4.926
 4818SOL    HW215354   3.277   0.513   4.766
 4819SOL     OW15355   3.276   0.943   1.089
 4819SOL    HW115356   3.300   1.035   1.117
 4819SOL    HW215357   3.176   0.934   1.088
 4820SOL     OW15358   6.628   3.721   2.251
 4820SOL    HW115359   6.575   3.669   2.318
 4820SOL    HW215360   6.724   3.693   2.255
 4821SOL     OW15361   6.551   5.233   1.746
 4821SOL    HW115362   6.473   5.214   1.688
 4821SOL    HW215363   6.622   5.164   1.731
 4822SOL     OW15364   1.785   4.275   3.325
 4822SOL    HW115365   1.884   4.268   3.334
 4822SOL    HW215366   1.741   4.192   3.361
 4823SOL     OW15367   0.981   0.537   4.491
 4823SOL    HW115368   0.939   0.511   4.578
 4823SOL    HW215369   0.928   0.611   4.450
 4824SOL     OW15370   5.262   2.198   2.477
 4824SOL    HW115371   5.361   2.205   2.465
 4824SOL    HW215372   5.230   2.110   2.442
 4825SOL     OW15373   1.352   3.497   3.392
 4825SOL    HW115374   1.284   3.550   3.342
 4825SOL    HW215375   1.438   3.549   3.398
 4826SOL     OW15376   0.373   6.588   0.478
 4826SOL    HW115377   0.379   6.503   0.531
 4826SOL    HW215378   0.375   6.566   0.380
 4827SOL     OW15379   4.717   0.922   1.053
 4827SOL    HW115380   4.787   0.939   0.984
 4827SOL    HW215381   4.663   0.842   1.027
 4828SOL     OW15382   4.908   3.318   1.783
 4828SOL    HW115383   4.954   3.402   1.752
 4828SOL    HW215384   4.947   3.290   1.871
 4829SOL     OW15385   3.100   1.249   6.021
 4829SOL    HW115386   3.070   1.244   6.116
 4829SOL    HW215387   3.190   1.207   6.012
 4830SOL     OW15388   4.851   6.852   3.801
 4830SOL    HW115389   4.910   6.774   3.823
 4830SOL    HW215390   4.801   6.879   3.883
 4831SOL     OW15391   6.915   4.541   5.246
 4831SOL    HW115392   6.930   4.523   5.343
 4831SOL    HW215393   6.907   4.640   5.231
 4832SOL     OW15394   2.888   2.999   5.876
 4832SOL    HW115395   2.917   2.922   5.818
 4832SOL    HW215396   2.811   3.046   5.832
 4833SOL     OW15397   4.241   1.456   3.624
 4833SOL    HW115398   4.202   1.544   3.653
 4833SOL    HW215399   4.169   1.386   3.626
 4834SOL     OW15400   4.592   1.478   1.965
 4834SOL    HW115401   4.499   1.513   1.972
 4834SOL    HW215402   4.590   1.384   1.930
 4835SOL     OW15403   2.331   0.014   6.719
 4835SOL    HW115404   2.255   0.004   6.655
 4835SOL    HW215405   2.341   0.111   6.744
 4836SOL     OW15406   4.967   2.081   4.181
 4836SOL    HW115407   4.994   2.102   4.275
 4836SOL    HW215408   5.039   2.026   4.137
 4837SOL     OW15409   2.576   2.490   0.901
 4837SOL    HW115410   2.655   2.450   0.946
 4837SOL    HW215411   2.495   2.434   0.919
 4838SOL     OW15412   3.548   4.919   2.223
 4838SOL    HW115413   3.464   4.935   2.276
 4838SOL    HW215414   3.528   4.856   2.148
 4839SOL     OW15415   0.329   5.472   5.529
 4839SOL    HW115416   0.419   5.468   5.571
 4839SOL    HW215417   0.326   5.412   5.449
 4840SOL     OW15418   6.301   6.106   0.161
 4840SOL    HW115419   6.383   6.092   0.217
 4840SOL    HW215420   6.327   6.140   0.071
 4841SOL     OW15421   2.980   5.625   2.163
 4841SOL    HW115422   3.057   5.687   2.153
 4841SOL    HW215423   2.956   5.585   2.075
 4842SOL     OW15424   4.077   6.204   1.432
 4842SOL    HW115425   4.078   6.287   1.488
 4842SOL    HW215426   4.003   6.144   1.463
 4843SOL     OW15427   6.843   3.794   6.979
 4843SOL    HW115428   6.831   3.843   6.892
 4843SOL    HW215429   6.939   3.768   6.989
 4844SOL     OW15430   6.357   2.600   6.251
 4844SOL    HW115431   6.334   2.517   6.201
 4844SOL    HW215432   6.324   2.592   6.345
 4845SOL     OW15433   5.513   5.428   3.820
 4845SOL    HW115434   5.554   5.428   3.729
 4845SOL    HW215435   5.420   5.466   3.815
 4846SOL     OW15436   1.583   2.797   1.349
 4846SOL    HW115437   1.553   2.704   1.331
 4846SOL    HW215438   1.661   2.819   1.290
 4847SOL     OW15439   3.514   1.902   5.066
 4847SOL    HW115440   3.511   1.826   5.132
 4847SOL    HW215441   3.428   1.953   5.070
 4848SOL     OW15442   2.370   1.532   3.009
 4848SOL    HW115443   2.291   1.587   3.038
 4848SOL    HW215444   2.361   1.440   3.045
 4849SOL     OW15445   1.640   0.421   0.233
 4849SOL    HW115446   1.703   0.483   0.187
 4849SOL    HW215447   1.547   0.457   0.227
 4850SOL     OW15448   4.265   0.494   1.660
 4850SOL    HW115449   4.194   0.524   1.723
 4850SOL    HW215450   4.352   0.537   1.684
 4851SOL     OW15451   4.078   6.022   5.511
 4851SOL    HW115452   4.055   5.937   5.558
 4851SOL    HW215453   4.099   6.003   5.415
 4852SOL     OW15454   2.375   0.637   6.895
 4852SOL    HW115455   2.344   0.694   6.972
 4852SOL    HW215456   2.472   0.656   6.876
 4853SOL     OW15457   3.673   1.550   2.789
 4853SOL    HW115458   3.598   1.610   2.815
 4853SOL    HW215459   3.755   1.605   2.773
 4854SOL     OW15460   4.722   5.922   2.141
 4854SOL    HW115461   4.796   5.913   2.207
 4854SOL    HW215462   4.702   6.019   2.127
 4855SOL     OW15463   5.783   1.102   1.972
 4855SOL    HW115464   5.859   1.132   2.029
 4855SOL    HW215465   5.701   1.091   2.029
 4856SOL     OW15466   2.666   4.918   4.034
 4856SOL    HW115467   2.621   4.835   4.068
 4856SOL    HW215468   2.613   4.955   3.958
 4857SOL     OW15469   0.962   1.930   6.042
 4857SOL    HW115470   0.966   2.017   5.992
 4857SOL    HW215471   1.017   1.862   5.994
 4858SOL     OW15472   1.831   2.268   4.477
 4858SOL    HW115473   1.867   2.341   4.535
 4858SOL    HW215474   1.859   2.284   4.383
 4859SOL     OW15475   1.818   5.903   5.102
 4859SOL    HW115476   1.910   5.918   5.068
 4859SOL    HW215477   1.817   5.826   5.166
 4860SOL     OW15478   4.551   5.534   1.830
 4860SOL    HW115479   4.596   5.586   1.902
 4860SOL    HW215480   4.531   5.441   1.863
 4861SOL     OW15481   5.062   4.465   6.022
 4861SOL    HW115482   5.132   4.535   6.032
 4861SOL    HW215483   5.020   4.472   5.932
 4862SOL     OW15484   1.052   5.363   2.702
 4862SOL    HW115485   1.115   5.431   2.666
 4862SOL    HW215486   1.054   5.281   2.644
 4863SOL     OW15487   5.613   4.096   0.001
 4863SOL    HW115488   5.621   4.130   0.095
 4863SOL    HW215489   5.529   4.042   7.012
 4864SOL     OW15490   2.704   1.313   3.378
 4864SOL    HW115491   2.730   1.401   3.418
 4864SOL    HW215492   2.754   1.240   3.424
 4865SOL     OW15493   2.841   5.770   4.794
 4865SOL    HW115494   2.762   5.722   4.756
 4865SOL    HW215495   2.810   5.852   4.842
 4866SOL     OW15496   0.360   3.749   0.962
 4866SOL    HW115497   0.290   3.777   0.897
 4866SOL    HW215498   0.317   3.699   1.037
 4867SOL     OW15499   4.598   5.966   2.580
 4867SOL    HW115500   4.627   5.877   2.544
 4867SOL    HW215501   4.666   5.999   2.646
 4868SOL     OW15502   6.261   4.100   1.616
 4868SOL    HW115503   6.276   4.164   1.692
 4868SOL    HW215504   6.350   4.070   1.580
 4869SOL     OW15505   0.880   1.751   6.410
 4869SOL    HW115506   0.828   1.833   6.387
 4869SOL    HW215507   0.846   1.674   6.356
 4870SOL     OW15508   0.566   6.083   2.132
 4870SOL    HW115509   0.655   6.042   2.113
 4870SOL    HW215510   0.576   6.154   2.201
 4871SOL     OW15511   1.351   0.758   4.404
 4871SOL    HW115512   1.418   0.811   4.456
 4871SOL    HW215513   1.369   0.768   4.307
 4872SOL     OW15514   6.893   6.417   3.356
 4872SOL    HW115515   6.835   6.400   3.436
 4872SOL    HW215516   6.983   6.448   3.386
 4873SOL     OW15517   6.537   5.927   4.755
 4873SOL    HW115518   6.600   5.902   4.829
 4873SOL    HW215519   6.449   5.955   4.795
 4874SOL     OW15520   4.839   2.443   3.408
 4874SOL    HW115521   4.895   2.526   3.408
 4874SOL    HW215522   4.832   2.407   3.501
 4875SOL     OW15523   5.109   6.539   6.910
 4875SOL    HW115524   5.030   6.484   6.885
 4875SOL    HW215525   5.187   6.479   6.928
 4876SOL     OW15526   1.692   1.407   3.239
 4876SOL    HW115527   1.785   1.444   3.241
 4876SOL    HW215528   1.627   1.477   3.267
 4877SOL     OW15529   0.552   1.893   4.602
 4877SOL    HW115530   0.640   1.846   4.609
 4877SOL    HW215531   0.529   1.935   4.690
 4878SOL     OW15532   6.572   1.879   1.923
 4878SOL    HW115533   6.626   1.843   1.847
 4878SOL    HW215534   6.538   1.804   1.979
 4879SOL     OW15535   4.721   1.537   2.500
 4879SOL    HW115536   4.750   1.503   2.590
 4879SOL    HW215537   4.795   1.523   2.434
 4880SOL     OW15538   6.237   2.983   6.767
 4880SOL    HW115539   6.199   3.074   6.787
 4880SOL    HW215540   6.190   2.945   6.687
 4881SOL     OW15541   1.639   2.408   1.511
 4881SOL    HW115542   1.566   2.469   1.480
 4881SOL    HW215543   1.600   2.333   1.565
 4882SOL     OW15544   4.112   1.968   4.940
 4882SOL    HW115545   4.172   1.888   4.932
 4882SOL    HW215546   4.070   1.970   5.030
 4883SOL     OW15547   5.450   3.766   1.129
 4883SOL    HW115548   5.511   3.753   1.051
 4883SOL    HW215549   5.356   3.745   1.103
 4884SOL     OW15550   1.235   6.050   1.383
 4884SOL    HW115551   1.199   6.114   1.316
 4884SOL    HW215552   1.178   6.051   1.465
 4885SOL     OW15553   2.449   4.971   1.418
 4885SOL    HW115554   2.381   4.963   1.345
 4885SOL    HW215555   2.499   4.885   1.427
 4886SOL     OW15556   3.629   0.159   2.555
 4886SOL    HW115557   3.566   0.235   2.545
 4886SOL    HW215558   3.684   0.171   2.637
 4887SOL     OW15559   1.330   6.948   1.932
 4887SOL    HW115560   1.388   6.975   2.008
 4887SOL    HW215561   1.286   6.860   1.952
 4888SOL     OW15562   2.711   6.668   3.207
 4888SOL    HW115563   2.611   6.674   3.203
 4888SOL    HW215564   2.750   6.734   3.143
 4889SOL     OW15565   6.472   2.146   3.884
 4889SOL    HW115566   6.432   2.056   3.865
 4889SOL    HW215567   6.426   2.215   3.828
 4890SOL     OW15568   1.236   0.876   5.416
 4890SOL    HW115569   1.286   0.810   5.359
 4890SOL    HW215570   1.163   0.829   5.465
 4891SOL     OW15571   2.301   5.316   6.428
 4891SOL    HW115572   2.335   5.289   6.518
 4891SOL    HW215573   2.362   5.281   6.357
 4892SOL     OW15574   5.882   0.011   2.358
 4892SOL    HW115575   5.830   6.950   2.332
 4892SOL    HW215576   5.836   0.058   2.434
 4893SOL     OW15577   0.311   3.557   2.051
 4893SOL    HW115578   0.232   3.498   2.033
 4893SOL    HW215579   0.300   3.601   2.140
 4894SOL     OW15580   3.673   0.049   2.304
 4894SOL    HW115581   3.599   0.073   2.241
 4894SOL    HW215582   3.640   0.054   2.398
 4895SOL     OW15583   6.983   4.510   3.088
 4895SOL    HW115584   6.965   4.414   3.107
 4895SOL    HW215585   0.036   4.542   3.148
 4896SOL     OW15586   1.446   5.292   3.650
 4896SOL    HW115587   1.374   5.327   3.710
 4896SOL    HW215588   1.531   5.285   3.702
 4897SOL     OW15589   1.914   5.761   5.902
 4897SOL    HW115590   1.932   5.787   5.807
 4897SOL    HW215591   1.820   5.725   5.909
 4898SOL     OW15592   3.933   1.147   4.774
 4898SOL    HW115593   3.944   1.246   4.767
 4898SOL    HW215594   3.966   1.117   4.864
 4899SOL     OW15595   6.043   5.486   2.101
 4899SOL    HW115596   5.959   5.432   2.099
 4899SOL    HW215597   6.111   5.444   2.041
 4900SOL     OW15598   4.209   6.394   5.436
 4900SOL    HW115599   4.281   6.391   5.367
 4900SOL    HW215600   4.248   6.373   5.526
 4901SOL     OW15601   0.973   2.154   5.911
 4901SOL    HW115602   1.015   2.222   5.970
 4901SOL    HW215603   1.031   2.139   5.830
 4902SOL     OW15604   2.082   0.472   6.579
 4902SOL    HW115605   2.131   0.526   6.647
 4902SOL    HW215606   2.051   0.387   6.619
 4903SOL     OW15607   4.920   5.255   1.301
 4903SOL    HW115608   5.018   5.237   1.292
 4903SOL    HW215609   4.902   5.352   1.284
 4904SOL     OW15610   1.949   0.794   6.589
 4904SOL    HW115611   2.023   0.753   6.642
 4904SOL    HW215612   1.869   0.734   6.591
 4905SOL     OW15613   2.995   0.036   2.889
 4905SOL    HW115614   3.037   7.001   2.817
 4905SOL    HW215615   3.000   0.133   2.864
 4906SOL     OW15616   4.662   3.323   5.379
 4906SOL    HW115617   4.570   3.285   5.368
 4906SOL    HW215618   4.677   3.396   5.312
 4907SOL     OW15619   4.596   1.537   0.252
 4907SOL    HW115620   4.686   1.527   0.210
 4907SOL    HW215621   4.526   1.536   0.181
 4908SOL     OW15622   4.946   6.952   0.188
 4908SOL    HW115623   4.952   6.855   0.165
 4908SOL    HW215624   4.853   6.985   0.170
 4909SOL     OW15625   6.226   4.031   3.226
 4909SOL    HW115626   6.311   3.993   3.191
 4909SOL    HW215627   6.188   4.095   3.159
 4910SOL     OW15628   5.362   0.610   4.912
 4910SOL    HW115629   5.274   0.566   4.893
 4910SOL    HW215630   5.411   0.624   4.826
 4911SOL     OW15631   1.805   2.234   2.461
 4911SOL    HW115632   1.722   2.180   2.444
 4911SOL    HW215633   1.780   2.330   2.472
 4912SOL     OW15634   5.597   1.905   5.728
 4912SOL    HW115635   5.695   1.919   5.746
 4912SOL    HW215636   5.562   1.982   5.673
 4913SOL     OW15637   5.316   2.411   5.333
 4913SOL    HW115638   5.244   2.462   5.286
 4913SOL    HW215639   5.283   2.380   5.422
 4914SOL     OW15640   4.823   0.425   4.733
 4914SOL    HW115641   4.920   0.449   4.734
 4914SOL    HW215642   4.799   0.387   4.643
 4915SOL     OW15643   3.094   5.806   5.053
 4915SOL    HW115644   3.004   5.839   5.083
 4915SOL    HW215645   3.089   5.779   4.956
 4916SOL     OW15646   5.773   0.874   4.499
 4916SOL    HW115647   5.754   0.775   4.499
 4916SOL    HW215648   5.766   0.909   4.405
 4917SOL     OW15649   3.501   6.033   0.850
 4917SOL    HW115650   3.601   6.025   0.846
 4917SOL    HW215651   3.471   6.110   0.793
 4918SOL     OW15652   6.522   5.728   2.136
 4918SOL    HW115653   6.612   5.763   2.108
 4918SOL    HW215654   6.482   5.789   2.204
 4919SOL     OW15655   4.217   3.337   1.819
 4919SOL    HW115656   4.315   3.341   1.796
 4919SOL    HW215657   4.179   3.429   1.815
 4920SOL     OW15658   5.777   0.182   5.590
 4920SOL    HW115659   5.704   0.186   5.658
 4920SOL    HW215660   5.818   0.091   5.590
 4921SOL     OW15661   0.335   6.537   0.945
 4921SOL    HW115662   0.370   6.445   0.930
 4921SOL    HW215663   0.293   6.571   0.860
 4922SOL     OW15664   3.113   1.957   5.273
 4922SOL    HW115665   3.128   1.961   5.174
 4922SOL    HW215666   3.085   2.048   5.305
 4923SOL     OW15667   3.443   1.915   3.168
 4923SOL    HW115668   3.455   1.971   3.250
 4923SOL    HW215669   3.495   1.831   3.176
 4924SOL     OW15670   2.666   1.503   5.778
 4924SOL    HW115671   2.686   1.576   5.842
 4924SOL    HW215672   2.572   1.471   5.791
 4925SOL     OW15673   4.549   6.677   3.041
 4925SOL    HW115674   4.529   6.766   2.999
 4925SOL    HW215675   4.541   6.605   2.973
 4926SOL     OW15676   5.355   1.580   1.518
 4926SOL    HW115677   5.307   1.528   1.589
 4926SOL    HW215678   5.375   1.520   1.440
 4927SOL     OW15679   2.914   1.839   6.539
 4927SOL    HW115680   2.948   1.877   6.452
 4927SOL    HW215681   2.895   1.914   6.603
 4928SOL     OW15682   1.331   1.926   1.228
 4928SOL    HW115683   1.356   2.018   1.200
 4928SOL    HW215684   1.351   1.862   1.154
 4929SOL     OW15685   0.106   0.451   3.697
 4929SOL    HW115686   0.152   0.450   3.785
 4929SOL    HW215687   0.168   0.486   3.626
 4930SOL     OW15688   5.906   6.902   1.760
 4930SOL    HW115689   5.919   6.814   1.807
 4930SOL    HW215690   5.819   6.942   1.788
 4931SOL     OW15691   6.398   6.422   1.930
 4931SOL    HW115692   6.372   6.326   1.934
 4931SOL    HW215693   6.449   6.439   1.846
 4932SOL     OW15694   2.962   3.804   2.944
 4932SOL    HW115695   2.918   3.854   2.869
 4932SOL    HW215696   3.061   3.799   2.927
 4933SOL     OW15697   2.578   6.120   4.578
 4933SOL    HW115698   2.499   6.070   4.543
 4933SOL    HW215699   2.616   6.177   4.505
 4934SOL     OW15700   3.274   6.079   2.961
 4934SOL    HW115701   3.259   6.158   2.901
 4934SOL    HW215702   3.258   6.107   3.056
 4935SOL     OW15703   1.302   1.940   6.618
 4935SOL    HW115704   1.226   1.892   6.574
 4935SOL    HW215705   1.304   1.916   6.715
 4936SOL     OW15706   2.243   4.015   1.494
 4936SOL    HW115707   2.177   4.005   1.419
 4936SOL    HW215708   2.324   4.063   1.460
 4937SOL     OW15709   4.903   3.318   5.003
 4937SOL    HW115710   4.847   3.396   5.030
 4937SOL    HW215711   4.928   3.265   5.084
 4938SOL     OW15712   3.852   5.412   5.703
 4938SOL    HW115713   3.938   5.456   5.677
 4938SOL    HW215714   3.862   5.313   5.697
 4939SOL     OW15715   4.622   3.120   5.714
 4939SOL    HW115716   4.527   3.110   5.682
 4939SOL    HW215717   4.677   3.044   5.678
 4940SOL     OW15718   1.971   6.779   4.822
 4940SOL    HW115719   1.985   6.786   4.723
 4940SOL    HW215720   1.897   6.715   4.841
 4941SOL     OW15721   4.840   1.315   6.704
 4941SOL    HW115722   4.785   1.255   6.762
 4941SOL    HW215723   4.877   1.263   6.627
 4942SOL     OW15724   5.212   3.636   5.420
 4942SOL    HW115725   5.241   3.657   5.513
 4942SOL    HW215726   5.115   3.612   5.419
 4943SOL     OW15727   3.926   2.333   0.789
 4943SOL    HW115728   3.934   2.423   0.832
 4943SOL    HW215729   3.833   2.320   0.756
 4944SOL     OW15730   2.205   4.546   3.306
 4944SOL    HW115731   2.212   4.498   3.218
 4944SOL    HW215732   2.136   4.617   3.300
 4945SOL     OW15733   0.285   6.831   4.137
 4945SOL    HW115734   0.335   6.845   4.052
 4945SOL    HW215735   0.187   6.832   4.118
 4946SOL     OW15736   1.731   3.266   2.126
 4946SOL    HW115737   1.758   3.312   2.211
 4946SOL    HW215738   1.806   3.272   2.060
 4947SOL     OW15739   1.029   0.280   0.490
 4947SOL    HW115740   1.019   0.352   0.422
 4947SOL    HW215741   1.074   0.201   0.449
 4948SOL     OW15742   2.423   1.173   2.475
 4948SOL    HW115743   2.503   1.230   2.456
 4948SOL    HW215744   2.449   1.100   2.537
 4949SOL     OW15745   5.618   0.207   5.054
 4949SOL    HW115746   5.714   0.230   5.045
 4949SOL    HW215747   5.567   0.286   5.088
 4950SOL     OW15748   2.788   5.758   5.149
 4950SOL    HW115749   2.697   5.740   5.110
 4950SOL    HW215750   2.786   5.741   5.247
 4951SOL     OW15751   4.460   1.823   4.644
 4951SOL    HW115752   4.453   1.919   4.671
 4951SOL    HW215753   4.554   1.803   4.614
 4952SOL     OW15754   0.179   6.674   5.314
 4952SOL    HW115755   0.137   6.591   5.278
 4952SOL    HW215756   0.108   6.737   5.345
 4953SOL     OW15757   1.734   5.969   1.427
 4953SOL    HW115758   1.714   5.887   1.373
 4953SOL    HW215759   1.751   5.943   1.522
 4954SOL     OW15760   5.542   5.446   0.117
 4954SOL    HW115761   5.459   5.501   0.122
 4954SOL    HW215762   5.550   5.405   0.026
 4955SOL     OW15763   1.219   6.687   1.552
 4955SOL    HW115764   1.136   6.675   1.496
 4955SOL    HW215765   1.296   6.709   1.492
 4956SOL     OW15766   4.097   0.014   4.435
 4956SOL    HW115767   4.011   0.006   4.385
 4956SOL    HW215768   4.169   6.986   4.386
 4957SOL     OW15769   0.867   0.965   3.863
 4957SOL    HW115770   0.939   0.920   3.916
 4957SOL    HW215771   0.840   0.905   3.787
 4958SOL     OW15772   0.458   6.404   6.286
 4958SOL    HW115773   0.432   6.386   6.381
 4958SOL    HW215774   0.474   6.502   6.274
 4959SOL     OW15775   0.984   0.707   0.692
 4959SOL    HW115776   1.040   0.763   0.630
 4959SOL    HW215777   0.933   0.767   0.754
 4960SOL     OW15778   3.574   5.961   4.164
 4960SOL    HW115779   3.538   5.927   4.251
 4960SOL    HW215780   3.522   5.920   4.089
 4961SOL     OW15781   5.100   0.252   4.691
 4961SOL    HW115782   5.098   0.159   4.728
 4961SOL    HW215783   5.073   0.251   4.595
 4962SOL     OW15784   5.987   2.619   1.605
 4962SOL    HW115785   6.048   2.564   1.662
 4962SOL    HW215786   5.967   2.706   1.651
 4963SOL     OW15787   0.693   5.125   1.646
 4963SOL    HW115788   0.710   5.026   1.654
 4963SOL    HW215789   0.724   5.171   1.729
 4964SOL     OW15790   3.373   6.719   3.318
 4964SOL    HW115791   3.350   6.808   3.359
 4964SOL    HW215792   3.470   6.717   3.295
 4965SOL     OW15793   0.107   6.958   4.333
 4965SOL    HW115794   0.195   6.965   4.285
 4965SOL    HW215795   0.122   6.924   4.425
 4966SOL     OW15796   3.122   5.737   5.315
 4966SOL    HW115797   3.149   5.818   5.367
 4966SOL    HW215798   3.123   5.759   5.217
 4967SOL     OW15799   3.782   2.379   6.697
 4967SOL    HW115800   3.860   2.434   6.726
 4967SOL    HW215801   3.804   2.282   6.707
 4968SOL     OW15802   5.232   2.981   4.219
 4968SOL    HW115803   5.310   3.029   4.259
 4968SOL    HW215804   5.180   2.936   4.292
 4969SOL     OW15805   1.428   1.006   1.286
 4969SOL    HW115806   1.527   1.012   1.276
 4969SOL    HW215807   1.405   0.971   1.377
 4970SOL     OW15808   1.232   1.904   5.104
 4970SOL    HW115809   1.270   1.961   5.032
 4970SOL    HW215810   1.211   1.813   5.068
 4971SOL     OW15811   6.500   6.587   3.018
 4971SOL    HW115812   6.577   6.545   3.065
 4971SOL    HW215813   6.414   6.554   3.058
 4972SOL     OW15814   1.898   3.473   0.394
 4972SOL    HW115815   1.838   3.553   0.385
 4972SOL    HW215816   1.858   3.396   0.344
 4973SOL     OW15817   6.135   5.878   2.646
 4973SOL    HW115818   6.202   5.855   2.575
 4973SOL    HW215819   6.044   5.882   2.605
 4974SOL     OW15820   5.411   6.208   2.548
 4974SOL    HW115821   5.454   6.297   2.561
 4974SOL    HW215822   5.442   6.146   2.620
 4975SOL     OW15823   6.176   6.097   0.566
 4975SOL    HW115824   6.226   6.162   0.623
 4975SOL    HW215825   6.153   6.140   0.479
 4976SOL     OW15826   3.615   0.978   5.343
 4976SOL    HW115827   3.644   0.882   5.332
 4976SOL    HW215828   3.622   1.025   5.256
 4977SOL     OW15829   4.025   3.753   0.965
 4977SOL    HW115830   4.087   3.676   0.950
 4977SOL    HW215831   3.938   3.736   0.919
 4978SOL     OW15832   5.924   3.288   5.679
 4978SOL    HW115833   5.831   3.272   5.647
 4978SOL    HW215834   5.987   3.230   5.628
 4979SOL     OW15835   0.815   0.288   5.966
 4979SOL    HW115836   0.798   0.197   6.005
 4979SOL    HW215837   0.742   0.351   5.995
 4980SOL     OW15838   3.530   5.349   2.381
 4980SOL    HW115839   3.626   5.323   2.397
 4980SOL    HW215840   3.523   5.449   2.381
 4981SOL     OW15841   4.417   6.727   5.283
 4981SOL    HW115842   4.512   6.718   5.253
 4981SOL    HW215843   4.413   6.714   5.382
 4982SOL     OW15844   2.167   2.354   0.042
 4982SOL    HW115845   2.249   2.409   0.061
 4982SOL    HW215846   2.194   2.259   0.027
 4983SOL     OW15847   5.550   2.642   4.163
 4983SOL    HW115848   5.638   2.599   4.182
 4983SOL    HW215849   5.526   2.704   4.237
 4984SOL     OW15850   4.904   4.084   4.113
 4984SOL    HW115851   4.890   3.986   4.121
 4984SOL    HW215852   4.830   4.132   4.161
 4985SOL     OW15853   5.107   4.860   2.516
 4985SOL    HW115854   5.040   4.794   2.549
 4985SOL    HW215855   5.067   4.915   2.442
 4986SOL     OW15856   5.559   4.318   3.043
 4986SOL    HW115857   5.630   4.335   3.111
 4986SOL    HW215858   5.553   4.396   2.980
 4987SOL     OW15859   6.953   3.132   1.576
 4987SOL    HW115860   6.928   3.189   1.654
 4987SOL    HW215861   6.891   3.054   1.570
 4988SOL     OW15862   0.361   1.316   4.409
 4988SOL    HW115863   0.294   1.258   4.363
 4988SOL    HW215864   0.380   1.396   4.352
 4989SOL     OW15865   6.884   1.418   0.645
 4989SOL    HW115866   6.927   1.476   0.576
 4989SOL    HW215867   6.841   1.339   0.601
 4990SOL     OW15868   0.498   2.655   5.405
 4990SOL    HW115869   0.481   2.726   5.337
 4990SOL    HW215870   0.495   2.694   5.496
 4991SOL     OW15871   0.935   3.062   4.269
 4991SOL    HW115872   0.925   2.962   4.270
 4991SOL    HW215873   0.914   3.097   4.178
 4992SOL     OW15874   3.406   1.145   5.473
 4992SOL    HW115875   3.433   1.188   5.559
 4992SOL    HW215876   3.486   1.098   5.433
 4993SOL     OW15877   2.671   6.274   3.986
 4993SOL    HW115878   2.585   6.316   4.013
 4993SOL    HW215879   2.655   6.178   3.961
 4994SOL     OW15880   0.552   0.211   2.838
 4994SOL    HW115881   0.516   0.297   2.802
 4994SOL    HW215882   0.642   0.227   2.879
 4995SOL     OW15883   6.580   2.776   5.904
 4995SOL    HW115884   6.515   2.701   5.901
 4995SOL    HW215885   6.627   2.776   5.993
 4996SOL     OW15886   0.655   2.043   2.422
 4996SOL    HW115887   0.705   2.127   2.442
 4996SOL    HW215888   0.561   2.053   2.452
 4997SOL     OW15889   6.847   2.805   3.644
 4997SOL    HW115890   6.880   2.711   3.645
 4997SOL    HW215891   6.813   2.827   3.552
 4998SOL     OW15892   1.340   5.835   4.606
 4998SOL    HW115893   1.378   5.925   4.586
 4998SOL    HW215894   1.380   5.800   4.691
 4999SOL     OW15895   5.668   5.424   0.796
 4999SOL    HW115896   5.730   5.348   0.818
 4999SOL    HW215897   5.596   5.392   0.735
 5000SOL     OW15898   0.537   0.773   4.540
 5000SOL    HW115899   0.478   0.800   4.617
 5000SOL    HW215900   0.629   0.810   4.554
 5001SOL     OW15901   3.179   4.489   5.396
 5001SOL    HW115902   3.125   4.457   5.317
 5001SOL    HW215903   3.147   4.580   5.422
 5002SOL     OW15904   2.600   1.308   2.151
 5002SOL    HW115905   2.694   1.332   2.125
 5002SOL    HW215906   2.586   1.331   2.248
 5003SOL     OW15907   6.863   6.361   2.310
 5003SOL    HW115908   6.901   6.446   2.274
 5003SOL    HW215909   6.791   6.382   2.376
 5004SOL     OW15910   2.450   6.062   6.580
 5004SOL    HW115911   2.519   6.006   6.625
 5004SOL    HW215912   2.464   6.158   6.604
 5005SOL     OW15913   4.371   2.867   0.185
 5005SOL    HW115914   4.459   2.868   0.138
 5005SOL    HW215915   4.343   2.772   0.200
 5006SOL     OW15916   5.130   6.348   5.294
 5006SOL    HW115917   5.085   6.435   5.316
 5006SOL    HW215918   5.103   6.280   5.362
 5007SOL     OW15919   4.688   1.134   5.653
 5007SOL    HW115920   4.658   1.199   5.583
 5007SOL    HW215921   4.733   1.185   5.727
 5008SOL     OW15922   5.884   1.194   3.667
 5008SOL    HW115923   5.899   1.279   3.718
 5008SOL    HW215924   5.961   1.132   3.684
 5009SOL     OW15925   0.830   6.716   2.638
 5009SOL    HW115926   0.830   6.627   2.594
 5009SOL    HW215927   0.860   6.786   2.574
 5010SOL     OW15928   3.930   3.946   3.787
 5010SOL    HW115929   3.962   4.029   3.833
 5010SOL    HW215930   3.962   3.866   3.837
 5011SOL     OW15931   0.986   2.994   2.045
 5011SOL    HW115932   0.945   2.935   2.115
 5011SOL    HW215933   1.018   2.938   1.968
 5012SOL     OW15934   6.766   2.272   5.911
 5012SOL    HW115935   6.784   2.365   5.881
 5012SOL    HW215936   6.802   2.207   5.844
 5013SOL     OW15937   4.719   1.530   6.000
 5013SOL    HW115938   4.700   1.606   5.938
 5013SOL    HW215939   4.634   1.505   6.047
 5014SOL     OW15940   5.876   6.124   0.592
 5014SOL    HW115941   5.973   6.131   0.569
 5014SOL    HW215942   5.865   6.066   0.673
 5015SOL     OW15943   4.383   2.400   3.437
 5015SOL    HW115944   4.427   2.408   3.526
 5015SOL    HW215945   4.419   2.471   3.375
 5016SOL     OW15946   2.302   0.509   2.741
 5016SOL    HW115947   2.333   0.585   2.684
 5016SOL    HW215948   2.356   0.506   2.825
 5017SOL     OW15949   2.746   2.176   0.740
 5017SOL    HW115950   2.780   2.092   0.782
 5017SOL    HW215951   2.822   2.236   0.718
 5018SOL     OW15952   6.049   4.815   3.759
 5018SOL    HW115953   6.074   4.752   3.686
 5018SOL    HW215954   5.950   4.810   3.775
 5019SOL     OW15955   1.953   4.165   0.203
 5019SOL    HW115956   1.861   4.144   0.171
 5019SOL    HW215957   1.988   4.088   0.257
 5020SOL     OW15958   4.322   5.138   6.877
 5020SOL    HW115959   4.405   5.144   6.822
 5020SOL    HW215960   4.271   5.224   6.871
 5021SOL     OW15961   2.060   4.849   5.537
 5021SOL    HW115962   2.153   4.820   5.559
 5021SOL    HW215963   2.053   4.865   5.439
 5022SOL     OW15964   1.541   6.080   0.630
 5022SOL    HW115965   1.490   6.033   0.702
 5022SOL    HW215966   1.571   6.169   0.662
 5023SOL     OW15967   6.192   3.386   0.935
 5023SOL    HW115968   6.100   3.417   0.959
 5023SOL    HW215969   6.254   3.464   0.935
 5024SOL     OW15970   6.301   3.550   4.070
 5024SOL    HW115971   6.263   3.515   4.155
 5024SOL    HW215972   6.373   3.616   4.091
 5025SOL     OW15973   5.155   2.180   3.395
 5025SOL    HW115974   5.134   2.240   3.472
 5025SOL    HW215975   5.092   2.102   3.395
 5026SOL     OW15976   6.654   5.955   4.324
 5026SOL    HW115977   6.610   6.036   4.285
 5026SOL    HW215978   6.701   5.905   4.252
 5027SOL     OW15979   0.612   6.846   3.647
 5027SOL    HW115980   0.527   6.847   3.700
 5027SOL    HW215981   0.606   6.777   3.575
 5028SOL     OW15982   0.456   0.193   3.124
 5028SOL    HW115983   0.464   0.148   3.036
 5028SOL    HW215984   0.370   0.245   3.128
 5029SOL     OW15985   0.130   2.304   1.324
 5029SOL    HW115986   0.081   2.217   1.317
 5029SOL    HW215987   0.159   2.334   1.233
 5030SOL     OW15988   0.026   0.427   6.838
 5030SOL    HW115989   0.023   0.483   6.921
 5030SOL    HW215990   7.014   0.335   6.859
 5031SOL     OW15991   5.832   0.393   4.339
 5031SOL    HW115992   5.903   0.325   4.359
 5031SOL    HW215993   5.826   0.407   4.241
 5032SOL     OW15994   1.272   4.965   0.802
 5032SOL    HW115995   1.302   5.047   0.754
 5032SOL    HW215996   1.278   4.981   0.901
 5033SOL     OW15997   2.619   4.740   5.500
 5033SOL    HW115998   2.699   4.686   5.527
 5033SOL    HW215999   2.612   4.820   5.559
 5034SOL     OW16000   6.423   2.671   1.862
 5034SOL    HW116001   6.520   2.645   1.863
 5034SOL    HW216002   6.392   2.686   1.956
 5035SOL     OW16003   5.720   5.471   0.363
 5035SOL    HW116004   5.661   5.436   0.437
 5035SOL    HW216005   5.669   5.470   0.277
 5036SOL     OW16006   1.310   0.275   1.501
 5036SOL    HW116007   1.332   0.361   1.547
 5036SOL    HW216008   1.379   0.206   1.525
 5037SOL     OW16009   4.796   1.744   3.564
 5037SOL    HW116010   4.723   1.810   3.583
 5037SOL    HW216011   4.816   1.743   3.466
 5038SOL     OW16012   1.107   5.997   5.539
 5038SOL    HW116013   1.078   6.008   5.444
 5038SOL    HW216014   1.205   6.017   5.546
 5039SOL     OW16015   2.327   2.762   5.151
 5039SOL    HW116016   2.360   2.721   5.236
 5039SOL    HW216017   2.359   2.857   5.145
 5040SOL     OW16018   3.343   3.996   5.665
 5040SOL    HW116019   3.309   3.969   5.574
 5040SOL    HW216020   3.283   4.065   5.704
 5041SOL     OW16021   1.117   3.553   1.677
 5041SOL    HW116022   1.123   3.527   1.774
 5041SOL    HW216023   1.021   3.553   1.649
 5042SOL     OW16024   5.510   2.897   6.312
 5042SOL    HW116025   5.477   2.969   6.251
 5042SOL    HW216026   5.576   2.839   6.263
 5043SOL     OW16027   3.778   0.597   3.610
 5043SOL    HW116028   3.778   0.560   3.703
 5043SOL    HW216029   3.866   0.641   3.593
 5044SOL     OW16030   6.012   5.269   3.078
 5044SOL    HW116031   6.077   5.341   3.055
 5044SOL    HW216032   5.925   5.287   3.032
 5045SOL     OW16033   6.054   2.625   6.800
 5045SOL    HW116034   6.038   2.626   6.898
 5045SOL    HW216035   5.968   2.610   6.752
 5046SOL     OW16036   3.533   3.045   5.143
 5046SOL    HW116037   3.489   3.111   5.083
 5046SOL    HW216038   3.614   3.007   5.098
 5047SOL     OW16039   6.879   1.092   2.667
 5047SOL    HW116040   6.954   1.148   2.632
 5047SOL    HW216041   6.905   1.052   2.754
 5048SOL     OW16042   0.106   2.525   1.491
 5048SOL    HW116043   0.104   2.442   1.436
 5048SOL    HW216044   0.154   2.508   1.576
 5049SOL     OW16045   1.296   2.315   2.043
 5049SOL    HW116046   1.252   2.283   2.127
 5049SOL    HW216047   1.330   2.237   1.991
 5050SOL     OW16048   0.700   3.263   1.587
 5050SOL    HW116049   0.614   3.218   1.611
 5050SOL    HW216050   0.695   3.297   1.493
 5051SOL     OW16051   2.924   4.449   0.755
 5051SOL    HW116052   2.851   4.515   0.772
 5051SOL    HW216053   2.886   4.357   0.759
 5052SOL     OW16054   5.166   4.998   1.073
 5052SOL    HW116055   5.196   5.060   1.146
 5052SOL    HW216056   5.235   4.926   1.060
 5053SOL     OW16057   2.917   3.859   0.992
 5053SOL    HW116058   2.840   3.909   1.031
 5053SOL    HW216059   2.978   3.828   1.065
 5054SOL     OW16060   3.704   5.798   4.985
 5054SOL    HW116061   3.747   5.738   5.052
 5054SOL    HW216062   3.607   5.775   4.977
 5055SOL     OW16063   0.882   1.714   5.335
 5055SOL    HW116064   0.875   1.643   5.265
 5055SOL    HW216065   0.975   1.750   5.337
 5056SOL     OW16066   0.245   3.091   5.570
 5056SOL    HW116067   0.309   3.166   5.557
 5056SOL    HW216068   0.294   3.012   5.607
 5057SOL     OW16069   0.185   5.907   3.571
 5057SOL    HW116070   0.136   5.821   3.563
 5057SOL    HW216071   0.274   5.899   3.526
 5058SOL     OW16072   4.792   4.233   6.177
 5058SOL    HW116073   4.819   4.273   6.089
 5058SOL    HW216074   4.782   4.134   6.167
 5059SOL     OW16075   3.320   1.984   4.768
 5059SOL    HW116076   3.299   2.074   4.729
 5059SOL    HW216077   3.394   1.941   4.716
 5060SOL     OW16078   0.477   2.871   5.255
 5060SOL    HW116079   0.430   2.958   5.274
 5060SOL    HW216080   0.576   2.885   5.260
 5061SOL     OW16081   3.871   2.975   4.599
 5061SOL    HW116082   3.816   2.902   4.638
 5061SOL    HW216083   3.862   2.975   4.499
 5062SOL     OW16084   4.979   0.809   3.002
 5062SOL    HW116085   5.019   0.887   2.952
 5062SOL    HW216086   4.952   0.839   3.093
 5063SOL     OW16087   1.376   6.875   2.685
 5063SOL    HW116088   1.427   6.804   2.733
 5063SOL    HW216089   1.345   6.944   2.751
 5064SOL     OW16090   4.709   5.515   0.728
 5064SOL    HW116091   4.650   5.495   0.651
 5064SOL    HW216092   4.803   5.489   0.706
 5065SOL     OW16093   2.548   0.088   3.228
 5065SOL    HW116094   2.506   0.165   3.182
 5065SOL    HW216095   2.537   0.005   3.173
 5066SOL     OW16096   1.982   4.228   1.644
 5066SOL    HW116097   1.988   4.150   1.706
 5066SOL    HW216098   2.021   4.204   1.555
 5067SOL     OW16099   4.297   2.860   1.589
 5067SOL    HW116100   4.208   2.836   1.629
 5067SOL    HW216101   4.332   2.943   1.633
 5068SOL     OW16102   3.456   6.291   0.692
 5068SOL    HW116103   3.369   6.245   0.708
 5068SOL    HW216104   3.472   6.300   0.594
 5069SOL     OW16105   3.149   4.786   6.191
 5069SOL    HW116106   3.127   4.689   6.184
 5069SOL    HW216107   3.069   4.836   6.225
 5070SOL     OW16108   6.046   3.474   3.994
 5070SOL    HW116109   6.003   3.447   4.080
 5070SOL    HW216110   6.142   3.497   4.010
 5071SOL     OW16111   3.526   1.144   3.596
 5071SOL    HW116112   3.546   1.234   3.635
 5071SOL    HW216113   3.585   1.129   3.516
 5072SOL     OW16114   1.683   1.083   0.710
 5072SOL    HW116115   1.599   1.133   0.728
 5072SOL    HW216116   1.666   0.985   0.718
 5073SOL     OW16117   2.739   6.655   2.406
 5073SOL    HW116118   2.663   6.637   2.342
 5073SOL    HW216119   2.826   6.649   2.356
 5074SOL     OW16120   3.870   2.126   1.794
 5074SOL    HW116121   3.878   2.053   1.862
 5074SOL    HW216122   3.782   2.172   1.804
 5075SOL     OW16123   1.537   3.229   6.654
 5075SOL    HW116124   1.472   3.305   6.650
 5075SOL    HW216125   1.626   3.263   6.682
 5076SOL     OW16126   5.615   0.489   0.658
 5076SOL    HW116127   5.632   0.555   0.585
 5076SOL    HW216128   5.561   0.413   0.622
 5077SOL     OW16129   0.828   5.209   3.480
 5077SOL    HW116130   0.906   5.173   3.429
 5077SOL    HW216131   0.812   5.152   3.561
 5078SOL     OW16132   6.835   1.104   3.844
 5078SOL    HW116133   6.835   1.168   3.767
 5078SOL    HW216134   6.747   1.110   3.892
 5079SOL     OW16135   1.782   2.358   6.048
 5079SOL    HW116136   1.688   2.324   6.050
 5079SOL    HW216137   1.830   2.327   6.130
 5080SOL     OW16138   6.311   5.075   5.877
 5080SOL    HW116139   6.270   5.167   5.871
 5080SOL    HW216140   6.268   5.015   5.809
 5081SOL     OW16141   3.616   6.066   5.808
 5081SOL    HW116142   3.653   6.133   5.744
 5081SOL    HW216143   3.560   6.113   5.877
 5082SOL     OW16144   5.164   6.515   1.445
 5082SOL    HW116145   5.246   6.569   1.457
 5082SOL    HW216146   5.092   6.571   1.403
 5083SOL     OW16147   2.447   0.546   2.995
 5083SOL    HW116148   2.385   0.546   3.073
 5083SOL    HW216149   2.499   0.632   2.994
 5084SOL     OW16150   0.991   4.795   4.988
 5084SOL    HW116151   0.906   4.829   5.028
 5084SOL    HW216152   1.069   4.836   5.036
 5085SOL     OW16153   0.899   3.699   6.393
 5085SOL    HW116154   0.844   3.620   6.422
 5085SOL    HW216155   0.843   3.782   6.397
 5086SOL     OW16156   1.565   4.462   2.127
 5086SOL    HW116157   1.637   4.504   2.071
 5086SOL    HW216158   1.595   4.459   2.223
 5087SOL     OW16159   6.417   5.298   2.901
 5087SOL    HW116160   6.486   5.304   2.973
 5087SOL    HW216161   6.447   5.351   2.822
 5088SOL     OW16162   3.978   6.191   2.229
 5088SOL    HW116163   4.013   6.235   2.146
 5088SOL    HW216164   4.046   6.197   2.301
 5089SOL     OW16165   5.458   4.633   4.477
 5089SOL    HW116166   5.470   4.575   4.397
 5089SOL    HW216167   5.390   4.703   4.457
 5090SOL     OW16168   2.287   0.273   4.437
 5090SOL    HW116169   2.234   0.322   4.368
 5090SOL    HW216170   2.256   0.300   4.528
 5091SOL     OW16171   6.315   6.880   0.533
 5091SOL    HW116172   6.388   6.927   0.583
 5091SOL    HW216173   6.279   6.941   0.462
 5092SOL     OW16174   3.674   3.739   4.937
 5092SOL    HW116175   3.750   3.802   4.952
 5092SOL    HW216176   3.703   3.646   4.959
 5093SOL     OW16177   2.080   1.630   3.084
 5093SOL    HW116178   2.103   1.724   3.058
 5093SOL    HW216179   2.026   1.588   3.012
 5094SOL     OW16180   2.118   5.652   6.840
 5094SOL    HW116181   2.118   5.552   6.832
 5094SOL    HW216182   2.203   5.688   6.801
 5095SOL     OW16183   0.294   1.316   2.852
 5095SOL    HW116184   0.273   1.365   2.768
 5095SOL    HW216185   0.342   1.231   2.829
 5096SOL     OW16186   5.178   2.807   6.118
 5096SOL    HW116187   5.172   2.808   6.019
 5096SOL    HW216188   5.144   2.893   6.155
 5097SOL     OW16189   0.144   6.310   6.080
 5097SOL    HW116190   0.054   6.273   6.056
 5097SOL    HW216191   0.211   6.236   6.082
 5098SOL     OW16192   3.692   1.930   1.964
 5098SOL    HW116193   3.623   1.879   1.912
 5098SOL    HW216194   3.664   2.026   1.970
 5099SOL     OW16195   0.863   6.206   1.763
 5099SOL    HW116196   0.864   6.128   1.700
 5099SOL    HW216197   0.925   6.189   1.839
 5100SOL     OW16198   5.147   4.371   2.491
 5100SOL    HW116199   5.214   4.332   2.554
 5100SOL    HW216200   5.174   4.464   2.467
 5101SOL     OW16201   4.394   6.998   5.364
 5101SOL    HW116202   4.406   6.910   5.319
 5101SOL    HW216203   4.407   0.051   5.296
 5102SOL     OW16204   5.371   5.289   4.265
 5102SOL    HW116205   5.437   5.292   4.191
 5102SOL    HW216206   5.375   5.374   4.317
 5103SOL     OW16207   1.009   0.473   5.620
 5103SOL    HW116208   1.035   0.426   5.704
 5103SOL    HW216209   1.035   0.569   5.625
 5104SOL     OW16210   3.990   5.027   1.137
 5104SOL    HW116211   3.953   4.943   1.097
 5104SOL    HW216212   4.072   5.054   1.087
 5105SOL     OW16213   3.296   3.179   0.010
 5105SOL    HW116214   3.372   3.131   0.054
 5105SOL    HW216215   3.291   3.272   0.047
 5106SOL     OW16216   3.883   2.835   0.639
 5106SOL    HW116217   3.817   2.845   0.714
 5106SOL    HW216218   3.956   2.773   0.667
 5107SOL     OW16219   4.842   2.449   1.219
 5107SOL    HW116220   4.893   2.495   1.291
 5107SOL    HW216221   4.748   2.485   1.216
 5108SOL     OW16222   4.453   3.452   6.592
 5108SOL    HW116223   4.444   3.442   6.691
 5108SOL    HW216224   4.407   3.536   6.562
 5109SOL     OW16225   1.989   2.751   0.999
 5109SOL    HW116226   1.930   2.747   0.918
 5109SOL    HW216227   2.079   2.785   0.973
 5110SOL     OW16228   5.878   0.173   6.037
 5110SOL    HW116229   5.873   0.074   6.028
 5110SOL    HW216230   5.885   0.197   6.134
 5111SOL     OW16231   1.707   6.140   5.174
 5111SOL    HW116232   1.744   6.053   5.143
 5111SOL    HW216233   1.641   6.173   5.106
 5112SOL     OW16234   0.137   0.856   3.548
 5112SOL    HW116235   0.129   0.937   3.491
 5112SOL    HW216236   0.053   0.802   3.542
 5113SOL     OW16237   1.966   5.159   1.006
 5113SOL    HW116238   1.915   5.131   0.925
 5113SOL    HW216239   2.039   5.222   0.978
 5114SOL     OW16240   3.951   6.819   0.654
 5114SOL    HW116241   3.913   6.728   0.671
 5114SOL    HW216242   4.040   6.826   0.699
 5115SOL     OW16243   1.623   3.991   1.460
 5115SOL    HW116244   1.603   3.964   1.554
 5115SOL    HW216245   1.544   3.973   1.402
 5116SOL     OW16246   2.597   0.011   6.647
 5116SOL    HW116247   2.639   6.961   6.590
 5116SOL    HW216248   2.498   7.018   6.649
 5117SOL     OW16249   1.552   2.737   4.204
 5117SOL    HW116250   1.565   2.818   4.262
 5117SOL    HW216251   1.619   2.668   4.228
 5118SOL     OW16252   6.374   6.619   0.322
 5118SOL    HW116253   6.455   6.650   0.372
 5118SOL    HW216254   6.292   6.660   0.362
 5119SOL     OW16255   5.299   2.140   0.287
 5119SOL    HW116256   5.381   2.178   0.329
 5119SOL    HW216257   5.224   2.140   0.353
 5120SOL     OW16258   5.560   0.114   4.674
 5120SOL    HW116259   5.646   0.163   4.660
 5120SOL    HW216260   5.539   0.110   4.772
 5121SOL     OW16261   2.898   4.078   6.908
 5121SOL    HW116262   2.812   4.130   6.904
 5121SOL    HW216263   2.892   3.998   6.848
 5122SOL     OW16264   4.494   5.496   3.402
 5122SOL    HW116265   4.503   5.571   3.468
 5122SOL    HW216266   4.521   5.529   3.311
 5123SOL     OW16267   4.343   2.181   2.186
 5123SOL    HW116268   4.260   2.143   2.145
 5123SOL    HW216269   4.362   2.271   2.147
 5124SOL     OW16270   1.948   6.468   3.572
 5124SOL    HW116271   2.036   6.503   3.605
 5124SOL    HW216272   1.891   6.443   3.651
 5125SOL     OW16273   0.826   2.150   4.061
 5125SOL    HW116274   0.743   2.196   4.029
 5125SOL    HW216275   0.869   2.204   4.133
 5126SOL     OW16276   1.819   6.890   1.312
 5126SOL    HW116277   1.762   6.898   1.230
 5126SOL    HW216278   1.842   6.794   1.327
 5127SOL     OW16279   1.802   5.570   0.636
 5127SOL    HW116280   1.878   5.618   0.592
 5127SOL    HW216281   1.835   5.483   0.674
 5128SOL     OW16282   6.365   6.156   1.986
 5128SOL    HW116283   6.460   6.149   2.017
 5128SOL    HW216284   6.326   6.064   1.981
 5129SOL     OW16285   4.486   6.743   1.326
 5129SOL    HW116286   4.413   6.678   1.345
 5129SOL    HW216287   4.574   6.704   1.354
 5130SOL     OW16288   6.114   4.615   3.529
 5130SOL    HW116289   6.104   4.573   3.439
 5130SOL    HW216290   6.199   4.584   3.571
 5131SOL     OW16291   1.480   2.684   3.469
 5131SOL    HW116292   1.466   2.738   3.553
 5131SOL    HW216293   1.468   2.587   3.490
 5132SOL     OW16294   3.224   4.915   6.484
 5132SOL    HW116295   3.323   4.907   6.486
 5132SOL    HW216296   3.193   4.929   6.390
 5133SOL     OW16297   3.779   5.923   6.560
 5133SOL    HW116298   3.824   5.910   6.648
 5133SOL    HW216299   3.840   5.895   6.486
 5134SOL     OW16300   0.721   3.861   1.289
 5134SOL    HW116301   0.754   3.919   1.363
 5134SOL    HW216302   0.646   3.804   1.322
 5135SOL     OW16303   6.979   1.875   4.664
 5135SOL    HW116304   0.029   1.911   4.603
 5135SOL    HW216305   7.009   1.881   4.759
 5136SOL     OW16306   5.084   0.449   4.250
 5136SOL    HW116307   5.169   0.502   4.246
 5136SOL    HW216308   5.016   0.491   4.191
 5137SOL     OW16309   4.956   3.852   6.307
 5137SOL    HW116310   4.882   3.870   6.242
 5137SOL    HW216311   4.919   3.851   6.400
 5138SOL     OW16312   2.712   3.827   6.521
 5138SOL    HW116313   2.808   3.840   6.546
 5138SOL    HW216314   2.706   3.786   6.430
 5139SOL     OW16315   1.186   6.948   4.183
 5139SOL    HW116316   1.224   6.909   4.267
 5139SOL    HW216317   1.128   0.006   4.206
 5140SOL     OW16318   3.249   2.776   0.694
 5140SOL    HW116319   3.289   2.743   0.779
 5140SOL    HW216320   3.253   2.703   0.625
 5141SOL     OW16321   5.571   3.427   0.538
 5141SOL    HW116322   5.589   3.489   0.461
 5141SOL    HW216323   5.600   3.334   0.514
 5142SOL     OW16324   5.543   3.403   4.505
 5142SOL    HW116325   5.468   3.468   4.516
 5142SOL    HW216326   5.556   3.352   4.590
 5143SOL     OW16327   6.786   5.059   3.892
 5143SOL    HW116328   6.724   5.004   3.948
 5143SOL    HW216329   6.760   5.052   3.796
 5144SOL     OW16330   1.594   0.279   6.175
 5144SOL    HW116331   1.630   0.355   6.120
 5144SOL    HW216332   1.658   0.202   6.171
 5145SOL     OW16333   2.273   5.202   5.596
 5145SOL    HW116334   2.341   5.273   5.615
 5145SOL    HW216335   2.313   5.112   5.615
 5146SOL     OW16336   3.705   3.738   6.657
 5146SOL    HW116337   3.642   3.752   6.581
 5146SOL    HW216338   3.795   3.711   6.621
 5147SOL     OW16339   6.957   4.031   0.647
 5147SOL    HW116340   6.924   3.953   0.595
 5147SOL    HW216341   6.943   4.115   0.594
 5148SOL     OW16342   0.234   5.846   1.331
 5148SOL    HW116343   0.135   5.855   1.338
 5148SOL    HW216344   0.268   5.899   1.253
 5149SOL     OW16345   5.816   1.158   3.078
 5149SOL    HW116346   5.861   1.088   3.133
 5149SOL    HW216347   5.873   1.182   2.999
 5150SOL     OW16348   1.403   6.020   3.675
 5150SOL    HW116349   1.399   6.091   3.604
 5150SOL    HW216350   1.315   5.972   3.679
 5151SOL     OW16351   4.915   1.054   6.236
 5151SOL    HW116352   4.956   1.118   6.170
 5151SOL    HW216353   4.816   1.049   6.219
 5152SOL     OW16354   1.086   4.533   6.970
 5152SOL    HW116355   1.089   4.534   0.049
 5152SOL    HW216356   1.167   4.486   6.934
 5153SOL     OW16357   1.837   2.213   0.773
 5153SOL    HW116358   1.827   2.262   0.686
 5153SOL    HW216359   1.811   2.118   0.760
 5154SOL     OW16360   1.825   3.591   6.027
 5154SOL    HW116361   1.907   3.589   6.086
 5154SOL    HW216362   1.758   3.654   6.067
 5155SOL     OW16363   4.055   6.366   2.046
 5155SOL    HW116364   4.100   6.387   1.959
 5155SOL    HW216365   3.956   6.367   2.033
 5156SOL     OW16366   6.957   2.405   5.664
 5156SOL    HW116367   6.932   2.317   5.624
 5156SOL    HW216368   0.011   2.392   5.730
 5157SOL     OW16369   5.228   2.964   3.688
 5157SOL    HW116370   5.296   2.953   3.615
 5157SOL    HW216371   5.267   3.020   3.762
 5158SOL     OW16372   3.748   0.912   1.133
 5158SOL    HW116373   3.757   0.970   1.052
 5158SOL    HW216374   3.732   0.817   1.104
 5159SOL     OW16375   0.787   3.186   3.776
 5159SOL    HW116376   0.799   3.195   3.875
 5159SOL    HW216377   0.810   3.273   3.732
 5160SOL     OW16378   1.595   3.863   4.656
 5160SOL    HW116379   1.546   3.945   4.627
 5160SOL    HW216380   1.586   3.793   4.585
 5161SOL     OW16381   1.099   3.641   5.534
 5161SOL    HW116382   1.153   3.644   5.450
 5161SOL    HW216383   1.160   3.651   5.613
 5162SOL     OW16384   6.867   5.911   4.130
 5162SOL    HW116385   6.812   5.952   4.058
 5162SOL    HW216386   6.944   5.862   4.089
 5163SOL     OW16387   5.672   5.118   0.763
 5163SOL    HW116388   5.752   5.166   0.800
 5163SOL    HW216389   5.694   5.083   0.672
 5164SOL     OW16390   6.271   3.071   5.166
 5164SOL    HW116391   6.175   3.055   5.191
 5164SOL    HW216392   6.275   3.124   5.082
 5165SOL     OW16393   6.245   4.705   4.451
 5165SOL    HW116394   6.268   4.610   4.434
 5165SOL    HW216395   6.261   4.759   4.368
 5166SOL     OW16396   1.336   4.604   2.098
 5166SOL    HW116397   1.252   4.557   2.123
 5166SOL    HW216398   1.414   4.544   2.116
 5167SOL     OW16399   6.819   6.694   5.998
 5167SOL    HW116400   6.841   6.655   6.088
 5167SOL    HW216401   6.893   6.674   5.935
 5168SOL     OW16402   4.263   2.192   2.900
 5168SOL    HW116403   4.285   2.267   2.962
 5168SOL    HW216404   4.280   2.221   2.805
 5169SOL     OW16405   3.318   3.988   6.005
 5169SOL    HW116406   3.378   3.924   6.053
 5169SOL    HW216407   3.235   3.941   5.975
 5170SOL     OW16408   6.284   4.646   4.953
 5170SOL    HW116409   6.217   4.642   4.878
 5170SOL    HW216410   6.238   4.671   5.038
 5171SOL     OW16411   2.384   4.960   4.172
 5171SOL    HW116412   2.387   4.893   4.246
 5171SOL    HW216413   2.388   5.052   4.211
 5172SOL     OW16414   0.479   4.249   2.141
 5172SOL    HW116415   0.383   4.235   2.118
 5172SOL    HW216416   0.494   4.344   2.168
 5173SOL     OW16417   5.393   3.163   6.104
 5173SOL    HW116418   5.326   3.130   6.037
 5173SOL    HW216419   5.352   3.159   6.196
 5174SOL     OW16420   1.617   4.786   5.324
 5174SOL    HW116421   1.593   4.725   5.400
 5174SOL    HW216422   1.674   4.736   5.258
 5175SOL     OW16423   1.578   4.518   0.386
 5175SOL    HW116424   1.487   4.489   0.357
 5175SOL    HW216425   1.598   4.608   0.348
 5176SOL     OW16426   3.867   3.871   1.150
 5176SOL    HW116427   3.932   3.820   1.094
 5176SOL    HW216428   3.916   3.914   1.226
 5177SOL     OW16429   4.439   6.115   5.867
 5177SOL    HW116430   4.345   6.100   5.899
 5177SOL    HW216431   4.472   6.203   5.901
 5178SOL     OW16432   2.992   2.796   1.717
 5178SOL    HW116433   2.959   2.734   1.646
 5178SOL    HW216434   2.979   2.890   1.688
 5179SOL     OW16435   3.930   6.660   5.759
 5179SOL    HW116436   3.963   6.713   5.681
 5179SOL    HW216437   3.894   6.721   5.829
 5180SOL     OW16438   3.198   1.892   0.581
 5180SOL    HW116439   3.177   1.927   0.490
 5180SOL    HW216440   3.276   1.943   0.619
 5181SOL     OW16441   4.394   0.089   2.677
 5181SOL    HW116442   4.475   0.079   2.618
 5181SOL    HW216443   4.424   0.110   2.770
 5182SOL     OW16444   5.791   4.314   1.730
 5182SOL    HW116445   5.751   4.298   1.640
 5182SOL    HW216446   5.851   4.238   1.753
 5183SOL     OW16447   4.304   6.936   2.212
 5183SOL    HW116448   4.404   6.940   2.217
 5183SOL    HW216449   4.276   6.848   2.172
 5184SOL     OW16450   1.124   1.357   3.501
 5184SOL    HW116451   1.187   1.408   3.442
 5184SOL    HW216452   1.085   1.281   3.449
 5185SOL     OW16453   3.446   6.973   2.742
 5185SOL    HW116454   3.347   6.957   2.737
 5185SOL    HW216455   3.465   0.049   2.722
 5186SOL     OW16456   6.851   4.033   1.202
 5186SOL    HW116457   6.845   3.963   1.272
 5186SOL    HW216458   6.943   4.035   1.164
 5187SOL     OW16459   6.185   1.869   3.176
 5187SOL    HW116460   6.261   1.809   3.201
 5187SOL    HW216461   6.221   1.958   3.148
 5188SOL     OW16462   0.433   4.789   6.446
 5188SOL    HW116463   0.522   4.833   6.437
 5188SOL    HW216464   0.373   4.846   6.502
 5189SOL     OW16465   5.162   5.099   6.763
 5189SOL    HW116466   5.121   5.027   6.819
 5189SOL    HW216467   5.256   5.074   6.739
 5190SOL     OW16468   1.060   2.253   3.902
 5190SOL    HW116469   1.004   2.292   3.829
 5190SOL    HW216470   1.021   2.167   3.933
 5191SOL     OW16471   3.690   1.307   1.953
 5191SOL    HW116472   3.754   1.262   2.017
 5191SOL    HW216473   3.737   1.382   1.907
 5192SOL     OW16474   5.443   5.836   2.506
 5192SOL    HW116475   5.497   5.768   2.555
 5192SOL    HW216476   5.358   5.853   2.555
 5193SOL     OW16477   4.783   4.250   3.921
 5193SOL    HW116478   4.745   4.197   3.846
 5193SOL    HW216479   4.840   4.190   3.978
 5194SOL     OW16480   5.531   0.592   5.763
 5194SOL    HW116481   5.571   0.561   5.849
 5194SOL    HW216482   5.489   0.514   5.716
 5195SOL     OW16483   6.508   6.545   5.335
 5195SOL    HW116484   6.535   6.630   5.382
 5195SOL    HW216485   6.491   6.565   5.238
 5196SOL     OW16486   0.586   4.375   1.877
 5196SOL    HW116487   0.490   4.369   1.851
 5196SOL    HW216488   0.594   4.385   1.976
 5197SOL     OW16489   2.119   6.072   4.638
 5197SOL    HW116490   2.137   5.995   4.577
 5197SOL    HW216491   2.140   6.157   4.591
 5198SOL     OW16492   3.703   6.084   5.065
 5198SOL    HW116493   3.707   5.989   5.034
 5198SOL    HW216494   3.687   6.144   4.987
 5199SOL     OW16495   1.978   5.687   1.469
 5199SOL    HW116496   1.905   5.660   1.406
 5199SOL    HW216497   1.954   5.774   1.513
 5200SOL     OW16498   0.474   1.463   4.664
 5200SOL    HW116499   0.513   1.375   4.637
 5200SOL    HW216500   0.425   1.452   4.751
 5201SOL     OW16501   5.314   4.658   3.468
 5201SOL    HW116502   5.292   4.632   3.374
 5201SOL    HW216503   5.241   4.715   3.505
 5202SOL     OW16504   4.057   3.078   6.300
 5202SOL    HW116505   3.993   3.002   6.315
 5202SOL    HW216506   4.012   3.149   6.246
 5203SOL     OW16507   2.090   0.469   0.733
 5203SOL    HW116508   2.062   0.441   0.641
 5203SOL    HW216509   2.086   0.391   0.795
 5204SOL     OW16510   3.504   0.839   6.477
 5204SOL    HW116511   3.569   0.813   6.549
 5204SOL    HW216512   3.422   0.879   6.519
 5205SOL     OW16513   6.919   5.924   1.064
 5205SOL    HW116514   7.007   5.967   1.043
 5205SOL    HW216515   6.874   5.898   0.979
 5206SOL     OW16516   0.587   4.598   5.119
 5206SOL    HW116517   0.489   4.581   5.104
 5206SOL    HW216518   0.600   4.633   5.212
 5207SOL     OW16519   0.346   0.843   4.737
 5207SOL    HW116520   0.334   0.902   4.817
 5207SOL    HW216521   0.270   0.857   4.673
 5208SOL     OW16522   4.403   2.295   0.390
 5208SOL    HW116523   4.467   2.296   0.314
 5208SOL    HW216524   4.365   2.203   0.401
 5209SOL     OW16525   4.767   6.021   2.769
 5209SOL    HW116526   4.845   5.959   2.779
 5209SOL    HW216527   4.695   5.993   2.833
 5210SOL     OW16528   5.054   4.294   0.383
 5210SOL    HW116529   5.120   4.326   0.451
 5210SOL    HW216530   4.961   4.315   0.413
 5211SOL     OW16531   4.667   2.640   4.194
 5211SOL    HW116532   4.729   2.709   4.158
 5211SOL    HW216533   4.714   2.552   4.200
 5212SOL     OW16534   0.992   3.486   0.796
 5212SOL    HW116535   0.982   3.578   0.834
 5212SOL    HW216536   0.911   3.463   0.743
 5213SOL     OW16537   4.067   3.117   2.643
 5213SOL    HW116538   4.012   3.132   2.725
 5213SOL    HW216539   4.070   3.019   2.622
 5214SOL     OW16540   5.729   3.703   6.260
 5214SOL    HW116541   5.649   3.762   6.246
 5214SOL    HW216542   5.751   3.655   6.175
 5215SOL     OW16543   6.791   3.896   5.062
 5215SOL    HW116544   6.878   3.854   5.086
 5215SOL    HW216545   6.807   3.974   5.001
 5216SOL     OW16546   5.720   4.630   0.523
 5216SOL    HW116547   5.738   4.532   0.521
 5216SOL    HW216548   5.636   4.647   0.575
 5217SOL     OW16549   3.888   5.824   3.884
 5217SOL    HW116550   3.972   5.809   3.833
 5217SOL    HW216551   3.906   5.818   3.983
 5218SOL     OW16552   0.779   0.648   0.487
 5218SOL    HW116553   0.740   0.734   0.519
 5218SOL    HW216554   0.847   0.615   0.554
 5219SOL     OW16555   2.248   2.300   4.754
 5219SOL    HW116556   2.165   2.346   4.785
 5219SOL    HW216557   2.243   2.281   4.656
 5220SOL     OW16558   1.605   4.473   3.297
 5220SOL    HW116559   1.651   4.385   3.308
 5220SOL    HW216560   1.668   4.547   3.320
 5221SOL     OW16561   6.681   0.413   1.669
 5221SOL    HW116562   6.759   0.417   1.607
 5221SOL    HW216563   6.600   0.382   1.619
 5222SOL     OW16564   4.696   4.866   1.685
 5222SOL    HW116565   4.759   4.810   1.739
 5222SOL    HW216566   4.606   4.865   1.728
 5223SOL     OW16567   0.620   3.058   1.158
 5223SOL    HW116568   0.592   3.120   1.085
 5223SOL    HW216569   0.700   3.096   1.205
 5224SOL     OW16570   0.678   1.950   3.908
 5224SOL    HW116571   0.717   2.037   3.937
 5224SOL    HW216572   0.580   1.947   3.931
 5225SOL     OW16573   0.338   1.539   5.016
 5225SOL    HW116574   0.430   1.546   5.056
 5225SOL    HW216575   0.313   1.625   4.973
 5226SOL     OW16576   6.917   6.247   4.023
 5226SOL    HW116577   7.003   6.296   4.014
 5226SOL    HW216578   6.901   6.225   4.120
 5227SOL     OW16579   0.118   2.575   4.884
 5227SOL    HW116580   0.180   2.546   4.956
 5227SOL    HW216581   0.087   2.669   4.902
 5228SOL     OW16582   1.694   3.081   5.896
 5228SOL    HW116583   1.786   3.049   5.918
 5228SOL    HW216584   1.694   3.125   5.806
 5229SOL     OW16585   4.457   0.646   6.436
 5229SOL    HW116586   4.388   0.651   6.364
 5229SOL    HW216587   4.543   0.615   6.398
 5230SOL     OW16588   6.860   0.294   1.839
 5230SOL    HW116589   6.806   0.344   1.771
 5230SOL    HW216590   6.857   0.342   1.927
 5231SOL     OW16591   6.195   1.694   2.334
 5231SOL    HW116592   6.191   1.630   2.257
 5231SOL    HW216593   6.254   1.771   2.311
 5232SOL     OW16594   1.735   3.497   5.782
 5232SOL    HW116595   1.765   3.524   5.874
 5232SOL    HW216596   1.791   3.544   5.713
 5233SOL     OW16597   3.025   0.488   2.638
 5233SOL    HW116598   3.001   0.434   2.557
 5233SOL    HW216599   3.124   0.484   2.652
 5234SOL     OW16600   2.060   2.287   1.289
 5234SOL    HW116601   1.961   2.290   1.296
 5234SOL    HW216602   2.100   2.254   1.374
 5235SOL     OW16603   2.627   2.095   1.209
 5235SOL    HW116604   2.712   2.059   1.246
 5235SOL    HW216605   2.597   2.038   1.132
 5236SOL     OW16606   3.135   5.521   2.352
 5236SOL    HW116607   3.066   5.570   2.298
 5236SOL    HW216608   3.168   5.442   2.300
 5237SOL     OW16609   2.013   2.291   4.268
 5237SOL    HW116610   2.081   2.319   4.201
 5237SOL    HW216611   2.058   2.257   4.350
 5238SOL     OW16612   1.113   6.065   2.695
 5238SOL    HW116613   1.021   6.104   2.700
 5238SOL    HW216614   1.177   6.124   2.744
 5239SOL     OW16615   3.196   3.602   1.339
 5239SOL    HW116616   3.210   3.538   1.415
 5239SOL    HW216617   3.281   3.651   1.321
 5240SOL     OW16618   2.624   3.430   5.774
 5240SOL    HW116619   2.629   3.528   5.755
 5240SOL    HW216620   2.544   3.391   5.727
 5241SOL     OW16621   0.674   5.788   2.245
 5241SOL    HW116622   0.759   5.806   2.296
 5241SOL    HW216623   0.602   5.762   2.309
 5242SOL     OW16624   5.017   0.741   0.127
 5242SOL    HW116625   4.949   0.673   0.100
 5242SOL    HW216626   5.087   0.749   0.056
 5243SOL     OW16627   1.810   6.333   1.845
 5243SOL    HW116628   1.786   6.417   1.894
 5243SOL    HW216629   1.764   6.255   1.888
 5244SOL     OW16630   4.636   3.304   6.998
 5244SOL    HW116631   4.588   3.352   0.051
 5244SOL    HW216632   4.690   3.369   6.945
 5245SOL     OW16633   3.623   4.259   1.059
 5245SOL    HW116634   3.610   4.233   1.155
 5245SOL    HW216635   3.683   4.339   1.055
 5246SOL     OW16636   5.521   3.087   1.083
 5246SOL    HW116637   5.476   3.075   1.171
 5246SOL    HW216638   5.586   3.013   1.068
 5247SOL     OW16639   4.032   1.857   5.913
 5247SOL    HW116640   4.120   1.904   5.917
 5247SOL    HW216641   3.961   1.917   5.950
 5248SOL     OW16642   6.020   1.679   3.266
 5248SOL    HW116643   6.063   1.749   3.208
 5248SOL    HW216644   5.957   1.625   3.211
 5249SOL     OW16645   0.425   5.184   6.307
 5249SOL    HW116646   0.329   5.161   6.328
 5249SOL    HW216647   0.461   5.242   6.380
 5250SOL     OW16648   2.181   5.821   0.823
 5250SOL    HW116649   2.177   5.762   0.904
 5250SOL    HW216650   2.259   5.795   0.767
 5251SOL     OW16651   0.653   4.412   1.060
 5251SOL    HW116652   0.590   4.484   1.032
 5251SOL    HW216653   0.634   4.329   1.007
 5252SOL     OW16654   4.123   0.150   2.752
 5252SOL    HW116655   4.126   0.144   2.852
 5252SOL    HW216656   4.216   0.156   2.716
 5253SOL     OW16657   6.102   4.685   4.718
 5253SOL    HW116658   6.157   4.711   4.638
 5253SOL    HW216659   6.066   4.593   4.705
 5254SOL     OW16660   5.919   0.352   2.704
 5254SOL    HW116661   5.867   0.345   2.790
 5254SOL    HW216662   5.875   0.296   2.634
 5255SOL     OW16663   6.274   1.182   4.936
 5255SOL    HW116664   6.364   1.212   4.903
 5255SOL    HW216665   6.206   1.251   4.910
 5256SOL     OW16666   5.815   0.796   2.906
 5256SOL    HW116667   5.912   0.807   2.928
 5256SOL    HW216668   5.767   0.754   2.983
 5257SOL     OW16669   4.530   0.415   6.137
 5257SOL    HW116670   4.483   0.336   6.175
 5257SOL    HW216671   4.477   0.498   6.155
 5258SOL     OW16672   4.561   1.974   2.190
 5258SOL    HW116673   4.628   2.003   2.259
 5258SOL    HW216674   4.493   2.046   2.177
 5259SOL     OW16675   5.170   5.064   3.040
 5259SOL    HW116676   5.103   5.056   2.966
 5259SOL    HW216677   5.224   4.980   3.045
 5260SOL     OW16678   2.517   0.154   0.292
 5260SOL    HW116679   2.559   0.141   0.202
 5260SOL    HW216680   2.504   0.251   0.309
 5261SOL     OW16681   6.590   4.770   0.277
 5261SOL    HW116682   6.524   4.798   0.207
 5261SOL    HW216683   6.611   4.848   0.336
 5262SOL     OW16684   2.570   0.956   2.605
 5262SOL    HW116685   2.601   1.006   2.686
 5262SOL    HW216686   2.646   0.949   2.540
 5263SOL     OW16687   1.679   1.189   3.480
 5263SOL    HW116688   1.654   1.267   3.421
 5263SOL    HW216689   1.775   1.165   3.462
 5264SOL     OW16690   0.270   2.465   1.726
 5264SOL    HW116691   0.323   2.431   1.648
 5264SOL    HW216692   0.259   2.392   1.793
 5265SOL     OW16693   5.744   3.634   4.663
 5265SOL    HW116694   5.815   3.667   4.725
 5265SOL    HW216695   5.756   3.676   4.573
 5266SOL     OW16696   2.481   0.179   0.709
 5266SOL    HW116697   2.516   0.238   0.637
 5266SOL    HW216698   2.557   0.136   0.758
 5267SOL     OW16699   4.262   2.214   4.559
 5267SOL    HW116700   4.296   2.286   4.619
 5267SOL    HW216701   4.302   2.224   4.468
 5268SOL     OW16702   5.723   0.821   6.447
 5268SOL    HW116703   5.632   0.794   6.478
 5268SOL    HW216704   5.734   0.920   6.456
 5269SOL     OW16705   0.439   6.688   3.027
 5269SOL    HW116706   0.472   6.696   2.933
 5269SOL    HW216707   0.512   6.714   3.091
 5270SOL     OW16708   6.988   2.071   6.593
 5270SOL    HW116709   6.907   2.076   6.651
 5270SOL    HW216710   7.016   1.976   6.583
 5271SOL     OW16711   6.159   5.574   3.892
 5271SOL    HW116712   6.078   5.578   3.949
 5271SOL    HW216713   6.163   5.485   3.846
 5272SOL     OW16714   4.268   0.168   0.003
 5272SOL    HW116715   4.294   0.187   6.928
 5272SOL    HW216716   4.287   0.073   0.025
 5273SOL     OW16717   0.972   3.010   2.466
 5273SOL    HW116718   1.052   3.061   2.496
 5273SOL    HW216719   0.977   2.995   2.367
 5274SOL     OW16720   4.545   6.155   2.319
 5274SOL    HW116721   4.602   6.181   2.241
 5274SOL    HW216722   4.598   6.097   2.381
 5275SOL     OW16723   3.820   0.792   6.912
 5275SOL    HW116724   3.901   0.745   6.946
 5275SOL    HW216725   3.773   0.837   6.989
 5276SOL     OW16726   3.051   6.461   2.417
 5276SOL    HW116727   2.993   6.395   2.371
 5276SOL    HW216728   3.140   6.465   2.371
 5277SOL     OW16729   2.168   1.423   1.944
 5277SOL    HW116730   2.113   1.344   1.973
 5277SOL    HW216731   2.170   1.426   1.844
 5278SOL     OW16732   4.386   5.246   1.619
 5278SOL    HW116733   4.474   5.289   1.638
 5278SOL    HW216734   4.387   5.207   1.527
 5279SOL     OW16735   2.943   4.978   1.402
 5279SOL    HW116736   2.855   4.980   1.449
 5279SOL    HW216737   2.985   4.889   1.413
 5280SOL     OW16738   3.881   5.935   4.837
 5280SOL    HW116739   3.903   5.901   4.745
 5280SOL    HW216740   3.817   5.871   4.881
 5281SOL     OW16741   0.824   1.841   1.678
 5281SOL    HW116742   0.740   1.799   1.714
 5281SOL    HW216743   0.809   1.872   1.585
 5282SOL     OW16744   3.487   1.847   3.631
 5282SOL    HW116745   3.408   1.816   3.579
 5282SOL    HW216746   3.499   1.788   3.711
 5283SOL     OW16747   5.431   5.573   6.704
 5283SOL    HW116748   5.527   5.592   6.725
 5283SOL    HW216749   5.413   5.593   6.608
 5284SOL     OW16750   5.774   3.096   2.598
 5284SOL    HW116751   5.846   3.158   2.627
 5284SOL    HW216752   5.801   3.001   2.617
 5285SOL     OW16753   3.136   4.942   3.362
 5285SOL    HW116754   3.116   4.906   3.453
 5285SOL    HW216755   3.190   5.025   3.370
 5286SOL     OW16756   1.673   4.249   1.459
 5286SOL    HW116757   1.656   4.152   1.439
 5286SOL    HW216758   1.731   4.288   1.388
 5287SOL     OW16759   2.352   2.191   0.451
 5287SOL    HW116760   2.376   2.180   0.547
 5287SOL    HW216761   2.325   2.285   0.434
 5288SOL     OW16762   3.506   6.988   1.059
 5288SOL    HW116763   3.588   6.932   1.047
 5288SOL    HW216764   3.490   7.003   1.156
 5289SOL     OW16765   1.241   5.296   1.837
 5289SOL    HW116766   1.168   5.229   1.833
 5289SOL    HW216767   1.277   5.313   1.745
 5290SOL     OW16768   4.626   6.060   0.816
 5290SOL    HW116769   4.687   6.032   0.742
 5290SOL    HW216770   4.549   5.996   0.823
 5291SOL     OW16771   1.759   5.203   5.642
 5291SOL    HW116772   1.843   5.237   5.599
 5291SOL    HW216773   1.775   5.111   5.677
 5292SOL     OW16774   4.599   2.720   5.938
 5292SOL    HW116775   4.654   2.798   5.968
 5292SOL    HW216776   4.517   2.752   5.891
 5293SOL     OW16777   0.768   0.691   4.389
 5293SOL    HW116778   0.805   0.783   4.400
 5293SOL    HW216779   0.673   0.689   4.420
 5294SOL     OW16780   6.375   2.563   5.938
 5294SOL    HW116781   6.299   2.628   5.940
 5294SOL    HW216782   6.357   2.489   6.003
 5295SOL     OW16783   6.542   1.068   2.336
 5295SOL    HW116784   6.610   1.027   2.274
 5295SOL    HW216785   6.567   1.047   2.431
 5296SOL     OW16786   0.516   4.693   1.437
 5296SOL    HW116787   0.517   4.640   1.522
 5296SOL    HW216788   0.448   4.767   1.445
 5297SOL     OW16789   2.320   2.094   1.101
 5297SOL    HW116790   2.222   2.074   1.109
 5297SOL    HW216791   2.349   2.149   1.180
 5298SOL     OW16792   0.750   5.610   1.608
 5298SOL    HW116793   0.841   5.572   1.623
 5298SOL    HW216794   0.708   5.567   1.528
 5299SOL     OW16795   2.944   0.656   2.128
 5299SOL    HW116796   2.870   0.591   2.110
 5299SOL    HW216797   3.007   0.617   2.196
 5300SOL     OW16798   6.183   5.783   3.537
 5300SOL    HW116799   6.271   5.737   3.525
 5300SOL    HW216800   6.191   5.879   3.509
 5301SOL     OW16801   4.029   1.456   6.791
 5301SOL    HW116802   3.949   1.396   6.801
 5301SOL    HW216803   4.062   1.482   6.882
 5302SOL     OW16804   5.939   4.158   2.513
 5302SOL    HW116805   5.943   4.242   2.567
 5302SOL    HW216806   5.862   4.162   2.450
 5303SOL     OW16807   6.759   4.255   3.354
 5303SOL    HW116808   6.747   4.185   3.284
 5303SOL    HW216809   6.849   4.297   3.345
 5304SOL     OW16810   5.376   1.528   5.728
 5304SOL    HW116811   5.315   1.513   5.650
 5304SOL    HW216812   5.423   1.443   5.750
 5305SOL     OW16813   2.385   1.042   3.274
 5305SOL    HW116814   2.463   1.005   3.325
 5305SOL    HW216815   2.348   0.971   3.214
 5306SOL     OW16816   2.810   0.114   5.672
 5306SOL    HW116817   2.782   0.209   5.676
 5306SOL    HW216818   2.852   0.088   5.760
 5307SOL     OW16819   4.767   6.608   0.031
 5307SOL    HW116820   4.857   6.623   0.073
 5307SOL    HW216821   4.760   6.663   6.968
 5308SOL     OW16822   0.424   1.604   2.454
 5308SOL    HW116823   0.411   1.693   2.410
 5308SOL    HW216824   0.510   1.605   2.506
 5309SOL     OW16825   3.417   4.146   3.643
 5309SOL    HW116826   3.398   4.198   3.726
 5309SOL    HW216827   3.333   4.138   3.589
 5310SOL     OW16828   4.637   2.082   0.674
 5310SOL    HW116829   4.713   2.085   0.739
 5310SOL    HW216830   4.619   1.987   0.649
 5311SOL     OW16831   1.183   5.675   6.744
 5311SOL    HW116832   1.188   5.667   6.644
 5311SOL    HW216833   1.171   5.771   6.769
 5312SOL     OW16834   0.347   3.812   3.166
 5312SOL    HW116835   0.440   3.838   3.139
 5312SOL    HW216836   0.349   3.777   3.260
 5313SOL     OW16837   1.076   5.904   0.538
 5313SOL    HW116838   1.005   5.971   0.517
 5313SOL    HW216839   1.057   5.862   0.627
 5314SOL     OW16840   3.879   5.470   1.150
 5314SOL    HW116841   3.966   5.430   1.180
 5314SOL    HW216842   3.831   5.404   1.091
 5315SOL     OW16843   5.407   2.727   2.082
 5315SOL    HW116844   5.383   2.644   2.132
 5315SOL    HW216845   5.331   2.751   2.020
 5316SOL     OW16846   6.352   4.549   3.641
 5316SOL    HW116847   6.437   4.525   3.595
 5316SOL    HW216848   6.353   4.646   3.665
 5317SOL     OW16849   5.590   6.394   2.665
 5317SOL    HW116850   5.602   6.489   2.695
 5317SOL    HW216851   5.656   6.373   2.594
 5318SOL     OW16852   0.737   2.295   4.459
 5318SOL    HW116853   0.638   2.292   4.477
 5318SOL    HW216854   0.782   2.222   4.511
 5319SOL     OW16855   5.041   0.679   0.751
 5319SOL    HW116856   5.107   0.752   0.766
 5319SOL    HW216857   5.088   0.597   0.719
 5320SOL     OW16858   5.904   2.803   5.981
 5320SOL    HW116859   5.888   2.816   5.884
 5320SOL    HW216860   5.934   2.709   5.998
 5321SOL     OW16861   2.299   5.342   5.938
 5321SOL    HW116862   2.249   5.407   5.881
 5321SOL    HW216863   2.348   5.391   6.010
 5322SOL     OW16864   3.336   6.282   0.178
 5322SOL    HW116865   3.310   6.378   0.175
 5322SOL    HW216866   3.272   6.228   0.123
 5323SOL     OW16867   5.158   2.997   0.984
 5323SOL    HW116868   5.218   3.034   0.913
 5323SOL    HW216869   5.064   2.991   0.948
 5324SOL     OW16870   3.890   3.271   1.576
 5324SOL    HW116871   3.879   3.214   1.658
 5324SOL    HW216872   3.890   3.213   1.495
 5325SOL     OW16873   5.396   5.728   3.146
 5325SOL    HW116874   5.477   5.785   3.159
 5325SOL    HW216875   5.319   5.767   3.196
 5326SOL     OW16876   6.920   6.381   1.610
 5326SOL    HW116877   6.979   6.336   1.542
 5326SOL    HW216878   6.923   6.330   1.696
 5327SOL     OW16879   6.531   0.928   3.920
 5327SOL    HW116880   6.516   0.933   4.018
 5327SOL    HW216881   6.566   0.837   3.897
 5328SOL     OW16882   3.892   4.629   0.553
 5328SOL    HW116883   3.867   4.546   0.503
 5328SOL    HW216884   3.883   4.709   0.493
 5329SOL     OW16885   7.008   4.753   0.121
 5329SOL    HW116886   6.950   4.679   0.087
 5329SOL    HW216887   0.073   4.715   0.157
 5330SOL     OW16888   4.845   4.157   1.269
 5330SOL    HW116889   4.822   4.142   1.173
 5330SOL    HW216890   4.837   4.254   1.291
 5331SOL     OW16891   4.597   3.824   7.014
 5331SOL    HW116892   4.645   3.796   6.931
 5331SOL    HW216893   4.584   3.923   7.014
 5332SOL     OW16894   5.951   3.469   0.244
 5332SOL    HW116895   5.979   3.373   0.246
 5332SOL    HW216896   6.025   3.524   0.205
 5333SOL     OW16897   1.984   1.310   3.944
 5333SOL    HW116898   2.038   1.230   3.973
 5333SOL    HW216899   2.014   1.338   3.853
 5334SOL     OW16900   4.306   4.946   2.172
 5334SOL    HW116901   4.230   4.881   2.179
 5334SOL    HW216902   4.393   4.897   2.184
 5335SOL     OW16903   6.958   4.457   1.520
 5335SOL    HW116904   6.981   4.472   1.424
 5335SOL    HW216905   6.861   4.476   1.535
 5336SOL     OW16906   1.442   3.517   4.265
 5336SOL    HW116907   1.460   3.530   4.167
 5336SOL    HW216908   1.515   3.462   4.305
 5337SOL     OW16909   6.642   4.332   0.609
 5337SOL    HW116910   6.637   4.368   0.702
 5337SOL    HW216911   6.735   4.301   0.590
 5338SOL     OW16912   6.725   3.058   0.916
 5338SOL    HW116913   6.717   3.051   1.016
 5338SOL    HW216914   6.646   3.107   0.879
 5339SOL     OW16915   5.843   3.136   3.015
 5339SOL    HW116916   5.832   3.182   2.927
 5339SOL    HW216917   5.753   3.122   3.057
 5340SOL     OW16918   5.350   2.432   2.186
 5340SOL    HW116919   5.324   2.398   2.095
 5340SOL    HW216920   5.378   2.355   2.243
 5341SOL     OW16921   4.116   5.472   3.755
 5341SOL    HW116922   4.069   5.404   3.699
 5341SOL    HW216923   4.096   5.564   3.721
 5342SOL     OW16924   5.778   6.742   4.191
 5342SOL    HW116925   5.775   6.648   4.226
 5342SOL    HW216926   5.747   6.743   4.096
 5343SOL     OW16927   3.874   3.795   7.016
 5343SOL    HW116928   3.953   3.742   6.985
 5343SOL    HW216929   3.904   3.874   0.050
 5344SOL     OW16930   1.558   1.691   5.829
 5344SOL    HW116931   1.590   1.601   5.800
 5344SOL    HW216932   1.633   1.757   5.822
 5345SOL     OW16933   4.804   2.472   0.237
 5345SOL    HW116934   4.873   2.521   0.183
 5345SOL    HW216935   4.805   2.505   0.331
 5346SOL     OW16936   3.118   5.580   3.809
 5346SOL    HW116937   3.105   5.679   3.804
 5346SOL    HW216938   3.200   5.560   3.863
 5347SOL     OW16939   5.806   1.649   4.159
 5347SOL    HW116940   5.781   1.567   4.109
 5347SOL    HW216941   5.889   1.689   4.118
 5348SOL     OW16942   5.218   1.964   2.717
 5348SOL    HW116943   5.197   2.006   2.629
 5348SOL    HW216944   5.315   1.979   2.739
 5349SOL     OW16945   0.063   3.541   2.581
 5349SOL    HW116946   0.125   3.496   2.646
 5349SOL    HW216947   0.001   3.602   2.631
 5350SOL     OW16948   1.584   6.159   6.787
 5350SOL    HW116949   1.664   6.120   6.741
 5350SOL    HW216950   1.613   6.202   6.873
 5351SOL     OW16951   0.143   6.071   2.056
 5351SOL    HW116952   0.175   6.059   2.150
 5351SOL    HW216953   0.093   5.990   2.026
 5352SOL     OW16954   1.522   3.264   5.075
 5352SOL    HW116955   1.486   3.357   5.076
 5352SOL    HW216956   1.476   3.210   5.005
 5353SOL     OW16957   3.972   5.283   3.602
 5353SOL    HW116958   3.940   5.250   3.691
 5353SOL    HW216959   4.022   5.210   3.555
 5354SOL     OW16960   4.433   6.166   1.215
 5354SOL    HW116961   4.369   6.090   1.231
 5354SOL    HW216962   4.525   6.130   1.202
 5355SOL     OW16963   5.008   4.289   5.080
 5355SOL    HW116964   4.948   4.355   5.034
 5355SOL    HW216965   4.984   4.283   5.177
 5356SOL     OW16966   0.372   5.072   1.283
 5356SOL    HW116967   0.424   5.068   1.198
 5356SOL    HW216968   0.291   5.014   1.276
 5357SOL     OW16969   5.489   3.980   2.048
 5357SOL    HW116970   5.444   4.066   2.072
 5357SOL    HW216971   5.469   3.912   2.119
 5358SOL     OW16972   4.381   1.879   0.369
 5358SOL    HW116973   4.423   1.875   0.279
 5358SOL    HW216974   4.322   1.960   0.375
 5359SOL     OW16975   3.042   1.648   6.730
 5359SOL    HW116976   3.107   1.594   6.676
 5359SOL    HW216977   2.991   1.710   6.670
 5360SOL     OW16978   5.032   4.090   3.214
 5360SOL    HW116979   5.121   4.106   3.170
 5360SOL    HW216980   5.039   4.113   3.311
 5361SOL     OW16981   2.746   5.782   2.231
 5361SOL    HW116982   2.741   5.835   2.146
 5361SOL    HW216983   2.815   5.710   2.221
 5362SOL     OW16984   5.966   0.651   1.847
 5362SOL    HW116985   5.971   0.560   1.887
 5362SOL    HW216986   5.879   0.693   1.871
 5363SOL     OW16987   5.610   5.477   3.574
 5363SOL    HW116988   5.659   5.463   3.488
 5363SOL    HW216989   5.580   5.572   3.580
 5364SOL     OW16990   4.497   1.145   2.824
 5364SOL    HW116991   4.512   1.242   2.807
 5364SOL    HW216992   4.476   1.131   2.920
 5365SOL     OW16993   3.947   3.073   3.616
 5365SOL    HW116994   4.010   3.141   3.653
 5365SOL    HW216995   3.961   3.065   3.518
 5366SOL     OW16996   6.617   6.468   2.374
 5366SOL    HW116997   6.531   6.479   2.324
 5366SOL    HW216998   6.690   6.518   2.327
 5367SOL     OW16999   6.514   5.598   1.558
 5367SOL    HW117000   6.540   5.629   1.650
 5367SOL    HW217001   6.562   5.514   1.536
 5368SOL     OW17002   6.559   5.754   3.816
 5368SOL    HW117003   6.480   5.736   3.875
 5368SOL    HW217004   6.550   5.844   3.774
 5369SOL     OW17005   2.590   5.918   2.411
 5369SOL    HW117006   2.637   5.868   2.338
 5369SOL    HW217007   2.653   5.982   2.453
 5370SOL     OW17008   1.862   3.508   1.314
 5370SOL    HW117009   1.842   3.543   1.406
 5370SOL    HW217010   1.842   3.410   1.310
 5371SOL     OW17011   5.590   5.771   4.732
 5371SOL    HW117012   5.687   5.790   4.721
 5371SOL    HW217013   5.547   5.844   4.786
 5372SOL     OW17014   0.883   0.093   3.200
 5372SOL    HW117015   0.972   0.135   3.217
 5372SOL    HW217016   0.881   0.002   3.241
 5373SOL     OW17017   3.665   1.280   6.480
 5373SOL    HW117018   3.658   1.335   6.397
 5373SOL    HW217019   3.752   1.231   6.481
 5374SOL     OW17020   2.080   4.611   2.656
 5374SOL    HW117021   2.086   4.582   2.561
 5374SOL    HW217022   2.007   4.679   2.666
 5375SOL     OW17023   1.433   4.986   4.048
 5375SOL    HW117024   1.339   4.956   4.065
 5375SOL    HW217025   1.479   4.920   3.989
 5376SOL     OW17026   0.666   0.596   6.553
 5376SOL    HW117027   0.621   0.608   6.465
 5376SOL    HW217028   0.762   0.571   6.539
 5377SOL     OW17029   2.477   0.611   3.382
 5377SOL    HW117030   2.455   0.574   3.473
 5377SOL    HW217031   2.398   0.602   3.322
 5378SOL     OW17032   4.915   0.965   2.301
 5378SOL    HW117033   4.819   0.981   2.277
 5378SOL    HW217034   4.958   0.908   2.231
 5379SOL     OW17035   1.491   1.947   6.127
 5379SOL    HW117036   1.414   1.886   6.107
 5379SOL    HW217037   1.568   1.893   6.160
 5380SOL     OW17038   4.249   6.544   1.364
 5380SOL    HW117039   4.256   6.545   1.264
 5380SOL    HW217040   4.301   6.467   1.400
 5381SOL     OW17041   4.405   6.828   3.846
 5381SOL    HW117042   4.455   6.798   3.927
 5381SOL    HW217043   4.406   6.755   3.777
 5382SOL     OW17044   3.864   1.496   1.875
 5382SOL    HW117045   3.865   1.591   1.906
 5382SOL    HW217046   3.839   1.492   1.779
 5383SOL     OW17047   1.913   2.403   4.724
 5383SOL    HW117048   1.931   2.449   4.811
 5383SOL    HW217049   1.815   2.388   4.715
 5384SOL     OW17050   5.613   5.708   4.222
 5384SOL    HW117051   5.638   5.616   4.252
 5384SOL    HW217052   5.696   5.759   4.197
 5385SOL     OW17053   3.778   2.627   5.584
 5385SOL    HW117054   3.752   2.621   5.487
 5385SOL    HW217055   3.703   2.665   5.636
 5386SOL     OW17056   5.958   4.531   3.843
 5386SOL    HW117057   6.022   4.470   3.796
 5386SOL    HW217058   5.995   4.554   3.933
 5387SOL     OW17059   1.320   1.076   3.455
 5387SOL    HW117060   1.413   1.042   3.466
 5387SOL    HW217061   1.272   1.068   3.543
 5388SOL     OW17062   0.819   6.355   2.227
 5388SOL    HW117063   0.719   6.355   2.237
 5388SOL    HW217064   0.853   6.448   2.236
 5389SOL     OW17065   4.725   1.960   4.065
 5389SOL    HW117066   4.817   1.996   4.079
 5389SOL    HW217067   4.731   1.868   4.026
 5390SOL     OW17068   0.337   2.711   2.836
 5390SOL    HW117069   0.413   2.646   2.832
 5390SOL    HW217070   0.332   2.761   2.750
 5391SOL     OW17071   2.564   3.794   0.744
 5391SOL    HW117072   2.658   3.765   0.759
 5391SOL    HW217073   2.544   3.792   0.646
 5392SOL     OW17074   5.623   2.003   3.564
 5392SOL    HW117075   5.557   2.044   3.501
 5392SOL    HW217076   5.713   2.044   3.550
 5393SOL     OW17077   3.842   1.693   5.060
 5393SOL    HW117078   3.850   1.721   4.964
 5393SOL    HW217079   3.828   1.774   5.117
 5394SOL     OW17080   1.554   1.520   0.923
 5394SOL    HW117081   1.501   1.528   0.838
 5394SOL    HW217082   1.631   1.458   0.908
 5395SOL     OW17083   6.634   1.685   1.077
 5395SOL    HW117084   6.704   1.699   1.146
 5395SOL    HW217085   6.586   1.599   1.094
 5396SOL     OW17086   5.527   4.642   1.996
 5396SOL    HW117087   5.480   4.588   2.064
 5396SOL    HW217088   5.618   4.604   1.979
 5397SOL     OW17089   0.697   1.602   2.558
 5397SOL    HW117090   0.739   1.527   2.508
 5397SOL    HW217091   0.734   1.689   2.526
 5398SOL     OW17092   5.395   1.565   2.641
 5398SOL    HW117093   5.315   1.608   2.682
 5398SOL    HW217094   5.478   1.601   2.684
 5399SOL     OW17095   2.123   0.937   6.424
 5399SOL    HW117096   2.042   0.880   6.441
 5399SOL    HW217097   2.178   0.942   6.507
 5400SOL     OW17098   4.720   3.493   1.769
 5400SOL    HW117099   4.757   3.403   1.792
 5400SOL    HW217100   4.772   3.533   1.693
 5401SOL     OW17101   5.711   3.416   1.160
 5401SOL    HW117102   5.638   3.375   1.105
 5401SOL    HW217103   5.682   3.419   1.256
 5402SOL     OW17104   1.104   6.049   1.615
 5402SOL    HW117105   1.175   6.116   1.638
 5402SOL    HW217106   1.088   5.989   1.693
 5403SOL     OW17107   4.826   3.458   6.896
 5403SOL    HW117108   4.875   3.437   6.811
 5403SOL    HW217109   4.777   3.544   6.885
 5404SOL     OW17110   6.785   1.171   0.550
 5404SOL    HW117111   6.723   1.112   0.498
 5404SOL    HW217112   6.874   1.127   0.559
 5405SOL     OW17113   6.417   5.185   6.887
 5405SOL    HW117114   6.504   5.231   6.871
 5405SOL    HW217115   6.415   5.099   6.836
 5406SOL     OW17116   2.602   0.205   5.318
 5406SOL    HW117117   2.669   0.163   5.258
 5406SOL    HW217118   2.565   0.137   5.381
 5407SOL     OW17119   1.972   0.203   3.126
 5407SOL    HW117120   1.907   0.200   3.050
 5407SOL    HW217121   2.062   0.226   3.092
 5408SOL     OW17122   3.438   2.059   4.058
 5408SOL    HW117123   3.527   2.080   4.018
 5408SOL    HW217124   3.423   1.961   4.059
 5409SOL     OW17125   0.856   2.571   1.476
 5409SOL    HW117126   0.792   2.600   1.406
 5409SOL    HW217127   0.905   2.489   1.445
 5410SOL     OW17128   1.246   2.213   0.593
 5410SOL    HW117129   1.270   2.229   0.689
 5410SOL    HW217130   1.315   2.256   0.534
 5411SOL     OW17131   3.311   5.525   0.148
 5411SOL    HW117132   3.225   5.568   0.119
 5411SOL    HW217133   3.357   5.488   0.067
 5412SOL     OW17134   0.025   1.671   6.211
 5412SOL    HW117135   0.094   1.668   6.139
 5412SOL    HW217136   6.989   1.753   6.200
 5413SOL     OW17137   6.546   6.085   5.318
 5413SOL    HW117138   6.626   6.135   5.287
 5413SOL    HW217139   6.544   5.994   5.275
 5414SOL     OW17140   5.793   4.139   5.327
 5414SOL    HW117141   5.879   4.176   5.360
 5414SOL    HW217142   5.795   4.132   5.227
 5415SOL     OW17143   4.564   0.666   0.004
 5415SOL    HW117144   4.512   0.656   0.089
 5415SOL    HW217145   4.502   0.654   6.946
 5416SOL     OW17146   3.108   6.098   6.715
 5416SOL    HW117147   3.071   6.106   6.622
 5416SOL    HW217148   3.157   6.011   6.724
 5417SOL     OW17149   4.435   6.603   4.251
 5417SOL    HW117150   4.418   6.555   4.165
 5417SOL    HW217151   4.531   6.631   4.255
 5418SOL     OW17152   6.195   3.195   4.142
 5418SOL    HW117153   6.252   3.202   4.060
 5418SOL    HW217154   6.251   3.216   4.223
 5419SOL     OW17155   5.025   6.329   6.557
 5419SOL    HW117156   5.104   6.390   6.563
 5419SOL    HW217157   4.949   6.376   6.511
 5420SOL     OW17158   1.012   1.245   1.696
 5420SOL    HW117159   1.079   1.275   1.764
 5420SOL    HW217160   0.969   1.160   1.726
 5421SOL     OW17161   3.823   4.860   2.267
 5421SOL    HW117162   3.727   4.865   2.238
 5421SOL    HW217163   3.881   4.839   2.188
 5422SOL     OW17164   3.057   5.370   3.676
 5422SOL    HW117165   2.992   5.315   3.727
 5422SOL    HW217166   3.073   5.457   3.723
 5423SOL     OW17167   5.517   6.094   1.978
 5423SOL    HW117168   5.470   6.039   2.047
 5423SOL    HW217169   5.492   6.190   1.989
 5424SOL     OW17170   4.314   3.884   5.346
 5424SOL    HW117171   4.324   3.978   5.313
 5424SOL    HW217172   4.395   3.859   5.400
 5425SOL     OW17173   1.448   4.093   5.721
 5425SOL    HW117174   1.540   4.066   5.750
 5425SOL    HW217175   1.453   4.135   5.631
 5426SOL     OW17176   6.004   4.953   1.528
 5426SOL    HW117177   6.025   5.049   1.542
 5426SOL    HW217178   6.070   4.896   1.578
 5427SOL     OW17179   4.693   2.311   6.380
 5427SOL    HW117180   4.631   2.305   6.458
 5427SOL    HW217181   4.742   2.224   6.370
 5428SOL     OW17182   6.130   5.705   2.902
 5428SOL    HW117183   6.213   5.649   2.894
 5428SOL    HW217184   6.129   5.772   2.827
 5429SOL     OW17185   3.562   0.451   4.655
 5429SOL    HW117186   3.486   0.496   4.702
 5429SOL    HW217187   3.563   0.354   4.678
 5430SOL     OW17188   2.569   3.788   5.903
 5430SOL    HW117189   2.620   3.874   5.902
 5430SOL    HW217190   2.532   3.769   5.812
 5431SOL     OW17191   3.251   4.179   0.029
 5431SOL    HW117192   3.254   4.138   0.121
 5431SOL    HW217193   3.291   4.115   6.983
 5432SOL     OW17194   6.806   5.153   0.087
 5432SOL    HW117195   6.779   5.180   0.179
 5432SOL    HW217196   6.831   5.056   0.087
 5433SOL     OW17197   1.696   0.390   1.717
 5433SOL    HW117198   1.651   0.479   1.729
 5433SOL    HW217199   1.646   0.337   1.649
 5434SOL     OW17200   6.036   0.056   5.346
 5434SOL    HW117201   6.059   0.140   5.394
 5434SOL    HW217202   6.104   0.039   5.275
 5435SOL     OW17203   6.959   4.275   0.840
 5435SOL    HW117204   6.992   4.193   0.886
 5435SOL    HW217205   6.968   4.265   0.741
 5436SOL     OW17206   1.159   5.141   2.565
 5436SOL    HW117207   1.247   5.164   2.608
 5436SOL    HW217208   1.164   5.161   2.467
 5437SOL     OW17209   3.461   5.603   1.396
 5437SOL    HW117210   3.445   5.700   1.377
 5437SOL    HW217211   3.481   5.554   1.311
 5438SOL     OW17212   4.018   5.711   2.276
 5438SOL    HW117213   4.081   5.653   2.327
 5438SOL    HW217214   3.985   5.662   2.195
 5439SOL     OW17215   0.963   4.760   1.837
 5439SOL    HW117216   0.917   4.845   1.865
 5439SOL    HW217217   0.939   4.687   1.900
 5440SOL     OW17218   6.405   6.736   3.425
 5440SOL    HW117219   6.373   6.759   3.517
 5440SOL    HW217220   6.329   6.743   3.360
 5441SOL     OW17221   5.873   3.143   3.956
 5441SOL    HW117222   5.785   3.104   3.928
 5441SOL    HW217223   5.935   3.147   3.878
 5442SOL     OW17224   4.297   0.277   5.590
 5442SOL    HW117225   4.220   0.247   5.646
 5442SOL    HW217226   4.269   0.277   5.494
 5443SOL     OW17227   4.501   0.539   3.843
 5443SOL    HW117228   4.460   0.504   3.927
 5443SOL    HW217229   4.596   0.567   3.861
 5444SOL     OW17230   6.082   1.023   4.791
 5444SOL    HW117231   6.016   1.093   4.819
 5444SOL    HW217232   6.158   1.021   4.856
 5445SOL     OW17233   5.901   5.793   4.279
 5445SOL    HW117234   5.985   5.773   4.229
 5445SOL    HW217235   5.924   5.814   4.374
 5446SOL     OW17236   0.043   4.576   5.863
 5446SOL    HW117237   0.029   4.651   5.799
 5446SOL    HW217238   0.110   4.512   5.825
 5447SOL     OW17239   1.389   2.499   0.737
 5447SOL    HW117240   1.448   2.514   0.657
 5447SOL    HW217241   1.439   2.446   0.805
 5448SOL     OW17242   4.279   5.257   3.054
 5448SOL    HW117243   4.329   5.178   3.017
 5448SOL    HW217244   4.207   5.225   3.116
 5449SOL     OW17245   3.297   1.462   1.772
 5449SOL    HW117246   3.320   1.530   1.841
 5449SOL    HW217247   3.374   1.400   1.757
 5450SOL     OW17248   3.887   6.003   1.464
 5450SOL    HW117249   3.958   5.949   1.420
 5450SOL    HW217250   3.860   5.960   1.550
 5451SOL     OW17251   6.786   0.167   2.687
 5451SOL    HW117252   6.815   0.199   2.596
 5451SOL    HW217253   6.704   0.111   2.677
 5452SOL     OW17254   2.337   4.227   2.095
 5452SOL    HW117255   2.392   4.233   2.178
 5452SOL    HW217256   2.254   4.281   2.106
 5453SOL     OW17257   5.654   3.912   2.838
 5453SOL    HW117258   5.647   3.842   2.767
 5453SOL    HW217259   5.583   3.898   2.907
 5454SOL     OW17260   5.544   4.817   2.499
 5454SOL    HW117261   5.625   4.846   2.550
 5454SOL    HW217262   5.573   4.778   2.411
 5455SOL     OW17263   1.821   1.594   3.782
 5455SOL    HW117264   1.916   1.562   3.777
 5455SOL    HW217265   1.759   1.517   3.767
 5456SOL     OW17266   6.042   1.603   0.673
 5456SOL    HW117267   6.030   1.663   0.752
 5456SOL    HW217268   5.958   1.603   0.619
 5457SOL     OW17269   5.585   1.506   6.703
 5457SOL    HW117270   5.634   1.467   6.781
 5457SOL    HW217271   5.498   1.457   6.691
 5458SOL     OW17272   6.279   3.864   6.958
 5458SOL    HW117273   6.285   3.775   6.912
 5458SOL    HW217274   6.335   3.862   0.020
 5459SOL     OW17275   1.713   3.237   5.677
 5459SOL    HW117276   1.664   3.214   5.593
 5459SOL    HW217277   1.709   3.335   5.693
 5460SOL     OW17278   1.457   0.679   1.396
 5460SOL    HW117279   1.543   0.713   1.432
 5460SOL    HW217280   1.456   0.691   1.296
 5461SOL     OW17281   6.548   1.269   5.265
 5461SOL    HW117282   6.564   1.199   5.194
 5461SOL    HW217283   6.545   1.359   5.222
 5462SOL     OW17284   4.894   4.482   5.800
 5462SOL    HW117285   4.851   4.571   5.817
 5462SOL    HW217286   4.828   4.409   5.816
 5463SOL     OW17287   1.474   3.077   6.949
 5463SOL    HW117288   1.394   3.028   6.982
 5463SOL    HW217289   1.485   3.061   6.851
 5464SOL     OW17290   0.729   6.080   5.823
 5464SOL    HW117291   0.704   6.175   5.844
 5464SOL    HW217292   0.646   6.025   5.811
 5465SOL     OW17293   6.562   6.579   3.776
 5465SOL    HW117294   6.514   6.625   3.851
 5465SOL    HW217295   6.642   6.532   3.813
 5466SOL     OW17296   5.776   2.313   5.277
 5466SOL    HW117297   5.864   2.351   5.250
 5466SOL    HW217298   5.746   2.246   5.208
 5467SOL     OW17299   4.929   3.152   4.331
 5467SOL    HW117300   4.979   3.135   4.416
 5467SOL    HW217301   4.981   3.214   4.273
 5468SOL     OW17302   0.457   1.981   1.560
 5468SOL    HW117303   0.493   1.893   1.528
 5468SOL    HW217304   0.522   2.054   1.538
 5469SOL     OW17305   2.921   0.382   4.953
 5469SOL    HW117306   2.980   0.340   5.022
 5469SOL    HW217307   2.839   0.326   4.941
 5470SOL     OW17308   3.422   5.796   3.702
 5470SOL    HW117309   3.351   5.845   3.652
 5470SOL    HW217310   3.435   5.706   3.662
 5471SOL     OW17311   4.820   0.908   3.226
 5471SOL    HW117312   4.819   1.003   3.195
 5471SOL    HW217313   4.728   0.883   3.258
 5472SOL     OW17314   2.535   2.025   6.682
 5472SOL    HW117315   2.634   2.022   6.697
 5472SOL    HW217316   2.506   2.120   6.671
 5473SOL     OW17317   2.667   4.328   1.709
 5473SOL    HW117318   2.614   4.294   1.786
 5473SOL    HW217319   2.739   4.389   1.743
 5474SOL     OW17320   0.866   5.546   3.848
 5474SOL    HW117321   0.824   5.480   3.786
 5474SOL    HW217322   0.928   5.499   3.910
 5475SOL     OW17323   6.915   2.052   5.191
 5475SOL    HW117324   6.919   1.965   5.240
 5475SOL    HW217325   6.828   2.061   5.144
 5476SOL     OW17326   2.795   6.786   5.957
 5476SOL    HW117327   2.802   6.686   5.961
 5476SOL    HW217328   2.818   6.817   5.865
 5477SOL     OW17329   1.741   4.410   3.570
 5477SOL    HW117330   1.826   4.446   3.609
 5477SOL    HW217331   1.751   4.400   3.471
 5478SOL     OW17332   5.836   4.303   5.625
 5478SOL    HW117333   5.910   4.264   5.679
 5478SOL    HW217334   5.749   4.264   5.654
 5479SOL     OW17335   3.538   1.508   4.909
 5479SOL    HW117336   3.612   1.467   4.855
 5479SOL    HW217337   3.503   1.589   4.862
 5480SOL     OW17338   0.073   3.690   4.264
 5480SOL    HW117339   0.060   3.781   4.224
 5480SOL    HW217340   0.006   3.627   4.226
 5481SOL     OW17341   5.105   0.644   6.813
 5481SOL    HW117342   5.204   0.634   6.809
 5481SOL    HW217343   5.062   0.576   6.753
 5482SOL     OW17344   4.696   3.160   0.916
 5482SOL    HW117345   4.599   3.137   0.925
 5482SOL    HW217346   4.734   3.180   1.007
 5483SOL     OW17347   0.273   3.290   5.329
 5483SOL    HW117348   0.268   3.194   5.302
 5483SOL    HW217349   0.187   3.335   5.304
 5484SOL     OW17350   6.137   6.340   3.780
 5484SOL    HW117351   6.236   6.330   3.790
 5484SOL    HW217352   6.117   6.391   3.696
 5485SOL     OW17353   3.681   6.890   5.273
 5485SOL    HW117354   3.605   6.886   5.339
 5485SOL    HW217355   3.765   6.916   5.321
 5486SOL     OW17356   0.581   0.947   3.593
 5486SOL    HW117357   0.554   0.946   3.497
 5486SOL    HW217358   0.623   0.860   3.617
 5487SOL     OW17359   6.153   4.667   0.179
 5487SOL    HW117360   6.091   4.606   0.128
 5487SOL    HW217361   6.130   4.663   0.276
 5488SOL     OW17362   4.892   1.967   6.749
 5488SOL    HW117363   4.988   1.959   6.774
 5488SOL    HW217364   4.874   2.058   6.712
 5489SOL     OW17365   1.213   4.593   2.823
 5489SOL    HW117366   1.177   4.595   2.730
 5489SOL    HW217367   1.313   4.597   2.821
 5490SOL     OW17368   2.239   1.678   0.869
 5490SOL    HW117369   2.331   1.693   0.832
 5490SOL    HW217370   2.229   1.582   0.894
 5491SOL     OW17371   1.060   4.554   0.810
 5491SOL    HW117372   1.146   4.533   0.855
 5491SOL    HW217373   1.062   4.648   0.777
 5492SOL     OW17374   1.060   1.398   6.543
 5492SOL    HW117375   0.989   1.457   6.580
 5492SOL    HW217376   1.062   1.408   6.443
 5493SOL     OW17377   3.656   3.707   6.912
 5493SOL    HW117378   3.721   3.748   6.975
 5493SOL    HW217379   3.678   3.736   6.818
 5494SOL     OW17380   5.378   3.067   1.330
 5494SOL    HW117381   5.360   3.010   1.410
 5494SOL    HW217382   5.293   3.083   1.280
 5495SOL     OW17383   3.954   3.530   2.472
 5495SOL    HW117384   4.024   3.488   2.530
 5495SOL    HW217385   3.917   3.611   2.518
 5496SOL     OW17386   3.725   6.203   1.358
 5496SOL    HW117387   3.762   6.115   1.328
 5496SOL    HW217388   3.670   6.190   1.441
 5497SOL     OW17389   0.068   1.061   2.111
 5497SOL    HW117390   0.145   1.123   2.121
 5497SOL    HW217391   0.087   0.996   2.037
 5498SOL     OW17392   4.784   1.271   5.958
 5498SOL    HW117393   4.757   1.367   5.949
 5498SOL    HW217394   4.873   1.266   6.002
 5499SOL     OW17395   6.896   1.756   3.197
 5499SOL    HW117396   6.920   1.710   3.283
 5499SOL    HW217397   6.970   1.742   3.131
 5500SOL     OW17398   1.793   5.946   0.857
 5500SOL    HW117399   1.707   5.960   0.908
 5500SOL    HW217400   1.870   5.956   0.920
 5501SOL     OW17401   2.852   0.838   1.938
 5501SOL    HW117402   2.882   0.798   2.024
 5501SOL    HW217403   2.841   0.937   1.949
 5502SOL     OW17404   5.804   3.825   5.977
 5502SOL    HW117405   5.746   3.788   5.905
 5502SOL    HW217406   5.887   3.769   5.985
 5503SOL     OW17407   1.062   5.147   3.341
 5503SOL    HW117408   1.116   5.126   3.260
 5503SOL    HW217409   1.096   5.095   3.419
 5504SOL     OW17410   3.133   1.804   4.505
 5504SOL    HW117411   3.147   1.765   4.596
 5504SOL    HW217412   3.082   1.889   4.512
 5505SOL     OW17413   3.660   5.390   6.082
 5505SOL    HW117414   3.691   5.338   6.162
 5505SOL    HW217415   3.739   5.430   6.036
 5506SOL     OW17416   6.026   0.643   5.711
 5506SOL    HW117417   5.940   0.678   5.675
 5506SOL    HW217418   6.014   0.616   5.807
 5507SOL     OW17419   2.384   6.820   3.981
 5507SOL    HW117420   2.447   6.788   3.911
 5507SOL    HW217421   2.435   6.855   4.060
 5508SOL     OW17422   3.253   0.657   6.422
 5508SOL    HW117423   3.173   0.612   6.461
 5508SOL    HW217424   3.225   0.714   6.345
 5509SOL     OW17425   6.046   6.602   6.930
 5509SOL    HW117426   6.042   6.667   7.006
 5509SOL    HW217427   6.141   6.585   6.905
 5510SOL     OW17428   5.422   6.972   5.978
 5510SOL    HW117429   5.476   0.021   6.025
 5510SOL    HW217430   5.394   6.901   6.042
 5511SOL     OW17431   1.061   1.120   2.489
 5511SOL    HW117432   0.994   1.094   2.420
 5511SOL    HW217433   1.097   1.038   2.533
 5512SOL     OW17434   0.930   0.758   6.781
 5512SOL    HW117435   0.913   0.717   6.691
 5512SOL    HW217436   1.028   0.770   6.794
 5513SOL     OW17437   4.832   4.091   4.899
 5513SOL    HW117438   4.839   3.991   4.899
 5513SOL    HW217439   4.912   4.129   4.851
 5514SOL     OW17440   5.167   4.868   1.861
 5514SOL    HW117441   5.150   4.966   1.864
 5514SOL    HW217442   5.167   4.831   1.954
 5515SOL     OW17443   6.554   2.346   2.034
 5515SOL    HW117444   6.561   2.310   1.941
 5515SOL    HW217445   6.558   2.446   2.032
 5516SOL     OW17446   1.099   3.446   6.820
 5516SOL    HW117447   1.056   3.436   6.730
 5516SOL    HW217448   1.077   3.536   6.858
 5517SOL     OW17449   2.800   1.573   1.225
 5517SOL    HW117450   2.774   1.588   1.129
 5517SOL    HW217451   2.899   1.563   1.231
 5518SOL     OW17452   5.800   4.893   5.380
 5518SOL    HW117453   5.867   4.821   5.399
 5518SOL    HW217454   5.783   4.898   5.281
 5519SOL     OW17455   5.565   3.752   3.920
 5519SOL    HW117456   5.466   3.764   3.910
 5519SOL    HW217457   5.583   3.685   3.992
 5520SOL     OW17458   1.026   4.181   2.340
 5520SOL    HW117459   1.113   4.180   2.289
 5520SOL    HW217460   0.993   4.275   2.347
 5521SOL     OW17461   5.845   5.519   1.638
 5521SOL    HW117462   5.859   5.479   1.548
 5521SOL    HW217463   5.862   5.618   1.634
 5522SOL     OW17464   2.540   3.386   1.708
 5522SOL    HW117465   2.611   3.456   1.710
 5522SOL    HW217466   2.459   3.420   1.757
 5523SOL     OW17467   3.257   0.140   2.664
 5523SOL    HW117468   3.309   0.175   2.586
 5523SOL    HW217469   3.302   0.169   2.749
 5524SOL     OW17470   6.910   4.737   6.227
 5524SOL    HW117471   6.944   4.775   6.313
 5524SOL    HW217472   6.984   4.737   6.159
 5525SOL     OW17473   6.552   5.449   5.875
 5525SOL    HW117474   6.468   5.472   5.924
 5525SOL    HW217475   6.569   5.517   5.804
 5526SOL     OW17476   6.440   3.588   4.347
 5526SOL    HW117477   6.376   3.520   4.312
 5526SOL    HW217478   6.414   3.614   4.440
 5527SOL     OW17479   1.759   2.895   1.557
 5527SOL    HW117480   1.738   2.860   1.648
 5527SOL    HW217481   1.683   2.873   1.495
 5528SOL     OW17482   0.347   2.792   4.671
 5528SOL    HW117483   0.345   2.873   4.729
 5528SOL    HW217484   0.286   2.805   4.593
 5529SOL     OW17485   2.486   0.706   4.593
 5529SOL    HW117486   2.493   0.654   4.508
 5529SOL    HW217487   2.390   0.725   4.613
 5530SOL     OW17488   0.678   2.062   0.429
 5530SOL    HW117489   0.633   2.122   0.362
 5530SOL    HW217490   0.619   1.984   0.449
 5531SOL     OW17491   4.244   2.714   5.539
 5531SOL    HW117492   4.205   2.622   5.541
 5531SOL    HW217493   4.187   2.773   5.482
 5532SOL     OW17494   2.195   1.417   0.933
 5532SOL    HW117495   2.204   1.362   0.850
 5532SOL    HW217496   2.217   1.361   1.013
 5533SOL     OW17497   4.031   0.958   1.987
 5533SOL    HW117498   3.977   0.875   2.002
 5533SOL    HW217499   4.109   0.937   1.928
 5534SOL     OW17500   0.534   3.835   6.548
 5534SOL    HW117501   0.487   3.804   6.465
 5534SOL    HW217502   0.515   3.771   6.622
 5535SOL     OW17503   6.363   2.977   3.188
 5535SOL    HW117504   6.317   3.051   3.236
 5535SOL    HW217505   6.431   2.936   3.249
 5536SOL     OW17506   2.137   1.012   4.452
 5536SOL    HW117507   2.235   1.017   4.436
 5536SOL    HW217508   2.092   0.971   4.372
 5537SOL     OW17509   4.408   0.136   5.113
 5537SOL    HW117510   4.316   0.106   5.090
 5537SOL    HW217511   4.412   0.236   5.111
 5538SOL     OW17512   4.032   1.517   6.224
 5538SOL    HW117513   3.962   1.562   6.280
 5538SOL    HW217514   4.058   1.431   6.268
 5539SOL     OW17515   2.353   0.475   1.949
 5539SOL    HW117516   2.341   0.459   1.851
 5539SOL    HW217517   2.339   0.572   1.969
 5540SOL     OW17518   4.926   2.252   6.653
 5540SOL    HW117519   4.828   2.248   6.673
 5540SOL    HW217520   4.976   2.285   6.733
 5541SOL     OW17521   4.540   3.775   6.305
 5541SOL    HW117522   4.459   3.750   6.357
 5541SOL    HW217523   4.577   3.694   6.260
 5542SOL     OW17524   5.774   4.195   6.179
 5542SOL    HW117525   5.779   4.295   6.180
 5542SOL    HW217526   5.841   4.158   6.244
 5543SOL     OW17527   1.877   0.169   1.077
 5543SOL    HW117528   1.896   0.124   1.165
 5543SOL    HW217529   1.779   0.161   1.057
 5544SOL     OW17530   4.790   5.408   6.567
 5544SOL    HW117531   4.789   5.426   6.469
 5544SOL    HW217532   4.767   5.312   6.583
 5545SOL     OW17533   4.245   0.776   2.713
 5545SOL    HW117534   4.295   0.862   2.707
 5545SOL    HW217535   4.252   0.728   2.625
 5546SOL     OW17536   0.466   6.227   4.715
 5546SOL    HW117537   0.504   6.319   4.729
 5546SOL    HW217538   0.421   6.197   4.799
 5547SOL     OW17539   5.098   1.712   5.943
 5547SOL    HW117540   5.176   1.774   5.932
 5547SOL    HW217541   5.089   1.688   6.040
 5548SOL     OW17542   6.955   3.645   5.596
 5548SOL    HW117543   6.971   3.565   5.655
 5548SOL    HW217544   6.958   3.616   5.501
 5549SOL     OW17545   4.196   3.858   1.813
 5549SOL    HW117546   4.257   3.795   1.766
 5549SOL    HW217547   4.234   3.950   1.809
 5550SOL     OW17548   1.770   4.354   3.048
 5550SOL    HW117549   1.673   4.369   3.028
 5550SOL    HW217550   1.778   4.279   3.114
 5551SOL     OW17551   2.003   5.381   3.120
 5551SOL    HW117552   2.032   5.286   3.110
 5551SOL    HW217553   1.997   5.403   3.217
 5552SOL     OW17554   6.910   6.647   6.448
 5552SOL    HW117555   6.963   6.723   6.486
 5552SOL    HW217556   6.813   6.661   6.466
 5553SOL     OW17557   4.843   0.493   6.621
 5553SOL    HW117558   4.756   0.445   6.614
 5553SOL    HW217559   4.908   0.437   6.672
 5554SOL     OW17560   4.963   2.729   0.667
 5554SOL    HW117561   5.020   2.680   0.732
 5554SOL    HW217562   4.945   2.822   0.701
 5555SOL     OW17563   1.254   3.972   3.292
 5555SOL    HW117564   1.344   3.929   3.280
 5555SOL    HW217565   1.262   4.070   3.276
 5556SOL     OW17566   6.043   1.020   4.428
 5556SOL    HW117567   5.972   1.071   4.475
 5556SOL    HW217568   6.124   1.014   4.488
 5557SOL     OW17569   3.327   5.942   1.770
 5557SOL    HW117570   3.391   5.980   1.836
 5557SOL    HW217571   3.360   5.853   1.738
 5558SOL     OW17572   3.474   4.262   0.285
 5558SOL    HW117573   3.411   4.297   0.354
 5558SOL    HW217574   3.455   4.166   0.268
 5559SOL     OW17575   1.005   0.429   2.884
 5559SOL    HW117576   1.030   0.435   2.787
 5559SOL    HW217577   0.934   0.497   2.904
 5560SOL     OW17578   0.106   5.849   3.006
 5560SOL    HW117579   0.184   5.906   3.031
 5560SOL    HW217580   0.073   5.874   2.915
 5561SOL     OW17581   3.002   0.980   4.922
 5561SOL    HW117582   3.052   0.929   4.992
 5561SOL    HW217583   2.907   0.950   4.920
 5562SOL     OW17584   4.294   4.367   0.027
 5562SOL    HW117585   4.358   4.381   0.103
 5562SOL    HW217586   4.201   4.372   0.061
 5563SOL     OW17587   3.061   4.862   2.731
 5563SOL    HW117588   3.030   4.945   2.778
 5563SOL    HW217589   3.147   4.831   2.771
 5564SOL     OW17590   4.743   6.478   5.671
 5564SOL    HW117591   4.652   6.520   5.676
 5564SOL    HW217592   4.792   6.495   5.756
 5565SOL     OW17593   3.752   3.481   0.651
 5565SOL    HW117594   3.782   3.389   0.628
 5565SOL    HW217595   3.809   3.518   0.724
 5566SOL     OW17596   1.310   4.523   0.239
 5566SOL    HW117597   1.344   4.449   0.181
 5566SOL    HW217598   1.214   4.507   0.260
 5567SOL     OW17599   6.656   3.248   1.871
 5567SOL    HW117600   6.585   3.245   1.801
 5567SOL    HW217601   6.641   3.175   1.937
 5568SOL     OW17602   4.393   6.250   2.707
 5568SOL    HW117603   4.389   6.157   2.671
 5568SOL    HW217604   4.300   6.286   2.716
 5569SOL     OW17605   2.638   1.866   3.799
 5569SOL    HW117606   2.627   1.958   3.836
 5569SOL    HW217607   2.600   1.800   3.863
 5570SOL     OW17608   5.966   3.324   3.359
 5570SOL    HW117609   5.895   3.382   3.318
 5570SOL    HW217610   5.961   3.330   3.458
 5571SOL     OW17611   6.255   5.252   2.189
 5571SOL    HW117612   6.196   5.193   2.244
 5571SOL    HW217613   6.293   5.324   2.246
 5572SOL     OW17614   1.679   4.452   4.874
 5572SOL    HW117615   1.658   4.547   4.851
 5572SOL    HW217616   1.697   4.402   4.789
 5573SOL     OW17617   1.636   5.293   5.302
 5573SOL    HW117618   1.623   5.270   5.206
 5573SOL    HW217619   1.666   5.211   5.352
 5574SOL     OW17620   0.741   3.139   6.620
 5574SOL    HW117621   0.840   3.154   6.614
 5574SOL    HW217622   0.715   3.123   6.715
 5575SOL     OW17623   0.407   0.283   1.882
 5575SOL    HW117624   0.345   0.362   1.881
 5575SOL    HW217625   0.415   0.249   1.975
 5576SOL     OW17626   1.584   4.125   3.465
 5576SOL    HW117627   1.547   4.181   3.539
 5576SOL    HW217628   1.541   4.152   3.379
 5577SOL     OW17629   1.615   3.342   7.008
 5577SOL    HW117630   1.558   3.422   0.008
 5577SOL    HW217631   1.557   3.260   7.004
 5578SOL     OW17632   3.467   4.128   2.611
 5578SOL    HW117633   3.422   4.055   2.663
 5578SOL    HW217634   3.537   4.171   2.669
 5579SOL     OW17635   0.329   3.182   0.941
 5579SOL    HW117636   0.321   3.258   0.877
 5579SOL    HW217637   0.261   3.112   0.917
 5580SOL     OW17638   5.061   1.845   6.212
 5580SOL    HW117639   5.076   1.895   6.127
 5580SOL    HW217640   4.989   1.777   6.199
 5581SOL     OW17641   1.305   1.888   1.503
 5581SOL    HW117642   1.390   1.856   1.545
 5581SOL    HW217643   1.325   1.923   1.411
 5582SOL     OW17644   2.647   4.198   6.755
 5582SOL    HW117645   2.599   4.274   6.711
 5582SOL    HW217646   2.744   4.203   6.733
 5583SOL     OW17647   4.503   0.738   2.452
 5583SOL    HW117648   4.411   0.738   2.412
 5583SOL    HW217649   4.565   0.688   2.392
 5584SOL     OW17650   6.152   4.188   4.536
 5584SOL    HW117651   6.199   4.201   4.449
 5584SOL    HW217652   6.053   4.197   4.522
 5585SOL     OW17653   5.053   4.736   3.132
 5585SOL    HW117654   5.032   4.646   3.171
 5585SOL    HW217655   5.022   4.808   3.195
 5586SOL     OW17656   6.685   3.645   5.553
 5586SOL    HW117657   6.682   3.580   5.477
 5586SOL    HW217658   6.780   3.668   5.573
 5587SOL     OW17659   4.560   0.338   6.982
 5587SOL    HW117660   4.513   0.295   6.905
 5587SOL    HW217661   4.593   0.429   6.955
 5588SOL     OW17662   2.455   6.530   2.749
 5588SOL    HW117663   2.434   6.449   2.803
 5588SOL    HW217664   2.372   6.586   2.740
 5589SOL     OW17665   5.952   4.303   6.548
 5589SOL    HW117666   5.990   4.390   6.578
 5589SOL    HW217667   6.017   4.257   6.488
 5590SOL     OW17668   5.845   6.261   3.732
 5590SOL    HW117669   5.757   6.289   3.771
 5590SOL    HW217670   5.914   6.260   3.803
 5591SOL     OW17671   0.417   1.884   1.239
 5591SOL    HW117672   0.393   1.928   1.325
 5591SOL    HW217673   0.358   1.804   1.225
 5592SOL     OW17674   1.346   5.201   3.241
 5592SOL    HW117675   1.282   5.169   3.171
 5592SOL    HW217676   1.439   5.190   3.208
 5593SOL     OW17677   0.084   3.010   6.657
 5593SOL    HW117678   7.007   3.028   6.641
 5593SOL    HW217679   0.094   2.935   6.722
 5594SOL     OW17680   5.126   0.496   4.808
 5594SOL    HW117681   5.125   0.402   4.773
 5594SOL    HW217682   5.152   0.558   4.734
 5595SOL     OW17683   1.407   1.841   5.373
 5595SOL    HW117684   1.436   1.807   5.284
 5595SOL    HW217685   1.471   1.911   5.404
 5596SOL     OW17686   4.158   6.400   2.699
 5596SOL    HW117687   4.136   6.456   2.619
 5596SOL    HW217688   4.179   6.459   2.776
 5597SOL     OW17689   5.134   2.493   4.247
 5597SOL    HW117690   5.196   2.516   4.172
 5597SOL    HW217691   5.152   2.553   4.325
 5598SOL     OW17692   4.872   3.329   3.908
 5598SOL    HW117693   4.790   3.344   3.853
 5598SOL    HW217694   4.856   3.254   3.972
 5599SOL     OW17695   1.283   0.749   4.123
 5599SOL    HW117696   1.270   0.650   4.132
 5599SOL    HW217697   1.194   0.794   4.114
 5600SOL     OW17698   1.037   2.111   2.647
 5600SOL    HW117699   1.134   2.114   2.624
 5600SOL    HW217700   1.013   2.018   2.676
 5601SOL     OW17701   2.888   0.100   5.935
 5601SOL    HW117702   2.874   0.052   6.022
 5601SOL    HW217703   2.928   0.190   5.953
 5602SOL     OW17704   0.555   1.748   1.011
 5602SOL    HW117705   0.492   1.817   1.045
 5602SOL    HW217706   0.508   1.660   1.004
 5603SOL     OW17707   4.927   2.256   0.022
 5603SOL    HW117708   4.978   2.262   6.956
 5603SOL    HW217709   4.936   2.343   0.072
 5604SOL     OW17710   6.948   2.019   5.988
 5604SOL    HW117711   6.915   1.980   6.073
 5604SOL    HW217712   6.878   2.010   5.917
 5605SOL     OW17713   0.777   0.891   4.605
 5605SOL    HW117714   0.825   0.968   4.565
 5605SOL    HW217715   0.823   0.862   4.689
 5606SOL     OW17716   5.843   6.404   1.051
 5606SOL    HW117717   5.781   6.386   1.127
 5606SOL    HW217718   5.793   6.448   0.976
 5607SOL     OW17719   5.440   0.605   2.166
 5607SOL    HW117720   5.394   0.583   2.252
 5607SOL    HW217721   5.416   0.698   2.138
 5608SOL     OW17722   4.405   0.246   4.451
 5608SOL    HW117723   4.482   0.184   4.434
 5608SOL    HW217724   4.338   0.201   4.509
 5609SOL     OW17725   2.302   5.184   0.660
 5609SOL    HW117726   2.354   5.258   0.618
 5609SOL    HW217727   2.261   5.217   0.746
 5610SOL     OW17728   4.916   6.790   0.802
 5610SOL    HW117729   4.857   6.818   0.726
 5610SOL    HW217730   4.878   6.825   0.888
 5611SOL     OW17731   1.892   4.842   2.395
 5611SOL    HW117732   1.849   4.762   2.438
 5611SOL    HW217733   1.908   4.823   2.298
 5612SOL     OW17734   3.587   2.045   6.571
 5612SOL    HW117735   3.687   2.051   6.575
 5612SOL    HW217736   3.552   2.115   6.509
 5613SOL     OW17737   4.757   3.971   2.782
 5613SOL    HW117738   4.792   3.981   2.689
 5613SOL    HW217739   4.756   4.061   2.826
 5614SOL     OW17740   4.313   2.419   4.343
 5614SOL    HW117741   4.358   2.432   4.255
 5614SOL    HW217742   4.214   2.415   4.330
 5615SOL     OW17743   0.538   0.625   6.312
 5615SOL    HW117744   0.524   0.711   6.262
 5615SOL    HW217745   0.450   0.588   6.340
 5616SOL     OW17746   2.237   0.762   5.225
 5616SOL    HW117747   2.233   0.747   5.126
 5616SOL    HW217748   2.278   0.851   5.244
 5617SOL     OW17749   2.711   6.861   6.472
 5617SOL    HW117750   2.801   6.820   6.479
 5617SOL    HW217751   2.675   6.847   6.380
 5618SOL     OW17752   6.490   3.622   4.629
 5618SOL    HW117753   6.540   3.657   4.709
 5618SOL    HW217754   6.489   3.522   4.631
 5619SOL     OW17755   2.872   4.282   6.298
 5619SOL    HW117756   2.868   4.187   6.329
 5619SOL    HW217757   2.821   4.340   6.361
 5620SOL     OW17758   3.750   3.210   0.863
 5620SOL    HW117759   3.812   3.285   0.885
 5620SOL    HW217760   3.794   3.147   0.798
 5621SOL     OW17761   1.363   2.192   5.837
 5621SOL    HW117762   1.346   2.093   5.841
 5621SOL    HW217763   1.332   2.227   5.749
 5622SOL     OW17764   4.362   6.949   5.753
 5622SOL    HW117765   4.434   6.972   5.687
 5622SOL    HW217766   4.402   6.939   5.844
 5623SOL     OW17767   2.158   6.141   6.212
 5623SOL    HW117768   2.140   6.061   6.269
 5623SOL    HW217769   2.232   6.195   6.253
 5624SOL     OW17770   1.221   4.241   3.267
 5624SOL    HW117771   1.164   4.271   3.191
 5624SOL    HW217772   1.197   4.292   3.349
 5625SOL     OW17773   5.971   2.338   4.120
 5625SOL    HW117774   5.891   2.278   4.118
 5625SOL    HW217775   5.940   2.433   4.127
 5626SOL     OW17776   2.670   6.231   5.011
 5626SOL    HW117777   2.689   6.279   4.925
 5626SOL    HW217778   2.683   6.294   5.087
 5627SOL     OW17779   1.012   5.888   0.798
 5627SOL    HW117780   1.103   5.926   0.813
 5627SOL    HW217781   1.000   5.806   0.853
 5628SOL     OW17782   1.590   2.176   6.011
 5628SOL    HW117783   1.557   2.099   6.066
 5628SOL    HW217784   1.553   2.169   5.919
 5629SOL     OW17785   3.486   4.022   2.025
 5629SOL    HW117786   3.482   3.972   1.938
 5629SOL    HW217787   3.515   4.116   2.007
 5630SOL     OW17788   1.268   5.214   0.664
 5630SOL    HW117789   1.252   5.167   0.577
 5630SOL    HW217790   1.311   5.303   0.646
 5631SOL     OW17791   4.435   1.525   7.010
 5631SOL    HW117792   4.519   1.566   6.973
 5631SOL    HW217793   4.413   1.442   6.960
 5632SOL     OW17794   4.000   3.290   6.148
 5632SOL    HW117795   4.060   3.365   6.177
 5632SOL    HW217796   3.916   3.327   6.108
 5633SOL     OW17797   6.421   2.212   3.523
 5633SOL    HW117798   6.343   2.208   3.586
 5633SOL    HW217799   6.394   2.260   3.440
 5634SOL     OW17800   2.923   5.840   5.520
 5634SOL    HW117801   2.902   5.919   5.462
 5634SOL    HW217802   2.895   5.756   5.474
 5635SOL     OW17803   2.090   3.340   4.857
 5635SOL    HW117804   2.005   3.315   4.904
 5635SOL    HW217805   2.135   3.257   4.823
 5636SOL     OW17806   3.569   6.095   2.601
 5636SOL    HW117807   3.662   6.132   2.596
 5636SOL    HW217808   3.504   6.170   2.617
 5637SOL     OW17809   5.416   0.147   3.913
 5637SOL    HW117810   5.363   0.166   3.995
 5637SOL    HW217811   5.366   0.082   3.855
 5638SOL     OW17812   5.264   3.453   0.929
 5638SOL    HW117813   5.185   3.431   0.872
 5638SOL    HW217814   5.246   3.536   0.981
 5639SOL     OW17815   0.319   1.307   0.450
 5639SOL    HW117816   0.372   1.388   0.474
 5639SOL    HW217817   0.237   1.335   0.400
 5640SOL     OW17818   2.707   0.662   4.116
 5640SOL    HW117819   2.679   0.567   4.108
 5640SOL    HW217820   2.776   0.671   4.189
 5641SOL     OW17821   0.094   4.755   6.058
 5641SOL    HW117822   0.076   4.679   5.995
 5641SOL    HW217823   0.165   4.728   6.123
 5642SOL     OW17824   1.819   6.732   0.468
 5642SOL    HW117825   1.839   6.827   0.493
 5642SOL    HW217826   1.831   6.720   0.370
 5643SOL     OW17827   5.059   1.644   4.911
 5643SOL    HW117828   5.051   1.663   4.813
 5643SOL    HW217829   5.061   1.545   4.926
 5644SOL     OW17830   2.928   6.655   5.214
 5644SOL    HW117831   2.964   6.654   5.308
 5644SOL    HW217832   2.863   6.731   5.205
 5645SOL     OW17833   6.443   3.958   3.496
 5645SOL    HW117834   6.497   4.038   3.524
 5645SOL    HW217835   6.463   3.938   3.400
 5646SOL     OW17836   1.907   4.985   3.141
 5646SOL    HW117837   1.867   4.961   3.053
 5646SOL    HW217838   1.976   5.055   3.129
 5647SOL     OW17839   5.282   6.404   1.957
 5647SOL    HW117840   5.257   6.488   1.909
 5647SOL    HW217841   5.256   6.324   1.903
 5648SOL     OW17842   2.240   5.736   2.913
 5648SOL    HW117843   2.231   5.639   2.934
 5648SOL    HW217844   2.317   5.749   2.850
 5649SOL     OW17845   0.914   6.867   4.044
 5649SOL    HW117846   0.877   6.810   4.118
 5649SOL    HW217847   1.010   6.887   4.062
 5650SOL     OW17848   0.311   4.905   0.588
 5650SOL    HW117849   0.324   4.815   0.629
 5650SOL    HW217850   0.399   4.950   0.575
 5651SOL     OW17851   1.631   0.177   0.734
 5651SOL    HW117852   1.646   0.182   0.635
 5651SOL    HW217853   1.550   0.121   0.752
 5652SOL     OW17854   0.245   5.712   2.095
 5652SOL    HW117855   0.240   5.757   2.006
 5652SOL    HW217856   0.284   5.620   2.084
 5653SOL     OW17857   0.345   6.195   0.342
 5653SOL    HW117858   0.442   6.221   0.346
 5653SOL    HW217859   0.289   6.277   0.335
 5654SOL     OW17860   1.198   6.129   4.733
 5654SOL    HW117861   1.154   6.215   4.761
 5654SOL    HW217862   1.177   6.057   4.799
 5655SOL     OW17863   6.363   3.059   3.904
 5655SOL    HW117864   6.425   3.131   3.872
 5655SOL    HW217865   6.408   3.006   3.976
 5656SOL     OW17866   6.593   3.529   6.412
 5656SOL    HW117867   6.506   3.482   6.429
 5656SOL    HW217868   6.637   3.489   6.332
 5657SOL     OW17869   4.577   4.394   4.959
 5657SOL    HW117870   4.566   4.308   5.008
 5657SOL    HW217871   4.496   4.451   4.972
 5658SOL     OW17872   1.887   2.876   5.959
 5658SOL    HW117873   1.936   2.904   6.042
 5658SOL    HW217874   1.871   2.777   5.961
 5659SOL     OW17875   3.241   3.552   6.169
 5659SOL    HW117876   3.273   3.500   6.249
 5659SOL    HW217877   3.176   3.495   6.117
 5660SOL     OW17878   4.625   6.743   6.716
 5660SOL    HW117879   4.710   6.696   6.695
 5660SOL    HW217880   4.588   6.785   6.633
 5661SOL     OW17881   0.625   5.457   5.865
 5661SOL    HW117882   0.685   5.533   5.839
 5661SOL    HW217883   0.681   5.377   5.887
 5662SOL     OW17884   2.650   6.703   2.858
 5662SOL    HW117885   2.633   6.793   2.817
 5662SOL    HW217886   2.589   6.636   2.817
 5663SOL     OW17887   1.257   2.724   0.824
 5663SOL    HW117888   1.324   2.791   0.857
 5663SOL    HW217889   1.301   2.634   0.816
 5664SOL     OW17890   5.103   4.182   4.445
 5664SOL    HW117891   5.070   4.263   4.396
 5664SOL    HW217892   5.056   4.174   4.532
 5665SOL     OW17893   1.361   6.872   0.358
 5665SOL    HW117894   1.425   6.808   0.400
 5665SOL    HW217895   1.413   6.940   0.305
 5666SOL     OW17896   5.648   0.825   4.193
 5666SOL    HW117897   5.633   0.738   4.240
 5666SOL    HW217898   5.738   0.861   4.217
 5667SOL     OW17899   1.611   4.857   4.341
 5667SOL    HW117900   1.591   4.950   4.372
 5667SOL    HW217901   1.695   4.857   4.287
 5668SOL     OW17902   6.339   2.702   2.793
 5668SOL    HW117903   6.365   2.610   2.765
 5668SOL    HW217904   6.336   2.708   2.893
 5669SOL     OW17905   6.238   4.182   6.849
 5669SOL    HW117906   6.263   4.246   6.922
 5669SOL    HW217907   6.153   4.136   6.874
 5670SOL     OW17908   1.487   3.690   2.996
 5670SOL    HW117909   1.412   3.715   2.935
 5670SOL    HW217910   1.457   3.613   3.054
 5671SOL     OW17911   6.344   5.731   3.998
 5671SOL    HW117912   6.289   5.662   3.951
 5671SOL    HW217913   6.374   5.696   4.087
 5672SOL     OW17914   4.825   4.072   5.291
 5672SOL    HW117915   4.893   4.146   5.296
 5672SOL    HW217916   4.872   3.986   5.274
 5673SOL     OW17917   0.673   0.073   1.518
 5673SOL    HW117918   0.745   0.069   1.449
 5673SOL    HW217919   0.640   0.166   1.526
 5674SOL     OW17920   1.981   4.797   4.567
 5674SOL    HW117921   1.889   4.828   4.590
 5674SOL    HW217922   1.985   4.775   4.470
 5675SOL     OW17923   3.378   1.002   0.291
 5675SOL    HW117924   3.460   1.003   0.233
 5675SOL    HW217925   3.342   1.095   0.299
 5676SOL     OW17926   3.017   2.488   1.661
 5676SOL    HW117927   2.950   2.535   1.603
 5676SOL    HW217928   2.969   2.436   1.732
 5677SOL     OW17929   6.928   0.579   0.920
 5677SOL    HW117930   6.994   0.648   0.950
 5677SOL    HW217931   6.835   0.609   0.943
 5678SOL     OW17932   3.391   1.703   2.215
 5678SOL    HW117933   3.396   1.802   2.221
 5678SOL    HW217934   3.483   1.664   2.229
 5679SOL     OW17935   5.980   2.373   5.012
 5679SOL    HW117936   5.895   2.354   4.964
 5679SOL    HW217937   6.016   2.287   5.050
 5680SOL     OW17938   1.659   5.039   5.413
 5680SOL    HW117939   1.663   4.943   5.388
 5680SOL    HW217940   1.709   5.053   5.499
 5681SOL     OW17941   0.567   3.761   2.776
 5681SOL    HW117942   0.531   3.855   2.772
 5681SOL    HW217943   0.597   3.733   2.685
 5682SOL     OW17944   2.692   5.512   2.580
 5682SOL    HW117945   2.730   5.482   2.493
 5682SOL    HW217946   2.742   5.469   2.656
 5683SOL     OW17947   4.037   2.575   6.369
 5683SOL    HW117948   4.124   2.607   6.330
 5683SOL    HW217949   4.019   2.624   6.454
 5684SOL     OW17950   2.063   3.586   6.158
 5684SOL    HW117951   2.001   3.589   6.237
 5684SOL    HW217952   2.157   3.592   6.190
 5685SOL     OW17953   2.050   2.635   3.954
 5685SOL    HW117954   2.100   2.694   3.891
 5685SOL    HW217955   2.019   2.688   4.033
 5686SOL     OW17956   3.253   0.802   5.865
 5686SOL    HW117957   3.339   0.759   5.892
 5686SOL    HW217958   3.265   0.845   5.775
 5687SOL     OW17959   0.848   5.992   5.108
 5687SOL    HW117960   0.920   5.947   5.056
 5687SOL    HW217961   0.833   6.084   5.072
 5688SOL     OW17962   1.972   3.701   3.715
 5688SOL    HW117963   1.999   3.726   3.808
 5688SOL    HW217964   2.003   3.608   3.695
 5689SOL     OW17965   1.074   0.805   1.122
 5689SOL    HW117966   1.097   0.895   1.160
 5689SOL    HW217967   1.134   0.785   1.045
 5690SOL     OW17968   0.854   5.365   6.834
 5690SOL    HW117969   0.946   5.392   6.863
 5690SOL    HW217970   0.788   5.435   6.862
 5691SOL     OW17971   3.483   0.997   2.275
 5691SOL    HW117972   3.471   1.059   2.197
 5691SOL    HW217973   3.526   1.047   2.351
 5692SOL     OW17974   4.968   5.034   0.888
 5692SOL    HW117975   5.048   5.015   0.945
 5692SOL    HW217976   4.909   5.100   0.935
 5693SOL     OW17977   3.911   0.827   0.566
 5693SOL    HW117978   3.898   0.824   0.665
 5693SOL    HW217979   3.977   0.757   0.540
 5694SOL     OW17980   0.586   0.712   2.757
 5694SOL    HW117981   0.566   0.747   2.849
 5694SOL    HW217982   0.500   0.698   2.707
 5695SOL     OW17983   1.202   1.229   1.922
 5695SOL    HW117984   1.191   1.279   2.008
 5695SOL    HW217985   1.244   1.141   1.940
 5696SOL     OW17986   1.574   0.429   4.146
 5696SOL    HW117987   1.616   0.425   4.056
 5696SOL    HW217988   1.623   0.494   4.203
 5697SOL     OW17989   6.287   2.791   1.456
 5697SOL    HW117990   6.300   2.709   1.512
 5697SOL    HW217991   6.351   2.862   1.485
 5698SOL     OW17992   1.451   3.221   3.448
 5698SOL    HW117993   1.423   3.317   3.447
 5698SOL    HW217994   1.409   3.174   3.371
 5699SOL     OW17995   2.113   2.643   3.327
 5699SOL    HW117996   2.043   2.706   3.361
 5699SOL    HW217997   2.204   2.679   3.351
 5700SOL     OW17998   0.181   0.729   2.123
 5700SOL    HW117999   0.141   0.689   2.205
 5700SOL    HW218000   0.270   0.770   2.147
 5701SOL     OW18001   6.518   1.122   0.987
 5701SOL    HW118002   6.584   1.159   1.053
 5701SOL    HW218003   6.499   1.192   0.917
 5702SOL     OW18004   1.514   6.800   4.150
 5702SOL    HW118005   1.442   6.732   4.160
 5702SOL    HW218006   1.513   6.835   4.056
 5703SOL     OW18007   0.335   3.913   5.796
 5703SOL    HW118008   0.243   3.888   5.767
 5703SOL    HW218009   0.331   3.950   5.889
 5704SOL     OW18010   5.391   3.958   3.685
 5704SOL    HW118011   5.467   3.980   3.747
 5704SOL    HW218012   5.402   4.010   3.600
 5705SOL     OW18013   6.276   6.326   6.283
 5705SOL    HW118014   6.348   6.270   6.325
 5705SOL    HW218015   6.197   6.269   6.262
 5706SOL     OW18016   5.862   2.724   0.477
 5706SOL    HW118017   5.929   2.794   0.452
 5706SOL    HW218018   5.771   2.766   0.480
 5707SOL     OW18019   5.071   6.973   1.437
 5707SOL    HW118020   5.121   6.967   1.350
 5707SOL    HW218021   4.981   7.014   1.420
 5708SOL     OW18022   4.833   5.594   3.532
 5708SOL    HW118023   4.774   5.538   3.590
 5708SOL    HW218024   4.847   5.684   3.575
 5709SOL     OW18025   1.554   1.218   2.035
 5709SOL    HW118026   1.610   1.203   2.117
 5709SOL    HW218027   1.520   1.131   2.001
 5710SOL     OW18028   2.873   2.889   0.428
 5710SOL    HW118029   2.786   2.844   0.404
 5710SOL    HW218030   2.859   2.988   0.429
 5711SOL     OW18031   5.038   0.542   1.575
 5711SOL    HW118032   5.004   0.590   1.494
 5711SOL    HW218033   4.961   0.501   1.623
 5712SOL     OW18034   6.983   6.168   1.413
 5712SOL    HW118035   7.002   6.210   1.324
 5712SOL    HW218036   6.987   6.068   1.403
 5713SOL     OW18037   2.522   5.686   0.484
 5713SOL    HW118038   2.592   5.652   0.546
 5713SOL    HW218039   2.473   5.762   0.528
 5714SOL     OW18040   6.398   5.808   1.785
 5714SOL    HW118041   6.486   5.760   1.797
 5714SOL    HW218042   6.414   5.901   1.755
 5715SOL     OW18043   0.810   6.539   1.249
 5715SOL    HW118044   0.785   6.524   1.345
 5715SOL    HW218045   0.726   6.545   1.194
 5716SOL     OW18046   0.664   5.168   6.147
 5716SOL    HW118047   0.578   5.220   6.144
 5716SOL    HW218048   0.649   5.077   6.108
 5717SOL     OW18049   1.930   4.806   2.763
 5717SOL    HW118050   1.982   4.892   2.756
 5717SOL    HW218051   1.833   4.827   2.775
 5718SOL     OW18052   0.807   2.920   0.826
 5718SOL    HW118053   0.875   2.859   0.865
 5718SOL    HW218054   0.786   2.993   0.892
 5719SOL     OW18055   3.138   3.098   1.224
 5719SOL    HW118056   3.116   3.110   1.127
 5719SOL    HW218057   3.067   3.141   1.280
 5720SOL     OW18058   2.339   5.783   5.710
 5720SOL    HW118059   2.275   5.860   5.700
 5720SOL    HW218060   2.398   5.799   5.789
 5721SOL     OW18061   5.263   4.062   6.900
 5721SOL    HW118062   5.166   4.038   6.905
 5721SOL    HW218063   5.277   4.125   6.823
 5722SOL     OW18064   0.556   0.955   5.251
 5722SOL    HW118065   0.614   0.985   5.328
 5722SOL    HW218066   0.503   0.876   5.279
 5723SOL     OW18067   4.111   3.662   6.964
 5723SOL    HW118068   4.097   3.582   6.906
 5723SOL    HW218069   4.208   3.673   6.983
 5724SOL     OW18070   5.658   2.452   2.915
 5724SOL    HW118071   5.604   2.402   2.984
 5724SOL    HW218072   5.754   2.454   2.943
 5725SOL     OW18073   5.317   4.836   3.089
 5725SOL    HW118074   5.339   4.883   3.175
 5725SOL    HW218075   5.224   4.800   3.095
 5726SOL     OW18076   4.852   3.792   2.954
 5726SOL    HW118077   4.809   3.838   2.877
 5726SOL    HW218078   4.837   3.845   3.038
 5727SOL     OW18079   1.043   2.537   4.165
 5727SOL    HW118080   1.012   2.632   4.157
 5727SOL    HW218081   1.142   2.534   4.172
 5728SOL     OW18082   4.465   5.723   5.286
 5728SOL    HW118083   4.419   5.778   5.356
 5728SOL    HW218084   4.471   5.628   5.316
 5729SOL     OW18085   2.317   2.465   6.275
 5729SOL    HW118086   2.407   2.424   6.290
 5729SOL    HW218087   2.325   2.546   6.218
 5730SOL     OW18088   6.840   3.998   5.609
 5730SOL    HW118089   6.851   3.945   5.526
 5730SOL    HW218090   6.928   4.007   5.655
 5731SOL     OW18091   0.242   6.566   1.688
 5731SOL    HW118092   0.161   6.582   1.744
 5731SOL    HW218093   0.269   6.470   1.696
 5732SOL     OW18094   1.223   6.513   4.547
 5732SOL    HW118095   1.262   6.593   4.593
 5732SOL    HW218096   1.142   6.541   4.496
 5733SOL     OW18097   3.845   6.744   4.995
 5733SOL    HW118098   3.779   6.812   4.962
 5733SOL    HW218099   3.909   6.721   4.922
 5734SOL     OW18100   1.514   6.538   3.350
 5734SOL    HW118101   1.420   6.514   3.375
 5734SOL    HW218102   1.527   6.636   3.360
 5735SOL     OW18103   3.453   1.155   1.308
 5735SOL    HW118104   3.383   1.188   1.373
 5735SOL    HW218105   3.531   1.218   1.309
 5736SOL     OW18106   1.008   5.439   6.573
 5736SOL    HW118107   0.945   5.423   6.649
 5736SOL    HW218108   1.046   5.351   6.543
 5737SOL     OW18109   5.083   4.670   6.689
 5737SOL    HW118110   5.129   4.590   6.649
 5737SOL    HW218111   5.067   4.737   6.617
 5738SOL     OW18112   1.603   3.532   6.729
 5738SOL    HW118113   1.582   3.551   6.824
 5738SOL    HW218114   1.582   3.613   6.673
 5739SOL     OW18115   1.857   1.182   0.518
 5739SOL    HW118116   1.831   1.177   0.422
 5739SOL    HW218117   1.783   1.146   0.575
 5740SOL     OW18118   4.118   5.627   6.692
 5740SOL    HW118119   4.043   5.694   6.695
 5740SOL    HW218120   4.161   5.630   6.602
 5741SOL     OW18121   6.666   5.565   4.793
 5741SOL    HW118122   6.676   5.483   4.850
 5741SOL    HW218123   6.699   5.644   4.844
 5742SOL     OW18124   6.240   6.934   2.552
 5742SOL    HW118125   6.206   6.842   2.570
 5742SOL    HW218126   6.208   6.965   2.462
 5743SOL     OW18127   2.381   6.843   4.617
 5743SOL    HW118128   2.350   6.831   4.711
 5743SOL    HW218129   2.302   6.853   4.557
 5744SOL     OW18130   5.804   0.622   0.067
 5744SOL    HW118131   5.810   0.544   0.005
 5744SOL    HW218132   5.743   0.599   0.143
 5745SOL     OW18133   1.942   2.058   4.608
 5745SOL    HW118134   1.894   2.144   4.590
 5745SOL    HW218135   1.905   2.015   4.691
 5746SOL     OW18136   4.459   2.160   0.007
 5746SOL    HW118137   4.478   2.100   0.085
 5746SOL    HW218138   4.361   2.159   7.008
 5747SOL     OW18139   0.489   5.394   3.189
 5747SOL    HW118140   0.422   5.446   3.136
 5747SOL    HW218141   0.452   5.374   3.280
 5748SOL     OW18142   1.926   5.887   2.011
 5748SOL    HW118143   1.866   5.920   1.938
 5748SOL    HW218144   1.988   5.817   1.974
 5749SOL     OW18145   2.233   2.361   3.238
 5749SOL    HW118146   2.246   2.450   3.282
 5749SOL    HW218147   2.144   2.359   3.191
 5750SOL     OW18148   5.977   5.488   3.288
 5750SOL    HW118149   6.064   5.438   3.284
 5750SOL    HW218150   5.902   5.425   3.270
 5751SOL     OW18151   2.434   3.397   5.591
 5751SOL    HW118152   2.349   3.369   5.637
 5751SOL    HW218153   2.424   3.383   5.493
 5752SOL     OW18154   0.020   6.877   6.530
 5752SOL    HW118155   6.987   6.942   6.475
 5752SOL    HW218156   0.076   6.928   6.596
 5753SOL     OW18157   3.416   2.785   0.170
 5753SOL    HW118158   3.408   2.773   0.269
 5753SOL    HW218159   3.418   2.883   0.149
 5754SOL     OW18160   6.042   5.220   1.551
 5754SOL    HW118161   5.962   5.274   1.526
 5754SOL    HW218162   6.056   5.225   1.650
 5755SOL     OW18163   2.899   4.258   6.653
 5755SOL    HW118164   2.869   4.324   6.584
 5755SOL    HW218165   2.963   4.302   6.716
 5756SOL     OW18166   6.693   5.096   3.620
 5756SOL    HW118167   6.653   5.175   3.668
 5756SOL    HW218168   6.620   5.046   3.574
 5757SOL     OW18169   6.716   5.208   0.784
 5757SOL    HW118170   6.707   5.292   0.837
 5757SOL    HW218171   6.776   5.225   0.705
 5758SOL     OW18172   1.771   2.717   5.361
 5758SOL    HW118173   1.853   2.725   5.304
 5758SOL    HW218174   1.691   2.703   5.302
 5759SOL     OW18175   5.224   1.738   6.614
 5759SOL    HW118176   5.125   1.743   6.604
 5759SOL    HW218177   5.268   1.751   6.525
 5760SOL     OW18178   1.465   5.378   2.449
 5760SOL    HW118179   1.560   5.390   2.480
 5760SOL    HW218180   1.463   5.314   2.372
 5761SOL     OW18181   4.633   6.860   4.585
 5761SOL    HW118182   4.731   6.880   4.582
 5761SOL    HW218183   4.615   6.770   4.545
 5762SOL     OW18184   5.828   6.270   1.672
 5762SOL    HW118185   5.763   6.310   1.737
 5762SOL    HW218186   5.798   6.289   1.579
 5763SOL     OW18187   1.469   0.671   1.110
 5763SOL    HW118188   1.444   0.593   1.052
 5763SOL    HW218189   1.429   0.754   1.072
 5764SOL     OW18190   5.243   3.649   5.688
 5764SOL    HW118191   5.248   3.574   5.754
 5764SOL    HW218192   5.295   3.728   5.722
 5765SOL     OW18193   5.752   4.139   6.488
 5765SOL    HW118194   5.825   4.202   6.515
 5765SOL    HW218195   5.724   4.085   6.567
 5766SOL     OW18196   2.914   2.150   2.767
 5766SOL    HW118197   2.910   2.198   2.679
 5766SOL    HW218198   2.927   2.052   2.752
 5767SOL     OW18199   0.173   0.086   1.268
 5767SOL    HW118200   0.269   0.099   1.242
 5767SOL    HW218201   0.163   0.103   1.366
 5768SOL     OW18202   6.952   1.930   2.836
 5768SOL    HW118203   7.012   1.856   2.867
 5768SOL    HW218204   6.907   1.971   2.915
 5769SOL     OW18205   2.612   6.007   4.292
 5769SOL    HW118206   2.520   6.033   4.261
 5769SOL    HW218207   2.665   6.090   4.310
 5770SOL     OW18208   6.463   0.299   1.480
 5770SOL    HW118209   6.467   0.225   1.547
 5770SOL    HW218210   6.397   0.368   1.511
 5771SOL     OW18211   1.478   0.967   1.020
 5771SOL    HW118212   1.470   0.993   1.116
 5771SOL    HW218213   1.574   0.971   0.993
 5772SOL     OW18214   5.197   3.467   0.309
 5772SOL    HW118215   5.183   3.443   0.213
 5772SOL    HW218216   5.198   3.384   0.365
 5773SOL     OW18217   5.468   6.002   4.835
 5773SOL    HW118218   5.416   6.023   4.752
 5773SOL    HW218219   5.417   6.037   4.915
 5774SOL     OW18220   1.551   5.657   3.701
 5774SOL    HW118221   1.484   5.612   3.642
 5774SOL    HW218222   1.602   5.724   3.647
 5775SOL     OW18223   0.460   6.926   5.884
 5775SOL    HW118224   0.543   6.871   5.890
 5775SOL    HW218225   0.458   6.992   5.959
 5776SOL     OW18226   4.699   6.653   5.996
 5776SOL    HW118227   4.613   6.608   5.971
 5776SOL    HW218228   4.726   6.717   5.924
 5777SOL     OW18229   0.182   1.164   4.616
 5777SOL    HW118230   0.229   1.186   4.530
 5777SOL    HW218231   0.129   1.243   4.647
 5778SOL     OW18232   1.121   7.018   3.524
 5778SOL    HW118233   1.043   6.954   3.525
 5778SOL    HW218234   1.203   6.970   3.493
 5779SOL     OW18235   3.772   1.191   2.192
 5779SOL    HW118236   3.859   1.176   2.238
 5779SOL    HW218237   3.697   1.155   2.248
 5780SOL     OW18238   6.504   3.855   1.709
 5780SOL    HW118239   6.513   3.949   1.674
 5780SOL    HW218240   6.413   3.842   1.746
 5781SOL     OW18241   1.771   5.293   4.717
 5781SOL    HW118242   1.830   5.347   4.777
 5781SOL    HW218243   1.675   5.315   4.736
 5782SOL     OW18244   2.921   1.458   2.610
 5782SOL    HW118245   2.889   1.426   2.699
 5782SOL    HW218246   3.018   1.482   2.615
 5783SOL     OW18247   1.088   0.699   1.380
 5783SOL    HW118248   1.125   0.607   1.367
 5783SOL    HW218249   1.061   0.737   1.291
 5784SOL     OW18250   0.992   6.541   0.410
 5784SOL    HW118251   1.074   6.519   0.463
 5784SOL    HW218252   1.012   6.618   0.349
 5785SOL     OW18253   1.581   2.087   6.986
 5785SOL    HW118254   1.584   1.989   6.967
 5785SOL    HW218255   1.503   2.128   6.939
 5786SOL     OW18256   1.397   3.191   1.522
 5786SOL    HW118257   1.414   3.203   1.620
 5786SOL    HW218258   1.333   3.262   1.491
 5787SOL     OW18259   6.157   2.866   4.729
 5787SOL    HW118260   6.225   2.914   4.674
 5787SOL    HW218261   6.074   2.920   4.734
 5788SOL     OW18262   2.882   1.546   2.358
 5788SOL    HW118263   2.968   1.596   2.347
 5788SOL    HW218264   2.880   1.502   2.448
 5789SOL     OW18265   4.322   3.978   6.627
 5789SOL    HW118266   4.228   4.010   6.621
 5789SOL    HW218267   4.332   3.893   6.576
 5790SOL     OW18268   5.481   5.532   4.674
 5790SOL    HW118269   5.508   5.627   4.690
 5790SOL    HW218270   5.382   5.525   4.670
 5791SOL     OW18271   4.145   1.393   2.931
 5791SOL    HW118272   4.180   1.470   2.877
 5791SOL    HW218273   4.163   1.411   3.028
 5792SOL     OW18274   4.871   3.098   2.864
 5792SOL    HW118275   4.790   3.052   2.900
 5792SOL    HW218276   4.903   3.049   2.782
 5793SOL     OW18277   4.970   1.936   5.784
 5793SOL    HW118278   4.994   1.862   5.846
 5793SOL    HW218279   4.898   1.905   5.720
 5794SOL     OW18280   4.347   0.624   6.862
 5794SOL    HW118281   4.353   0.606   6.764
 5794SOL    HW218282   4.261   0.588   6.897
 5795SOL     OW18283   1.366   5.609   1.785
 5795SOL    HW118284   1.295   5.574   1.724
 5795SOL    HW218285   1.456   5.592   1.744
 5796SOL     OW18286   4.455   2.586   6.537
 5796SOL    HW118287   4.502   2.594   6.625
 5796SOL    HW218288   4.516   2.617   6.464
 5797SOL     OW18289   4.726   2.381   0.648
 5797SOL    HW118290   4.712   2.284   0.626
 5797SOL    HW218291   4.737   2.391   0.747
 5798SOL     OW18292   1.563   3.746   5.449
 5798SOL    HW118293   1.616   3.804   5.511
 5798SOL    HW218294   1.472   3.786   5.436
 5799SOL     OW18295   2.250   6.812   3.580
 5799SOL    HW118296   2.237   6.714   3.589
 5799SOL    HW218297   2.186   6.860   3.639
 5800SOL     OW18298   1.112   6.942   0.738
 5800SOL    HW118299   1.078   0.014   0.758
 5800SOL    HW218300   1.056   6.875   0.787
 5801SOL     OW18301   1.918   1.549   2.881
 5801SOL    HW118302   1.882   1.482   2.816
 5801SOL    HW218303   1.921   1.639   2.837
 5802SOL     OW18304   0.343   1.485   1.875
 5802SOL    HW118305   0.294   1.463   1.791
 5802SOL    HW218306   0.386   1.575   1.866
 5803SOL     OW18307   0.314   5.196   4.105
 5803SOL    HW118308   0.401   5.181   4.152
 5803SOL    HW218309   0.244   5.219   4.173
 5804SOL     OW18310   6.294   1.469   3.762
 5804SOL    HW118311   6.312   1.545   3.824
 5804SOL    HW218312   6.277   1.505   3.670
 5805SOL     OW18313   2.372   2.663   1.669
 5805SOL    HW118314   2.318   2.613   1.602
 5805SOL    HW218315   2.331   2.754   1.683
 5806SOL     OW18316   0.060   3.943   2.502
 5806SOL    HW118317   0.112   3.975   2.422
 5806SOL    HW218318   0.059   4.015   2.571
 5807SOL     OW18319   0.996   0.177   0.755
 5807SOL    HW118320   1.025   0.212   0.665
 5807SOL    HW218321   0.943   0.247   0.802
 5808SOL     OW18322   6.462   0.219   5.351
 5808SOL    HW118323   6.415   0.154   5.411
 5808SOL    HW218324   6.452   0.190   5.256
 5809SOL     OW18325   0.669   2.437   5.463
 5809SOL    HW118326   0.681   2.467   5.557
 5809SOL    HW218327   0.603   2.496   5.417
 5810SOL     OW18328   3.988   6.774   5.523
 5810SOL    HW118329   4.055   6.848   5.524
 5810SOL    HW218330   3.941   6.773   5.435
 5811SOL     OW18331   3.084   3.849   5.960
 5811SOL    HW118332   3.071   3.776   5.893
 5811SOL    HW218333   2.995   3.884   5.989
 5812SOL     OW18334   5.720   2.481   0.380
 5812SOL    HW118335   5.630   2.508   0.344
 5812SOL    HW218336   5.766   2.562   0.416
 5813SOL     OW18337   5.161   6.649   1.093
 5813SOL    HW118338   5.253   6.616   1.070
 5813SOL    HW218339   5.158   6.674   1.190
 5814SOL     OW18340   4.985   1.940   1.677
 5814SOL    HW118341   5.038   1.913   1.758
 5814SOL    HW218342   4.910   2.000   1.705
 5815SOL     OW18343   6.267   1.543   4.321
 5815SOL    HW118344   6.197   1.475   4.341
 5815SOL    HW218345   6.357   1.508   4.346
 5816SOL     OW18346   0.282   3.680   2.520
 5816SOL    HW118347   0.199   3.624   2.529
 5816SOL    HW218348   0.361   3.620   2.508
 5817SOL     OW18349   5.862   3.807   3.498
 5817SOL    HW118350   5.946   3.851   3.529
 5817SOL    HW218351   5.858   3.810   3.398
 5818SOL     OW18352   2.279   6.728   5.564
 5818SOL    HW118353   2.225   6.800   5.609
 5818SOL    HW218354   2.375   6.757   5.561
 5819SOL     OW18355   4.499   5.222   0.339
 5819SOL    HW118356   4.491   5.123   0.342
 5819SOL    HW218357   4.511   5.252   0.244
 5820SOL     OW18358   6.203   5.549   2.357
 5820SOL    HW118359   6.186   5.532   2.260
 5820SOL    HW218360   6.118   5.534   2.409
 5821SOL     OW18361   6.977   0.446   1.176
 5821SOL    HW118362   6.988   0.353   1.141
 5821SOL    HW218363   6.971   0.509   1.099
 5822SOL     OW18364   1.637   3.016   2.409
 5822SOL    HW118365   1.725   3.057   2.432
 5822SOL    HW218366   1.607   2.956   2.483
 5823SOL     OW18367   2.038   5.735   4.143
 5823SOL    HW118368   1.982   5.680   4.081
 5823SOL    HW218369   1.981   5.804   4.187
 5824SOL     OW18370   0.678   0.425   2.103
 5824SOL    HW118371   0.739   0.365   2.155
 5824SOL    HW218372   0.598   0.374   2.073
 5825SOL     OW18373   5.987   0.160   4.386
 5825SOL    HW118374   5.926   0.101   4.333
 5825SOL    HW218375   6.081   0.127   4.376
 5826SOL     OW18376   0.463   0.255   4.559
 5826SOL    HW118377   0.403   0.294   4.630
 5826SOL    HW218378   0.538   0.318   4.542
 5827SOL     OW18379   2.374   4.567   4.942
 5827SOL    HW118380   2.378   4.531   4.849
 5827SOL    HW218381   2.389   4.494   5.008
 5828SOL     OW18382   4.137   6.731   4.250
 5828SOL    HW118383   4.183   6.650   4.213
 5828SOL    HW218384   4.038   6.720   4.241
 5829SOL     OW18385   2.373   1.369   3.931
 5829SOL    HW118386   2.411   1.393   4.020
 5829SOL    HW218387   2.275   1.349   3.941
 5830SOL     OW18388   3.571   5.288   4.580
 5830SOL    HW118389   3.483   5.246   4.600
 5830SOL    HW218390   3.639   5.216   4.563
 5831SOL     OW18391   1.430   2.371   5.226
 5831SOL    HW118392   1.479   2.356   5.311
 5831SOL    HW218393   1.351   2.311   5.222
 5832SOL     OW18394   2.893   4.864   0.975
 5832SOL    HW118395   2.939   4.933   1.032
 5832SOL    HW218396   2.821   4.908   0.922
 5833SOL     OW18397   3.925   4.120   6.492
 5833SOL    HW118398   3.840   4.091   6.447
 5833SOL    HW218399   3.992   4.147   6.422
 5834SOL     OW18400   5.652   2.783   6.124
 5834SOL    HW118401   5.734   2.782   6.067
 5834SOL    HW218402   5.609   2.693   6.122
 5835SOL     OW18403   5.387   0.960   1.802
 5835SOL    HW118404   5.461   0.900   1.771
 5835SOL    HW218405   5.407   1.055   1.776
 5836SOL     OW18406   4.710   0.323   2.884
 5836SOL    HW118407   4.685   0.419   2.871
 5836SOL    HW218408   4.729   0.306   2.980
 5837SOL     OW18409   3.150   4.793   0.071
 5837SOL    HW118410   3.240   4.780   0.112
 5837SOL    HW218411   3.080   4.784   0.141
 5838SOL     OW18412   3.020   2.125   0.897
 5838SOL    HW118413   2.946   2.073   0.941
 5838SOL    HW218414   3.099   2.128   0.959
 5839SOL     OW18415   1.957   1.758   0.935
 5839SOL    HW118416   1.935   1.843   0.982
 5839SOL    HW218417   2.055   1.755   0.915
 5840SOL     OW18418   1.296   3.189   3.107
 5840SOL    HW118419   1.330   3.120   3.170
 5840SOL    HW218420   1.198   3.178   3.093
 5841SOL     OW18421   4.856   2.548   0.500
 5841SOL    HW118422   4.802   2.489   0.561
 5841SOL    HW218423   4.873   2.635   0.545
 5842SOL     OW18424   2.524   1.960   0.925
 5842SOL    HW118425   2.427   1.956   0.950
 5842SOL    HW218426   2.538   1.909   0.840
 5843SOL     OW18427   2.204   3.501   1.462
 5843SOL    HW118428   2.234   3.596   1.461
 5843SOL    HW218429   2.198   3.467   1.368
 5844SOL     OW18430   0.715   0.025   5.221
 5844SOL    HW118431   0.631   0.055   5.265
 5844SOL    HW218432   0.773   6.997   5.288
 5845SOL     OW18433   1.254   6.932   1.657
 5845SOL    HW118434   1.280   6.935   1.754
 5845SOL    HW218435   1.226   6.839   1.633
 5846SOL     OW18436   6.651   3.846   5.798
 5846SOL    HW118437   6.686   3.848   5.704
 5846SOL    HW218438   6.641   3.940   5.831
 5847SOL     OW18439   2.659   3.421   0.797
 5847SOL    HW118440   2.684   3.453   0.889
 5847SOL    HW218441   2.583   3.476   0.763
 5848SOL     OW18442   2.238   4.911   2.462
 5848SOL    HW118443   2.204   4.842   2.397
 5848SOL    HW218444   2.333   4.932   2.442
 5849SOL     OW18445   3.332   5.646   5.609
 5849SOL    HW118446   3.316   5.714   5.680
 5849SOL    HW218447   3.335   5.555   5.650
 5850SOL     OW18448   1.445   1.484   2.198
 5850SOL    HW118449   1.486   1.536   2.122
 5850SOL    HW218450   1.407   1.547   2.265
 5851SOL     OW18451   5.912   4.062   4.725
 5851SOL    HW118452   5.984   4.101   4.783
 5851SOL    HW218453   5.863   4.135   4.678
 5852SOL     OW18454   4.619   4.539   2.459
 5852SOL    HW118455   4.552   4.570   2.392
 5852SOL    HW218456   4.659   4.619   2.505
 5853SOL     OW18457   3.702   4.666   5.404
 5853SOL    HW118458   3.789   4.694   5.363
 5853SOL    HW218459   3.692   4.567   5.396
 5854SOL     OW18460   2.842   5.055   5.522
 5854SOL    HW118461   2.759   5.084   5.475
 5854SOL    HW218462   2.818   4.994   5.597
 5855SOL     OW18463   2.146   3.472   3.670
 5855SOL    HW118464   2.173   3.383   3.704
 5855SOL    HW218465   2.181   3.484   3.577
 5856SOL     OW18466   1.343   6.869   3.493
 5856SOL    HW118467   1.397   6.894   3.574
 5856SOL    HW218468   1.392   6.896   3.410
 5857SOL     OW18469   6.892   4.251   6.217
 5857SOL    HW118470   6.958   4.281   6.285
 5857SOL    HW218471   6.864   4.157   6.237
 5858SOL     OW18472   1.993   0.771   3.671
 5858SOL    HW118473   1.918   0.735   3.615
 5858SOL    HW218474   1.996   0.721   3.758
 5859SOL     OW18475   6.016   0.388   1.942
 5859SOL    HW118476   6.071   0.427   2.016
 5859SOL    HW218477   6.057   0.301   1.913
 5860SOL     OW18478   0.127   3.843   3.488
 5860SOL    HW118479   0.094   3.753   3.516
 5860SOL    HW218480   0.076   3.875   3.409
 5861SOL     OW18481   5.189   0.477   5.502
 5861SOL    HW118482   5.093   0.493   5.525
 5861SOL    HW218483   5.222   0.551   5.443
 5862SOL     OW18484   7.010   5.618   2.900
 5862SOL    HW118485   0.025   5.668   2.979
 5862SOL    HW218486   6.935   5.669   2.859
 5863SOL     OW18487   3.893   0.284   5.540
 5863SOL    HW118488   3.947   0.265   5.621
 5863SOL    HW218489   3.825   0.354   5.561
 5864SOL     OW18490   3.062   3.990   2.156
 5864SOL    HW118491   3.150   3.964   2.196
 5864SOL    HW218492   3.014   4.052   2.219
 5865SOL     OW18493   6.021   1.040   5.858
 5865SOL    HW118494   6.090   0.973   5.828
 5865SOL    HW218495   5.950   0.993   5.910
 5866SOL     OW18496   3.650   2.840   3.144
 5866SOL    HW118497   3.690   2.863   3.233
 5866SOL    HW218498   3.552   2.858   3.146
 5867SOL     OW18499   3.447   1.979   2.136
 5867SOL    HW118500   3.388   1.992   2.056
 5867SOL    HW218501   3.531   2.031   2.124
 5868SOL     OW18502   1.637   1.157   5.840
 5868SOL    HW118503   1.567   1.151   5.911
 5868SOL    HW218504   1.612   1.099   5.763
 5869SOL     OW18505   1.011   6.142   3.990
 5869SOL    HW118506   1.030   6.225   4.041
 5869SOL    HW218507   1.095   6.108   3.947
 5870SOL     OW18508   4.331   4.736   4.584
 5870SOL    HW118509   4.391   4.812   4.559
 5870SOL    HW218510   4.297   4.692   4.501
 5871SOL     OW18511   3.201   3.435   3.686
 5871SOL    HW118512   3.115   3.486   3.684
 5871SOL    HW218513   3.268   3.486   3.740
 5872SOL     OW18514   4.049   5.822   1.908
 5872SOL    HW118515   4.147   5.805   1.893
 5872SOL    HW218516   4.014   5.755   1.974
 5873SOL     OW18517   3.715   5.030   2.015
 5873SOL    HW118518   3.653   5.089   1.964
 5873SOL    HW218519   3.664   4.978   2.083
 5874SOL     OW18520   2.960   4.648   5.617
 5874SOL    HW118521   2.974   4.682   5.524
 5874SOL    HW218522   3.020   4.697   5.680
 5875SOL     OW18523   2.880   1.275   0.618
 5875SOL    HW118524   2.881   1.184   0.659
 5875SOL    HW218525   2.908   1.268   0.522
 5876SOL     OW18526   3.566   3.297   1.925
 5876SOL    HW118527   3.602   3.211   1.890
 5876SOL    HW218528   3.554   3.362   1.849
 5877SOL     OW18529   5.872   4.584   0.057
 5877SOL    HW118530   5.799   4.570   0.124
 5877SOL    HW218531   5.878   4.503   7.018
 5878SOL     OW18532   2.385   4.672   2.141
 5878SOL    HW118533   2.435   4.688   2.226
 5878SOL    HW218534   2.444   4.627   2.075
 5879SOL     OW18535   6.935   4.029   5.903
 5879SOL    HW118536   6.989   4.107   5.931
 5879SOL    HW218537   6.841   4.058   5.886
 5880SOL     OW18538   2.118   6.401   1.118
 5880SOL    HW118539   2.186   6.366   1.182
 5880SOL    HW218540   2.027   6.392   1.157
 5881SOL     OW18541   0.001   5.461   3.899
 5881SOL    HW118542   0.061   5.518   3.843
 5881SOL    HW218543   0.027   5.471   3.995
 5882SOL     OW18544   4.940   0.687   1.385
 5882SOL    HW118545   4.964   0.645   1.298
 5882SOL    HW218546   4.845   0.717   1.383
 5883SOL     OW18547   7.012   3.434   5.757
 5883SOL    HW118548   6.948   3.366   5.793
 5883SOL    HW218549   0.060   3.388   5.699
 5884SOL     OW18550   0.804   1.080   2.883
 5884SOL    HW118551   0.885   1.139   2.877
 5884SOL    HW218552   0.830   0.992   2.924
 5885SOL     OW18553   6.469   6.113   1.124
 5885SOL    HW118554   6.480   6.053   1.045
 5885SOL    HW218555   6.510   6.070   1.204
 5886SOL     OW18556   1.041   2.142   5.624
 5886SOL    HW118557   0.976   2.141   5.548
 5886SOL    HW218558   1.127   2.184   5.594
 5887SOL     OW18559   3.829   0.137   4.812
 5887SOL    HW118560   3.857   0.179   4.899
 5887SOL    HW218561   3.910   0.120   4.756
 5888SOL     OW18562   2.166   0.115   3.522
 5888SOL    HW118563   2.266   0.114   3.514
 5888SOL    HW218564   2.138   0.045   3.587
 5889SOL     OW18565   2.657   0.727   0.942
 5889SOL    HW118566   2.738   0.784   0.952
 5889SOL    HW218567   2.584   0.779   0.897
 5890SOL     OW18568   2.559   5.203   5.906
 5890SOL    HW118569   2.649   5.220   5.865
 5890SOL    HW218570   2.487   5.239   5.847
 5891SOL     OW18571   3.387   3.400   0.156
 5891SOL    HW118572   3.379   3.488   0.108
 5891SOL    HW218573   3.477   3.395   0.200
 5892SOL     OW18574   0.526   6.927   1.284
 5892SOL    HW118575   0.588   6.956   1.356
 5892SOL    HW218576   0.495   6.833   1.302
 5893SOL     OW18577   0.983   1.676   4.139
 5893SOL    HW118578   1.005   1.613   4.214
 5893SOL    HW218579   0.950   1.762   4.178
 5894SOL     OW18580   0.934   3.482   3.059
 5894SOL    HW118581   0.981   3.438   2.982
 5894SOL    HW218582   0.842   3.445   3.067
 5895SOL     OW18583   5.710   3.910   3.705
 5895SOL    HW118584   5.732   3.851   3.628
 5895SOL    HW218585   5.676   3.855   3.781
 5896SOL     OW18586   3.376   2.286   6.707
 5896SOL    HW118587   3.412   2.276   6.614
 5896SOL    HW218588   3.411   2.371   6.747
 5897SOL     OW18589   3.771   6.953   1.303
 5897SOL    HW118590   3.803   6.941   1.397
 5897SOL    HW218591   3.762   0.031   1.284
 5898SOL     OW18592   2.006   0.322   2.501
 5898SOL    HW118593   2.014   0.235   2.454
 5898SOL    HW218594   1.914   0.359   2.487
 5899SOL     OW18595   5.943   6.859   4.594
 5899SOL    HW118596   5.945   6.770   4.641
 5899SOL    HW218597   5.849   6.880   4.568
 5900SOL     OW18598   5.004   4.719   2.818
 5900SOL    HW118599   4.971   4.711   2.913
 5900SOL    HW218600   4.995   4.630   2.773
 5901SOL     OW18601   3.031   6.449   6.045
 5901SOL    HW118602   3.024   6.438   6.144
 5901SOL    HW218603   3.126   6.436   6.017
 5902SOL     OW18604   6.565   2.088   6.679
 5902SOL    HW118605   6.572   2.181   6.644
 5902SOL    HW218606   6.655   2.056   6.708
 5903SOL     OW18607   6.019   3.472   6.893
 5903SOL    HW118608   6.091   3.521   6.845
 5903SOL    HW218609   6.020   3.498   6.990
 5904SOL     OW18610   6.894   3.402   2.173
 5904SOL    HW118611   6.896   3.304   2.192
 5904SOL    HW218612   6.802   3.428   2.142
 5905SOL     OW18613   6.879   6.105   2.556
 5905SOL    HW118614   6.942   6.133   2.484
 5905SOL    HW218615   6.825   6.184   2.585
 5906SOL     OW18616   5.539   1.145   3.865
 5906SOL    HW118617   5.546   1.161   3.964
 5906SOL    HW218618   5.537   1.232   3.817
 5907SOL     OW18619   1.020   5.868   1.817
 5907SOL    HW118620   1.084   5.795   1.839
 5907SOL    HW218621   0.938   5.859   1.874
 5908SOL     OW18622   0.203   2.687   5.196
 5908SOL    HW118623   0.272   2.655   5.131
 5908SOL    HW218624   0.180   2.613   5.260
 5909SOL     OW18625   0.224   5.947   0.688
 5909SOL    HW118626   0.310   5.896   0.681
 5909SOL    HW218627   0.153   5.888   0.726
 5910SOL     OW18628   2.101   2.664   3.000
 5910SOL    HW118629   2.149   2.686   3.085
 5910SOL    HW218630   2.163   2.615   2.939
 5911SOL     OW18631   6.855   5.884   6.126
 5911SOL    HW118632   6.932   5.833   6.087
 5911SOL    HW218633   6.790   5.906   6.053
 5912SOL     OW18634   6.519   1.530   4.179
 5912SOL    HW118635   6.576   1.551   4.258
 5912SOL    HW218636   6.517   1.608   4.117
 5913SOL     OW18637   5.294   2.452   0.216
 5913SOL    HW118638   5.284   2.354   0.200
 5913SOL    HW218639   5.219   2.501   0.172
 5914SOL     OW18640   0.419   6.157   6.926
 5914SOL    HW118641   0.374   6.113   7.003
 5914SOL    HW218642   0.361   6.230   6.890
 5915SOL     OW18643   4.324   0.666   6.214
 5915SOL    HW118644   4.258   0.731   6.251
 5915SOL    HW218645   4.363   0.703   6.129
 5916SOL     OW18646   1.131   6.644   2.456
 5916SOL    HW118647   1.139   6.546   2.439
 5916SOL    HW218648   1.120   6.661   2.554
 5917SOL     OW18649   3.169   4.312   6.814
 5917SOL    HW118650   3.151   4.260   6.898
 5917SOL    HW218651   3.260   4.353   6.820
 5918SOL     OW18652   3.009   6.419   6.327
 5918SOL    HW118653   3.094   6.421   6.380
 5918SOL    HW218654   2.949   6.492   6.359
 5919SOL     OW18655   3.690   2.982   3.357
 5919SOL    HW118656   3.663   2.954   3.449
 5919SOL    HW218657   3.648   3.070   3.336
 5920SOL     OW18658   6.738   0.300   6.084
 5920SOL    HW118659   6.802   0.363   6.127
 5920SOL    HW218660   6.733   0.319   5.986
 5921SOL     OW18661   3.084   4.706   6.582
 5921SOL    HW118662   3.051   4.668   6.669
 5921SOL    HW218663   3.143   4.784   6.601
 5922SOL     OW18664   5.347   3.666   2.865
 5922SOL    HW118665   5.270   3.608   2.840
 5922SOL    HW218666   5.380   3.641   2.956
 5923SOL     OW18667   0.024   1.285   1.478
 5923SOL    HW118668   0.109   1.234   1.468
 5923SOL    HW218669   6.966   1.223   1.467
 5924SOL     OW18670   6.368   0.382   3.386
 5924SOL    HW118671   6.359   0.361   3.288
 5924SOL    HW218672   6.385   0.298   3.436
 5925SOL     OW18673   4.680   5.932   1.308
 5925SOL    HW118674   4.748   5.980   1.363
 5925SOL    HW218675   4.677   5.972   1.216
 5926SOL     OW18676   3.821   4.908   2.972
 5926SOL    HW118677   3.870   4.915   3.059
 5926SOL    HW218678   3.723   4.908   2.989
 5927SOL     OW18679   0.832   4.378   2.259
 5927SOL    HW118680   0.735   4.359   2.246
 5927SOL    HW218681   0.862   4.446   2.191
 5928SOL     OW18682   3.613   0.284   0.515
 5928SOL    HW118683   3.521   0.245   0.507
 5928SOL    HW218684   3.607   0.384   0.511
 5929SOL     OW18685   0.552   1.131   5.757
 5929SOL    HW118686   0.540   1.228   5.735
 5929SOL    HW218687   0.540   1.118   5.856
 5930SOL     OW18688   1.796   3.565   2.495
 5930SOL    HW118689   1.736   3.641   2.519
 5930SOL    HW218690   1.832   3.579   2.403
 5931SOL     OW18691   5.664   5.739   3.354
 5931SOL    HW118692   5.714   5.818   3.389
 5931SOL    HW218693   5.726   5.682   3.300
 5932SOL     OW18694   2.682   1.085   6.802
 5932SOL    HW118695   2.748   1.160   6.799
 5932SOL    HW218696   2.631   1.089   6.889
 5933SOL     OW18697   6.430   6.013   3.984
 5933SOL    HW118698   6.449   6.028   3.887
 5933SOL    HW218699   6.414   5.916   4.001
 5934SOL     OW18700   3.036   3.724   5.715
 5934SOL    HW118701   3.124   3.677   5.713
 5934SOL    HW218702   2.993   3.718   5.625
 5935SOL     OW18703   6.991   6.469   5.218
 5935SOL    HW118704   6.997   6.419   5.304
 5935SOL    HW218705   6.901   6.511   5.211
 5936SOL     OW18706   3.090   3.315   2.128
 5936SOL    HW118707   3.141   3.312   2.042
 5936SOL    HW218708   2.993   3.300   2.110
 5937SOL     OW18709   6.732   2.907   1.559
 5937SOL    HW118710   6.676   2.899   1.476
 5937SOL    HW218711   6.808   2.842   1.554
 5938SOL     OW18712   6.808   4.803   4.738
 5938SOL    HW118713   6.901   4.809   4.774
 5938SOL    HW218714   6.778   4.893   4.709
 5939SOL     OW18715   3.410   0.526   4.399
 5939SOL    HW118716   3.478   0.495   4.465
 5939SOL    HW218717   3.443   0.508   4.306
 5940SOL     OW18718   4.761   5.766   2.495
 5940SOL    HW118719   4.813   5.826   2.434
 5940SOL    HW218720   4.799   5.674   2.491
 5941SOL     OW18721   6.893   2.428   1.708
 5941SOL    HW118722   6.949   2.357   1.750
 5941SOL    HW218723   6.864   2.398   1.617
 5942SOL     OW18724   6.050   3.480   5.846
 5942SOL    HW118725   6.010   3.402   5.798
 5942SOL    HW218726   6.030   3.564   5.795
 5943SOL     OW18727   3.679   3.952   0.986
 5943SOL    HW118728   3.770   3.936   1.024
 5943SOL    HW218729   3.633   4.023   1.039
 5944SOL     OW18730   0.705   3.481   6.469
 5944SOL    HW118731   0.640   3.529   6.528
 5944SOL    HW218732   0.668   3.390   6.446
 5945SOL     OW18733   0.152   5.651   5.191
 5945SOL    HW118734   0.249   5.645   5.166
 5945SOL    HW218735   0.118   5.561   5.216
 5946SOL     OW18736   3.821   4.796   0.354
 5946SOL    HW118737   3.728   4.818   0.326
 5946SOL    HW218738   3.862   4.733   0.288
 5947SOL     OW18739   3.083   3.062   4.674
 5947SOL    HW118740   3.053   2.993   4.740
 5947SOL    HW218741   3.158   3.115   4.713
 5948SOL     OW18742   4.901   3.889   2.084
 5948SOL    HW118743   4.887   3.839   1.999
 5948SOL    HW218744   4.853   3.977   2.079
 5949SOL     OW18745   6.912   5.284   1.995
 5949SOL    HW118746   6.874   5.258   2.084
 5949SOL    HW218747   6.843   5.332   1.941
 5950SOL     OW18748   4.691   1.770   6.219
 5950SOL    HW118749   4.654   1.810   6.135
 5950SOL    HW218750   4.755   1.697   6.195
 5951SOL     OW18751   1.012   4.564   6.071
 5951SOL    HW118752   0.980   4.566   6.166
 5951SOL    HW218753   0.988   4.650   6.026
 5952SOL     OW18754   3.910   5.266   1.445
 5952SOL    HW118755   3.859   5.206   1.383
 5952SOL    HW218756   3.994   5.220   1.473
 5953SOL     OW18757   6.339   2.296   5.400
 5953SOL    HW118758   6.258   2.238   5.413
 5953SOL    HW218759   6.415   2.240   5.367
 5954SOL     OW18760   0.584   6.146   4.451
 5954SOL    HW118761   0.582   6.213   4.378
 5954SOL    HW218762   0.533   6.180   4.530
 5955SOL     OW18763   5.957   4.093   0.766
 5955SOL    HW118764   5.926   4.051   0.681
 5955SOL    HW218765   5.882   4.145   0.807
 5956SOL     OW18766   4.614   2.457   4.403
 5956SOL    HW118767   4.522   2.466   4.442
 5956SOL    HW218768   4.640   2.542   4.359
 5957SOL     OW18769   1.512   0.717   2.639
 5957SOL    HW118770   1.580   0.645   2.625
 5957SOL    HW218771   1.556   0.806   2.636
 5958SOL     OW18772   3.670   6.704   2.978
 5958SOL    HW118773   3.659   6.795   3.020
 5958SOL    HW218774   3.757   6.664   3.007
 5959SOL     OW18775   4.616   2.335   5.044
 5959SOL    HW118776   4.638   2.391   5.124
 5959SOL    HW218777   4.522   2.351   5.017
 5960SOL     OW18778   3.491   6.629   6.368
 5960SOL    HW118779   3.476   6.572   6.287
 5960SOL    HW218780   3.403   6.663   6.400
 5961SOL     OW18781   3.073   1.531   3.098
 5961SOL    HW118782   3.051   1.599   3.168
 5961SOL    HW218783   3.114   1.576   3.019
 5962SOL     OW18784   5.736   6.140   7.014
 5962SOL    HW118785   5.753   6.083   0.074
 5962SOL    HW218786   5.794   6.221   7.018
 5963SOL     OW18787   3.544   4.898   0.330
 5963SOL    HW118788   3.473   4.967   0.344
 5963SOL    HW218789   3.616   4.935   0.271
 5964SOL     OW18790   2.000   6.527   2.614
 5964SOL    HW118791   2.015   6.569   2.703
 5964SOL    HW218792   2.081   6.473   2.588
 5965SOL     OW18793   1.985   6.503   0.164
 5965SOL    HW118794   2.072   6.552   0.161
 5965SOL    HW218795   1.999   6.412   0.203
 5966SOL     OW18796   2.621   0.521   5.406
 5966SOL    HW118797   2.646   0.424   5.404
 5966SOL    HW218798   2.669   0.569   5.332
 5967SOL     OW18799   2.010   1.651   4.749
 5967SOL    HW118800   1.958   1.690   4.826
 5967SOL    HW218801   2.048   1.725   4.694
 5968SOL     OW18802   5.553   2.378   0.611
 5968SOL    HW118803   5.598   2.444   0.550
 5968SOL    HW218804   5.598   2.379   0.700
 5969SOL     OW18805   5.642   0.674   6.867
 5969SOL    HW118806   5.671   0.668   6.771
 5969SOL    HW218807   5.721   0.696   6.924
 5970SOL     OW18808   0.111   2.978   0.950
 5970SOL    HW118809   0.023   2.945   0.915
 5970SOL    HW218810   0.127   2.942   1.041
 5971SOL     OW18811   6.585   0.279   3.661
 5971SOL    HW118812   6.540   0.280   3.750
 5971SOL    HW218813   6.526   0.233   3.595
 5972SOL     OW18814   5.250   5.446   0.711
 5972SOL    HW118815   5.181   5.426   0.780
 5972SOL    HW218816   5.250   5.544   0.691
 5973SOL     OW18817   1.969   3.115   2.781
 5973SOL    HW118818   1.913   3.199   2.782
 5973SOL    HW218819   1.944   3.058   2.859
 5974SOL     OW18820   4.662   1.042   6.080
 5974SOL    HW118821   4.673   0.963   6.019
 5974SOL    HW218822   4.705   1.122   6.037
 5975SOL     OW18823   5.773   4.342   6.911
 5975SOL    HW118824   5.870   4.316   6.918
 5975SOL    HW218825   5.720   4.291   6.978
 5976SOL     OW18826   3.467   3.799   5.838
 5976SOL    HW118827   3.459   3.794   5.938
 5976SOL    HW218828   3.396   3.860   5.803
 5977SOL     OW18829   0.011   5.115   0.412
 5977SOL    HW118830   0.107   5.129   0.387
 5977SOL    HW218831   6.989   5.053   0.346
 5978SOL     OW18832   3.288   5.443   0.445
 5978SOL    HW118833   3.241   5.355   0.436
 5978SOL    HW218834   3.291   5.489   0.356
 5979SOL     OW18835   6.452   0.721   1.464
 5979SOL    HW118836   6.377   0.657   1.449
 5979SOL    HW218837   6.414   0.811   1.488
 5980SOL     OW18838   3.909   3.105   1.345
 5980SOL    HW118839   3.991   3.050   1.325
 5980SOL    HW218840   3.830   3.045   1.355
 5981SOL     OW18841   3.712   1.776   0.115
 5981SOL    HW118842   3.721   1.872   0.142
 5981SOL    HW218843   3.617   1.747   0.122
 5982SOL     OW18844   5.823   2.153   1.698
 5982SOL    HW118845   5.760   2.075   1.698
 5982SOL    HW218846   5.832   2.189   1.791
 5983SOL     OW18847   0.134   0.904   4.574
 5983SOL    HW118848   0.152   0.997   4.606
 5983SOL    HW218849   0.056   0.905   4.511
 5984SOL     OW18850   6.453   6.672   2.773
 5984SOL    HW118851   6.474   6.660   2.870
 5984SOL    HW218852   6.358   6.647   2.756
 5985SOL     OW18853   5.960   2.195   2.716
 5985SOL    HW118854   5.878   2.249   2.701
 5985SOL    HW218855   5.973   2.131   2.641
 5986SOL     OW18856   4.126   3.703   5.316
 5986SOL    HW118857   4.128   3.637   5.241
 5986SOL    HW218858   4.201   3.768   5.306
 5987SOL     OW18859   6.432   0.866   5.253
 5987SOL    HW118860   6.427   0.950   5.200
 5987SOL    HW218861   6.343   0.846   5.292
 5988SOL     OW18862   2.404   2.095   7.011
 5988SOL    HW118863   2.452   2.088   6.924
 5988SOL    HW218864   2.451   2.161   0.050
 5989SOL     OW18865   0.237   5.900   6.888
 5989SOL    HW118866   0.193   5.960   6.822
 5989SOL    HW218867   0.286   5.955   6.956
 5990SOL     OW18868   3.986   4.515   1.599
 5990SOL    HW118869   4.039   4.438   1.562
 5990SOL    HW218870   3.933   4.558   1.526
 5991SOL     OW18871   5.457   6.099   1.140
 5991SOL    HW118872   5.534   6.106   1.077
 5991SOL    HW218873   5.410   6.187   1.145
 5992SOL     OW18874   3.491   0.132   2.139
 5992SOL    HW118875   3.429   0.102   2.067
 5992SOL    HW218876   3.509   0.230   2.129
 5993SOL     OW18877   6.111   2.426   0.176
 5993SOL    HW118878   6.091   2.505   0.118
 5993SOL    HW218879   6.065   2.345   0.139
 5994SOL     OW18880   6.962   2.894   0.547
 5994SOL    HW118881   6.989   2.805   0.511
 5994SOL    HW218882   6.937   2.885   0.643
 5995SOL     OW18883   5.035   3.515   1.639
 5995SOL    HW118884   5.035   3.613   1.618
 5995SOL    HW218885   5.091   3.467   1.571
 5996SOL     OW18886   2.520   5.716   1.412
 5996SOL    HW118887   2.532   5.748   1.506
 5996SOL    HW218888   2.579   5.770   1.351
 5997SOL     OW18889   6.982   6.829   3.247
 5997SOL    HW118890   6.988   6.818   3.148
 5997SOL    HW218891   6.890   6.805   3.278
 5998SOL     OW18892   6.693   0.887   1.563
 5998SOL    HW118893   6.739   0.823   1.624
 5998SOL    HW218894   6.595   0.881   1.576
 5999SOL     OW18895   3.970   3.518   1.238
 5999SOL    HW118896   3.997   3.594   1.298
 5999SOL    HW218897   3.871   3.522   1.223
 6000SOL     OW18898   6.892   4.951   0.260
 6000SOL    HW118899   6.829   4.922   0.332
 6000SOL    HW218900   6.931   4.870   0.216
 6001SOL     OW18901   5.089   5.979   5.171
 6001SOL    HW118902   5.186   5.956   5.158
 6001SOL    HW218903   5.064   6.050   5.105
 6002SOL     OW18904   6.308   6.785   4.787
 6002SOL    HW118905   6.245   6.736   4.727
 6002SOL    HW218906   6.283   6.770   4.882
 6003SOL     OW18907   6.529   2.979   4.152
 6003SOL    HW118908   6.529   2.896   4.208
 6003SOL    HW218909   6.617   2.987   4.104
 6004SOL     OW18910   5.087   2.801   3.854
 6004SOL    HW118911   5.031   2.878   3.886
 6004SOL    HW218912   5.154   2.834   3.788
 6005SOL     OW18913   4.432   4.419   6.282
 6005SOL    HW118914   4.472   4.470   6.206
 6005SOL    HW218915   4.343   4.384   6.256
 6006SOL     OW18916   3.568   6.487   5.773
 6006SOL    HW118917   3.470   6.506   5.767
 6006SOL    HW218918   3.588   6.441   5.859
 6007SOL     OW18919   1.037   4.612   5.502
 6007SOL    HW118920   1.105   4.651   5.563
 6007SOL    HW218921   1.009   4.522   5.536
 6008SOL     OW18922   2.212   5.219   5.313
 6008SOL    HW118923   2.227   5.228   5.411
 6008SOL    HW218924   2.180   5.126   5.293
 6009SOL     OW18925   4.132   5.051   3.496
 6009SOL    HW118926   4.150   4.959   3.532
 6009SOL    HW218927   4.052   5.047   3.436
 6010SOL     OW18928   0.075   4.569   4.803
 6010SOL    HW118929   0.171   4.544   4.790
 6010SOL    HW218930   0.029   4.498   4.856
 6011SOL     OW18931   5.975   1.314   2.394
 6011SOL    HW118932   6.018   1.241   2.343
 6011SOL    HW218933   5.996   1.403   2.352
 6012SOL     OW18934   6.850   0.748   6.189
 6012SOL    HW118935   6.859   0.652   6.216
 6012SOL    HW218936   6.877   0.806   6.266
 6013SOL     OW18937   5.634   0.990   2.759
 6013SOL    HW118938   5.633   0.993   2.659
 6013SOL    HW218939   5.727   0.968   2.791
 6014SOL     OW18940   3.841   3.442   3.982
 6014SOL    HW118941   3.888   3.440   3.894
 6014SOL    HW218942   3.746   3.412   3.969
 6015SOL     OW18943   6.407   1.964   4.638
 6015SOL    HW118944   6.482   2.013   4.680
 6015SOL    HW218945   6.433   1.934   4.546
 6016SOL     OW18946   5.103   1.620   4.630
 6016SOL    HW118947   5.158   1.539   4.612
 6016SOL    HW218948   5.011   1.607   4.593
 6017SOL     OW18949   0.101   3.122   5.035
 6017SOL    HW118950   0.124   3.082   5.123
 6017SOL    HW218951   0.185   3.135   4.981
 6018SOL     OW18952   3.692   1.313   5.828
 6018SOL    HW118953   3.721   1.332   5.734
 6018SOL    HW218954   3.771   1.287   5.883
 6019SOL     OW18955   0.326   3.752   6.340
 6019SOL    HW118956   0.303   3.721   6.433
 6019SOL    HW218957   0.298   3.848   6.329
 6020SOL     OW18958   0.690   4.765   0.545
 6020SOL    HW118959   0.651   4.679   0.513
 6020SOL    HW218960   0.634   4.841   0.513
 6021SOL     OW18961   4.030   0.808   3.257
 6021SOL    HW118962   4.087   0.800   3.175
 6021SOL    HW218963   4.056   0.890   3.308
 6022SOL     OW18964   6.700   1.488   2.558
 6022SOL    HW118965   6.646   1.417   2.603
 6022SOL    HW218966   6.688   1.575   2.607
 6023SOL     OW18967   5.049   0.723   1.130
 6023SOL    HW118968   5.028   0.729   1.033
 6023SOL    HW218969   5.083   0.811   1.163
 6024SOL     OW18970   0.342   5.241   0.595
 6024SOL    HW118971   0.274   5.290   0.650
 6024SOL    HW218972   0.421   5.219   0.652
 6025SOL     OW18973   2.433   1.071   4.230
 6025SOL    HW118974   2.438   1.081   4.329
 6025SOL    HW218975   2.506   1.010   4.199
 6026SOL     OW18976   5.854   4.253   4.503
 6026SOL    HW118977   5.762   4.219   4.521
 6026SOL    HW218978   5.850   4.327   4.435
 6027SOL     OW18979   6.156   3.141   5.580
 6027SOL    HW118980   6.219   3.130   5.503
 6027SOL    HW218981   6.199   3.106   5.663
 6028SOL     OW18982   5.399   4.966   6.694
 6028SOL    HW118983   5.392   4.887   6.755
 6028SOL    HW218984   5.358   4.944   6.606
 6029SOL     OW18985   2.587   0.887   3.379
 6029SOL    HW118986   2.604   0.794   3.347
 6029SOL    HW218987   2.630   0.900   3.468
 6030SOL     OW18988   4.906   3.625   4.671
 6030SOL    HW118989   4.882   3.650   4.577
 6030SOL    HW218990   4.825   3.632   4.729
 6031SOL     OW18991   0.454   5.787   4.794
 6031SOL    HW118992   0.526   5.719   4.807
 6031SOL    HW218993   0.480   5.848   4.720
 6032SOL     OW18994   2.885   6.625   3.822
 6032SOL    HW118995   2.979   6.657   3.813
 6032SOL    HW218996   2.834   6.690   3.880
 6033SOL     OW18997   2.299   2.117   2.672
 6033SOL    HW118998   2.347   2.143   2.756
 6033SOL    HW218999   2.218   2.175   2.662
 6034SOL     OW19000   1.662   0.257   7.003
 6034SOL    HW119001   1.648   0.347   6.961
 6034SOL    HW219002   1.662   0.187   6.931
 6035SOL     OW19003   1.085   1.025   3.045
 6035SOL    HW119004   1.160   0.988   3.101
 6035SOL    HW219005   1.013   0.956   3.038
 6036SOL     OW19006   5.665   3.461   0.810
 6036SOL    HW119007   5.606   3.423   0.882
 6036SOL    HW219008   5.636   3.427   0.721
 6037SOL     OW19009   3.860   1.928   0.678
 6037SOL    HW119010   3.934   1.864   0.700
 6037SOL    HW219011   3.825   1.967   0.763
 6038SOL     OW19012   0.507   2.389   6.485
 6038SOL    HW119013   0.521   2.415   6.581
 6038SOL    HW219014   0.418   2.421   6.454
 6039SOL     OW19015   3.298   4.121   3.945
 6039SOL    HW119016   3.282   4.084   4.036
 6039SOL    HW219017   3.245   4.069   3.878
 6040SOL     OW19018   1.511   1.846   6.829
 6040SOL    HW119019   1.478   1.759   6.793
 6040SOL    HW219020   1.434   1.906   6.851
 6041SOL     OW19021   3.266   2.676   6.006
 6041SOL    HW119022   3.327   2.638   6.076
 6041SOL    HW219023   3.319   2.738   5.947
 6042SOL     OW19024   2.911   6.317   4.178
 6042SOL    HW119025   3.007   6.328   4.153
 6042SOL    HW219026   2.862   6.275   4.101
 6043SOL     OW19027   1.720   0.584   4.301
 6043SOL    HW119028   1.791   0.564   4.368
 6043SOL    HW219029   1.701   0.682   4.300
 6044SOL     OW19030   1.877   1.947   1.512
 6044SOL    HW119031   1.922   2.037   1.518
 6044SOL    HW219032   1.828   1.940   1.425
 6045SOL     OW19033   5.150   2.828   3.220
 6045SOL    HW119034   5.180   2.815   3.125
 6045SOL    HW219035   5.135   2.925   3.237
 6046SOL     OW19036   3.666   2.717   1.707
 6046SOL    HW119037   3.589   2.763   1.662
 6046SOL    HW219038   3.651   2.618   1.704
 6047SOL     OW19039   6.013   1.778   0.874
 6047SOL    HW119040   6.099   1.809   0.913
 6047SOL    HW219041   5.940   1.843   0.896
 6048SOL     OW19042   5.501   5.760   5.268
 6048SOL    HW119043   5.525   5.667   5.241
 6048SOL    HW219044   5.584   5.811   5.290
 6049SOL     OW19045   5.068   4.584   5.291
 6049SOL    HW119046   5.023   4.496   5.301
 6049SOL    HW219047   5.163   4.570   5.264
 6050SOL     OW19048   3.227   5.567   1.087
 6050SOL    HW119049   3.239   5.649   1.030
 6050SOL    HW219050   3.315   5.539   1.124
 6051SOL     OW19051   0.727   1.536   3.062
 6051SOL    HW119052   0.664   1.581   2.998
 6051SOL    HW219053   0.776   1.605   3.115
 6052SOL     OW19054   5.681   6.432   0.802
 6052SOL    HW119055   5.638   6.522   0.809
 6052SOL    HW219056   5.647   6.385   0.721
 6053SOL     OW19057   4.439   2.006   6.282
 6053SOL    HW119058   4.475   1.975   6.194
 6053SOL    HW219059   4.486   1.958   6.356
 6054SOL     OW19060   4.214   5.021   0.921
 6054SOL    HW119061   4.221   4.923   0.938
 6054SOL    HW219062   4.228   5.039   0.824
 6055SOL     OW19063   3.315   5.125   0.320
 6055SOL    HW119064   3.248   5.099   0.250
 6055SOL    HW219065   3.268   5.145   0.406
 6056SOL     OW19066   6.255   4.113   5.430
 6056SOL    HW119067   6.339   4.073   5.466
 6056SOL    HW219068   6.245   4.089   5.333
 6057SOL     OW19069   5.225   0.360   2.951
 6057SOL    HW119070   5.306   0.416   2.933
 6057SOL    HW219071   5.162   0.411   3.010
 6058SOL     OW19072   5.749   2.604   6.764
 6058SOL    HW119073   5.672   2.542   6.751
 6058SOL    HW219074   5.715   2.697   6.779
 6059SOL     OW19075   5.103   4.325   5.717
 6059SOL    HW119076   5.183   4.383   5.732
 6059SOL    HW219077   5.020   4.374   5.742
 6060SOL     OW19078   3.047   3.506   6.693
 6060SOL    HW119079   2.978   3.490   6.764
 6060SOL    HW219080   3.022   3.585   6.637
 6061SOL     OW19081   4.759   4.825   0.730
 6061SOL    HW119082   4.807   4.768   0.663
 6061SOL    HW219083   4.706   4.895   0.681
 6062SOL     OW19084   2.717   2.485   0.413
 6062SOL    HW119085   2.688   2.389   0.413
 6062SOL    HW219086   2.731   2.515   0.508
 6063SOL     OW19087   3.947   4.750   5.928
 6063SOL    HW119088   3.947   4.797   6.016
 6063SOL    HW219089   3.868   4.779   5.875
 6064SOL     OW19090   0.147   0.238   0.820
 6064SOL    HW119091   0.227   0.188   0.786
 6064SOL    HW219092   0.178   0.317   0.873
 6065SOL     OW19093   0.731   4.788   2.351
 6065SOL    HW119094   0.786   4.772   2.270
 6065SOL    HW219095   0.763   4.870   2.398
 6066SOL     OW19096   4.874   0.642   3.628
 6066SOL    HW119097   4.799   0.697   3.664
 6066SOL    HW219098   4.839   0.555   3.593
 6067SOL     OW19099   6.117   6.939   5.694
 6067SOL    HW119100   6.197   6.880   5.702
 6067SOL    HW219101   6.116   7.005   5.769
 6068SOL     OW19102   4.891   1.354   5.396
 6068SOL    HW119103   4.943   1.333   5.479
 6068SOL    HW219104   4.860   1.268   5.354
 6069SOL     OW19105   0.134   2.701   5.742
 6069SOL    HW119106   0.086   2.693   5.655
 6069SOL    HW219107   0.145   2.611   5.783
 6070SOL     OW19108   3.560   1.928   1.449
 6070SOL    HW119109   3.654   1.931   1.415
 6070SOL    HW219110   3.558   1.956   1.545
 6071SOL     OW19111   6.357   6.151   5.091
 6071SOL    HW119112   6.298   6.200   5.156
 6071SOL    HW219113   6.447   6.195   5.087
 6072SOL     OW19114   0.410   2.481   1.009
 6072SOL    HW119115   0.463   2.487   0.925
 6072SOL    HW219116   0.447   2.409   1.067
 6073SOL     OW19117   4.559   2.603   0.543
 6073SOL    HW119118   4.609   2.524   0.578
 6073SOL    HW219119   4.529   2.584   0.450
 6074SOL     OW19120   1.103   6.349   2.477
 6074SOL    HW119121   1.177   6.310   2.422
 6074SOL    HW219122   1.032   6.281   2.491
 6075SOL     OW19123   4.300   6.339   6.456
 6075SOL    HW119124   4.201   6.333   6.452
 6075SOL    HW219125   4.330   6.337   6.552
 6076SOL     OW19126   2.503   4.553   3.834
 6076SOL    HW119127   2.446   4.622   3.790
 6076SOL    HW219128   2.570   4.597   3.893
 6077SOL     OW19129   6.219   6.678   1.339
 6077SOL    HW119130   6.247   6.612   1.269
 6077SOL    HW219131   6.261   6.767   1.320
 6078SOL     OW19132   4.605   4.194   0.318
 6078SOL    HW119133   4.641   4.166   0.229
 6078SOL    HW219134   4.507   4.175   0.322
 6079SOL     OW19135   4.554   4.101   6.330
 6079SOL    HW119136   4.565   4.027   6.397
 6079SOL    HW219137   4.590   4.186   6.369
 6080SOL     OW19138   1.611   4.631   0.806
 6080SOL    HW119139   1.542   4.686   0.759
 6080SOL    HW219140   1.629   4.670   0.896
 6081SOL     OW19141   0.420   3.495   4.818
 6081SOL    HW119142   0.463   3.504   4.907
 6081SOL    HW219143   0.445   3.573   4.761
 6082SOL     OW19144   4.550   0.710   1.006
 6082SOL    HW119145   4.543   0.726   0.907
 6082SOL    HW219146   4.463   0.676   1.040
 6083SOL     OW19147   5.218   5.971   6.604
 6083SOL    HW119148   5.299   5.977   6.661
 6083SOL    HW219149   5.175   5.881   6.617
 6084SOL     OW19150   0.602   6.958   2.405
 6084SOL    HW119151   0.505   6.961   2.429
 6084SOL    HW219152   0.656   6.928   2.484
 6085SOL     OW19153   6.926   6.322   0.333
 6085SOL    HW119154   6.998   6.253   0.334
 6085SOL    HW219155   6.892   6.334   0.239
 6086SOL     OW19156   3.926   3.360   6.526
 6086SOL    HW119157   3.841   3.307   6.526
 6086SOL    HW219158   4.004   3.300   6.542
 6087SOL     OW19159   4.975   6.552   0.411
 6087SOL    HW119160   5.062   6.587   0.376
 6087SOL    HW219161   4.980   6.545   0.511
 6088SOL     OW19162   5.197   6.328   4.428
 6088SOL    HW119163   5.286   6.343   4.385
 6088SOL    HW219164   5.125   6.337   4.360
 6089SOL     OW19165   6.002   2.429   2.128
 6089SOL    HW119166   6.038   2.506   2.181
 6089SOL    HW219167   5.921   2.458   2.077
 6090SOL     OW19168   3.942   5.302   4.202
 6090SOL    HW119169   4.036   5.327   4.227
 6090SOL    HW219170   3.909   5.231   4.265
 6091SOL     OW19171   2.722   1.064   1.262
 6091SOL    HW119172   2.738   1.161   1.278
 6091SOL    HW219173   2.725   1.015   1.349
 6092SOL     OW19174   4.244   6.845   1.843
 6092SOL    HW119175   4.252   6.770   1.777
 6092SOL    HW219176   4.302   6.921   1.814
 6093SOL     OW19177   2.469   1.592   2.349
 6093SOL    HW119178   2.447   1.608   2.445
 6093SOL    HW219179   2.385   1.586   2.295
 6094SOL     OW19180   0.707   6.895   4.280
 6094SOL    HW119181   0.693   6.951   4.198
 6094SOL    HW219182   0.641   6.922   4.350
 6095SOL     OW19183   4.066   6.005   0.334
 6095SOL    HW119184   4.068   5.965   0.242
 6095SOL    HW219185   4.120   6.088   0.335
 6096SOL     OW19186   5.944   6.691   2.317
 6096SOL    HW119187   5.933   6.705   2.415
 6096SOL    HW219188   5.879   6.622   2.286
 6097SOL     OW19189   1.775   5.597   2.321
 6097SOL    HW119190   1.699   5.592   2.256
 6097SOL    HW219191   1.850   5.540   2.288
 6098SOL     OW19192   6.830   0.826   4.852
 6098SOL    HW119193   6.892   0.891   4.809
 6098SOL    HW219194   6.751   0.810   4.793
 6099SOL     OW19195   5.298   5.549   5.872
 6099SOL    HW119196   5.374   5.511   5.819
 6099SOL    HW219197   5.240   5.603   5.812
 6100SOL     OW19198   6.714   5.448   3.796
 6100SOL    HW119199   6.704   5.373   3.861
 6100SOL    HW219200   6.672   5.530   3.834
 6101SOL     OW19201   6.182   2.530   0.980
 6101SOL    HW119202   6.270   2.512   1.023
 6101SOL    HW219203   6.186   2.506   0.883
 6102SOL     OW19204   4.179   6.440   2.283
 6102SOL    HW119205   4.265   6.392   2.304
 6102SOL    HW219206   4.148   6.415   2.191
 6103SOL     OW19207   6.372   1.331   1.968
 6103SOL    HW119208   6.467   1.312   1.946
 6103SOL    HW219209   6.352   1.428   1.949
 6104SOL     OW19210   5.744   0.966   4.773
 6104SOL    HW119211   5.752   0.909   4.692
 6104SOL    HW219212   5.702   0.913   4.847
 6105SOL     OW19213   3.001   6.067   6.462
 6105SOL    HW119214   2.981   6.015   6.379
 6105SOL    HW219215   2.932   6.139   6.473
 6106SOL     OW19216   0.770   3.683   6.933
 6106SOL    HW119217   0.857   3.691   6.981
 6106SOL    HW219218   0.753   3.765   6.879
 6107SOL     OW19219   4.769   4.685   4.808
 6107SOL    HW119220   4.781   4.759   4.874
 6107SOL    HW219221   4.674   4.682   4.778
 6108SOL     OW19222   1.359   1.016   1.645
 6108SOL    HW119223   1.330   1.031   1.740
 6108SOL    HW219224   1.452   1.051   1.633
 6109SOL     OW19225   5.247   6.908   3.169
 6109SOL    HW119226   5.204   6.949   3.250
 6109SOL    HW219227   5.304   6.977   3.124
 6110SOL     OW19228   0.520   2.070   5.597
 6110SOL    HW119229   0.587   2.025   5.538
 6110SOL    HW219230   0.427   2.049   5.564
 6111SOL     OW19231   1.245   3.821   1.708
 6111SOL    HW119232   1.333   3.863   1.729
 6111SOL    HW219233   1.253   3.722   1.716
 6112SOL     OW19234   3.998   0.431   2.402
 6112SOL    HW119235   4.046   0.420   2.489
 6112SOL    HW219236   4.012   0.350   2.346
 6113SOL     OW19237   2.160   5.200   0.212
 6113SOL    HW119238   2.090   5.267   0.188
 6113SOL    HW219239   2.172   5.197   0.311
 6114SOL     OW19240   4.805   1.778   1.334
 6114SOL    HW119241   4.808   1.766   1.433
 6114SOL    HW219242   4.898   1.790   1.299
 6115SOL     OW19243   1.173   1.475   5.130
 6115SOL    HW119244   1.250   1.473   5.194
 6115SOL    HW219245   1.096   1.427   5.170
 6116SOL     OW19246   3.950   2.195   5.142
 6116SOL    HW119247   3.851   2.186   5.134
 6116SOL    HW219248   3.987   2.114   5.189
 6117SOL     OW19249   1.550   1.730   3.020
 6117SOL    HW119250   1.636   1.780   3.017
 6117SOL    HW219251   1.553   1.653   2.956
 6118SOL     OW19252   5.810   1.264   0.647
 6118SOL    HW119253   5.783   1.170   0.666
 6118SOL    HW219254   5.874   1.266   0.570
 6119SOL     OW19255   0.347   2.138   0.577
 6119SOL    HW119256   0.384   2.215   0.526
 6119SOL    HW219257   0.293   2.171   0.654
 6120SOL     OW19258   2.524   6.389   5.809
 6120SOL    HW119259   2.572   6.442   5.879
 6120SOL    HW219260   2.437   6.356   5.845
 6121SOL     OW19261   0.802   3.718   5.145
 6121SOL    HW119262   0.775   3.783   5.216
 6121SOL    HW219263   0.843   3.637   5.188
 6122SOL     OW19264   5.146   5.956   5.440
 6122SOL    HW119265   5.154   5.980   5.344
 6122SOL    HW219266   5.204   5.877   5.460
 6123SOL     OW19267   5.660   1.213   5.361
 6123SOL    HW119268   5.607   1.253   5.436
 6123SOL    HW219269   5.610   1.222   5.275
 6124SOL     OW19270   2.208   0.082   4.858
 6124SOL    HW119271   2.146   0.117   4.928
 6124SOL    HW219272   2.219   7.003   4.869
 6125SOL     OW19273   2.427   3.864   0.269
 6125SOL    HW119274   2.364   3.808   0.215
 6125SOL    HW219275   2.517   3.864   0.225
 6126SOL     OW19276   0.433   2.501   4.668
 6126SOL    HW119277   0.380   2.574   4.709
 6126SOL    HW219278   0.418   2.501   4.569
 6127SOL     OW19279   4.439   1.217   2.176
 6127SOL    HW119280   4.350   1.209   2.130
 6127SOL    HW219281   4.453   1.311   2.206
 6128SOL     OW19282   5.624   5.819   0.983
 6128SOL    HW119283   5.634   5.808   0.884
 6128SOL    HW219284   5.701   5.870   1.019
 6129SOL     OW19285   1.787   4.655   3.088
 6129SOL    HW119286   1.773   4.559   3.066
 6129SOL    HW219287   1.818   4.664   3.183
 6130SOL     OW19288   5.026   2.822   1.466
 6130SOL    HW119289   5.051   2.734   1.426
 6130SOL    HW219290   4.926   2.826   1.476
 6131SOL     OW19291   0.360   2.124   2.451
 6131SOL    HW119292   0.261   2.120   2.463
 6131SOL    HW219293   0.398   2.198   2.507
 6132SOL     OW19294   3.431   1.279   6.612
 6132SOL    HW119295   3.526   1.273   6.581
 6132SOL    HW219296   3.370   1.287   6.533
 6133SOL     OW19297   1.459   2.755   3.728
 6133SOL    HW119298   1.432   2.851   3.721
 6133SOL    HW219299   1.482   2.734   3.823
 6134SOL     OW19300   5.340   5.863   6.352
 6134SOL    HW119301   5.348   5.923   6.431
 6134SOL    HW219302   5.402   5.895   6.280
 6135SOL     OW19303   5.522   0.323   0.085
 6135SOL    HW119304   5.581   0.251   0.122
 6135SOL    HW219305   5.427   0.303   0.108
 6136SOL     OW19306   1.078   3.021   1.511
 6136SOL    HW119307   1.151   2.974   1.461
 6136SOL    HW219308   1.041   3.094   1.454
 6137SOL     OW19309   0.589   4.544   3.329
 6137SOL    HW119310   0.583   4.498   3.417
 6137SOL    HW219311   0.685   4.547   3.299
 6138SOL     OW19312   3.706   0.360   2.308
 6138SOL    HW119313   3.679   0.271   2.344
 6138SOL    HW219314   3.803   0.376   2.324
 6139SOL     OW19315   1.095   6.797   5.527
 6139SOL    HW119316   1.178   6.845   5.497
 6139SOL    HW219317   1.109   6.760   5.619
 6140SOL     OW19318   1.627   0.233   3.500
 6140SOL    HW119319   1.635   0.287   3.417
 6140SOL    HW219320   1.532   0.234   3.532
 6141SOL     OW19321   0.376   0.580   5.774
 6141SOL    HW119322   0.423   0.563   5.688
 6141SOL    HW219323   0.310   0.655   5.762
 6142SOL     OW19324   0.674   1.056   0.735
 6142SOL    HW119325   0.642   1.149   0.716
 6142SOL    HW219326   0.673   1.040   0.834
 6143SOL     OW19327   6.489   3.914   6.533
 6143SOL    HW119328   6.565   3.899   6.470
 6143SOL    HW219329   6.496   4.006   6.572
 6144SOL     OW19330   4.471   4.573   2.789
 6144SOL    HW119331   4.423   4.608   2.709
 6144SOL    HW219332   4.515   4.486   2.766
 6145SOL     OW19333   5.123   3.710   3.957
 6145SOL    HW119334   5.048   3.775   3.944
 6145SOL    HW219335   5.093   3.618   3.932
 6146SOL     OW19336   3.437   0.280   4.171
 6146SOL    HW119337   3.407   0.371   4.143
 6146SOL    HW219338   3.522   0.257   4.125
 6147SOL     OW19339   2.386   2.809   4.492
 6147SOL    HW119340   2.412   2.903   4.471
 6147SOL    HW219341   2.398   2.791   4.589
 6148SOL     OW19342   4.104   4.921   0.136
 6148SOL    HW119343   4.036   4.950   0.069
 6148SOL    HW219344   4.098   4.822   0.149
 6149SOL     OW19345   2.844   0.784   2.477
 6149SOL    HW119346   2.808   0.812   2.388
 6149SOL    HW219347   2.928   0.731   2.464
 6150SOL     OW19348   6.489   4.178   6.625
 6150SOL    HW119349   6.582   4.190   6.661
 6150SOL    HW219350   6.422   4.196   6.697
 6151SOL     OW19351   5.428   4.877   4.221
 6151SOL    HW119352   5.468   4.944   4.158
 6151SOL    HW219353   5.402   4.795   4.170
 6152SOL     OW19354   0.934   5.441   4.135
 6152SOL    HW119355   0.964   5.525   4.089
 6152SOL    HW219356   0.843   5.455   4.174
 6153SOL     OW19357   4.828   5.216   1.024
 6153SOL    HW119358   4.865   5.208   1.117
 6153SOL    HW219359   4.729   5.228   1.028
 6154SOL     OW19360   5.237   3.182   2.050
 6154SOL    HW119361   5.235   3.181   1.950
 6154SOL    HW219362   5.310   3.244   2.081
 6155SOL     OW19363   2.474   1.355   3.231
 6155SOL    HW119364   2.553   1.326   3.287
 6155SOL    HW219365   2.449   1.448   3.255
 6156SOL     OW19366   5.581   4.325   1.109
 6156SOL    HW119367   5.555   4.234   1.076
 6156SOL    HW219368   5.569   4.392   1.036
 6157SOL     OW19369   0.657   2.323   3.124
 6157SOL    HW119370   0.718   2.316   3.202
 6157SOL    HW219371   0.580   2.260   3.136
 6158SOL     OW19372   3.103   2.527   5.842
 6158SOL    HW119373   3.145   2.550   5.754
 6158SOL    HW219374   3.163   2.554   5.917
 6159SOL     OW19375   5.400   2.675   6.875
 6159SOL    HW119376   5.439   2.666   6.967
 6159SOL    HW219377   5.433   2.601   6.817
 6160SOL     OW19378   0.565   0.241   6.745
 6160SOL    HW119379   0.551   0.325   6.693
 6160SOL    HW219380   0.647   0.195   6.712
 6161SOL     OW19381   5.015   2.787   6.728
 6161SOL    HW119382   4.917   2.771   6.719
 6161SOL    HW219383   5.055   2.799   6.638
 6162SOL     OW19384   6.199   6.350   2.667
 6162SOL    HW119385   6.137   6.272   2.676
 6162SOL    HW219386   6.245   6.345   2.578
 6163SOL     OW19387   5.492   6.140   3.097
 6163SOL    HW119388   5.527   6.162   3.188
 6163SOL    HW219389   5.524   6.208   3.031
 6164SOL     OW19390   3.536   3.958   4.443
 6164SOL    HW119391   3.542   4.032   4.376
 6164SOL    HW219392   3.474   3.985   4.517
 6165SOL     OW19393   3.846   2.450   0.073
 6165SOL    HW119394   3.852   2.363   0.024
 6165SOL    HW219395   3.890   2.442   0.162
 6166SOL     OW19396   0.133   2.099   0.062
 6166SOL    HW119397   0.158   2.111   0.157
 6166SOL    HW219398   0.084   2.180   0.029
 6167SOL     OW19399   1.789   4.663   3.379
 6167SOL    HW119400   1.863   4.714   3.423
 6167SOL    HW219401   1.703   4.713   3.390
 6168SOL     OW19402   0.143   2.756   4.037
 6168SOL    HW119403   0.233   2.750   4.079
 6168SOL    HW219404   0.096   2.668   4.046
 6169SOL     OW19405   1.142   0.234   6.659
 6169SOL    HW119406   1.079   0.303   6.694
 6169SOL    HW219407   1.234   0.252   6.694
 6170SOL     OW19408   3.743   4.606   0.132
 6170SOL    HW119409   3.722   4.581   0.038
 6170SOL    HW219410   3.684   4.554   0.194
 6171SOL     OW19411   0.598   4.296   2.468
 6171SOL    HW119412   0.665   4.226   2.493
 6171SOL    HW219413   0.643   4.385   2.466
 6172SOL     OW19414   0.795   0.583   2.896
 6172SOL    HW119415   0.721   0.521   2.921
 6172SOL    HW219416   0.761   0.653   2.834
 6173SOL     OW19417   0.823   4.730   2.944
 6173SOL    HW119418   0.882   4.753   3.021
 6173SOL    HW219419   0.857   4.648   2.898
 6174SOL     OW19420   6.016   4.737   2.657
 6174SOL    HW119421   6.041   4.643   2.678
 6174SOL    HW219422   6.057   4.764   2.571
 6175SOL     OW19423   5.871   6.080   2.353
 6175SOL    HW119424   5.820   6.061   2.268
 6175SOL    HW219425   5.837   6.021   2.426
 6176SOL     OW19426   5.971   3.229   6.463
 6176SOL    HW119427   5.906   3.177   6.407
 6176SOL    HW219428   5.920   3.284   6.529
 6177SOL     OW19429   4.890   1.155   1.720
 6177SOL    HW119430   4.911   1.243   1.676
 6177SOL    HW219431   4.975   1.109   1.745
 6178SOL     OW19432   4.998   4.784   1.112
 6178SOL    HW119433   5.052   4.863   1.084
 6178SOL    HW219434   5.056   4.703   1.113
 6179SOL     OW19435   6.995   3.248   4.290
 6179SOL    HW119436   6.990   3.183   4.214
 6179SOL    HW219437   6.938   3.216   4.365
 6180SOL     OW19438   3.263   6.821   1.003
 6180SOL    HW119439   3.353   6.832   1.045
 6180SOL    HW219440   3.240   6.724   0.997
 6181SOL     OW19441   5.106   6.192   0.020
 6181SOL    HW119442   5.071   6.103   7.011
 6181SOL    HW219443   5.200   6.182   0.051
 6182SOL     OW19444   5.323   5.339   5.214
 6182SOL    HW119445   5.300   5.366   5.121
 6182SOL    HW219446   5.271   5.257   5.239
 6183SOL     OW19447   2.079   0.352   2.757
 6183SOL    HW119448   2.039   0.329   2.668
 6183SOL    HW219449   2.151   0.420   2.743
 6184SOL     OW19450   1.536   6.984   0.096
 6184SOL    HW119451   1.561   0.040   0.155
 6184SOL    HW219452   1.613   6.920   0.090
 6185SOL     OW19453   0.710   3.969   0.137
 6185SOL    HW119454   0.612   3.961   0.157
 6185SOL    HW219455   0.757   3.886   0.167
 6186SOL     OW19456   5.824   0.193   3.927
 6186SOL    HW119457   5.871   0.118   3.975
 6186SOL    HW219458   5.733   0.162   3.899
 6187SOL     OW19459   5.091   4.788   3.485
 6187SOL    HW119460   5.045   4.872   3.457
 6187SOL    HW219461   5.044   4.709   3.446
 6188SOL     OW19462   2.331   6.379   1.386
 6188SOL    HW119463   2.270   6.457   1.395
 6188SOL    HW219464   2.421   6.410   1.356
 6189SOL     OW19465   4.887   4.673   2.505
 6189SOL    HW119466   4.867   4.596   2.566
 6189SOL    HW219467   4.818   4.744   2.518
 6190SOL     OW19468   5.184   3.075   5.971
 6190SOL    HW119469   5.091   3.092   5.940
 6190SOL    HW219470   5.213   2.984   5.942
 6191SOL     OW19471   5.299   2.466   0.672
 6191SOL    HW119472   5.216   2.456   0.617
 6191SOL    HW219473   5.373   2.411   0.632
 6192SOL     OW19474   2.941   4.025   0.262
 6192SOL    HW119475   3.010   4.095   0.280
 6192SOL    HW219476   2.880   4.057   0.189
 6193SOL     OW19477   4.996   6.873   2.069
 6193SOL    HW119478   5.004   6.950   2.006
 6193SOL    HW219479   4.982   6.788   2.016
 6194SOL     OW19480   2.310   0.463   1.083
 6194SOL    HW119481   2.331   0.368   1.062
 6194SOL    HW219482   2.317   0.518   1.000
 6195SOL     OW19483   4.224   5.499   6.416
 6195SOL    HW119484   4.310   5.540   6.388
 6195SOL    HW219485   4.176   5.462   6.336
 6196SOL     OW19486   0.721   2.749   6.396
 6196SOL    HW119487   0.634   2.781   6.358
 6196SOL    HW219488   0.703   2.695   6.478
 6197SOL     OW19489   2.699   4.071   1.109
 6197SOL    HW119490   2.658   4.055   1.199
 6197SOL    HW219491   2.750   4.157   1.110
 6198SOL     OW19492   3.512   5.702   3.286
 6198SOL    HW119493   3.533   5.798   3.268
 6198SOL    HW219494   3.414   5.691   3.304
 6199SOL     OW19495   0.857   0.267   0.987
 6199SOL    HW119496   0.902   0.322   1.057
 6199SOL    HW219497   0.874   0.170   1.005
 6200SOL     OW19498   2.647   0.980   6.500
 6200SOL    HW119499   2.558   0.993   6.544
 6200SOL    HW219500   2.655   0.886   6.468
 6201SOL     OW19501   1.738   4.546   6.284
 6201SOL    HW119502   1.783   4.617   6.230
 6201SOL    HW219503   1.665   4.504   6.230
 6202SOL     OW19504   4.101   1.767   1.677
 6202SOL    HW119505   4.087   1.668   1.668
 6202SOL    HW219506   4.093   1.810   1.587
 6203SOL     OW19507   4.852   0.834   3.880
 6203SOL    HW119508   4.859   0.906   3.948
 6203SOL    HW219509   4.906   0.755   3.909
 6204SOL     OW19510   1.066   5.203   5.363
 6204SOL    HW119511   0.982   5.225   5.313
 6204SOL    HW219512   1.073   5.104   5.376
 6205SOL     OW19513   5.679   5.655   6.773
 6205SOL    HW119514   5.743   5.703   6.712
 6205SOL    HW219515   5.719   5.649   6.864
 6206SOL     OW19516   6.809   0.719   2.356
 6206SOL    HW119517   6.774   0.749   2.445
 6206SOL    HW219518   6.900   0.681   2.368
 6207SOL     OW19519   1.098   4.061   5.278
 6207SOL    HW119520   1.082   3.978   5.224
 6207SOL    HW219521   1.041   4.135   5.242
 6208SOL     OW19522   6.487   0.189   5.677
 6208SOL    HW119523   6.430   0.246   5.736
 6208SOL    HW219524   6.428   0.126   5.624
 6209SOL     OW19525   4.319   5.903   0.440
 6209SOL    HW119526   4.380   5.971   0.480
 6209SOL    HW219527   4.225   5.924   0.467
 6210SOL     OW19528   5.575   3.688   2.689
 6210SOL    HW119529   5.501   3.665   2.751
 6210SOL    HW219530   5.539   3.701   2.597
 6211SOL     OW19531   2.852   0.225   6.288
 6211SOL    HW119532   2.951   0.223   6.300
 6211SOL    HW219533   2.808   0.245   6.375
 6212SOL     OW19534   6.807   6.019   3.858
 6212SOL    HW119535   6.882   6.073   3.897
 6212SOL    HW219536   6.838   5.926   3.840
 6213SOL     OW19537   5.963   0.681   6.694
 6213SOL    HW119538   5.985   0.702   6.599
 6213SOL    HW219539   5.927   0.588   6.700
 6214SOL     OW19540   6.170   5.377   2.686
 6214SOL    HW119541   6.086   5.402   2.733
 6214SOL    HW219542   6.242   5.443   2.709
 6215SOL     OW19543   3.192   1.633   0.008
 6215SOL    HW119544   3.147   1.700   0.068
 6215SOL    HW219545   3.223   1.679   6.945
 6216SOL     OW19546   6.391   2.166   1.628
 6216SOL    HW119547   6.379   2.209   1.539
 6216SOL    HW219548   6.301   2.144   1.667
 6217SOL     OW19549   4.761   2.876   1.533
 6217SOL    HW119550   4.786   2.942   1.604
 6217SOL    HW219551   4.722   2.924   1.455
 6218SOL     OW19552   3.222   4.944   4.535
 6218SOL    HW119553   3.250   5.028   4.581
 6218SOL    HW219554   3.295   4.876   4.544
 6219SOL     OW19555   1.566   2.299   5.014
 6219SOL    HW119556   1.521   2.314   5.101
 6219SOL    HW219557   1.567   2.201   4.993
 6220SOL     OW19558   1.665   4.593   5.496
 6220SOL    HW119559   1.684   4.591   5.594
 6220SOL    HW219560   1.743   4.556   5.446
 6221SOL     OW19561   4.775   4.942   4.867
 6221SOL    HW119562   4.795   4.980   4.777
 6221SOL    HW219563   4.809   5.004   4.937
 6222SOL     OW19564   0.598   0.347   1.593
 6222SOL    HW119565   0.575   0.368   1.688
 6222SOL    HW219566   0.587   0.429   1.536
 6223SOL     OW19567   5.587   3.926   4.318
 6223SOL    HW119568   5.669   3.972   4.284
 6223SOL    HW219569   5.589   3.924   4.418
 6224SOL     OW19570   2.113   1.410   6.129
 6224SOL    HW119571   2.151   1.320   6.108
 6224SOL    HW219572   2.159   1.479   6.074
 6225SOL     OW19573   3.683   3.522   1.214
 6225SOL    HW119574   3.655   3.572   1.296
 6225SOL    HW219575   3.641   3.563   1.134
 6226SOL     OW19576   5.937   1.436   3.832
 6226SOL    HW119577   5.965   1.521   3.789
 6226SOL    HW219578   5.994   1.419   3.913
 6227SOL     OW19579   2.881   4.740   5.903
 6227SOL    HW119580   2.890   4.642   5.884
 6227SOL    HW219581   2.858   4.752   6.000
 6228SOL     OW19582   6.797   2.082   3.428
 6228SOL    HW119583   6.821   2.178   3.440
 6228SOL    HW219584   6.737   2.073   3.348
 6229SOL     OW19585   2.541   1.787   3.076
 6229SOL    HW119586   2.470   1.717   3.064
 6229SOL    HW219587   2.605   1.782   2.999
 6230SOL     OW19588   2.089   1.284   4.568
 6230SOL    HW119589   2.136   1.345   4.631
 6230SOL    HW219590   2.156   1.226   4.521
 6231SOL     OW19591   6.836   4.436   1.055
 6231SOL    HW119592   6.870   4.370   0.988
 6231SOL    HW219593   6.753   4.480   1.019
 6232SOL     OW19594   6.896   1.110   0.252
 6232SOL    HW119595   6.893   1.210   0.248
 6232SOL    HW219596   6.945   1.082   0.334
 6233SOL     OW19597   5.434   1.995   6.851
 6233SOL    HW119598   5.530   1.992   6.878
 6233SOL    HW219599   5.426   1.986   6.752
 6234SOL     OW19600   1.235   1.383   4.875
 6234SOL    HW119601   1.183   1.378   4.790
 6234SOL    HW219602   1.174   1.408   4.950
 6235SOL     OW19603   1.778   6.710   3.275
 6235SOL    HW119604   1.826   6.639   3.326
 6235SOL    HW219605   1.821   6.799   3.294
 6236SOL     OW19606   6.888   4.728   1.480
 6236SOL    HW119607   6.880   4.729   1.380
 6236SOL    HW219608   6.949   4.653   1.508
 6237SOL     OW19609   4.619   5.983   0.476
 6237SOL    HW119610   4.651   5.905   0.529
 6237SOL    HW219611   4.692   6.051   0.470
 6238SOL     OW19612   4.680   5.651   2.031
 6238SOL    HW119613   4.779   5.645   2.014
 6238SOL    HW219614   4.662   5.724   2.096
 6239SOL     OW19615   2.716   6.252   2.370
 6239SOL    HW119616   2.747   6.194   2.445
 6239SOL    HW219617   2.787   6.256   2.300
 6240SOL     OW19618   2.898   2.432   1.138
 6240SOL    HW119619   2.851   2.367   1.077
 6240SOL    HW219620   2.898   2.395   1.231
 6241SOL     OW19621   2.967   1.037   2.260
 6241SOL    HW119622   2.984   1.039   2.359
 6241SOL    HW219623   2.882   0.989   2.241
 6242SOL     OW19624   5.505   1.363   3.714
 6242SOL    HW119625   5.546   1.448   3.681
 6242SOL    HW219626   5.459   1.316   3.639
 6243SOL     OW19627   6.091   6.674   3.517
 6243SOL    HW119628   6.085   6.730   3.435
 6243SOL    HW219629   6.102   6.733   3.597
 6244SOL     OW19630   2.318   2.302   1.946
 6244SOL    HW119631   2.281   2.210   1.955
 6244SOL    HW219632   2.347   2.335   2.036
 6245SOL     OW19633   2.936   4.270   1.438
 6245SOL    HW119634   2.969   4.223   1.519
 6245SOL    HW219635   2.838   4.289   1.448
 6246SOL     OW19636   2.762   2.842   6.617
 6246SOL    HW119637   2.845   2.796   6.648
 6246SOL    HW219638   2.718   2.788   6.546
 6247SOL     OW19639   0.152   0.133   3.504
 6247SOL    HW119640   0.221   0.200   3.479
 6247SOL    HW219641   0.126   0.145   3.600
 6248SOL     OW19642   0.697   4.075   1.100
 6248SOL    HW119643   0.607   4.119   1.103
 6248SOL    HW219644   0.695   3.993   1.157
 6249SOL     OW19645   0.190   4.633   0.255
 6249SOL    HW119646   0.210   4.585   0.340
 6249SOL    HW219647   0.213   4.730   0.265
 6250SOL     OW19648   7.001   6.357   1.098
 6250SOL    HW119649   6.994   6.455   1.082
 6250SOL    HW219650   6.910   6.318   1.110
 6251SOL     OW19651   4.209   0.365   1.427
 6251SOL    HW119652   4.234   0.402   1.516
 6251SOL    HW219653   4.146   0.288   1.440
 6252SOL     OW19654   2.536   5.952   5.150
 6252SOL    HW119655   2.516   5.854   5.151
 6252SOL    HW219656   2.461   6.001   5.195
 6253SOL     OW19657   2.126   4.192   2.318
 6253SOL    HW119658   2.091   4.114   2.265
 6253SOL    HW219659   2.072   4.273   2.298
 6254SOL     OW19660   5.676   0.281   6.859
 6254SOL    HW119661   5.604   0.309   6.923
 6254SOL    HW219662   5.711   0.192   6.885
 6255SOL     OW19663   1.326   1.386   1.669
 6255SOL    HW119664   1.318   1.436   1.755
 6255SOL    HW219665   1.284   1.296   1.679
 6256SOL     OW19666   4.123   5.346   2.329
 6256SOL    HW119667   4.157   5.295   2.250
 6256SOL    HW219668   4.196   5.353   2.398
 6257SOL     OW19669   5.130   2.274   0.859
 6257SOL    HW119670   5.216   2.322   0.841
 6257SOL    HW219671   5.071   2.332   0.916
 6258SOL     OW19672   4.992   1.123   3.411
 6258SOL    HW119673   4.918   1.126   3.478
 6258SOL    HW219674   5.012   1.216   3.380
 6259SOL     OW19675   3.280   1.950   1.546
 6259SOL    HW119676   3.223   2.026   1.578
 6259SOL    HW219677   3.353   1.986   1.488
 6260SOL     OW19678   3.418   3.979   0.285
 6260SOL    HW119679   3.337   3.920   0.285
 6260SOL    HW219680   3.497   3.927   0.252
 6261SOL     OW19681   3.970   0.006   6.452
 6261SOL    HW119682   3.961   0.047   6.361
 6261SOL    HW219683   3.953   0.076   6.521
 6262SOL     OW19684   1.659   4.402   0.664
 6262SOL    HW119685   1.638   4.428   0.570
 6262SOL    HW219686   1.636   4.478   0.725
 6263SOL     OW19687   0.091   6.002   6.564
 6263SOL    HW119688   0.063   6.068   6.633
 6263SOL    HW219689   0.163   6.042   6.507
 6264SOL     OW19690   1.930   1.046   1.012
 6264SOL    HW119691   1.974   0.961   1.042
 6264SOL    HW219692   1.907   1.101   1.092
 6265SOL     OW19693   3.374   4.464   1.234
 6265SOL    HW119694   3.412   4.454   1.142
 6265SOL    HW219695   3.287   4.414   1.239
 6266SOL     OW19696   3.672   0.769   4.312
 6266SOL    HW119697   3.690   0.674   4.289
 6266SOL    HW219698   3.597   0.803   4.255
 6267SOL     OW19699   3.104   0.329   0.269
 6267SOL    HW119700   3.015   0.373   0.286
 6267SOL    HW219701   3.173   0.399   0.252
 6268SOL     OW19702   2.835   5.251   3.011
 6268SOL    HW119703   2.862   5.253   3.107
 6268SOL    HW219704   2.735   5.258   3.004
 6269SOL     OW19705   5.947   5.769   2.490
 6269SOL    HW119706   5.949   5.675   2.526
 6269SOL    HW219707   5.961   5.766   2.391
 6270SOL     OW19708   2.047   0.332   6.255
 6270SOL    HW119709   2.043   0.373   6.164
 6270SOL    HW219710   1.961   0.347   6.303
 6271SOL     OW19711   0.011   2.624   5.501
 6271SOL    HW119712   6.993   2.548   5.553
 6271SOL    HW219713   0.099   2.596   5.461
 6272SOL     OW19714   0.797   3.356   4.016
 6272SOL    HW119715   0.771   3.451   3.999
 6272SOL    HW219716   0.756   3.325   4.101
 6273SOL     OW19717   1.287   0.990   1.973
 6273SOL    HW119718   1.285   0.901   1.927
 6273SOL    HW219719   1.314   0.978   2.068
 6274SOL     OW19720   2.900   5.715   6.481
 6274SOL    HW119721   2.998   5.727   6.462
 6274SOL    HW219722   2.881   5.747   6.574
 6275SOL     OW19723   3.007   6.713   5.515
 6275SOL    HW119724   3.085   6.651   5.527
 6275SOL    HW219725   2.971   6.738   5.605
 6276SOL     OW19726   0.854   4.778   3.490
 6276SOL    HW119727   0.915   4.854   3.511
 6276SOL    HW219728   0.768   4.814   3.452
 6277SOL     OW19729   4.746   2.656   2.596
 6277SOL    HW119730   4.686   2.644   2.517
 6277SOL    HW219731   4.841   2.663   2.565
 6278SOL     OW19732   4.758   0.361   3.868
 6278SOL    HW119733   4.659   0.371   3.878
 6278SOL    HW219734   4.794   0.302   3.940
 6279SOL     OW19735   3.773   1.506   0.667
 6279SOL    HW119736   3.739   1.529   0.576
 6279SOL    HW219737   3.696   1.499   0.731
 6280SOL     OW19738   0.057   3.075   5.826
 6280SOL    HW119739   0.024   2.983   5.841
 6280SOL    HW219740   0.157   3.075   5.827
 6281SOL     OW19741   2.854   6.864   5.704
 6281SOL    HW119742   2.825   6.957   5.682
 6281SOL    HW219743   2.784   6.799   5.673
 6282SOL     OW19744   1.127   6.876   5.207
 6282SOL    HW119745   1.061   6.935   5.253
 6282SOL    HW219746   1.212   6.873   5.260
 6283SOL     OW19747   6.304   2.481   4.904
 6283SOL    HW119748   6.261   2.406   4.854
 6283SOL    HW219749   6.235   2.529   4.958
 6284SOL     OW19750   1.863   5.459   5.188
 6284SOL    HW119751   1.793   5.406   5.235
 6284SOL    HW219752   1.865   5.434   5.092
 6285SOL     OW19753   1.504   2.907   4.412
 6285SOL    HW119754   1.591   2.944   4.443
 6285SOL    HW219755   1.439   2.983   4.399
 6286SOL     OW19756   5.765   1.408   3.482
 6286SOL    HW119757   5.795   1.342   3.551
 6286SOL    HW219758   5.740   1.360   3.398
 6287SOL     OW19759   4.320   4.590   2.035
 6287SOL    HW119760   4.249   4.594   1.965
 6287SOL    HW219761   4.371   4.504   2.025
 6288SOL     OW19762   5.381   4.376   1.310
 6288SOL    HW119763   5.414   4.311   1.379
 6288SOL    HW219764   5.449   4.385   1.237
 6289SOL     OW19765   1.781   2.713   3.659
 6289SOL    HW119766   1.810   2.679   3.748
 6289SOL    HW219767   1.682   2.701   3.649
 6290SOL     OW19768   5.158   4.176   4.078
 6290SOL    HW119769   5.075   4.134   4.113
 6290SOL    HW219770   5.200   4.114   4.011
 6291SOL     OW19771   3.601   3.501   3.635
 6291SOL    HW119772   3.653   3.436   3.690
 6291SOL    HW219773   3.663   3.550   3.574
 6292SOL     OW19774   0.710   2.583   3.165
 6292SOL    HW119775   0.670   2.499   3.126
 6292SOL    HW219776   0.806   2.567   3.187
 6293SOL     OW19777   5.040   6.694   0.097
 6293SOL    HW119778   5.104   6.695   0.173
 6293SOL    HW219779   5.075   6.634   0.024
 6294SOL     OW19780   3.292   5.426   2.853
 6294SOL    HW119781   3.298   5.521   2.884
 6294SOL    HW219782   3.373   5.403   2.799
 6295SOL     OW19783   5.265   5.478   5.435
 6295SOL    HW119784   5.287   5.445   5.344
 6295SOL    HW219785   5.174   5.519   5.435
 6296SOL     OW19786   6.392   0.481   4.108
 6296SOL    HW119787   6.443   0.485   4.194
 6296SOL    HW219788   6.305   0.434   4.123
 6297SOL     OW19789   5.548   6.552   5.948
 6297SOL    HW119790   5.585   6.463   5.922
 6297SOL    HW219791   5.613   6.624   5.922
 6298SOL     OW19792   1.041   3.731   5.951
 6298SOL    HW119793   0.967   3.788   5.987
 6298SOL    HW219794   1.107   3.790   5.903
 6299SOL     OW19795   6.162   2.199   6.277
 6299SOL    HW119796   6.251   2.179   6.319
 6299SOL    HW219797   6.105   2.116   6.278
 6300SOL     OW19798   5.369   0.269   4.589
 6300SOL    HW119799   5.284   0.275   4.642
 6300SOL    HW219800   5.435   0.211   4.637
 6301SOL     OW19801   2.903   6.978   1.072
 6301SOL    HW119802   2.973   0.025   1.048
 6301SOL    HW219803   2.852   7.010   1.152
 6302SOL     OW19804   1.441   0.986   3.796
 6302SOL    HW119805   1.461   0.962   3.701
 6302SOL    HW219806   1.342   0.983   3.811
 6303SOL     OW19807   2.592   0.350   5.006
 6303SOL    HW119808   2.641   0.264   5.023
 6303SOL    HW219809   2.512   0.354   5.065
 6304SOL     OW19810   3.333   0.254   1.005
 6304SOL    HW119811   3.430   0.279   1.012
 6304SOL    HW219812   3.296   0.236   1.096
 6305SOL     OW19813   6.274   6.957   1.233
 6305SOL    HW119814   6.204   6.992   1.295
 6305SOL    HW219815   6.351   0.000   1.230
 6306SOL     OW19816   0.128   3.238   3.841
 6306SOL    HW119817   0.127   3.177   3.920
 6306SOL    HW219818   0.107   3.331   3.870
 6307SOL     OW19819   3.319   5.078   5.468
 6307SOL    HW119820   3.285   5.009   5.404
 6307SOL    HW219821   3.248   5.099   5.535
 6308SOL     OW19822   1.876   1.441   5.250
 6308SOL    HW119823   1.975   1.430   5.261
 6308SOL    HW219824   1.835   1.461   5.339
 6309SOL     OW19825   4.746   2.700   3.856
 6309SOL    HW119826   4.787   2.759   3.925
 6309SOL    HW219827   4.815   2.672   3.789
 6310SOL     OW19828   2.091   4.881   4.267
 6310SOL    HW119829   2.128   4.943   4.335
 6310SOL    HW219830   2.146   4.887   4.183
 6311SOL     OW19831   6.747   0.368   5.063
 6311SOL    HW119832   6.841   0.342   5.041
 6311SOL    HW219833   6.734   0.465   5.044
 6312SOL     OW19834   4.478   4.926   6.353
 6312SOL    HW119835   4.438   5.018   6.360
 6312SOL    HW219836   4.577   4.934   6.343
 6313SOL     OW19837   1.944   5.990   3.440
 6313SOL    HW119838   1.904   5.949   3.358
 6313SOL    HW219839   2.026   6.040   3.417
 6314SOL     OW19840   3.524   6.273   2.305
 6314SOL    HW119841   3.453   6.203   2.309
 6314SOL    HW219842   3.614   6.231   2.317
 6315SOL     OW19843   4.296   2.831   6.894
 6315SOL    HW119844   4.268   2.918   6.934
 6315SOL    HW219845   4.388   2.808   6.925
 6316SOL     OW19846   5.087   2.352   6.118
 6316SOL    HW119847   5.049   2.391   6.034
 6316SOL    HW219848   5.029   2.377   6.196
 6317SOL     OW19849   5.313   6.689   2.691
 6317SOL    HW119850   5.262   6.722   2.771
 6317SOL    HW219851   5.262   6.615   2.648
 6318SOL     OW19852   2.564   2.125   6.069
 6318SOL    HW119853   2.512   2.192   6.016
 6318SOL    HW219854   2.504   2.080   6.135
 6319SOL     OW19855   0.600   3.310   3.395
 6319SOL    HW119856   0.500   3.309   3.404
 6319SOL    HW219857   0.624   3.307   3.298
 6320SOL     OW19858   5.852   4.083   2.933
 6320SOL    HW119859   5.805   4.008   2.886
 6320SOL    HW219860   5.832   4.078   3.031
 6321SOL     OW19861   2.746   5.505   0.635
 6321SOL    HW119862   2.803   5.502   0.552
 6321SOL    HW219863   2.788   5.448   0.706
 6322SOL     OW19864   1.482   1.713   6.499
 6322SOL    HW119865   1.426   1.795   6.512
 6322SOL    HW219866   1.468   1.651   6.577
 6323SOL     OW19867   3.511   2.141   1.652
 6323SOL    HW119868   3.577   2.162   1.725
 6323SOL    HW219869   3.438   2.210   1.653
 6324SOL     OW19870   4.578   0.274   5.648
 6324SOL    HW119871   4.481   0.271   5.623
 6324SOL    HW219872   4.629   0.323   5.578
 6325SOL     OW19873   1.161   3.219   2.156
 6325SOL    HW119874   1.248   3.175   2.178
 6325SOL    HW219875   1.097   3.150   2.122
 6326SOL     OW19876   5.534   6.011   0.570
 6326SOL    HW119877   5.518   5.985   0.475
 6326SOL    HW219878   5.626   5.984   0.598
 6327SOL     OW19879   6.285   6.346   5.293
 6327SOL    HW119880   6.346   6.414   5.333
 6327SOL    HW219881   6.221   6.314   5.363
 6328SOL     OW19882   1.649   4.613   6.997
 6328SOL    HW119883   1.687   4.631   0.067
 6328SOL    HW219884   1.712   4.645   6.927
 6329SOL     OW19885   0.998   1.481   3.707
 6329SOL    HW119886   0.975   1.397   3.756
 6329SOL    HW219887   1.057   1.459   3.629
 6330SOL     OW19888   4.656   0.813   0.358
 6330SOL    HW119889   4.724   0.743   0.380
 6330SOL    HW219890   4.702   0.891   0.315
 6331SOL     OW19891   6.368   2.291   1.089
 6331SOL    HW119892   6.356   2.274   1.187
 6331SOL    HW219893   6.335   2.212   1.038
 6332SOL     OW19894   6.153   5.762   1.358
 6332SOL    HW119895   6.137   5.849   1.404
 6332SOL    HW219896   6.247   5.759   1.324
 6333SOL     OW19897   3.392   5.558   3.553
 6333SOL    HW119898   3.369   5.598   3.464
 6333SOL    HW219899   3.332   5.480   3.571
 6334SOL     OW19900   2.385   0.110   2.863
 6334SOL    HW119901   2.460   0.046   2.848
 6334SOL    HW219902   2.385   0.178   2.789
 6335SOL     OW19903   5.900   1.429   0.317
 6335SOL    HW119904   5.811   1.469   0.338
 6335SOL    HW219905   5.910   1.342   0.366
 6336SOL     OW19906   6.745   2.488   4.518
 6336SOL    HW119907   6.678   2.440   4.462
 6336SOL    HW219908   6.725   2.472   4.615
 6337SOL     OW19909   5.463   2.730   5.907
 6337SOL    HW119910   5.529   2.793   5.947
 6337SOL    HW219911   5.386   2.782   5.869
 6338SOL     OW19912   2.702   1.668   2.200
 6338SOL    HW119913   2.782   1.641   2.254
 6338SOL    HW219914   2.619   1.645   2.250
 6339SOL     OW19915   0.630   2.369   3.600
 6339SOL    HW119916   0.563   2.439   3.579
 6339SOL    HW219917   0.597   2.280   3.568
 6340SOL     OW19918   2.535   5.259   3.617
 6340SOL    HW119919   2.504   5.350   3.591
 6340SOL    HW219920   2.525   5.196   3.540
 6341SOL     OW19921   0.189   4.881   3.244
 6341SOL    HW119922   0.267   4.871   3.182
 6341SOL    HW219923   0.214   4.940   3.321
 6342SOL     OW19924   2.344   2.379   2.222
 6342SOL    HW119925   2.265   2.317   2.222
 6342SOL    HW219926   2.414   2.343   2.284
 6343SOL     OW19927   4.360   3.001   6.671
 6343SOL    HW119928   4.330   2.930   6.735
 6343SOL    HW219929   4.411   2.959   6.595
 6344SOL     OW19930   6.710   3.400   5.049
 6344SOL    HW119931   6.725   3.302   5.039
 6344SOL    HW219932   6.785   3.450   5.007
 6345SOL     OW19933   4.099   1.577   2.678
 6345SOL    HW119934   4.018   1.634   2.695
 6345SOL    HW219935   4.121   1.580   2.581
 6346SOL     OW19936   6.171   3.192   3.257
 6346SOL    HW119937   6.102   3.249   3.301
 6346SOL    HW219938   6.126   3.115   3.212
 6347SOL     OW19939   3.062   0.474   1.549
 6347SOL    HW119940   3.008   0.558   1.555
 6347SOL    HW219941   3.053   0.423   1.634
 6348SOL     OW19942   0.677   3.962   4.917
 6348SOL    HW119943   0.718   3.890   4.973
 6348SOL    HW219944   0.707   3.953   4.822
 6349SOL     OW19945   3.231   0.777   1.613
 6349SOL    HW119946   3.263   0.833   1.689
 6349SOL    HW219947   3.308   0.756   1.552
 6350SOL     OW19948   1.290   5.554   3.315
 6350SOL    HW119949   1.204   5.504   3.327
 6350SOL    HW219950   1.353   5.498   3.262
 6351SOL     OW19951   6.364   2.467   2.654
 6351SOL    HW119952   6.283   2.411   2.639
 6351SOL    HW219953   6.409   2.484   2.566
 6352SOL     OW19954   1.324   5.705   3.540
 6352SOL    HW119955   1.386   5.784   3.537
 6352SOL    HW219956   1.317   5.665   3.448
 6353SOL     OW19957   0.271   0.467   6.682
 6353SOL    HW119958   0.184   0.441   6.724
 6353SOL    HW219959   0.338   0.486   6.754
 6354SOL     OW19960   1.090   0.097   2.392
 6354SOL    HW119961   1.106   0.143   2.480
 6354SOL    HW219962   1.054   0.006   2.408
 6355SOL     OW19963   1.381   4.024   4.561
 6355SOL    HW119964   1.341   4.109   4.527
 6355SOL    HW219965   1.354   3.948   4.502
 6356SOL     OW19966   4.773   4.573   1.380
 6356SOL    HW119967   4.836   4.545   1.307
 6356SOL    HW219968   4.812   4.652   1.428
 6357SOL     OW19969   4.121   2.747   0.413
 6357SOL    HW119970   4.097   2.770   0.319
 6357SOL    HW219971   4.166   2.658   0.416
 6358SOL     OW19972   6.932   2.300   4.173
 6358SOL    HW119973   6.951   2.240   4.251
 6358SOL    HW219974   6.977   2.388   4.187
 6359SOL     OW19975   6.671   0.684   5.776
 6359SOL    HW119976   6.738   0.719   5.710
 6359SOL    HW219977   6.684   0.585   5.786
 6360SOL     OW19978   2.344   4.383   3.936
 6360SOL    HW119979   2.416   4.424   3.880
 6360SOL    HW219980   2.290   4.320   3.880
 6361SOL     OW19981   4.788   5.696   6.672
 6361SOL    HW119982   4.822   5.618   6.620
 6361SOL    HW219983   4.820   5.781   6.630
 6362SOL     OW19984   6.233   4.419   6.712
 6362SOL    HW119985   6.235   4.496   6.776
 6362SOL    HW219986   6.225   4.334   6.764
 6363SOL     OW19987   2.351   6.136   4.295
 6363SOL    HW119988   2.283   6.067   4.321
 6363SOL    HW219989   2.371   6.194   4.374
 6364SOL     OW19990   2.851   2.232   5.567
 6364SOL    HW119991   2.924   2.247   5.501
 6364SOL    HW219992   2.830   2.134   5.572
 6365SOL     OW19993   4.951   0.250   3.680
 6365SOL    HW119994   4.939   0.267   3.583
 6365SOL    HW219995   4.876   0.292   3.732
 6366SOL     OW19996   0.904   5.086   5.002
 6366SOL    HW119997   0.994   5.129   5.003
 6366SOL    HW219998   0.883   5.051   5.093
 6367SOL     OW19999   5.119   0.432   3.372
 6367SOL    HW120000   5.165   0.445   3.460
 6367SOL    HW220001   5.123   0.518   3.320
 6368SOL     OW20002   2.936   6.950   4.142
 6368SOL    HW120003   2.959   0.026   4.153
 6368SOL    HW220004   2.908   6.912   4.230
 6369SOL     OW20005   2.760   5.046   4.384
 6369SOL    HW120006   2.840   5.093   4.348
 6369SOL    HW220007   2.734   5.086   4.472
 6370SOL     OW20008   0.091   2.444   2.180
 6370SOL    HW120009   0.132   2.398   2.259
 6370SOL    HW220010   0.082   2.542   2.200
 6371SOL     OW20011   4.750   2.872   3.260
 6371SOL    HW120012   4.767   2.807   3.187
 6371SOL    HW220013   4.738   2.964   3.222
 6372SOL     OW20014   3.325   6.214   1.675
 6372SOL    HW120015   3.297   6.129   1.721
 6372SOL    HW220016   3.244   6.263   1.643
 6373SOL     OW20017   5.714   4.474   5.304
 6373SOL    HW120018   5.686   4.502   5.212
 6373SOL    HW220019   5.702   4.375   5.313
 6374SOL     OW20020   3.022   3.126   3.187
 6374SOL    HW120021   3.028   3.142   3.089
 6374SOL    HW220022   3.079   3.047   3.212
 6375SOL     OW20023   0.898   0.824   2.966
 6375SOL    HW120024   0.971   0.814   2.899
 6375SOL    HW220025   0.860   0.735   2.989
 6376SOL     OW20026   0.352   1.704   4.602
 6376SOL    HW120027   0.412   1.781   4.582
 6376SOL    HW220028   0.404   1.619   4.598
 6377SOL     OW20029   6.794   0.766   5.548
 6377SOL    HW120030   6.881   0.754   5.501
 6377SOL    HW220031   6.735   0.827   5.496
 6378SOL     OW20032   4.777   3.991   3.176
 6378SOL    HW120033   4.709   4.065   3.181
 6378SOL    HW220034   4.868   4.031   3.162
 6379SOL     OW20035   1.915   5.338   3.960
 6379SOL    HW120036   1.896   5.275   4.035
 6379SOL    HW220037   1.984   5.299   3.899
 6380SOL     OW20038   0.691   1.066   5.528
 6380SOL    HW120039   0.623   1.095   5.596
 6380SOL    HW220040   0.744   0.989   5.564
 6381SOL     OW20041   2.875   3.545   2.483
 6381SOL    HW120042   2.884   3.609   2.559
 6381SOL    HW220043   2.778   3.531   2.463
 6382SOL     OW20044   1.039   2.708   6.283
 6382SOL    HW120045   1.008   2.655   6.361
 6382SOL    HW220046   1.126   2.672   6.250
 6383SOL     OW20047   2.179   2.418   4.045
 6383SOL    HW120048   2.237   2.377   3.974
 6383SOL    HW220049   2.134   2.499   4.008
 6384SOL     OW20050   5.973   4.745   2.051
 6384SOL    HW120051   5.939   4.826   2.098
 6384SOL    HW220052   6.065   4.722   2.085
 6385SOL     OW20053   6.221   4.857   3.947
 6385SOL    HW120054   6.132   4.869   3.904
 6385SOL    HW220055   6.287   4.823   3.880
 6386SOL     OW20056   2.532   4.733   1.057
 6386SOL    HW120057   2.606   4.765   1.117
 6386SOL    HW220058   2.473   4.670   1.108
 6387SOL     OW20059   0.445   2.063   6.195
 6387SOL    HW120060   0.366   2.123   6.185
 6387SOL    HW220061   0.505   2.072   6.116
 6388SOL     OW20062   3.821   4.833   1.374
 6388SOL    HW120063   3.809   4.739   1.342
 6388SOL    HW220064   3.734   4.880   1.371
 6389SOL     OW20065   0.530   5.905   2.727
 6389SOL    HW120066   0.621   5.946   2.733
 6389SOL    HW220067   0.510   5.857   2.812
 6390SOL     OW20068   0.076   2.522   3.126
 6390SOL    HW120069   0.078   2.572   3.040
 6390SOL    HW220070   0.031   2.577   3.196
 6391SOL     OW20071   3.606   1.272   0.139
 6391SOL    HW120072   3.669   1.349   0.128
 6391SOL    HW220073   3.522   1.303   0.184
 6392SOL     OW20074   2.136   6.706   3.907
 6392SOL    HW120075   2.216   6.765   3.921
 6392SOL    HW220076   2.060   6.737   3.963
 6393SOL     OW20077   5.624   6.399   1.785
 6393SOL    HW120078   5.611   6.450   1.701
 6393SOL    HW220079   5.551   6.423   1.850
 6394SOL     OW20080   2.195   4.656   0.827
 6394SOL    HW120081   2.234   4.735   0.780
 6394SOL    HW220082   2.228   4.572   0.785
 6395SOL     OW20083   6.566   1.437   1.219
 6395SOL    HW120084   6.570   1.458   1.316
 6395SOL    HW220085   6.471   1.422   1.191
 6396SOL     OW20086   5.235   2.610   6.295
 6396SOL    HW120087   5.246   2.679   6.224
 6396SOL    HW220088   5.229   2.520   6.253
 6397SOL     OW20089   0.269   2.241   6.741
 6397SOL    HW120090   0.266   2.141   6.741
 6397SOL    HW220091   0.254   2.275   6.648
 6398SOL     OW20092   3.505   0.720   1.549
 6398SOL    HW120093   3.599   0.699   1.575
 6398SOL    HW220094   3.505   0.791   1.479
 6399SOL     OW20095   1.676   5.656   6.558
 6399SOL    HW120096   1.740   5.694   6.624
 6399SOL    HW220097   1.585   5.651   6.598
 6400SOL     OW20098   2.044   5.500   3.449
 6400SOL    HW120099   2.011   5.544   3.533
 6400SOL    HW220100   1.969   5.448   3.408
 6401SOL     OW20101   0.352   4.576   3.514
 6401SOL    HW120102   0.400   4.592   3.428
 6401SOL    HW220103   0.282   4.506   3.501
 6402SOL     OW20104   2.819   0.941   3.088
 6402SOL    HW120105   2.759   1.020   3.095
 6402SOL    HW220106   2.889   0.957   3.018
 6403SOL     OW20107   0.799   4.818   7.020
 6403SOL    HW120108   0.865   4.855   6.954
 6403SOL    HW220109   0.824   4.724   0.022
 6404SOL     OW20110   4.478   2.006   3.353
 6404SOL    HW120111   4.560   2.049   3.390
 6404SOL    HW220112   4.397   2.058   3.382
 6405SOL     OW20113   1.964   2.060   2.864
 6405SOL    HW120114   1.965   2.103   2.774
 6405SOL    HW220115   2.018   1.976   2.861
 6406SOL     OW20116   1.553   0.943   3.537
 6406SOL    HW120117   1.605   1.028   3.530
 6406SOL    HW220118   1.601   0.870   3.489
 6407SOL     OW20119   3.056   7.012   4.594
 6407SOL    HW120120   3.066   7.017   4.495
 6407SOL    HW220121   3.087   0.078   4.635
 6408SOL     OW20122   5.701   1.884   6.857
 6408SOL    HW120123   5.795   1.909   6.833
 6408SOL    HW220124   5.696   1.863   6.955
 6409SOL     OW20125   6.249   3.455   2.706
 6409SOL    HW120126   6.190   3.511   2.765
 6409SOL    HW220127   6.342   3.454   2.743
 6410SOL     OW20128   1.999   1.931   0.588
 6410SOL    HW120129   1.926   1.883   0.637
 6410SOL    HW220130   1.990   1.913   0.490
 6411SOL     OW20131   1.076   1.675   3.163
 6411SOL    HW120132   1.000   1.660   3.227
 6411SOL    HW220133   1.079   1.600   3.097
 6412SOL     OW20134   6.887   2.889   5.143
 6412SOL    HW120135   6.888   2.877   5.242
 6412SOL    HW220136   6.846   2.809   5.100
 6413SOL     OW20137   5.730   4.998   1.976
 6413SOL    HW120138   5.796   4.964   1.909
 6413SOL    HW220139   5.639   5.004   1.933
 6414SOL     OW20140   5.908   1.008   1.557
 6414SOL    HW120141   5.982   0.941   1.559
 6414SOL    HW220142   5.930   1.083   1.619
 6415SOL     OW20143   2.521   2.280   2.420
 6415SOL    HW120144   2.571   2.323   2.495
 6415SOL    HW220145   2.585   2.223   2.368
 6416SOL     OW20146   0.749   0.114   6.575
 6416SOL    HW120147   0.786   0.024   6.596
 6416SOL    HW220148   0.815   0.166   6.521
 6417SOL     OW20149   0.457   6.950   3.279
 6417SOL    HW120150   0.430   0.019   3.243
 6417SOL    HW220151   0.515   6.903   3.213
 6418SOL     OW20152   6.142   5.092   2.363
 6418SOL    HW120153   6.123   4.996   2.382
 6418SOL    HW220154   6.057   5.144   2.361
 6419SOL     OW20155   2.863   5.508   1.718
 6419SOL    HW120156   2.775   5.472   1.687
 6419SOL    HW220157   2.901   5.449   1.789
 6420SOL     OW20158   2.950   3.269   6.236
 6420SOL    HW120159   2.907   3.292   6.323
 6420SOL    HW220160   2.902   3.191   6.195
 6421SOL     OW20161   6.164   1.302   1.310
 6421SOL    HW120162   6.070   1.311   1.277
 6421SOL    HW220163   6.227   1.342   1.242
 6422SOL     OW20164   6.612   0.795   3.543
 6422SOL    HW120165   6.586   0.741   3.463
 6422SOL    HW220166   6.535   0.853   3.570
 6423SOL     OW20167   4.720   3.802   1.183
 6423SOL    HW120168   4.771   3.716   1.186
 6423SOL    HW220169   4.745   3.852   1.100
 6424SOL     OW20170   6.692   4.397   6.116
 6424SOL    HW120171   6.776   4.344   6.128
 6424SOL    HW220172   6.704   4.463   6.042
 6425SOL     OW20173   6.886   4.456   2.796
 6425SOL    HW120174   6.936   4.452   2.882
 6425SOL    HW220175   6.928   4.524   2.736
 6426SOL     OW20176   1.398   3.106   4.235
 6426SOL    HW120177   1.337   3.179   4.266
 6426SOL    HW220178   1.344   3.033   4.195
 6427SOL     OW20179   1.345   3.637   6.565
 6427SOL    HW120180   1.249   3.630   6.591
 6427SOL    HW220181   1.362   3.579   6.485
 6428SOL     OW20182   6.662   3.424   2.075
 6428SOL    HW120183   6.612   3.510   2.070
 6428SOL    HW220184   6.645   3.370   1.993
 6429SOL     OW20185   1.865   0.867   4.770
 6429SOL    HW120186   1.889   0.793   4.833
 6429SOL    HW220187   1.774   0.903   4.793
 6430SOL     OW20188   4.930   0.812   1.940
 6430SOL    HW120189   4.978   0.876   1.880
 6430SOL    HW220190   4.865   0.759   1.885
 6431SOL     OW20191   5.383   0.154   3.051
 6431SOL    HW120192   5.347   0.172   3.143
 6431SOL    HW220193   5.320   0.194   2.983
 6432SOL     OW20194   4.292   4.346   0.412
 6432SOL    HW120195   4.249   4.409   0.477
 6432SOL    HW220196   4.373   4.390   0.373
 6433SOL     OW20197   3.049   4.635   1.100
 6433SOL    HW120198   2.961   4.678   1.076
 6433SOL    HW220199   3.119   4.705   1.107
 6434SOL     OW20200   1.024   3.693   1.032
 6434SOL    HW120201   1.002   3.784   0.997
 6434SOL    HW220202   1.115   3.695   1.074
 6435SOL     OW20203   3.590   5.332   0.024
 6435SOL    HW120204   3.534   5.265   0.073
 6435SOL    HW220205   3.532   5.385   6.982
 6436SOL     OW20206   1.724   3.159   3.511
 6436SOL    HW120207   1.759   3.239   3.559
 6436SOL    HW220208   1.625   3.159   3.514
 6437SOL     OW20209   1.854   0.565   0.071
 6437SOL    HW120210   1.861   0.664   0.082
 6437SOL    HW220211   1.915   0.535   7.017
 6438SOL     OW20212   0.764   4.170   5.256
 6438SOL    HW120213   0.742   4.076   5.283
 6438SOL    HW220214   0.697   4.202   5.190
 6439SOL     OW20215   1.171   7.013   0.490
 6439SOL    HW120216   1.233   6.946   0.451
 6439SOL    HW220217   1.133   6.978   0.576
 6440SOL     OW20218   2.202   1.889   1.598
 6440SOL    HW120219   2.157   1.803   1.620
 6440SOL    HW220220   2.151   1.937   1.527
 6441SOL     OW20221   1.884   0.791   2.539
 6441SOL    HW120222   1.838   0.717   2.587
 6441SOL    HW220223   1.865   0.878   2.586
 6442SOL     OW20224   2.439   1.568   4.780
 6442SOL    HW120225   2.451   1.642   4.846
 6442SOL    HW220226   2.520   1.562   4.721
 6443SOL     OW20227   3.050   2.935   0.210
 6443SOL    HW120228   3.091   3.026   0.205
 6443SOL    HW220229   2.999   2.926   0.295
 6444SOL     OW20230   0.570   2.154   2.879
 6444SOL    HW120231   0.651   2.195   2.838
 6444SOL    HW220232   0.585   2.142   2.977
 6445SOL     OW20233   4.382   2.606   5.330
 6445SOL    HW120234   4.292   2.583   5.293
 6445SOL    HW220235   4.373   2.681   5.396
 6446SOL     OW20236   0.404   1.160   6.309
 6446SOL    HW120237   0.403   1.068   6.350
 6446SOL    HW220238   0.316   1.177   6.264
 6447SOL     OW20239   1.427   5.790   2.211
 6447SOL    HW120240   1.335   5.823   2.233
 6447SOL    HW220241   1.454   5.825   2.122
 6448SOL     OW20242   6.219   3.257   2.499
 6448SOL    HW120243   6.238   3.323   2.570
 6448SOL    HW220244   6.293   3.256   2.432
 6449SOL     OW20245   3.765   3.894   1.899
 6449SOL    HW120246   3.792   3.962   1.831
 6449SOL    HW220247   3.682   3.925   1.947
 6450SOL     OW20248   6.196   3.210   1.569
 6450SOL    HW120249   6.132   3.209   1.492
 6450SOL    HW220250   6.273   3.150   1.549
 6451SOL     OW20251   3.439   6.170   5.525
 6451SOL    HW120252   3.430   6.161   5.426
 6451SOL    HW220253   3.452   6.080   5.565
 6452SOL     OW20254   3.674   6.963   4.931
 6452SOL    HW120255   3.645   6.987   5.024
 6452SOL    HW220256   3.722   0.021   4.891
 6453SOL     OW20257   1.237   6.264   0.100
 6453SOL    HW120258   1.263   6.168   0.090
 6453SOL    HW220259   1.313   6.315   0.141
 6454SOL     OW20260   2.620   1.634   4.431
 6454SOL    HW120261   2.628   1.712   4.369
 6454SOL    HW220262   2.524   1.607   4.438
 6455SOL     OW20263   0.700   2.559   4.452
 6455SOL    HW120264   0.720   2.462   4.467
 6455SOL    HW220265   0.658   2.570   4.362
 6456SOL     OW20266   1.120   0.242   3.322
 6456SOL    HW120267   1.145   0.220   3.416
 6456SOL    HW220268   1.076   0.332   3.320
 6457SOL     OW20269   5.666   1.859   1.718
 6457SOL    HW120270   5.655   1.768   1.678
 6457SOL    HW220271   5.659   1.852   1.818
 6458SOL     OW20272   1.450   5.925   2.742
 6458SOL    HW120273   1.461   5.889   2.649
 6458SOL    HW220274   1.497   6.013   2.750
 6459SOL     OW20275   5.974   5.322   0.373
 6459SOL    HW120276   5.982   5.265   0.454
 6459SOL    HW220277   5.884   5.365   0.371
 6460SOL     OW20278   4.461   4.512   0.242
 6460SOL    HW120279   4.450   4.598   0.292
 6460SOL    HW220280   4.511   4.528   0.157
 6461SOL     OW20281   3.036   5.655   5.726
 6461SOL    HW120282   3.000   5.745   5.749
 6461SOL    HW220283   3.032   5.642   5.627
 6462SOL     OW20284   2.159   3.113   5.211
 6462SOL    HW120285   2.251   3.086   5.182
 6462SOL    HW220286   2.109   3.151   5.133
 6463SOL     OW20287   2.214   4.869   6.471
 6463SOL    HW120288   2.221   4.780   6.516
 6463SOL    HW220289   2.129   4.874   6.419
 6464SOL     OW20290   0.567   5.104   3.479
 6464SOL    HW120291   0.524   5.082   3.392
 6464SOL    HW220292   0.656   5.146   3.464
 6465SOL     OW20293   6.042   1.766   4.075
 6465SOL    HW120294   6.136   1.741   4.101
 6465SOL    HW220295   6.016   1.850   4.122
 6466SOL     OW20296   6.791   2.735   4.815
 6466SOL    HW120297   6.887   2.764   4.812
 6466SOL    HW220298   6.743   2.788   4.885
 6467SOL     OW20299   2.616   0.717   6.456
 6467SOL    HW120300   2.539   0.695   6.396
 6467SOL    HW220301   2.627   0.645   6.524
 6468SOL     OW20302   4.367   6.156   1.874
 6468SOL    HW120303   4.362   6.139   1.776
 6468SOL    HW220304   4.364   6.069   1.923
 6469SOL     OW20305   6.275   1.102   5.189
 6469SOL    HW120306   6.282   1.142   5.098
 6469SOL    HW220307   6.250   1.173   5.255
 6470SOL     OW20308   6.918   6.192   5.967
 6470SOL    HW120309   6.854   6.118   5.945
 6470SOL    HW220310   6.899   6.271   5.909
 6471SOL     OW20311   6.848   5.319   6.061
 6471SOL    HW120312   6.835   5.406   6.109
 6471SOL    HW220313   6.826   5.243   6.123
 6472SOL     OW20314   1.080   6.224   1.232
 6472SOL    HW120315   1.092   6.322   1.242
 6472SOL    HW220316   1.019   6.205   1.155
 6473SOL     OW20317   2.299   0.867   5.975
 6473SOL    HW120318   2.229   0.862   6.046
 6473SOL    HW220319   2.266   0.925   5.900
 6474SOL     OW20320   1.309   3.901   6.516
 6474SOL    HW120321   1.336   3.883   6.421
 6474SOL    HW220322   1.315   3.817   6.568
 6475SOL     OW20323   5.594   6.293   3.856
 6475SOL    HW120324   5.520   6.319   3.794
 6475SOL    HW220325   5.574   6.202   3.894
 6476SOL     OW20326   4.362   4.699   3.012
 6476SOL    HW120327   4.342   4.659   2.923
 6476SOL    HW220328   4.437   4.764   3.002
 6477SOL     OW20329   6.494   5.250   6.274
 6477SOL    HW120330   6.563   5.251   6.346
 6477SOL    HW220331   6.443   5.336   6.274
 6478SOL     OW20332   3.734   5.789   2.050
 6478SOL    HW120333   3.726   5.694   2.080
 6478SOL    HW220334   3.699   5.797   1.957
 6479SOL     OW20335   3.987   5.075   1.975
 6479SOL    HW120336   3.996   5.064   2.074
 6479SOL    HW220337   3.891   5.095   1.952
 6480SOL     OW20338   3.721   2.983   5.928
 6480SOL    HW120339   3.692   3.069   5.884
 6480SOL    HW220340   3.668   2.969   6.011
 6481SOL     OW20341   3.492   2.371   1.117
 6481SOL    HW120342   3.403   2.351   1.159
 6481SOL    HW220343   3.531   2.286   1.082
 6482SOL     OW20344   6.258   0.711   0.177
 6482SOL    HW120345   6.175   0.761   0.151
 6482SOL    HW220346   6.275   0.638   0.110
 6483SOL     OW20347   2.500   6.348   2.516
 6483SOL    HW120348   2.514   6.298   2.601
 6483SOL    HW220349   2.572   6.323   2.451
 6484SOL     OW20350   4.536   0.387   2.512
 6484SOL    HW120351   4.608   0.438   2.465
 6484SOL    HW220352   4.578   0.320   2.574
 6485SOL     OW20353   1.329   3.004   3.297
 6485SOL    HW120354   1.341   2.910   3.264
 6485SOL    HW220355   1.273   3.003   3.380
 6486SOL     OW20356   0.935   4.334   4.238
 6486SOL    HW120357   1.017   4.389   4.246
 6486SOL    HW220358   0.891   4.352   4.150
 6487SOL     OW20359   6.989   5.909   4.375
 6487SOL    HW120360   6.955   5.960   4.454
 6487SOL    HW220361   6.924   5.918   4.300
 6488SOL     OW20362   3.253   6.317   5.669
 6488SOL    HW120363   3.169   6.268   5.648
 6488SOL    HW220364   3.330   6.273   5.622
 6489SOL     OW20365   1.782   2.433   6.800
 6489SOL    HW120366   1.714   2.417   6.728
 6489SOL    HW220367   1.751   2.390   6.885
 6490SOL     OW20368   4.008   2.446   0.306
 6490SOL    HW120369   3.940   2.459   0.378
 6490SOL    HW220370   4.097   2.478   0.338
 6491SOL     OW20371   4.571   0.902   6.310
 6491SOL    HW120372   4.607   0.972   6.247
 6491SOL    HW220373   4.573   0.813   6.265
 6492SOL     OW20374   5.930   6.806   0.062
 6492SOL    HW120375   5.840   6.802   0.020
 6492SOL    HW220376   5.921   6.796   0.161
 6493SOL     OW20377   2.006   6.267   5.744
 6493SOL    HW120378   2.032   6.361   5.770
 6493SOL    HW220379   2.032   6.204   5.817
 6494SOL     OW20380   0.813   0.174   3.479
 6494SOL    HW120381   0.849   0.131   3.396
 6494SOL    HW220382   0.714   0.162   3.483
 6495SOL     OW20383   4.895   6.095   3.129
 6495SOL    HW120384   4.887   6.167   3.197
 6495SOL    HW220385   4.901   6.006   3.174
 6496SOL     OW20386   6.954   6.235   1.828
 6496SOL    HW120387   6.914   6.230   1.920
 6496SOL    HW220388   0.028   6.268   1.835
 6497SOL     OW20389   2.483   3.530   1.036
 6497SOL    HW120390   2.471   3.584   1.119
 6497SOL    HW220391   2.411   3.553   0.971
 6498SOL     OW20392   2.102   4.867   3.938
 6498SOL    HW120393   2.004   4.885   3.929
 6498SOL    HW220394   2.153   4.952   3.921
 6499SOL     OW20395   5.134   0.209   5.384
 6499SOL    HW120396   5.173   0.301   5.380
 6499SOL    HW220397   5.109   0.180   5.292
 6500SOL     OW20398   6.577   4.186   3.546
 6500SOL    HW120399   6.571   4.266   3.605
 6500SOL    HW220400   6.662   4.189   3.494
 6501SOL     OW20401   6.319   3.715   1.121
 6501SOL    HW120402   6.230   3.762   1.118
 6501SOL    HW220403   6.329   3.670   1.209
 6502SOL     OW20404   0.250   4.607   4.007
 6502SOL    HW120405   0.292   4.559   4.084
 6502SOL    HW220406   0.251   4.548   3.926
 6503SOL     OW20407   5.486   6.526   3.348
 6503SOL    HW120408   5.389   6.547   3.362
 6503SOL    HW220409   5.528   6.597   3.291
 6504SOL     OW20410   4.358   0.253   6.770
 6504SOL    HW120411   4.355   0.155   6.751
 6504SOL    HW220412   4.291   0.300   6.713
 6505SOL     OW20413   6.158   4.550   0.744
 6505SOL    HW120414   6.130   4.466   0.698
 6505SOL    HW220415   6.115   4.554   0.835
 6506SOL     OW20416   1.061   2.735   1.231
 6506SOL    HW120417   1.010   2.821   1.232
 6506SOL    HW220418   1.002   2.660   1.260
 6507SOL     OW20419   1.148   5.806   1.231
 6507SOL    HW120420   1.193   5.893   1.251
 6507SOL    HW220421   1.211   5.746   1.182
 6508SOL     OW20422   1.758   2.044   4.010
 6508SOL    HW120423   1.666   2.013   3.988
 6508SOL    HW220424   1.802   1.976   4.069
 6509SOL     OW20425   1.269   2.412   4.956
 6509SOL    HW120426   1.261   2.453   4.865
 6509SOL    HW220427   1.334   2.465   5.011
 6510SOL     OW20428   6.980   5.537   6.426
 6510SOL    HW120429   0.010   5.624   6.430
 6510SOL    HW220430   0.025   5.462   6.411
 6511SOL     OW20431   6.451   0.501   5.490
 6511SOL    HW120432   6.502   0.568   5.437
 6511SOL    HW220433   6.452   0.413   5.444
 6512SOL     OW20434   4.588   6.932   2.918
 6512SOL    HW120435   4.538   7.018   2.910
 6512SOL    HW220436   4.662   6.942   2.985
 6513SOL     OW20437   3.562   6.934   4.158
 6513SOL    HW120438   3.526   6.842   4.144
 6513SOL    HW220439   3.564   6.982   4.071
 6514SOL     OW20440   5.003   6.937   4.097
 6514SOL    HW120441   5.051   7.016   4.059
 6514SOL    HW220442   5.021   6.856   4.041
 6515SOL     OW20443   6.644   5.408   4.230
 6515SOL    HW120444   6.647   5.397   4.329
 6515SOL    HW220445   6.718   5.356   4.188
 6516SOL     OW20446   0.714   1.505   6.893
 6516SOL    HW120447   0.777   1.526   6.818
 6516SOL    HW220448   0.635   1.454   6.856
 6517SOL     OW20449   0.182   1.785   0.326
 6517SOL    HW120450   0.229   1.873   0.330
 6517SOL    HW220451   0.204   1.731   0.407
 6518SOL     OW20452   0.814   6.206   0.735
 6518SOL    HW120453   0.807   6.124   0.678
 6518SOL    HW220454   0.746   6.201   0.808
 6519SOL     OW20455   2.206   1.448   4.746
 6519SOL    HW120456   2.292   1.498   4.760
 6519SOL    HW220457   2.129   1.507   4.771
 6520SOL     OW20458   6.371   5.716   2.492
 6520SOL    HW120459   6.317   5.658   2.431
 6520SOL    HW220460   6.361   5.684   2.586
 6521SOL     OW20461   1.435   1.587   4.359
 6521SOL    HW120462   1.380   1.509   4.328
 6521SOL    HW220463   1.465   1.640   4.279
 6522SOL     OW20464   2.140   5.721   0.107
 6522SOL    HW120465   2.199   5.648   0.142
 6522SOL    HW220466   2.101   5.693   0.019
 6523SOL     OW20467   2.764   1.223   6.495
 6523SOL    HW120468   2.723   1.139   6.529
 6523SOL    HW220469   2.694   1.294   6.489
 6524SOL     OW20470   3.524   3.786   3.409
 6524SOL    HW120471   3.537   3.884   3.426
 6524SOL    HW220472   3.453   3.750   3.469
 6525SOL     OW20473   1.276   2.554   2.932
 6525SOL    HW120474   1.204   2.528   2.868
 6525SOL    HW220475   1.260   2.509   3.020
 6526SOL     OW20476   1.122   6.380   4.809
 6526SOL    HW120477   1.192   6.414   4.746
 6526SOL    HW220478   1.080   6.456   4.858
 6527SOL     OW20479   1.687   0.572   5.291
 6527SOL    HW120480   1.645   0.523   5.215
 6527SOL    HW220481   1.768   0.522   5.321
 6528SOL     OW20482   0.187   1.174   4.287
 6528SOL    HW120483   0.229   1.083   4.278
 6528SOL    HW220484   0.139   1.197   4.202
 6529SOL     OW20485   5.705   1.580   2.615
 6529SOL    HW120486   5.741   1.495   2.653
 6529SOL    HW220487   5.677   1.565   2.520
 6530SOL     OW20488   6.421   2.806   0.439
 6530SOL    HW120489   6.440   2.893   0.484
 6530SOL    HW220490   6.507   2.761   0.416
 6531SOL     OW20491   5.833   2.303   3.822
 6531SOL    HW120492   5.876   2.393   3.830
 6531SOL    HW220493   5.815   2.266   3.913
 6532SOL     OW20494   6.480   1.538   6.615
 6532SOL    HW120495   6.494   1.455   6.670
 6532SOL    HW220496   6.537   1.533   6.533
 6533SOL     OW20497   5.544   6.097   1.390
 6533SOL    HW120498   5.504   6.081   1.300
 6533SOL    HW220499   5.535   6.014   1.445
 6534SOL     OW20500   2.470   3.638   1.283
 6534SOL    HW120501   2.408   3.681   1.348
 6534SOL    HW220502   2.562   3.634   1.323
 6535SOL     OW20503   0.087   3.377   5.188
 6535SOL    HW120504   0.100   3.314   5.112
 6535SOL    HW220505   0.115   3.469   5.161
 6536SOL     OW20506   5.979   1.911   6.860
 6536SOL    HW120507   5.977   1.818   6.823
 6536SOL    HW220508   5.969   1.906   6.960
 6537SOL     OW20509   6.451   6.701   7.018
 6537SOL    HW120510   6.421   6.663   0.086
 6537SOL    HW220511   6.374   6.749   6.975
 6538SOL     OW20512   3.238   3.611   0.261
 6538SOL    HW120513   3.164   3.665   0.221
 6538SOL    HW220514   3.219   3.514   0.250
 6539SOL     OW20515   2.408   1.786   6.365
 6539SOL    HW120516   2.371   1.823   6.451
 6539SOL    HW220517   2.413   1.687   6.371
 6540SOL     OW20518   3.742   1.875   4.226
 6540SOL    HW120519   3.812   1.888   4.156
 6540SOL    HW220520   3.711   1.963   4.260
 6541SOL     OW20521   3.100   2.535   5.347
 6541SOL    HW120522   3.007   2.565   5.367
 6541SOL    HW220523   3.098   2.465   5.276
 6542SOL     OW20524   6.141   4.710   3.240
 6542SOL    HW120525   6.112   4.806   3.242
 6542SOL    HW220526   6.125   4.671   3.149
 6543SOL     OW20527   6.437   5.629   0.487
 6543SOL    HW120528   6.402   5.564   0.554
 6543SOL    HW220529   6.386   5.715   0.494
 6544SOL     OW20530   6.615   6.477   4.197
 6544SOL    HW120531   6.704   6.504   4.162
 6544SOL    HW220532   6.624   6.447   4.292
 6545SOL     OW20533   5.525   0.869   6.176
 6545SOL    HW120534   5.570   0.851   6.263
 6545SOL    HW220535   5.578   0.937   6.125
 6546SOL     OW20536   4.245   4.763   6.301
 6546SOL    HW120537   4.317   4.812   6.351
 6546SOL    HW220538   4.235   4.671   6.338
 6547SOL     OW20539   4.681   2.293   6.098
 6547SOL    HW120540   4.693   2.282   6.197
 6547SOL    HW220541   4.600   2.349   6.081
 6548SOL     OW20542   6.893   4.274   5.645
 6548SOL    HW120543   6.799   4.308   5.656
 6548SOL    HW220544   6.891   4.175   5.631
 6549SOL     OW20545   3.988   1.949   1.075
 6549SOL    HW120546   3.939   1.968   0.990
 6549SOL    HW220547   3.995   1.851   1.089
 6550SOL     OW20548   0.438   5.479   3.462
 6550SOL    HW120549   0.533   5.501   3.486
 6550SOL    HW220550   0.390   5.446   3.543
 6551SOL     OW20551   2.337   4.628   1.582
 6551SOL    HW120552   2.316   4.567   1.506
 6551SOL    HW220553   2.283   4.603   1.662
 6552SOL     OW20554   2.738   5.442   5.677
 6552SOL    HW120555   2.640   5.423   5.683
 6552SOL    HW220556   2.789   5.360   5.701
 6553SOL     OW20557   0.738   3.584   1.964
 6553SOL    HW120558   0.787   3.518   2.022
 6553SOL    HW220559   0.782   3.589   1.874
 6554SOL     OW20560   6.457   1.663   5.902
 6554SOL    HW120561   6.445   1.713   5.817
 6554SOL    HW220562   6.398   1.582   5.902
 6555SOL     OW20563   1.728   0.714   1.986
 6555SOL    HW120564   1.674   0.757   2.059
 6555SOL    HW220565   1.776   0.784   1.934
 6556SOL     OW20566   4.568   4.754   5.198
 6556SOL    HW120567   4.552   4.838   5.146
 6556SOL    HW220568   4.663   4.725   5.185
 6557SOL     OW20569   6.109   5.424   0.773
 6557SOL    HW120570   6.074   5.350   0.716
 6557SOL    HW220571   6.110   5.509   0.721
 6558SOL     OW20572   6.628   6.259   0.823
 6558SOL    HW120573   6.721   6.233   0.797
 6558SOL    HW220574   6.630   6.346   0.871
 6559SOL     OW20575   4.906   3.972   0.802
 6559SOL    HW120576   4.903   3.928   0.712
 6559SOL    HW220577   4.815   3.968   0.843
 6560SOL     OW20578   4.139   2.932   1.274
 6560SOL    HW120579   4.174   3.009   1.220
 6560SOL    HW220580   4.195   2.923   1.357
 6561SOL     OW20581   3.919   3.932   2.601
 6561SOL    HW120582   4.011   3.953   2.634
 6561SOL    HW220583   3.918   3.937   2.501
 6562SOL     OW20584   6.598   4.908   5.721
 6562SOL    HW120585   6.592   4.897   5.820
 6562SOL    HW220586   6.559   4.828   5.676
 6563SOL     OW20587   0.442   5.764   0.088
 6563SOL    HW120588   0.448   5.779   7.009
 6563SOL    HW220589   0.350   5.734   0.112
 6564SOL     OW20590   1.539   3.564   2.211
 6564SOL    HW120591   1.475   3.633   2.246
 6564SOL    HW220592   1.532   3.481   2.266
 6565SOL     OW20593   5.516   2.253   4.773
 6565SOL    HW120594   5.472   2.285   4.857
 6565SOL    HW220595   5.454   2.268   4.696
 6566SOL     OW20596   3.255   0.316   1.868
 6566SOL    HW120597   3.170   0.335   1.818
 6566SOL    HW220598   3.323   0.386   1.845
 6567SOL     OW20599   4.673   2.843   0.612
 6567SOL    HW120600   4.713   2.807   0.697
 6567SOL    HW220601   4.632   2.768   0.560
 6568SOL     OW20602   4.478   4.835   1.835
 6568SOL    HW120603   4.387   4.826   1.796
 6568SOL    HW220604   4.487   4.774   1.914
 6569SOL     OW20605   2.172   5.313   0.917
 6569SOL    HW120606   2.165   5.398   0.866
 6569SOL    HW220607   2.235   5.325   0.994
 6570SOL     OW20608   5.063   0.739   2.192
 6570SOL    HW120609   5.157   0.756   2.162
 6570SOL    HW220610   5.000   0.763   2.117
 6571SOL     OW20611   2.189   5.769   3.362
 6571SOL    HW120612   2.138   5.849   3.333
 6571SOL    HW220613   2.126   5.703   3.404
 6572SOL     OW20614   6.498   3.563   5.048
 6572SOL    HW120615   6.420   3.518   5.005
 6572SOL    HW220616   6.575   3.499   5.053
 6573SOL     OW20617   3.841   1.221   2.532
 6573SOL    HW120618   3.873   1.177   2.615
 6573SOL    HW220619   3.876   1.172   2.452
 6574SOL     OW20620   2.225   5.915   2.168
 6574SOL    HW120621   2.202   6.003   2.209
 6574SOL    HW220622   2.233   5.846   2.241
 6575SOL     OW20623   1.054   1.376   1.422
 6575SOL    HW120624   1.114   1.450   1.452
 6575SOL    HW220625   1.022   1.324   1.501
 6576SOL     OW20626   1.450   5.683   6.755
 6576SOL    HW120627   1.355   5.651   6.749
 6576SOL    HW220628   1.458   5.750   6.829
 6577SOL     OW20629   0.447   1.663   3.536
 6577SOL    HW120630   0.467   1.721   3.615
 6577SOL    HW220631   0.438   1.568   3.566
 6578SOL     OW20632   6.093   5.010   3.584
 6578SOL    HW120633   6.029   5.084   3.606
 6578SOL    HW220634   6.101   4.949   3.663
 6579SOL     OW20635   0.046   3.981   4.036
 6579SOL    HW120636   6.977   3.992   4.081
 6579SOL    HW220637   0.035   3.930   3.951
 6580SOL     OW20638   5.636   0.661   0.885
 6580SOL    HW120639   5.570   0.591   0.910
 6580SOL    HW220640   5.678   0.637   0.797
 6581SOL     OW20641   4.142   1.775   6.220
 6581SOL    HW120642   4.233   1.746   6.190
 6581SOL    HW220643   4.084   1.695   6.231
 6582SOL     OW20644   0.867   0.066   2.751
 6582SOL    HW120645   0.783   0.039   2.704
 6582SOL    HW220646   0.845   0.134   2.821
 6583SOL     OW20647   5.683   1.036   6.030
 6583SOL    HW120648   5.652   1.108   5.968
 6583SOL    HW220649   5.770   1.064   6.072
 6584SOL     OW20650   5.595   1.565   6.212
 6584SOL    HW120651   5.575   1.522   6.300
 6584SOL    HW220652   5.543   1.651   6.204
 6585SOL     OW20653   0.525   1.759   7.013
 6585SOL    HW120654   0.535   1.763   0.093
 6585SOL    HW220655   0.529   1.663   6.983
 6586SOL     OW20656   6.159   1.769   5.980
 6586SOL    HW120657   6.189   1.859   6.010
 6586SOL    HW220658   6.200   1.749   5.890
 6587SOL     OW20659   2.382   5.843   4.022
 6587SOL    HW120660   2.451   5.819   3.954
 6587SOL    HW220661   2.387   5.778   4.098
 6588SOL     OW20662   1.475   3.713   0.673
 6588SOL    HW120663   1.399   3.679   0.729
 6588SOL    HW220664   1.562   3.690   0.717
 6589SOL     OW20665   4.856   0.141   6.247
 6589SOL    HW120666   4.875   0.236   6.273
 6589SOL    HW220667   4.943   0.095   6.227
 6590SOL     OW20668   7.008   1.393   4.613
 6590SOL    HW120669   0.055   1.419   4.683
 6590SOL    HW220670   6.938   1.334   4.655
 6591SOL     OW20671   5.393   6.907   2.520
 6591SOL    HW120672   5.456   6.864   2.455
 6591SOL    HW220673   5.349   6.837   2.575
 6592SOL     OW20674   4.227   0.398   4.811
 6592SOL    HW120675   4.241   0.316   4.755
 6592SOL    HW220676   4.132   0.426   4.806
 6593SOL     OW20677   2.974   2.263   4.054
 6593SOL    HW120678   3.036   2.261   3.976
 6593SOL    HW220679   2.987   2.181   4.109
 6594SOL     OW20680   5.032   0.346   6.799
 6594SOL    HW120681   5.124   0.365   6.834
 6594SOL    HW220682   4.988   0.279   6.859
 6595SOL     OW20683   1.711   3.635   0.789
 6595SOL    HW120684   1.748   3.724   0.762
 6595SOL    HW220685   1.775   3.589   0.850
 6596SOL     OW20686   4.771   0.138   5.787
 6596SOL    HW120687   4.835   0.096   5.722
 6596SOL    HW220688   4.699   0.185   5.737
 6597SOL     OW20689   0.327   6.643   4.355
 6597SOL    HW120690   0.237   6.600   4.365
 6597SOL    HW220691   0.318   6.727   4.302
 6598SOL     OW20692   1.529   5.613   4.924
 6598SOL    HW120693   1.548   5.548   4.851
 6598SOL    HW220694   1.600   5.685   4.925
 6599SOL     OW20695   3.974   4.853   6.184
 6599SOL    HW120696   3.979   4.952   6.196
 6599SOL    HW220697   4.054   4.810   6.226
 6600SOL     OW20698   4.994   5.101   4.996
 6600SOL    HW120699   5.025   5.026   5.054
 6600SOL    HW220700   5.056   5.110   4.918
 6601SOL     OW20701   0.295   1.016   0.544
 6601SOL    HW120702   0.321   1.112   0.549
 6601SOL    HW220703   0.255   0.996   0.455
 6602SOL     OW20704   0.355   2.324   1.491
 6602SOL    HW120705   0.438   2.268   1.495
 6602SOL    HW220706   0.297   2.291   1.416
 6603SOL     OW20707   1.794   3.906   3.469
 6603SOL    HW120708   1.844   3.943   3.547
 6603SOL    HW220709   1.705   3.950   3.463
 6604SOL     OW20710   2.188   5.759   1.931
 6604SOL    HW120711   2.237   5.819   1.868
 6604SOL    HW220712   2.184   5.802   2.021
 6605SOL     OW20713   5.091   5.577   0.204
 6605SOL    HW120714   5.119   5.497   0.258
 6605SOL    HW220715   5.172   5.632   0.181
 6606SOL     OW20716   4.868   0.880   2.609
 6606SOL    HW120717   4.906   0.971   2.596
 6606SOL    HW220718   4.932   0.812   2.573
 6607SOL     OW20719   1.985   1.103   2.152
 6607SOL    HW120720   1.962   1.177   2.089
 6607SOL    HW220721   2.073   1.122   2.195
 6608SOL     OW20722   5.393   3.119   2.930
 6608SOL    HW120723   5.353   3.119   3.021
 6608SOL    HW220724   5.320   3.128   2.862
 6609SOL     OW20725   5.553   1.067   6.908
 6609SOL    HW120726   5.569   1.095   7.003
 6609SOL    HW220727   5.609   0.987   6.887
 6610SOL     OW20728   2.151   0.212   0.409
 6610SOL    HW120729   2.180   0.137   0.350
 6610SOL    HW220730   2.148   0.181   0.504
 6611SOL     OW20731   6.178   2.309   2.852
 6611SOL    HW120732   6.084   2.274   2.848
 6611SOL    HW220733   6.242   2.233   2.839
 6612SOL     OW20734   1.172   5.626   6.467
 6612SOL    HW120735   1.113   5.545   6.461
 6612SOL    HW220736   1.242   5.622   6.396
 6613SOL     OW20737   4.966   4.995   2.820
 6613SOL    HW120738   5.008   5.045   2.744
 6613SOL    HW220739   4.978   4.897   2.807
 6614SOL     OW20740   4.974   5.179   6.264
 6614SOL    HW120741   5.008   5.175   6.358
 6614SOL    HW220742   5.046   5.211   6.203
 6615SOL     OW20743   0.403   2.949   4.916
 6615SOL    HW120744   0.367   2.956   5.009
 6615SOL    HW220745   0.481   2.886   4.915
 6616SOL     OW20746   4.734   1.572   5.356
 6616SOL    HW120747   4.780   1.484   5.372
 6616SOL    HW220748   4.638   1.564   5.382
 6617SOL     OW20749   3.099   6.505   4.043
 6617SOL    HW120750   3.037   6.566   3.994
 6617SOL    HW220751   3.175   6.558   4.080
 6618SOL     OW20752   0.913   3.975   2.206
 6618SOL    HW120753   0.946   4.054   2.258
 6618SOL    HW220754   0.816   3.987   2.184
 6619SOL     OW20755   4.367   6.645   3.638
 6619SOL    HW120756   4.325   6.573   3.694
 6619SOL    HW220757   4.308   6.664   3.560
 6620SOL     OW20758   1.612   2.897   6.266
 6620SOL    HW120759   1.675   2.825   6.298
 6620SOL    HW220760   1.586   2.879   6.171
 6621SOL     OW20761   2.404   4.075   0.660
 6621SOL    HW120762   2.485   4.073   0.720
 6621SOL    HW220763   2.321   4.078   0.715
 6622SOL     OW20764   6.701   6.504   0.985
 6622SOL    HW120765   6.662   6.569   0.921
 6622SOL    HW220766   6.797   6.527   1.002
 6623SOL     OW20767   3.576   3.111   2.203
 6623SOL    HW120768   3.546   3.054   2.126
 6623SOL    HW220769   3.600   3.202   2.170
 6624SOL     OW20770   3.439   5.674   5.031
 6624SOL    HW120771   3.378   5.652   4.955
 6624SOL    HW220772   3.392   5.656   5.118
 6625SOL     OW20773   6.117   1.025   6.416
 6625SOL    HW120774   6.101   1.115   6.457
 6625SOL    HW220775   6.168   1.036   6.331
 6626SOL     OW20776   3.131   5.442   3.240
 6626SOL    HW120777   3.080   5.402   3.316
 6626SOL    HW220778   3.156   5.370   3.175
 6627SOL     OW20779   1.954   0.667   6.160
 6627SOL    HW120780   1.947   0.578   6.116
 6627SOL    HW220781   2.014   0.661   6.239
 6628SOL     OW20782   4.510   5.048   2.412
 6628SOL    HW120783   4.564   5.100   2.346
 6628SOL    HW220784   4.452   5.109   2.465
 6629SOL     OW20785   3.078   5.956   1.625
 6629SOL    HW120786   3.170   5.938   1.659
 6629SOL    HW220787   3.070   6.052   1.596
 6630SOL     OW20788   3.758   0.997   0.407
 6630SOL    HW120789   3.819   0.937   0.460
 6630SOL    HW220790   3.813   1.059   0.351
 6631SOL     OW20791   4.705   0.202   2.176
 6631SOL    HW120792   4.706   0.188   2.077
 6631SOL    HW220793   4.782   0.259   2.202
 6632SOL     OW20794   6.964   1.604   0.442
 6632SOL    HW120795   6.908   1.668   0.495
 6632SOL    HW220796   0.041   1.626   0.455
 6633SOL     OW20797   1.179   5.911   6.546
 6633SOL    HW120798   1.192   5.851   6.467
 6633SOL    HW220799   1.257   5.973   6.555
 6634SOL     OW20800   6.347   3.416   5.816
 6634SOL    HW120801   6.349   3.439   5.913
 6634SOL    HW220802   6.296   3.331   5.803
 6635SOL     OW20803   4.474   4.866   3.649
 6635SOL    HW120804   4.570   4.838   3.651
 6635SOL    HW220805   4.460   4.929   3.572
 6636SOL     OW20806   1.073   2.973   5.194
 6636SOL    HW120807   1.125   3.058   5.179
 6636SOL    HW220808   1.106   2.903   5.132
 6637SOL     OW20809   1.596   0.526   0.626
 6637SOL    HW120810   1.691   0.540   0.597
 6637SOL    HW220811   1.563   0.609   0.671
 6638SOL     OW20812   1.989   5.450   4.864
 6638SOL    HW120813   2.054   5.421   4.935
 6638SOL    HW220814   2.039   5.486   4.785
 6639SOL     OW20815   5.575   4.955   6.352
 6639SOL    HW120816   5.642   5.012   6.401
 6639SOL    HW220817   5.483   4.982   6.380
 6640SOL     OW20818   6.942   2.090   3.963
 6640SOL    HW120819   6.935   2.178   4.009
 6640SOL    HW220820   0.018   2.063   3.956
 6641SOL     OW20821   3.516   3.820   6.475
 6641SOL    HW120822   3.446   3.881   6.513
 6641SOL    HW220823   3.477   3.766   6.401
 6642SOL     OW20824   1.276   4.933   0.248
 6642SOL    HW120825   1.330   4.892   0.174
 6642SOL    HW220826   1.208   4.994   0.208
 6643SOL     OW20827   6.324   4.109   6.139
 6643SOL    HW120828   6.259   4.185   6.128
 6643SOL    HW220829   6.273   4.022   6.138
 6644SOL     OW20830   2.861   4.953   1.722
 6644SOL    HW120831   2.795   4.882   1.698
 6644SOL    HW220832   2.953   4.913   1.725
 6645SOL     OW20833   0.177   5.401   6.515
 6645SOL    HW120834   0.219   5.439   6.432
 6645SOL    HW220835   0.249   5.375   6.580
 6646SOL     OW20836   4.234   5.049   4.335
 6646SOL    HW120837   4.246   5.141   4.297
 6646SOL    HW220838   4.182   4.993   4.271
 6647SOL     OW20839   3.390   0.262   2.460
 6647SOL    HW120840   3.442   0.230   2.381
 6647SOL    HW220841   3.357   0.355   2.442
 6648SOL     OW20842   3.945   5.496   3.083
 6648SOL    HW120843   3.884   5.421   3.107
 6648SOL    HW220844   4.000   5.470   3.004
 6649SOL     OW20845   5.261   1.474   6.420
 6649SOL    HW120846   5.318   1.555   6.408
 6649SOL    HW220847   5.316   1.401   6.462
 6650SOL     OW20848   4.106   1.010   3.413
 6650SOL    HW120849   4.025   1.066   3.428
 6650SOL    HW220850   4.138   0.972   3.500
 6651SOL     OW20851   1.213   2.046   0.376
 6651SOL    HW120852   1.119   2.020   0.396
 6651SOL    HW220853   1.259   2.074   0.461
 6652SOL     OW20854   6.656   5.220   1.280
 6652SOL    HW120855   6.634   5.137   1.331
 6652SOL    HW220856   6.645   5.204   1.182
 6653SOL     OW20857   3.176   3.919   3.110
 6653SOL    HW120858   3.099   3.870   3.151
 6653SOL    HW220859   3.252   3.856   3.098
 6654SOL     OW20860   1.876   2.699   1.283
 6654SOL    HW120861   1.814   2.623   1.305
 6654SOL    HW220862   1.956   2.664   1.234
 6655SOL     OW20863   2.943   6.567   1.847
 6655SOL    HW120864   2.902   6.643   1.896
 6655SOL    HW220865   2.875   6.494   1.835
 6656SOL     OW20866   0.028   1.409   2.314
 6656SOL    HW120867   0.118   1.451   2.302
 6656SOL    HW220868   7.008   1.390   2.224
 6657SOL     OW20869   4.233   6.873   6.142
 6657SOL    HW120870   4.205   6.777   6.143
 6657SOL    HW220871   4.294   6.889   6.065
 6658SOL     OW20872   5.554   0.475   5.159
 6658SOL    HW120873   5.559   0.542   5.085
 6658SOL    HW220874   5.646   0.443   5.182
 6659SOL     OW20875   2.951   2.956   6.989
 6659SOL    HW120876   3.037   2.965   6.939
 6659SOL    HW220877   2.969   2.945   0.066
 6660SOL     OW20878   0.031   6.657   2.043
 6660SOL    HW120879   6.994   6.676   1.964
 6660SOL    HW220880   0.122   6.627   2.012
 6661SOL     OW20881   6.350   5.154   3.530
 6661SOL    HW120882   6.353   5.113   3.621
 6661SOL    HW220883   6.259   5.141   3.491
 6662SOL     OW20884   2.402   0.853   0.148
 6662SOL    HW120885   2.320   0.898   0.184
 6662SOL    HW220886   2.475   0.859   0.216
 6663SOL     OW20887   6.686   5.716   2.981
 6663SOL    HW120888   6.736   5.728   3.067
 6663SOL    HW220889   6.591   5.744   2.994
 6664SOL     OW20890   1.214   0.152   2.125
 6664SOL    HW120891   1.306   0.113   2.129
 6664SOL    HW220892   1.169   0.141   2.213
 6665SOL     OW20893   1.071   6.608   3.167
 6665SOL    HW120894   1.087   6.651   3.079
 6665SOL    HW220895   1.062   6.509   3.155
 6666SOL     OW20896   6.182   1.440   4.879
 6666SOL    HW120897   6.084   1.422   4.871
 6666SOL    HW220898   6.226   1.427   4.790
 6667SOL     OW20899   6.223   5.180   4.667
 6667SOL    HW120900   6.209   5.175   4.766
 6667SOL    HW220901   6.134   5.180   4.621
 6668SOL     OW20902   0.155   5.303   2.051
 6668SOL    HW120903   0.062   5.334   2.034
 6668SOL    HW220904   0.214   5.383   2.067
 6669SOL     OW20905   2.382   4.825   3.421
 6669SOL    HW120906   2.287   4.818   3.392
 6669SOL    HW220907   2.437   4.758   3.372
 6670SOL     OW20908   3.391   5.148   6.977
 6670SOL    HW120909   3.464   5.101   6.928
 6670SOL    HW220910   3.308   5.091   6.976
 6671SOL     OW20911   6.025   4.600   6.459
 6671SOL    HW120912   6.119   4.564   6.461
 6671SOL    HW220913   5.988   4.601   6.552
 6672SOL     OW20914   1.674   0.618   5.720
 6672SOL    HW120915   1.653   0.697   5.778
 6672SOL    HW220916   1.711   0.544   5.776
 6673SOL     OW20917   4.690   5.228   2.294
 6673SOL    HW120918   4.704   5.217   2.196
 6673SOL    HW220919   4.679   5.325   2.316
 6674SOL     OW20920   0.896   5.340   5.192
 6674SOL    HW120921   0.889   5.331   5.093
 6674SOL    HW220922   0.846   5.422   5.222
 6675SOL     OW20923   5.378   4.079   0.315
 6675SOL    HW120924   5.349   4.166   0.275
 6675SOL    HW220925   5.427   4.025   0.247
 6676SOL     OW20926   0.703   3.283   5.220
 6676SOL    HW120927   0.714   3.196   5.267
 6676SOL    HW220928   0.785   3.303   5.166
 6677SOL     OW20929   0.430   3.201   0.391
 6677SOL    HW120930   0.433   3.240   0.299
 6677SOL    HW220931   0.335   3.180   0.414
 6678SOL     OW20932   1.240   2.904   6.523
 6678SOL    HW120933   1.331   2.865   6.534
 6678SOL    HW220934   1.242   2.973   6.450
 6679SOL     OW20935   1.259   2.147   5.269
 6679SOL    HW120936   1.287   2.071   5.211
 6679SOL    HW220937   1.266   2.119   5.365
 6680SOL     OW20938   4.013   5.839   6.425
 6680SOL    HW120939   4.107   5.832   6.460
 6680SOL    HW220940   3.982   5.749   6.395
 6681SOL     OW20941   5.587   5.289   6.895
 6681SOL    HW120942   5.683   5.281   6.868
 6681SOL    HW220943   5.568   5.229   6.972
 6682SOL     OW20944   0.114   5.164   2.565
 6682SOL    HW120945   0.183   5.182   2.496
 6682SOL    HW220946   0.146   5.092   2.627
 6683SOL     OW20947   5.042   2.053   5.207
 6683SOL    HW120948   4.975   1.980   5.220
 6683SOL    HW220949   5.097   2.063   5.289
 6684SOL     OW20950   1.667   6.689   2.720
 6684SOL    HW120951   1.680   6.788   2.726
 6684SOL    HW220952   1.756   6.644   2.723
 6685SOL     OW20953   5.314   2.181   6.354
 6685SOL    HW120954   5.238   2.229   6.400
 6685SOL    HW220955   5.400   2.208   6.397
 6686SOL     OW20956   5.596   4.173   4.559
 6686SOL    HW120957   5.571   4.078   4.578
 6686SOL    HW220958   5.512   4.227   4.547
 6687SOL     OW20959   1.231   1.643   0.745
 6687SOL    HW120960   1.177   1.680   0.821
 6687SOL    HW220961   1.232   1.708   0.669
 6688SOL     OW20962   6.984   4.991   2.792
 6688SOL    HW120963   0.062   4.981   2.774
 6688SOL    HW220964   6.970   5.031   2.883
 6689SOL     OW20965   4.728   3.667   0.520
 6689SOL    HW120966   4.732   3.766   0.532
 6689SOL    HW220967   4.802   3.637   0.459
 6690SOL     OW20968   2.634   2.616   1.221
 6690SOL    HW120969   2.615   2.650   1.129
 6690SOL    HW220970   2.718   2.659   1.255
 6691SOL     OW20971   2.157   5.865   1.276
 6691SOL    HW120972   2.128   5.796   1.209
 6691SOL    HW220973   2.100   5.857   1.358
 6692SOL     OW20974   2.919   4.292   5.339
 6692SOL    HW120975   2.953   4.313   5.431
 6692SOL    HW220976   2.914   4.377   5.286
 6693SOL     OW20977   4.557   3.785   5.510
 6693SOL    HW120978   4.554   3.867   5.452
 6693SOL    HW220979   4.623   3.720   5.473
 6694SOL     OW20980   4.791   6.395   0.697
 6694SOL    HW120981   4.877   6.447   0.692
 6694SOL    HW220982   4.727   6.443   0.756
 6695SOL     OW20983   0.871   1.552   6.668
 6695SOL    HW120984   0.940   1.574   6.737
 6695SOL    HW220985   0.849   1.635   6.616
 6696SOL     OW20986   2.052   2.833   1.484
 6696SOL    HW120987   2.130   2.813   1.424
 6696SOL    HW220988   1.992   2.753   1.489
 6697SOL     OW20989   4.540   1.423   2.764
 6697SOL    HW120990   4.506   1.514   2.739
 6697SOL    HW220991   4.640   1.423   2.762
 6698SOL     OW20992   4.033   2.790   6.897
 6698SOL    HW120993   4.133   2.788   6.897
 6698SOL    HW220994   4.001   2.850   6.823
 6699SOL     OW20995   3.550   4.975   6.766
 6699SOL    HW120996   3.528   4.899   6.704
 6699SOL    HW220997   3.592   4.940   6.849
 6700SOL     OW20998   0.511   5.604   1.086
 6700SOL    HW120999   0.539   5.525   1.140
 6700SOL    HW221000   0.593   5.653   1.054
 6701SOL     OW21001   0.202   1.668   0.571
 6701SOL    HW121002   0.239   1.583   0.607
 6701SOL    HW221003   0.165   1.722   0.647
 6702SOL     OW21004   2.790   1.952   0.963
 6702SOL    HW121005   2.830   1.863   0.984
 6702SOL    HW221006   2.692   1.943   0.949
 6703SOL     OW21007   6.431   1.382   6.296
 6703SOL    HW121008   6.409   1.342   6.385
 6703SOL    HW221009   6.518   1.430   6.300
 6704SOL     OW21010   4.604   2.623   2.359
 6704SOL    HW121011   4.673   2.563   2.317
 6704SOL    HW221012   4.583   2.698   2.297
 6705SOL     OW21013   6.341   2.564   1.582
 6705SOL    HW121014   6.415   2.587   1.646
 6705SOL    HW221015   6.274   2.506   1.627
 6706SOL     OW21016   1.401   3.891   6.993
 6706SOL    HW121017   1.413   3.952   6.915
 6706SOL    HW221018   1.304   3.884   7.015
 6707SOL     OW21019   6.299   5.458   4.160
 6707SOL    HW121020   6.360   5.507   4.222
 6707SOL    HW221021   6.216   5.512   4.146
 6708SOL     OW21022   1.297   5.093   2.322
 6708SOL    HW121023   1.295   5.019   2.254
 6708SOL    HW221024   1.377   5.084   2.380
 6709SOL     OW21025   3.541   6.911   1.935
 6709SOL    HW121026   3.447   6.945   1.942
 6709SOL    HW221027   3.581   6.904   2.026
 6710SOL     OW21028   2.907   2.715   6.170
 6710SOL    HW121029   2.918   2.679   6.077
 6710SOL    HW221030   2.853   2.650   6.224
 6711SOL     OW21031   5.113   3.568   6.366
 6711SOL    HW121032   5.121   3.495   6.298
 6711SOL    HW221033   5.156   3.651   6.331
 6712SOL     OW21034   4.163   5.324   0.777
 6712SOL    HW121035   4.214   5.288   0.699
 6712SOL    HW221036   4.213   5.303   0.861
 6713SOL     OW21037   2.563   2.453   1.407
 6713SOL    HW121038   2.594   2.492   1.493
 6713SOL    HW221039   2.574   2.520   1.334
 6714SOL     OW21040   5.190   7.001   4.342
 6714SOL    HW121041   5.099   6.996   4.302
 6714SOL    HW221042   5.252   6.937   4.296
 6715SOL     OW21043   0.611   2.258   0.879
 6715SOL    HW121044   0.623   2.276   0.976
 6715SOL    HW221045   0.664   2.178   0.852
 6716SOL     OW21046   1.751   6.394   0.801
 6716SOL    HW121047   1.727   6.338   0.721
 6716SOL    HW221048   1.710   6.355   0.883
 6717SOL     OW21049   3.619   3.186   0.380
 6717SOL    HW121050   3.603   3.209   0.476
 6717SOL    HW221051   3.656   3.094   0.374
 6718SOL     OW21052   3.609   6.934   0.028
 6718SOL    HW121053   3.577   6.871   0.100
 6718SOL    HW221054   3.646   6.881   6.972
 6719SOL     OW21055   0.370   6.688   5.512
 6719SOL    HW121056   0.464   6.700   5.480
 6719SOL    HW221057   0.308   6.682   5.433
 6720SOL     OW21058   1.920   6.069   1.764
 6720SOL    HW121059   1.963   6.111   1.844
 6720SOL    HW221060   1.847   6.128   1.730
 6721SOL     OW21061   5.431   6.329   4.259
 6721SOL    HW121062   5.497   6.255   4.270
 6721SOL    HW221063   5.478   6.417   4.270
 6722SOL     OW21064   4.366   3.256   6.853
 6722SOL    HW121065   4.446   3.238   6.910
 6722SOL    HW221066   4.355   3.183   6.786
 6723SOL     OW21067   2.545   6.896   3.571
 6723SOL    HW121068   2.458   6.852   3.547
 6723SOL    HW221069   2.620   6.845   3.530
 6724SOL     OW21070   2.992   4.731   5.346
 6724SOL    HW121071   2.978   4.655   5.283
 6724SOL    HW221072   2.946   4.812   5.312
 6725SOL     OW21073   0.689   4.557   2.509
 6725SOL    HW121074   0.630   4.579   2.587
 6725SOL    HW221075   0.705   4.639   2.455
 6726SOL     OW21076   2.319   2.691   4.240
 6726SOL    HW121077   2.351   2.718   4.331
 6726SOL    HW221078   2.223   2.661   4.247
 6727SOL     OW21079   4.867   3.318   6.146
 6727SOL    HW121080   4.819   3.345   6.063
 6727SOL    HW221081   4.811   3.252   6.197
 6728SOL     OW21082   3.742   2.180   4.219
 6728SOL    HW121083   3.835   2.203   4.245
 6728SOL    HW221084   3.730   2.191   4.121
 6729SOL     OW21085   6.313   0.938   2.628
 6729SOL    HW121086   6.292   0.879   2.551
 6729SOL    HW221087   6.400   0.909   2.669
 6730SOL     OW21088   2.733   0.785   0.218
 6730SOL    HW121089   2.828   0.754   0.222
 6730SOL    HW221090   2.681   0.727   0.155
 6731SOL     OW21091   2.635   4.336   1.419
 6731SOL    HW121092   2.557   4.275   1.405
 6731SOL    HW221093   2.650   4.349   1.517
 6732SOL     OW21094   2.176   6.788   0.937
 6732SOL    HW121095   2.105   6.732   0.896
 6732SOL    HW221096   2.247   6.729   0.975
 6733SOL     OW21097   4.398   5.933   5.490
 6733SOL    HW121098   4.331   5.992   5.443
 6733SOL    HW221099   4.376   5.929   5.587
 6734SOL     OW21100   1.371   3.234   5.506
 6734SOL    HW121101   1.384   3.333   5.509
 6734SOL    HW221102   1.434   3.194   5.439
 6735SOL     OW21103   6.814   4.931   5.578
 6735SOL    HW121104   6.862   5.018   5.578
 6735SOL    HW221105   6.729   4.939   5.631
 6736SOL     OW21106   2.772   2.953   1.473
 6736SOL    HW121107   2.730   3.034   1.515
 6736SOL    HW221108   2.730   2.870   1.510
 6737SOL     OW21109   2.429   1.602   2.666
 6737SOL    HW121110   2.428   1.673   2.736
 6737SOL    HW221111   2.401   1.515   2.706
 6738SOL     OW21112   2.825   1.322   2.862
 6738SOL    HW121113   2.790   1.398   2.917
 6738SOL    HW221114   2.921   1.306   2.885
 6739SOL     OW21115   3.875   6.444   4.879
 6739SOL    HW121116   3.892   6.347   4.861
 6739SOL    HW221117   3.838   6.487   4.797
 6740SOL     OW21118   1.734   1.135   4.359
 6740SOL    HW121119   1.807   1.203   4.365
 6740SOL    HW221120   1.650   1.172   4.399
 6741SOL     OW21121   6.561   0.663   6.183
 6741SOL    HW121122   6.494   0.737   6.187
 6741SOL    HW221123   6.653   0.703   6.187
 6742SOL     OW21124   6.299   6.043   5.439
 6742SOL    HW121125   6.263   6.116   5.497
 6742SOL    HW221126   6.386   6.072   5.398
 6743SOL     OW21127   4.110   3.415   1.513
 6743SOL    HW121128   4.185   3.357   1.480
 6743SOL    HW221129   4.026   3.360   1.518
 6744SOL     OW21130   4.472   4.495   5.997
 6744SOL    HW121131   4.477   4.585   6.039
 6744SOL    HW221132   4.456   4.505   5.899
 6745SOL     OW21133   0.930   4.552   3.333
 6745SOL    HW121134   0.960   4.606   3.254
 6745SOL    HW221135   0.881   4.611   3.397
 6746SOL     OW21136   0.028   2.098   1.070
 6746SOL    HW121137   0.117   2.053   1.062
 6746SOL    HW221138   0.041   2.197   1.075
 6747SOL     OW21139   4.904   5.657   5.133
 6747SOL    HW121140   4.852   5.741   5.148
 6747SOL    HW221141   4.897   5.630   5.037
 6748SOL     OW21142   1.023   0.819   2.537
 6748SOL    HW121143   0.957   0.839   2.610
 6748SOL    HW221144   0.974   0.794   2.454
 6749SOL     OW21145   4.451   0.486   0.197
 6749SOL    HW121146   4.455   0.416   0.125
 6749SOL    HW221147   4.523   0.470   0.264
 6750SOL     OW21148   2.635   2.453   4.883
 6750SOL    HW121149   2.580   2.503   4.816
 6750SOL    HW221150   2.595   2.363   4.899
 6751SOL     OW21151   2.467   2.570   4.693
 6751SOL    HW121152   2.428   2.546   4.604
 6751SOL    HW221153   2.425   2.655   4.726
 6752SOL     OW21154   5.406   3.100   0.541
 6752SOL    HW121155   5.401   3.104   0.641
 6752SOL    HW221156   5.502   3.099   0.513
 6753SOL     OW21157   4.377   2.213   6.463
 6753SOL    HW121158   4.345   2.287   6.404
 6753SOL    HW221159   4.407   2.136   6.406
 6754SOL     OW21160   6.029   1.519   6.386
 6754SOL    HW121161   6.094   1.579   6.340
 6754SOL    HW221162   5.996   1.563   6.469
 6755SOL     OW21163   4.965   1.966   3.848
 6755SOL    HW121164   5.043   1.924   3.801
 6755SOL    HW221165   4.986   2.063   3.866
 6756SOL     OW21166   4.753   4.977   4.111
 6756SOL    HW121167   4.678   4.913   4.131
 6756SOL    HW221168   4.730   5.030   4.030
 6757SOL     OW21169   6.112   6.215   2.053
 6757SOL    HW121170   6.209   6.210   2.028
 6757SOL    HW221171   6.100   6.178   2.145
 6758SOL     OW21172   5.438   3.107   1.687
 6758SOL    HW121173   5.431   3.032   1.620
 6758SOL    HW221174   5.462   3.069   1.776
 6759SOL     OW21175   0.799   4.936   2.757
 6759SOL    HW121176   0.781   4.872   2.831
 6759SOL    HW221177   0.897   4.940   2.739
 6760SOL     OW21178   6.745   3.791   4.053
 6760SOL    HW121179   6.784   3.880   4.077
 6760SOL    HW221180   6.756   3.774   3.955
 6761SOL     OW21181   4.986   2.663   5.625
 6761SOL    HW121182   4.906   2.639   5.679
 6761SOL    HW221183   4.959   2.676   5.529
 6762SOL     OW21184   6.542   4.285   3.157
 6762SOL    HW121185   6.450   4.312   3.186
 6762SOL    HW221186   6.601   4.277   3.237
 6763SOL     OW21187   6.518   6.814   5.479
 6763SOL    HW121188   6.560   6.899   5.509
 6763SOL    HW221189   6.439   6.793   5.537
 6764SOL     OW21190   3.024   3.991   6.590
 6764SOL    HW121191   3.021   4.009   6.492
 6764SOL    HW221192   2.994   4.072   6.641
 6765SOL     OW21193   6.084   4.232   1.996
 6765SOL    HW121194   6.017   4.190   1.934
 6765SOL    HW221195   6.039   4.260   2.080
 6766SOL     OW21196   2.292   0.252   5.943
 6766SOL    HW121197   2.288   0.252   5.843
 6766SOL    HW221198   2.200   0.270   5.980
 6767SOL     OW21199   6.969   2.765   6.470
 6767SOL    HW121200   6.977   2.673   6.432
 6767SOL    HW221201   6.886   2.808   6.434
 6768SOL     OW21202   7.003   6.887   4.094
 6768SOL    HW121203   6.908   6.920   4.086
 6768SOL    HW221204   0.015   6.904   4.187
 6769SOL     OW21205   1.930   2.924   5.596
 6769SOL    HW121206   1.875   2.967   5.525
 6769SOL    HW221207   1.870   2.883   5.664
 6770SOL     OW21208   0.270   1.812   3.392
 6770SOL    HW121209   0.201   1.748   3.358
 6770SOL    HW221210   0.343   1.762   3.438
 6771SOL     OW21211   3.991   2.110   3.293
 6771SOL    HW121212   3.928   2.041   3.331
 6771SOL    HW221213   3.976   2.117   3.194
 6772SOL     OW21214   0.064   1.696   2.425
 6772SOL    HW121215   7.002   1.685   2.368
 6772SOL    HW221216   0.146   1.686   2.368
 6773SOL     OW21217   0.747   6.479   1.512
 6773SOL    HW121218   0.746   6.380   1.496
 6773SOL    HW221219   0.782   6.498   1.603
 6774SOL     OW21220   1.899   2.598   5.789
 6774SOL    HW121221   1.905   2.499   5.802
 6774SOL    HW221222   1.990   2.636   5.775
 6775SOL     OW21223   0.464   1.886   5.123
 6775SOL    HW121224   0.392   1.865   5.057
 6775SOL    HW221225   0.551   1.851   5.089
 6776SOL     OW21226   3.037   3.973   2.646
 6776SOL    HW121227   3.083   4.022   2.721
 6776SOL    HW221228   3.073   4.004   2.559
 6777SOL     OW21229   5.841   5.228   6.943
 6777SOL    HW121230   5.879   5.181   0.002
 6777SOL    HW221231   5.891   5.312   6.927
 6778SOL     OW21232   6.688   4.854   2.889
 6778SOL    HW121233   6.712   4.777   2.947
 6778SOL    HW221234   6.771   4.905   2.865
 6779SOL     OW21235   5.644   3.771   5.730
 6779SOL    HW121236   5.591   3.689   5.710
 6779SOL    HW221237   5.610   3.847   5.674
 6780SOL     OW21238   3.160   1.944   3.105
 6780SOL    HW121239   3.148   2.041   3.128
 6780SOL    HW221240   3.236   1.907   3.158
 6781SOL     OW21241   6.772   1.874   4.056
 6781SOL    HW121242   6.753   1.840   4.148
 6781SOL    HW221243   6.832   1.954   4.062
 6782SOL     OW21244   6.847   1.384   2.998
 6782SOL    HW121245   6.817   1.386   3.093
 6782SOL    HW221246   6.903   1.303   2.983
 6783SOL     OW21247   1.596   5.009   4.979
 6783SOL    HW121248   1.686   4.969   4.997
 6783SOL    HW221249   1.528   4.937   4.972
 6784SOL     OW21250   2.301   3.755   1.477
 6784SOL    HW121251   2.282   3.850   1.451
 6784SOL    HW221252   2.336   3.753   1.571
 6785SOL     OW21253   5.109   5.701   4.886
 6785SOL    HW121254   5.061   5.785   4.857
 6785SOL    HW221255   5.177   5.723   4.955
 6786SOL     OW21256   6.295   1.917   6.511
 6786SOL    HW121257   6.318   1.827   6.548
 6786SOL    HW221258   6.239   1.967   6.577
 6787SOL     OW21259   3.933   2.195   6.276
 6787SOL    HW121260   3.952   2.290   6.251
 6787SOL    HW221261   4.015   2.139   6.261
 6788SOL     OW21262   6.460   3.939   2.956
 6788SOL    HW121263   6.489   3.851   2.919
 6788SOL    HW221264   6.378   3.971   2.908
 6789SOL     OW21265   5.902   4.133   3.782
 6789SOL    HW121266   5.864   4.045   3.752
 6789SOL    HW221267   5.975   4.161   3.721
 6790SOL     OW21268   0.386   5.175   6.021
 6790SOL    HW121269   0.402   5.195   6.118
 6790SOL    HW221270   0.308   5.114   6.011
 6791SOL     OW21271   3.445   0.571   3.304
 6791SOL    HW121272   3.355   0.606   3.330
 6791SOL    HW221273   3.438   0.473   3.285
 6792SOL     OW21274   4.227   6.943   4.856
 6792SOL    HW121275   4.202   6.950   4.953
 6792SOL    HW221276   4.146   6.922   4.802
 6793SOL     OW21277   1.677   4.103   0.129
 6793SOL    HW121278   1.649   4.033   0.195
 6793SOL    HW221279   1.681   4.063   0.037
 6794SOL     OW21280   4.728   1.709   5.793
 6794SOL    HW121281   4.756   1.771   5.719
 6794SOL    HW221282   4.658   1.646   5.758
 6795SOL     OW21283   1.028   1.397   0.767
 6795SOL    HW121284   0.955   1.420   0.831
 6795SOL    HW221285   1.109   1.452   0.786
 6796SOL     OW21286   6.017   1.197   2.884
 6796SOL    HW121287   6.060   1.160   2.802
 6796SOL    HW221288   6.085   1.245   2.939
 6797SOL     OW21289   1.139   2.468   1.623
 6797SOL    HW121290   1.052   2.419   1.634
 6797SOL    HW221291   1.120   2.562   1.593
 6798SOL     OW21292   5.726   0.084   1.412
 6798SOL    HW121293   5.805   0.144   1.426
 6798SOL    HW221294   5.706   0.078   1.314
 6799SOL     OW21295   6.361   0.786   3.364
 6799SOL    HW121296   6.387   0.724   3.290
 6799SOL    HW221297   6.274   0.757   3.403
 6800SOL     OW21298   6.636   2.086   1.508
 6800SOL    HW121299   6.685   2.172   1.493
 6800SOL    HW221300   6.550   2.105   1.556
 6801SOL     OW21301   1.172   5.784   5.694
 6801SOL    HW121302   1.163   5.812   5.789
 6801SOL    HW221303   1.183   5.864   5.636
 6802SOL     OW21304   3.390   4.605   1.649
 6802SOL    HW121305   3.357   4.511   1.635
 6802SOL    HW221306   3.477   4.603   1.698
 6803SOL     OW21307   5.535   4.821   6.046
 6803SOL    HW121308   5.525   4.785   6.138
 6803SOL    HW221309   5.625   4.795   6.010
 6804SOL     OW21310   3.361   4.932   2.431
 6804SOL    HW121311   3.439   4.901   2.485
 6804SOL    HW221312   3.350   5.031   2.443
 6805SOL     OW21313   0.248   4.267   4.934
 6805SOL    HW121314   0.179   4.282   5.005
 6805SOL    HW221315   0.281   4.172   4.939
 6806SOL     OW21316   0.121   1.992   2.321
 6806SOL    HW121317   0.096   2.007   2.417
 6806SOL    HW221318   0.065   1.919   2.282
 6807SOL     OW21319   3.090   4.000   1.861
 6807SOL    HW121320   3.071   3.993   1.959
 6807SOL    HW221321   3.176   4.051   1.848
 6808SOL     OW21322   3.557   1.084   4.286
 6808SOL    HW121323   3.477   1.105   4.228
 6808SOL    HW221324   3.526   1.042   4.371
 6809SOL     OW21325   5.501   3.351   0.994
 6809SOL    HW121326   5.411   3.371   0.954
 6809SOL    HW221327   5.507   3.253   1.015
 6810SOL     OW21328   2.549   0.345   4.397
 6810SOL    HW121329   2.618   0.283   4.436
 6810SOL    HW221330   2.458   0.307   4.413
 6811SOL     OW21331   6.762   1.450   1.020
 6811SOL    HW121332   6.722   1.457   1.111
 6811SOL    HW221333   6.757   1.539   0.974
 6812SOL     OW21334   3.617   4.159   5.285
 6812SOL    HW121335   3.576   4.085   5.232
 6812SOL    HW221336   3.685   4.121   5.349
 6813SOL     OW21337   6.018   3.823   1.667
 6813SOL    HW121338   5.931   3.776   1.684
 6813SOL    HW221339   6.035   3.827   1.568
 6814SOL     OW21340   5.347   1.167   6.729
 6814SOL    HW121341   5.431   1.156   6.782
 6814SOL    HW221342   5.322   1.263   6.726
 6815SOL     OW21343   1.812   4.940   5.636
 6815SOL    HW121344   1.910   4.920   5.632
 6815SOL    HW221345   1.761   4.854   5.631
 6816SOL     OW21346   0.786   0.875   2.668
 6816SOL    HW121347   0.778   0.967   2.705
 6816SOL    HW221348   0.706   0.821   2.693
 6817SOL     OW21349   3.816   2.060   2.226
 6817SOL    HW121350   3.763   2.118   2.163
 6817SOL    HW221351   3.888   2.014   2.175
 6818SOL     OW21352   1.732   0.198   5.228
 6818SOL    HW121353   1.791   0.250   5.290
 6818SOL    HW221354   1.742   0.233   5.135
 6819SOL     OW21355   4.940   4.442   1.857
 6819SOL    HW121356   4.942   4.376   1.933
 6819SOL    HW221357   4.845   4.466   1.837
 6820SOL     OW21358   3.177   5.815   2.084
 6820SOL    HW121359   3.229   5.876   2.143
 6820SOL    HW221360   3.221   5.810   1.994
 6821SOL     OW21361   4.027   2.748   5.394
 6821SOL    HW121362   4.055   2.688   5.319
 6821SOL    HW221363   3.952   2.706   5.444
 6822SOL     OW21364   6.597   2.732   6.193
 6822SOL    HW121365   6.647   2.654   6.156
 6822SOL    HW221366   6.503   2.706   6.212
 6823SOL     OW21367   6.113   3.005   6.212
 6823SOL    HW121368   6.172   2.927   6.192
 6823SOL    HW221369   6.170   3.085   6.232
 6824SOL     OW21370   1.147   0.348   5.819
 6824SOL    HW121371   1.242   0.377   5.803
 6824SOL    HW221372   1.132   0.337   5.917
 6825SOL     OW21373   5.808   4.369   0.537
 6825SOL    HW121374   5.853   4.401   0.621
 6825SOL    HW221375   5.752   4.289   0.558
 6826SOL     OW21376   6.388   4.491   4.121
 6826SOL    HW121377   6.372   4.570   4.062
 6826SOL    HW221378   6.368   4.516   4.216
 6827SOL     OW21379   4.024   5.756   4.659
 6827SOL    HW121380   4.058   5.673   4.702
 6827SOL    HW221381   4.003   5.737   4.563
 6828SOL     OW21382   2.789   2.303   2.956
 6828SOL    HW121383   2.818   2.225   2.900
 6828SOL    HW221384   2.843   2.305   3.040
 6829SOL     OW21385   3.762   6.667   3.962
 6829SOL    HW121386   3.727   6.632   3.875
 6829SOL    HW221387   3.795   6.760   3.949
 6830SOL     OW21388   4.940   6.561   2.970
 6830SOL    HW121389   4.851   6.533   3.005
 6830SOL    HW221390   4.929   6.643   2.914
 6831SOL     OW21391   1.517   1.425   6.162
 6831SOL    HW121392   1.609   1.401   6.130
 6831SOL    HW221393   1.511   1.411   6.260
 6832SOL     OW21394   3.274   2.364   0.061
 6832SOL    HW121395   3.206   2.402   0.124
 6832SOL    HW221396   3.332   2.437   0.027
 6833SOL     OW21397   3.391   5.107   6.098
 6833SOL    HW121398   3.423   5.020   6.061
 6833SOL    HW221399   3.446   5.130   6.178
 6834SOL     OW21400   5.428   6.573   1.066
 6834SOL    HW121401   5.485   6.558   1.146
 6834SOL    HW221402   5.458   6.656   1.019
 6835SOL     OW21403   2.477   2.215   4.925
 6835SOL    HW121404   2.392   2.226   4.874
 6835SOL    HW221405   2.456   2.182   5.018
 6836SOL     OW21406   2.062   4.375   6.139
 6836SOL    HW121407   2.006   4.386   6.222
 6836SOL    HW221408   2.093   4.281   6.132
 6837SOL     OW21409   0.402   0.721   1.792
 6837SOL    HW121410   0.345   0.716   1.710
 6837SOL    HW221411   0.488   0.766   1.769
 6838SOL     OW21412   2.856   3.908   5.108
 6838SOL    HW121413   2.904   3.973   5.049
 6838SOL    HW221414   2.793   3.854   5.053
 6839SOL     OW21415   5.963   3.290   4.252
 6839SOL    HW121416   6.044   3.248   4.212
 6839SOL    HW221417   5.882   3.236   4.229
 6840SOL     OW21418   2.798   6.875   5.393
 6840SOL    HW121419   2.870   6.926   5.346
 6840SOL    HW221420   2.840   6.808   5.455
 6841SOL     OW21421   4.168   6.284   0.907
 6841SOL    HW121422   4.244   6.343   0.934
 6841SOL    HW221423   4.107   6.269   0.985
 6842SOL     OW21424   0.546   3.730   5.841
 6842SOL    HW121425   0.491   3.807   5.812
 6842SOL    HW221426   0.570   3.741   5.938
 6843SOL     OW21427   3.620   2.131   2.428
 6843SOL    HW121428   3.600   2.226   2.453
 6843SOL    HW221429   3.696   2.130   2.362
 6844SOL     OW21430   4.349   4.648   4.028
 6844SOL    HW121431   4.346   4.645   3.928
 6844SOL    HW221432   4.405   4.572   4.062
 6845SOL     OW21433   4.571   4.991   2.040
 6845SOL    HW121434   4.588   4.916   2.104
 6845SOL    HW221435   4.551   4.954   1.950
 6846SOL     OW21436   3.241   3.027   2.344
 6846SOL    HW121437   3.254   3.126   2.336
 6846SOL    HW221438   3.265   2.998   2.436
 6847SOL     OW21439   6.024   3.524   1.460
 6847SOL    HW121440   6.121   3.507   1.478
 6847SOL    HW221441   5.971   3.512   1.543
 6848SOL     OW21442   0.601   6.592   3.355
 6848SOL    HW121443   0.588   6.532   3.276
 6848SOL    HW221444   0.695   6.624   3.358
 6849SOL     OW21445   3.426   6.645   3.787
 6849SOL    HW121446   3.515   6.673   3.751
 6849SOL    HW221447   3.388   6.573   3.729
 6850SOL     OW21448   5.439   2.989   2.210
 6850SOL    HW121449   5.342   3.008   2.223
 6850SOL    HW221450   5.450   2.907   2.154
 6851SOL     OW21451   1.151   5.491   5.392
 6851SOL    HW121452   1.109   5.401   5.407
 6851SOL    HW221453   1.240   5.479   5.348
 6852SOL     OW21454   0.186   4.165   2.319
 6852SOL    HW121455   0.231   4.232   2.378
 6852SOL    HW221456   0.111   4.208   2.269
 6853SOL     OW21457   1.237   3.576   5.251
 6853SOL    HW121458   1.137   3.577   5.247
 6853SOL    HW221459   1.268   3.492   5.297
 6854SOL     OW21460   6.369   2.255   6.506
 6854SOL    HW121461   6.377   2.179   6.572
 6854SOL    HW221462   6.291   2.313   6.531
 6855SOL     OW21463   2.573   6.471   1.267
 6855SOL    HW121464   2.581   6.487   1.169
 6855SOL    HW221465   2.623   6.388   1.292
 6856SOL     OW21466   5.964   3.519   5.267
 6856SOL    HW121467   6.037   3.486   5.326
 6856SOL    HW221468   5.886   3.457   5.272
 6857SOL     OW21469   4.222   1.733   5.426
 6857SOL    HW121470   4.122   1.741   5.426
 6857SOL    HW221471   4.261   1.798   5.361
 6858SOL     OW21472   4.074   3.216   4.622
 6858SOL    HW121473   4.110   3.127   4.594
 6858SOL    HW221474   4.044   3.212   4.717
 6859SOL     OW21475   3.787   0.206   0.737
 6859SOL    HW121476   3.834   0.282   0.781
 6859SOL    HW221477   3.743   0.238   0.653
 6860SOL     OW21478   5.229   3.192   6.639
 6860SOL    HW121479   5.261   3.287   6.641
 6860SOL    HW221480   5.259   3.144   6.721
 6861SOL     OW21481   6.651   4.909   0.006
 6861SOL    HW121482   6.668   4.965   6.945
 6861SOL    HW221483   6.592   4.958   0.070
 6862SOL     OW21484   3.347   5.546   3.954
 6862SOL    HW121485   3.354   5.532   4.053
 6862SOL    HW221486   3.401   5.476   3.906
 6863SOL     OW21487   5.487   2.838   4.330
 6863SOL    HW121488   5.406   2.895   4.319
 6863SOL    HW221489   5.561   2.893   4.369
 6864SOL     OW21490   3.647   5.899   5.333
 6864SOL    HW121491   3.690   5.817   5.295
 6864SOL    HW221492   3.652   5.974   5.267
 6865SOL     OW21493   6.399   4.792   3.744
 6865SOL    HW121494   6.471   4.752   3.801
 6865SOL    HW221495   6.440   4.857   3.680
 6866SOL     OW21496   0.169   3.060   2.205
 6866SOL    HW121497   0.169   3.009   2.291
 6866SOL    HW221498   0.263   3.078   2.176
 6867SOL     OW21499   2.328   4.418   2.328
 6867SOL    HW121500   2.367   4.438   2.417
 6867SOL    HW221501   2.364   4.482   2.260
 6868SOL     OW21502   2.150   5.629   4.673
 6868SOL    HW121503   2.096   5.623   4.589
 6868SOL    HW221504   2.235   5.578   4.662
 6869SOL     OW21505   5.967   3.144   5.250
 6869SOL    HW121506   5.951   3.242   5.234
 6869SOL    HW221507   5.910   3.113   5.326
 6870SOL     OW21508   5.612   3.417   2.295
 6870SOL    HW121509   5.583   3.323   2.275
 6870SOL    HW221510   5.711   3.418   2.311
 6871SOL     OW21511   5.492   5.636   1.119
 6871SOL    HW121512   5.554   5.701   1.075
 6871SOL    HW221513   5.422   5.686   1.169
 6872SOL     OW21514   1.872   3.486   6.630
 6872SOL    HW121515   1.783   3.514   6.666
 6872SOL    HW221516   1.934   3.466   6.706
 6873SOL     OW21517   5.741   3.492   5.975
 6873SOL    HW121518   5.823   3.457   5.929
 6873SOL    HW221519   5.695   3.417   6.023
 6874SOL     OW21520   0.613   2.787   4.588
 6874SOL    HW121521   0.520   2.796   4.625
 6874SOL    HW221522   0.630   2.692   4.561
 6875SOL     OW21523   2.789   1.498   3.798
 6875SOL    HW121524   2.815   1.548   3.881
 6875SOL    HW221525   2.690   1.480   3.800
 6876SOL     OW21526   4.108   5.999   0.043
 6876SOL    HW121527   4.184   6.062   0.026
 6876SOL    HW221528   4.140   5.905   0.033
 6877SOL     OW21529   2.387   4.472   6.820
 6877SOL    HW121530   2.326   4.552   6.823
 6877SOL    HW221531   2.384   4.425   6.908
 6878SOL     OW21532   1.538   1.354   5.558
 6878SOL    HW121533   1.563   1.346   5.654
 6878SOL    HW221534   1.607   1.408   5.509
 6879SOL     OW21535   1.608   2.326   6.621
 6879SOL    HW121536   1.557   2.250   6.580
 6879SOL    HW221537   1.599   2.407   6.563
 6880SOL     OW21538   2.174   3.906   4.616
 6880SOL    HW121539   2.084   3.908   4.572
 6880SOL    HW221540   2.203   3.812   4.629
 6881SOL     OW21541   6.955   3.694   1.979
 6881SOL    HW121542   6.988   3.636   2.053
 6881SOL    HW221543   6.961   3.790   2.007
 6882SOL     OW21544   2.156   0.315   5.275
 6882SOL    HW121545   2.233   0.373   5.248
 6882SOL    HW221546   2.186   0.249   5.344
 6883SOL     OW21547   4.145   0.050   1.615
 6883SOL    HW121548   4.079   7.016   1.669
 6883SOL    HW221549   4.144   0.018   1.520
 6884SOL     OW21550   1.890   5.605   3.901
 6884SOL    HW121551   1.905   5.510   3.926
 6884SOL    HW221552   1.978   5.649   3.882
 6885SOL     OW21553   2.818   5.518   4.467
 6885SOL    HW121554   2.862   5.478   4.548
 6885SOL    HW221555   2.845   5.466   4.386
 6886SOL     OW21556   5.697   1.229   2.515
 6886SOL    HW121557   5.702   1.129   2.513
 6886SOL    HW221558   5.784   1.266   2.546
 6887SOL     OW21559   5.654   0.613   4.369
 6887SOL    HW121560   5.737   0.559   4.366
 6887SOL    HW221561   5.584   0.565   4.423
 6888SOL     OW21562   5.693   6.847   4.791
 6888SOL    HW121563   5.668   6.940   4.818
 6888SOL    HW221564   5.748   6.805   4.863
 6889SOL     OW21565   1.411   4.337   5.863
 6889SOL    HW121566   1.416   4.414   5.799
 6889SOL    HW221567   1.434   4.253   5.814
 6890SOL     OW21568   2.012   0.062   1.645
 6890SOL    HW121569   1.964   0.003   1.710
 6890SOL    HW221570   2.006   0.157   1.675
 6891SOL     OW21571   1.206   4.380   3.908
 6891SOL    HW121572   1.205   4.332   3.820
 6891SOL    HW221573   1.179   4.475   3.894
 6892SOL     OW21574   3.156   0.903   3.684
 6892SOL    HW121575   3.239   0.901   3.740
 6892SOL    HW221576   3.179   0.876   3.590
 6893SOL     OW21577   4.597   5.936   2.973
 6893SOL    HW121578   4.678   5.897   3.015
 6893SOL    HW221579   4.551   5.997   3.038
 6894SOL     OW21580   6.679   4.964   6.502
 6894SOL    HW121581   6.730   4.891   6.547
 6894SOL    HW221582   6.643   4.931   6.414
 6895SOL     OW21583   3.075   5.115   6.666
 6895SOL    HW121584   3.123   5.070   6.590
 6895SOL    HW221585   3.053   5.047   6.736
 6896SOL     OW21586   3.643   0.712   3.403
 6896SOL    HW121587   3.723   0.663   3.439
 6896SOL    HW221588   3.578   0.646   3.366
 6897SOL     OW21589   3.332   3.437   0.685
 6897SOL    HW121590   3.305   3.512   0.624
 6897SOL    HW221591   3.311   3.462   0.779
 6898SOL     OW21592   4.140   2.118   2.024
 6898SOL    HW121593   4.142   2.187   1.952
 6898SOL    HW221594   4.112   2.030   1.986
 6899SOL     OW21595   4.560   6.025   6.914
 6899SOL    HW121596   4.598   5.933   6.918
 6899SOL    HW221597   4.550   6.054   6.819
 6900SOL     OW21598   5.101   0.033   6.261
 6900SOL    HW121599   5.137   6.960   6.269
 6900SOL    HW221600   5.122   0.069   6.170
 6901SOL     OW21601   1.695   6.994   6.528
 6901SOL    HW121602   1.629   6.921   6.545
 6901SOL    HW221603   1.786   6.954   6.520
 6902SOL     OW21604   0.095   6.200   0.883
 6902SOL    HW121605   0.051   6.253   0.955
 6902SOL    HW221606   0.135   6.117   0.922
 6903SOL     OW21607   4.563   4.642   0.643
 6903SOL    HW121608   4.514   4.682   0.566
 6903SOL    HW221609   4.661   4.644   0.625
 6904SOL     OW21610   6.499   1.417   3.364
 6904SOL    HW121611   6.512   1.429   3.265
 6904SOL    HW221612   6.566   1.473   3.413
 6905SOL     OW21613   5.689   6.189   0.924
 6905SOL    HW121614   5.684   6.283   0.888
 6905SOL    HW221615   5.782   6.171   0.957
 6906SOL     OW21616   4.295   0.562   3.339
 6906SOL    HW121617   4.349   0.626   3.285
 6906SOL    HW221618   4.199   0.568   3.313
 6907SOL     OW21619   3.803   1.464   1.612
 6907SOL    HW121620   3.768   1.557   1.625
 6907SOL    HW221621   3.855   1.460   1.527
 6908SOL     OW21622   1.940   6.804   5.637
 6908SOL    HW121623   2.022   6.852   5.669
 6908SOL    HW221624   1.962   6.748   5.558
 6909SOL     OW21625   4.296   4.125   6.949
 6909SOL    HW121626   4.328   4.218   6.965
 6909SOL    HW221627   4.306   4.101   6.853
 6910SOL     OW21628   6.520   1.610   2.002
 6910SOL    HW121629   6.614   1.582   1.983
 6910SOL    HW221630   6.494   1.578   2.093
 6911SOL     OW21631   4.046   1.416   4.729
 6911SOL    HW121632   4.120   1.360   4.765
 6911SOL    HW221633   4.058   1.430   4.631
 6912SOL     OW21634   5.435   4.659   0.610
 6912SOL    HW121635   5.384   4.587   0.564
 6912SOL    HW221636   5.374   4.734   0.634
 6913SOL     OW21637   5.512   5.019   4.798
 6913SOL    HW121638   5.508   5.112   4.836
 6913SOL    HW221639   5.435   4.966   4.832
 6914SOL     OW21640   5.990   5.470   1.014
 6914SOL    HW121641   6.023   5.456   0.921
 6914SOL    HW221642   5.990   5.568   1.036
 6915SOL     OW21643   0.522   5.003   2.715
 6915SOL    HW121644   0.512   5.051   2.628
 6915SOL    HW221645   0.619   4.987   2.733
 6916SOL     OW21646   6.036   2.643   0.049
 6916SOL    HW121647   6.119   2.697   0.064
 6916SOL    HW221648   5.956   2.701   0.061
 6917SOL     OW21649   4.869   5.858   6.008
 6917SOL    HW121650   4.959   5.883   5.972
 6917SOL    HW221651   4.798   5.879   5.940
 6918SOL     OW21652   0.036   3.294   3.582
 6918SOL    HW121653   0.019   3.208   3.534
 6918SOL    HW221654   0.068   3.274   3.675
 6919SOL     OW21655   2.045   5.884   3.030
 6919SOL    HW121656   1.971   5.863   2.966
 6919SOL    HW221657   2.123   5.825   3.011
 6920SOL     OW21658   4.599   6.414   4.380
 6920SOL    HW121659   4.653   6.410   4.296
 6920SOL    HW221660   4.510   6.455   4.360
 6921SOL     OW21661   0.403   1.185   3.706
 6921SOL    HW121662   0.326   1.183   3.770
 6921SOL    HW221663   0.463   1.107   3.723
 6922SOL     OW21664   2.242   6.546   0.686
 6922SOL    HW121665   2.293   6.522   0.604
 6922SOL    HW221666   2.145   6.557   0.664
 6923SOL     OW21667   4.512   0.696   4.374
 6923SOL    HW121668   4.542   0.725   4.464
 6923SOL    HW221669   4.561   0.749   4.304
 6924SOL     OW21670   0.346   5.561   1.636
 6924SOL    HW121671   0.409   5.577   1.712
 6924SOL    HW221672   0.378   5.609   1.555
 6925SOL     OW21673   4.386   6.006   3.148
 6925SOL    HW121674   4.307   5.947   3.161
 6925SOL    HW221675   4.361   6.086   3.094
 6926SOL     OW21676   3.235   2.954   4.473
 6926SOL    HW121677   3.168   3.003   4.529
 6926SOL    HW221678   3.292   2.896   4.532
 6927SOL     OW21679   4.636   3.871   5.858
 6927SOL    HW121680   4.604   3.791   5.808
 6927SOL    HW221681   4.579   3.950   5.836
 6928SOL     OW21682   5.095   0.845   6.284
 6928SOL    HW121683   5.004   0.884   6.271
 6928SOL    HW221684   5.157   0.917   6.316
 6929SOL     OW21685   4.335   5.526   0.711
 6929SOL    HW121686   4.403   5.488   0.649
 6929SOL    HW221687   4.282   5.452   0.752
 6930SOL     OW21688   0.548   0.127   3.495
 6930SOL    HW121689   0.515   0.039   3.462
 6930SOL    HW221690   0.473   0.193   3.494
 6931SOL     OW21691   1.913   1.295   1.922
 6931SOL    HW121692   1.871   1.383   1.944
 6931SOL    HW221693   1.886   1.267   1.830
 6932SOL     OW21694   3.002   1.719   0.601
 6932SOL    HW121695   3.065   1.797   0.597
 6932SOL    HW221696   3.031   1.649   0.536
 6933SOL     OW21697   4.315   5.564   5.955
 6933SOL    HW121698   4.403   5.541   5.996
 6933SOL    HW221699   4.297   5.502   5.879
 6934SOL     OW21700   5.036   3.126   6.871
 6934SOL    HW121701   5.092   3.050   6.903
 6934SOL    HW221702   5.003   3.107   6.778
 6935SOL     OW21703   4.599   5.906   3.365
 6935SOL    HW121704   4.519   5.924   3.309
 6935SOL    HW221705   4.637   5.817   3.341
 6936SOL     OW21706   1.075   3.406   1.240
 6936SOL    HW121707   1.106   3.363   1.156
 6936SOL    HW221708   0.999   3.468   1.220
 6937SOL     OW21709   4.468   6.871   5.981
 6937SOL    HW121710   4.475   6.778   5.944
 6937SOL    HW221711   4.548   6.890   6.038
 6938SOL     OW21712   5.476   2.786   5.522
 6938SOL    HW121713   5.406   2.720   5.549
 6938SOL    HW221714   5.432   2.868   5.486
 6939SOL     OW21715   6.885   4.143   2.508
 6939SOL    HW121716   6.916   4.106   2.595
 6939SOL    HW221717   6.811   4.085   2.472
 6940SOL     OW21718   5.117   0.407   5.830
 6940SOL    HW121719   5.204   0.380   5.871
 6940SOL    HW221720   5.121   0.503   5.803
 6941SOL     OW21721   3.913   3.819   3.542
 6941SOL    HW121722   3.910   3.871   3.627
 6941SOL    HW221723   3.984   3.749   3.548
 6942SOL     OW21724   6.862   2.578   0.059
 6942SOL    HW121725   6.811   2.634   0.123
 6942SOL    HW221726   6.924   2.636   0.006
 6943SOL     OW21727   5.262   5.548   6.138
 6943SOL    HW121728   5.341   5.581   6.189
 6943SOL    HW221729   5.282   5.552   6.040
 6944SOL     OW21730   0.815   5.281   5.924
 6944SOL    HW121731   0.913   5.294   5.911
 6944SOL    HW221732   0.800   5.200   5.981
 6945SOL     OW21733   6.775   2.773   5.704
 6945SOL    HW121734   6.703   2.794   5.770
 6945SOL    HW221735   6.777   2.843   5.633
 6946SOL     OW21736   5.417   3.652   2.415
 6946SOL    HW121737   5.319   3.635   2.406
 6946SOL    HW221738   5.464   3.566   2.433
 6947SOL     OW21739   3.202   6.862   3.094
 6947SOL    HW121740   3.133   6.814   3.149
 6947SOL    HW221741   3.276   6.799   3.072
 6948SOL     OW21742   4.953   0.414   6.193
 6948SOL    HW121743   5.017   0.489   6.173
 6948SOL    HW221744   4.920   0.375   6.108
 6949SOL     OW21745   5.148   6.805   2.915
 6949SOL    HW121746   5.149   6.857   3.000
 6949SOL    HW221747   5.055   6.773   2.897
 6950SOL     OW21748   1.936   1.171   3.271
 6950SOL    HW121749   2.021   1.170   3.324
 6950SOL    HW221750   1.900   1.264   3.266
 6951SOL     OW21751   6.681   5.715   5.918
 6951SOL    HW121752   6.767   5.709   5.867
 6951SOL    HW221753   6.682   5.648   5.993
 6952SOL     OW21754   0.345   5.158   4.988
 6952SOL    HW121755   0.407   5.232   5.015
 6952SOL    HW221756   0.351   5.085   5.056
 6953SOL     OW21757   4.859   0.912   5.541
 6953SOL    HW121758   4.922   0.933   5.466
 6953SOL    HW221759   4.822   0.997   5.578
 6954SOL     OW21760   6.438   3.011   3.564
 6954SOL    HW121761   6.374   3.077   3.602
 6954SOL    HW221762   6.417   2.919   3.599
 6955SOL     OW21763   0.393   6.151   1.948
 6955SOL    HW121764   0.307   6.106   1.969
 6955SOL    HW221765   0.464   6.120   2.012
 6956SOL     OW21766   4.164   5.374   1.225
 6956SOL    HW121767   4.190   5.298   1.285
 6956SOL    HW221768   4.208   5.457   1.257
 6957SOL     OW21769   7.004   5.133   1.591
 6957SOL    HW121770   0.004   5.228   1.613
 6957SOL    HW221771   0.061   5.075   1.620
 6958SOL     OW21772   2.605   3.092   6.331
 6958SOL    HW121773   2.546   3.148   6.272
 6958SOL    HW221774   2.569   2.998   6.332
 6959SOL     OW21775   3.401   1.758   4.499
 6959SOL    HW121776   3.361   1.731   4.587
 6959SOL    HW221777   3.399   1.858   4.491
 6960SOL     OW21778   0.334   4.481   6.638
 6960SOL    HW121779   0.258   4.515   6.583
 6960SOL    HW221780   0.365   4.554   6.699
 6961SOL     OW21781   1.054   0.761   3.625
 6961SOL    HW121782   1.125   0.690   3.626
 6961SOL    HW221783   1.040   0.792   3.532
 6962SOL     OW21784   5.013   4.732   1.523
 6962SOL    HW121785   4.966   4.818   1.502
 6962SOL    HW221786   5.110   4.740   1.499
 6963SOL     OW21787   6.905   4.850   1.867
 6963SOL    HW121788   6.961   4.911   1.923
 6963SOL    HW221789   6.953   4.763   1.855
 6964SOL     OW21790   4.135   5.405   4.645
 6964SOL    HW121791   4.171   5.312   4.633
 6964SOL    HW221792   4.143   5.456   4.559
 6965SOL     OW21793   6.794   2.953   6.116
 6965SOL    HW121794   6.805   2.902   6.201
 6965SOL    HW221795   6.884   2.963   6.072
 6966SOL     OW21796   4.872   2.289   2.832
 6966SOL    HW121797   4.873   2.230   2.913
 6966SOL    HW221798   4.964   2.293   2.793
 6967SOL     OW21799   1.398   1.624   6.037
 6967SOL    HW121800   1.463   1.659   5.970
 6967SOL    HW221801   1.430   1.536   6.071
 6968SOL     OW21802   5.015   5.852   1.506
 6968SOL    HW121803   5.010   5.784   1.433
 6968SOL    HW221804   4.957   5.823   1.583
 6969SOL     OW21805   3.366   1.622   0.436
 6969SOL    HW121806   3.466   1.621   0.431
 6969SOL    HW221807   3.336   1.704   0.483
 6970SOL     OW21808   4.697   4.258   0.670
 6970SOL    HW121809   4.733   4.292   0.756
 6970SOL    HW221810   4.610   4.212   0.686
 6971SOL     OW21811   5.722   1.658   1.511
 6971SOL    HW121812   5.658   1.580   1.512
 6971SOL    HW221813   5.733   1.690   1.417
 6972SOL     OW21814   5.271   5.047   3.871
 6972SOL    HW121815   5.190   5.029   3.928
 6972SOL    HW221816   5.259   5.134   3.824
 6973SOL     OW21817   1.934   4.552   3.709
 6973SOL    HW121818   2.029   4.580   3.698
 6973SOL    HW221819   1.928   4.477   3.774
 6974SOL     OW21820   3.289   3.767   4.102
 6974SOL    HW121821   3.358   3.805   4.040
 6974SOL    HW221822   3.311   3.671   4.121
 6975SOL     OW21823   4.029   0.644   5.609
 6975SOL    HW121824   4.042   0.580   5.685
 6975SOL    HW221825   3.933   0.671   5.604
 6976SOL     OW21826   2.099   5.147   6.875
 6976SOL    HW121827   2.077   5.220   6.810
 6976SOL    HW221828   2.132   5.187   6.960
 6977SOL     OW21829   3.416   1.393   2.495
 6977SOL    HW121830   3.412   1.485   2.534
 6977SOL    HW221831   3.325   1.366   2.464
 6978SOL     OW21832   0.746   1.226   2.002
 6978SOL    HW121833   0.651   1.222   1.971
 6978SOL    HW221834   0.807   1.200   1.927
 6979SOL     OW21835   0.513   4.622   2.709
 6979SOL    HW121836   0.487   4.529   2.736
 6979SOL    HW221837   0.509   4.682   2.788
 6980SOL     OW21838   2.191   1.130   4.038
 6980SOL    HW121839   2.273   1.111   4.093
 6980SOL    HW221840   2.148   1.043   4.013
 6981SOL     OW21841   1.934   5.317   0.628
 6981SOL    HW121842   2.010   5.275   0.579
 6981SOL    HW221843   1.910   5.261   0.708
 6982SOL     OW21844   0.454   0.116   4.097
 6982SOL    HW121845   0.531   0.070   4.052
 6982SOL    HW221846   0.398   0.163   4.028
 6983SOL     OW21847   0.041   0.453   4.416
 6983SOL    HW121848   0.070   0.360   4.391
 6983SOL    HW221849   0.104   0.520   4.378
 6984SOL     OW21850   2.038   1.984   5.827
 6984SOL    HW121851   2.001   2.069   5.864
 6984SOL    HW221852   2.018   1.978   5.729
 6985SOL     OW21853   4.939   5.544   2.441
 6985SOL    HW121854   5.028   5.502   2.455
 6985SOL    HW221855   4.907   5.524   2.349
 6986SOL     OW21856   1.728   6.029   5.654
 6986SOL    HW121857   1.667   6.083   5.596
 6986SOL    HW221858   1.683   5.943   5.679
 6987SOL     OW21859   0.254   3.266   6.649
 6987SOL    HW121860   0.333   3.287   6.706
 6987SOL    HW221861   0.203   3.190   6.688
 6988SOL     OW21862   5.037   1.374   3.666
 6988SOL    HW121863   4.971   1.377   3.591
 6988SOL    HW221864   5.127   1.351   3.630
 6989SOL     OW21865   1.233   1.891   3.549
 6989SOL    HW121866   1.242   1.795   3.577
 6989SOL    HW221867   1.288   1.948   3.610
 6990SOL     OW21868   3.810   3.082   0.128
 6990SOL    HW121869   3.849   3.155   0.183
 6990SOL    HW221870   3.789   3.003   0.186
 6991SOL     OW21871   2.758   4.916   5.757
 6991SOL    HW121872   2.671   4.904   5.805
 6991SOL    HW221873   2.822   4.845   5.786
 6992SOL     OW21874   5.767   6.455   4.294
 6992SOL    HW121875   5.848   6.396   4.295
 6992SOL    HW221876   5.724   6.454   4.384
 6993SOL     OW21877   0.197   0.293   3.096
 6993SOL    HW121878   0.173   0.222   3.030
 6993SOL    HW221879   0.115   0.324   3.144
 6994SOL     OW21880   1.801   3.087   6.264
 6994SOL    HW121881   1.767   3.149   6.335
 6994SOL    HW221882   1.747   3.003   6.264
 6995SOL     OW21883   5.522   5.481   3.130
 6995SOL    HW121884   5.458   5.557   3.141
 6995SOL    HW221885   5.473   5.394   3.141
 6996SOL     OW21886   3.020   0.170   5.494
 6996SOL    HW121887   2.940   0.143   5.547
 6996SOL    HW221888   3.013   0.267   5.470
 6997SOL     OW21889   4.340   6.406   4.790
 6997SOL    HW121890   4.332   6.503   4.814
 6997SOL    HW221891   4.262   6.379   4.734
 6998SOL     OW21892   1.908   3.455   2.751
 6998SOL    HW121893   1.872   3.482   2.662
 6998SOL    HW221894   1.841   3.476   2.822
 6999SOL     OW21895   3.090   1.777   6.028
 6999SOL    HW121896   3.044   1.690   6.045
 6999SOL    HW221897   3.157   1.765   5.955
 7000SOL     OW21898   0.901   6.161   2.426
 7000SOL    HW121899   0.857   6.216   2.354
 7000SOL    HW221900   0.891   6.064   2.403
 7001SOL     OW21901   2.381   2.991   5.827
 7001SOL    HW121902   2.283   2.972   5.832
 7001SOL    HW221903   2.411   2.983   5.732
 7002SOL     OW21904   1.018   5.429   3.317
 7002SOL    HW121905   1.019   5.330   3.325
 7002SOL    HW221906   0.934   5.459   3.273
 7003SOL     OW21907   2.861   6.495   1.060
 7003SOL    HW121908   2.928   6.512   0.988
 7003SOL    HW221909   2.870   6.566   1.130
 7004SOL     OW21910   1.178   4.007   1.238
 7004SOL    HW121911   1.103   4.066   1.207
 7004SOL    HW221912   1.172   3.995   1.337
 7005SOL     OW21913   5.449   5.978   6.761
 7005SOL    HW121914   5.472   6.063   6.810
 7005SOL    HW221915   5.533   5.931   6.736
 7006SOL     OW21916   4.467   4.630   4.798
 7006SOL    HW121917   4.431   4.589   4.881
 7006SOL    HW221918   4.395   4.633   4.729
 7007SOL     OW21919   4.277   6.228   3.026
 7007SOL    HW121920   4.259   6.313   3.077
 7007SOL    HW221921   4.193   6.198   2.981
 7008SOL     OW21922   1.809   5.178   4.181
 7008SOL    HW121923   1.813   5.221   4.271
 7008SOL    HW221924   1.720   5.197   4.138
 7009SOL     OW21925   6.913   5.643   2.201
 7009SOL    HW121926   6.873   5.590   2.276
 7009SOL    HW221927   6.840   5.680   2.144
 7010SOL     OW21928   3.487   4.939   6.429
 7010SOL    HW121929   3.484   5.038   6.414
 7010SOL    HW221930   3.580   4.906   6.413
 7011SOL     OW21931   3.019   6.906   6.142
 7011SOL    HW121932   2.958   6.855   6.082
 7011SOL    HW221933   3.113   6.880   6.124
 7012SOL     OW21934   1.511   0.038   2.099
 7012SOL    HW121935   1.578   0.036   2.025
 7012SOL    HW221936   1.555   0.007   2.184
 7013SOL     OW21937   1.071   0.229   1.353
 7013SOL    HW121938   1.009   0.292   1.400
 7013SOL    HW221939   1.159   0.228   1.401
 7014SOL     OW21940   2.855   4.285   1.087
 7014SOL    HW121941   2.821   4.353   1.152
 7014SOL    HW221942   2.914   4.330   1.019
 7015SOL     OW21943   5.085   2.364   2.320
 7015SOL    HW121944   5.126   2.449   2.286
 7015SOL    HW221945   5.153   2.312   2.370
 7016SOL     OW21946   4.402   4.774   1.503
 7016SOL    HW121947   4.375   4.831   1.581
 7016SOL    HW221948   4.328   4.773   1.436
 7017SOL     OW21949   2.902   1.781   3.754
 7017SOL    HW121950   2.944   1.741   3.836
 7017SOL    HW221951   2.802   1.781   3.765
 7018SOL     OW21952   0.301   3.716   4.666
 7018SOL    HW121953   0.207   3.699   4.695
 7018SOL    HW221954   0.308   3.705   4.567
 7019SOL     OW21955   2.601   5.567   6.937
 7019SOL    HW121956   2.615   5.630   7.013
 7019SOL    HW221957   2.583   5.475   6.972
 7020SOL     OW21958   6.142   6.887   6.673
 7020SOL    HW121959   6.189   6.938   6.601
 7020SOL    HW221960   6.044   6.901   6.666
 7021SOL     OW21961   2.300   0.625   5.862
 7021SOL    HW121962   2.303   0.720   5.894
 7021SOL    HW221963   2.370   0.611   5.792
 7022SOL     OW21964   5.422   3.645   6.802
 7022SOL    HW121965   5.384   3.724   6.755
 7022SOL    HW221966   5.375   3.631   6.889
 7023SOL     OW21967   6.027   2.879   1.377
 7023SOL    HW121968   6.099   2.828   1.424
 7023SOL    HW221969   6.067   2.938   1.307
 7024SOL     OW21970   1.441   5.891   6.929
 7024SOL    HW121971   1.477   5.969   6.877
 7024SOL    HW221972   1.507   5.865   6.999
 7025SOL     OW21973   3.011   1.933   6.936
 7025SOL    HW121974   3.081   1.993   6.975
 7025SOL    HW221975   3.056   1.859   6.885
 7026SOL     OW21976   4.069   1.645   1.148
 7026SOL    HW121977   4.157   1.598   1.139
 7026SOL    HW221978   4.012   1.624   1.068
 7027SOL     OW21979   3.666   5.671   3.899
 7027SOL    HW121980   3.587   5.720   3.936
 7027SOL    HW221981   3.741   5.736   3.884
 7028SOL     OW21982   4.500   6.222   3.586
 7028SOL    HW121983   4.455   6.184   3.667
 7028SOL    HW221984   4.454   6.307   3.559
 7029SOL     OW21985   3.747   6.271   0.258
 7029SOL    HW121986   3.782   6.216   0.182
 7029SOL    HW221987   3.815   6.339   0.285
 7030SOL     OW21988   0.186   3.363   4.881
 7030SOL    HW121989   0.278   3.395   4.860
 7030SOL    HW221990   0.127   3.376   4.802
 7031SOL     OW21991   1.630   5.651   4.252
 7031SOL    HW121992   1.634   5.646   4.152
 7031SOL    HW221993   1.703   5.596   4.292
 7032SOL     OW21994   6.200   0.745   2.827
 7032SOL    HW121995   6.290   0.739   2.786
 7032SOL    HW221996   6.200   0.814   2.899
 7033SOL     OW21997   6.982   1.506   4.079
 7033SOL    HW121998   6.952   1.525   3.985
 7033SOL    HW221999   0.002   1.588   4.118
 7034SOL     OW22000   6.561   0.587   3.335
 7034SOL    HW122001   6.627   0.549   3.270
 7034SOL    HW222002   6.508   0.513   3.376
 7035SOL     OW22003   6.643   5.796   2.519
 7035SOL    HW122004   6.544   5.787   2.512
 7035SOL    HW222005   6.679   5.840   2.437
 7036SOL     OW22006   6.428   5.140   2.004
 7036SOL    HW122007   6.482   5.204   1.949
 7036SOL    HW222008   6.373   5.191   2.070
 7037SOL     OW22009   1.400   6.139   5.833
 7037SOL    HW122010   1.366   6.072   5.766
 7037SOL    HW222011   1.324   6.194   5.866
 7038SOL     OW22012   0.503   4.627   3.740
 7038SOL    HW122013   0.529   4.724   3.742
 7038SOL    HW222014   0.439   4.612   3.664
 7039SOL     OW22015   4.108   0.833   5.888
 7039SOL    HW122016   4.058   0.770   5.947
 7039SOL    HW222017   4.043   0.895   5.843
 7040SOL     OW22018   5.112   2.334   6.489
 7040SOL    HW122019   5.075   2.404   6.427
 7040SOL    HW222020   5.040   2.305   6.553
 7041SOL     OW22021   1.760   1.894   3.054
 7041SOL    HW122022   1.846   1.860   3.090
 7041SOL    HW222023   1.779   1.961   2.982
 7042SOL     OW22024   3.902   5.627   6.992
 7042SOL    HW122025   3.845   5.580   6.924
 7042SOL    HW222026   3.850   5.700   0.015
 7043SOL     OW22027   2.236   2.071   3.368
 7043SOL    HW122028   2.255   2.013   3.289
 7043SOL    HW222029   2.215   2.164   3.337
 7044SOL     OW22030   4.629   4.814   2.789
 7044SOL    HW122031   4.581   4.881   2.845
 7044SOL    HW222032   4.589   4.723   2.804
 7045SOL     OW22033   5.724   6.281   1.318
 7045SOL    HW122034   5.659   6.224   1.367
 7045SOL    HW222035   5.810   6.231   1.305
 7046SOL     OW22036   3.967   0.405   4.772
 7046SOL    HW122037   3.927   0.440   4.688
 7046SOL    HW222038   3.901   0.344   4.817
 7047SOL     OW22039   1.030   0.859   4.087
 7047SOL    HW122040   1.040   0.861   4.187
 7047SOL    HW222041   0.957   0.795   4.062
 7048SOL     OW22042   0.226   6.397   0.743
 7048SOL    HW122043   0.283   6.325   0.703
 7048SOL    HW222044   0.137   6.360   0.766
 7049SOL     OW22045   2.471   0.957   0.458
 7049SOL    HW122046   2.549   1.014   0.486
 7049SOL    HW222047   2.480   0.867   0.499
 7050SOL     OW22048   3.077   3.934   4.678
 7050SOL    HW122049   3.057   4.018   4.728
 7050SOL    HW222050   2.994   3.880   4.668
 7051SOL     OW22051   0.082   0.344   1.701
 7051SOL    HW122052   7.013   0.324   1.741
 7051SOL    HW222053   0.134   0.403   1.763
 7052SOL     OW22054   0.054   2.529   4.143
 7052SOL    HW122055   0.137   2.473   4.140
 7052SOL    HW222056   0.029   2.547   4.238
 7053SOL     OW22057   0.470   3.795   6.859
 7053SOL    HW122058   0.544   3.862   6.851
 7053SOL    HW222059   0.504   3.714   6.907
 7054SOL     OW22060   6.074   6.482   1.976
 7054SOL    HW122061   6.084   6.415   2.049
 7054SOL    HW222062   6.059   6.436   1.889
 7055SOL     OW22063   4.285   0.526   4.386
 7055SOL    HW122064   4.370   0.577   4.401
 7055SOL    HW222065   4.291   0.437   4.432
 7056SOL     OW22066   5.612   5.171   3.584
 7056SOL    HW122067   5.624   5.269   3.599
 7056SOL    HW222068   5.585   5.127   3.670
 7057SOL     OW22069   6.908   4.938   3.350
 7057SOL    HW122070   6.988   4.899   3.305
 7057SOL    HW222071   6.886   4.886   3.432
 7058SOL     OW22072   0.763   4.907   5.194
 7058SOL    HW122073   0.783   4.970   5.269
 7058SOL    HW222074   0.733   4.820   5.232
 7059SOL     OW22075   0.776   0.416   2.507
 7059SOL    HW122076   0.858   0.394   2.560
 7059SOL    HW222077   0.735   0.500   2.543
 7060SOL     OW22078   3.434   6.421   1.847
 7060SOL    HW122079   3.373   6.498   1.868
 7060SOL    HW222080   3.387   6.358   1.785
 7061SOL     OW22081   0.623   1.293   2.994
 7061SOL    HW122082   0.686   1.238   2.940
 7061SOL    HW222083   0.656   1.388   2.995
 7062SOL     OW22084   5.686   1.495   5.060
 7062SOL    HW122085   5.782   1.491   5.087
 7062SOL    HW222086   5.640   1.570   5.109
 7063SOL     OW22087   2.175   6.617   1.439
 7063SOL    HW122088   2.079   6.614   1.409
 7063SOL    HW222089   2.193   6.704   1.485
 7064SOL     OW22090   4.088   2.293   1.796
 7064SOL    HW122091   4.159   2.259   1.734
 7064SOL    HW222092   4.002   2.245   1.779
 7065SOL     OW22093   4.438   3.583   1.490
 7065SOL    HW122094   4.433   3.597   1.391
 7065SOL    HW222095   4.442   3.672   1.536
 7066SOL     OW22096   4.084   6.969   0.097
 7066SOL    HW122097   4.036   0.035   0.082
 7066SOL    HW222098   4.036   6.916   0.169
 7067SOL     OW22099   0.907   3.414   5.494
 7067SOL    HW122100   0.809   3.406   5.513
 7067SOL    HW222101   0.948   3.477   5.559
 7068SOL     OW22102   1.673   1.824   3.466
 7068SOL    HW122103   1.768   1.852   3.481
 7068SOL    HW222104   1.621   1.901   3.430
 7069SOL     OW22105   0.012   4.287   5.312
 7069SOL    HW122106   0.022   4.188   5.320
 7069SOL    HW222107   6.935   4.310   5.299
 7070SOL     OW22108   6.530   4.647   5.107
 7070SOL    HW122109   6.523   4.569   5.168
 7070SOL    HW222110   6.461   4.639   5.034
 7071SOL     OW22111   1.318   5.787   5.278
 7071SOL    HW122112   1.410   5.769   5.314
 7071SOL    HW222113   1.293   5.713   5.215
 7072SOL     OW22114   6.659   6.435   6.104
 7072SOL    HW122115   6.747   6.446   6.151
 7072SOL    HW222116   6.641   6.338   6.091
 7073SOL     OW22117   0.231   0.967   5.510
 7073SOL    HW122118   0.282   0.998   5.590
 7073SOL    HW222119   0.207   0.871   5.520
 7074SOL     OW22120   3.293   2.291   1.634
 7074SOL    HW122121   3.288   2.368   1.571
 7074SOL    HW222122   3.204   2.277   1.677
 7075SOL     OW22123   1.913   6.015   4.390
 7075SOL    HW122124   1.866   6.006   4.302
 7075SOL    HW222125   1.862   5.967   4.461
 7076SOL     OW22126   3.862   1.684   6.341
 7076SOL    HW122127   3.863   1.767   6.284
 7076SOL    HW222128   3.768   1.664   6.369
 7077SOL     OW22129   2.448   5.645   5.502
 7077SOL    HW122130   2.408   5.707   5.569
 7077SOL    HW222131   2.545   5.631   5.524
 7078SOL     OW22132   6.538   6.992   3.344
 7078SOL    HW122133   6.562   6.930   3.269
 7078SOL    HW222134   6.605   6.983   3.417
 7079SOL     OW22135   6.577   6.163   6.041
 7079SOL    HW122136   6.564   6.115   6.127
 7079SOL    HW222137   6.587   6.097   5.967
 7080SOL     OW22138   4.292   2.343   3.852
 7080SOL    HW122139   4.287   2.296   3.940
 7080SOL    HW222140   4.230   2.298   3.787
 7081SOL     OW22141   3.137   1.508   5.806
 7081SOL    HW122142   3.086   1.591   5.782
 7081SOL    HW222143   3.108   1.476   5.896
 7082SOL     OW22144   5.740   1.651   0.073
 7082SOL    HW122145   5.748   1.601   0.159
 7082SOL    HW222146   5.643   1.668   0.053
 7083SOL     OW22147   3.577   0.924   5.967
 7083SOL    HW122148   3.575   0.979   6.051
 7083SOL    HW222149   3.555   0.983   5.889
 7084SOL     OW22150   6.761   6.017   5.838
 7084SOL    HW122151   6.801   5.963   5.763
 7084SOL    HW222152   6.662   6.000   5.842
 7085SOL     OW22153   2.354   2.781   3.148
 7085SOL    HW122154   2.421   2.761   3.077
 7085SOL    HW222155   2.401   2.812   3.231
 7086SOL     OW22156   5.504   0.997   6.482
 7086SOL    HW122157   5.560   1.051   6.545
 7086SOL    HW222158   5.470   0.916   6.530
 7087SOL     OW22159   0.322   3.740   4.388
 7087SOL    HW122160   0.357   3.647   4.380
 7087SOL    HW222161   0.231   3.745   4.347
 7088SOL     OW22162   5.103   2.788   4.410
 7088SOL    HW122163   5.123   2.803   4.506
 7088SOL    HW222164   5.012   2.824   4.388
 7089SOL     OW22165   3.341   2.038   6.171
 7089SOL    HW122166   3.333   2.072   6.264
 7089SOL    HW222167   3.347   1.938   6.173
 7090SOL     OW22168   1.908   2.129   5.169
 7090SOL    HW122169   1.908   2.212   5.113
 7090SOL    HW222170   1.984   2.070   5.141
 7091SOL     OW22171   6.995   0.967   0.804
 7091SOL    HW122172   7.001   1.065   0.821
 7091SOL    HW222173   0.007   0.917   0.884
 7092SOL     OW22174   3.871   4.331   0.501
 7092SOL    HW122175   3.937   4.283   0.560
 7092SOL    HW222176   3.854   4.277   0.419
 7093SOL     OW22177   3.353   3.925   4.665
 7093SOL    HW122178   3.263   3.955   4.697
 7093SOL    HW222179   3.422   3.953   4.732
 7094SOL     OW22180   1.245   6.493   5.690
 7094SOL    HW122181   1.288   6.583   5.690
 7094SOL    HW222182   1.155   6.499   5.646
 7095SOL     OW22183   1.341   3.499   6.324
 7095SOL    HW122184   1.276   3.554   6.271
 7095SOL    HW222185   1.400   3.448   6.262
 7096SOL     OW22186   4.598   2.140   3.906
 7096SOL    HW122187   4.653   2.068   3.949
 7096SOL    HW222188   4.642   2.229   3.922
 7097SOL     OW22189   0.285   1.558   2.208
 7097SOL    HW122190   0.360   1.541   2.271
 7097SOL    HW222191   0.297   1.648   2.166
 7098SOL     OW22192   1.583   5.652   6.036
 7098SOL    HW122193   1.483   5.654   6.034
 7098SOL    HW222194   1.616   5.709   6.111
 7099SOL     OW22195   1.624   1.005   4.806
 7099SOL    HW122196   1.615   0.954   4.891
 7099SOL    HW222197   1.602   1.101   4.823
 7100SOL     OW22198   5.073   4.337   0.925
 7100SOL    HW122199   5.094   4.282   0.844
 7100SOL    HW222200   5.097   4.285   1.007
 7101SOL     OW22201   3.146   0.301   4.782
 7101SOL    HW122202   3.219   0.246   4.821
 7101SOL    HW222203   3.103   0.356   4.853
 7102SOL     OW22204   4.083   1.309   1.058
 7102SOL    HW122205   3.995   1.357   1.067
 7102SOL    HW222206   4.094   1.279   0.963
 7103SOL     OW22207   3.587   6.357   0.051
 7103SOL    HW122208   3.612   6.324   0.142
 7103SOL    HW222209   3.488   6.349   0.038
 7104SOL     OW22210   1.869   2.540   3.218
 7104SOL    HW122211   1.963   2.574   3.219
 7104SOL    HW222212   1.805   2.617   3.217
 7105SOL     OW22213   3.435   3.141   4.431
 7105SOL    HW122214   3.353   3.085   4.419
 7105SOL    HW222215   3.464   3.176   4.342
 7106SOL     OW22216   3.567   3.234   4.716
 7106SOL    HW122217   3.665   3.232   4.696
 7106SOL    HW222218   3.545   3.161   4.781
 7107SOL     OW22219   3.009   1.226   0.347
 7107SOL    HW122220   3.031   1.135   0.313
 7107SOL    HW222221   3.089   1.286   0.334
 7108SOL     OW22222   5.148   6.060   0.990
 7108SOL    HW122223   5.220   6.129   0.983
 7108SOL    HW222224   5.059   6.105   1.002
 7109SOL     OW22225   3.824   0.149   5.866
 7109SOL    HW122226   3.844   0.100   5.781
 7109SOL    HW222227   3.807   0.083   5.939
 7110SOL     OW22228   5.111   5.224   4.141
 7110SOL    HW122229   5.112   5.133   4.100
 7110SOL    HW222230   5.204   5.256   4.154
 7111SOL     OW22231   1.530   3.539   4.020
 7111SOL    HW122232   1.496   3.582   3.936
 7111SOL    HW222233   1.620   3.576   4.042
 7112SOL     OW22234   0.733   6.201   3.957
 7112SOL    HW122235   0.765   6.219   3.864
 7112SOL    HW222236   0.810   6.167   4.012
 7113SOL     OW22237   3.786   3.951   4.564
 7113SOL    HW122238   3.698   3.946   4.517
 7113SOL    HW222239   3.856   3.904   4.510
 7114SOL     OW22240   4.628   1.252   1.835
 7114SOL    HW122241   4.719   1.209   1.838
 7114SOL    HW222242   4.559   1.181   1.822
 7115SOL     OW22243   4.671   2.080   1.195
 7115SOL    HW122244   4.634   2.001   1.246
 7115SOL    HW222245   4.744   2.122   1.248
 7116SOL     OW22246   5.280   3.729   3.589
 7116SOL    HW122247   5.320   3.803   3.643
 7116SOL    HW222248   5.297   3.747   3.492
 7117SOL     OW22249   6.238   6.200   3.091
 7117SOL    HW122250   6.205   6.131   3.154
 7117SOL    HW222251   6.239   6.163   2.998
 7118SOL     OW22252   5.086   3.946   1.008
 7118SOL    HW122253   5.079   4.024   1.070
 7118SOL    HW222254   5.028   3.961   0.928
 7119SOL     OW22255   5.879   1.365   2.679
 7119SOL    HW122256   5.926   1.294   2.732
 7119SOL    HW222257   5.939   1.398   2.606
 7120SOL     OW22258   5.003   1.641   3.683
 7120SOL    HW122259   5.022   1.544   3.698
 7120SOL    HW222260   4.914   1.651   3.636
 7121SOL     OW22261   2.057   6.983   3.731
 7121SOL    HW122262   1.969   6.996   3.685
 7121SOL    HW222263   2.053   0.005   3.822
 7122SOL     OW22264   6.675   1.360   6.968
 7122SOL    HW122265   6.627   1.392   0.029
 7122SOL    HW222266   6.771   1.343   6.991
 7123SOL     OW22267   2.396   5.484   1.445
 7123SOL    HW122268   2.309   5.477   1.395
 7123SOL    HW222269   2.450   5.560   1.408
 7124SOL     OW22270   0.349   5.454   0.060
 7124SOL    HW122271   0.448   5.468   0.055
 7124SOL    HW222272   0.318   5.468   0.154
 7125SOL     OW22273   6.390   6.499   2.210
 7125SOL    HW122274   6.320   6.570   2.220
 7125SOL    HW222275   6.405   6.482   2.112
 7126SOL     OW22276   2.056   3.970   0.365
 7126SOL    HW122277   2.061   3.870   0.367
 7126SOL    HW222278   2.142   4.008   0.399
 7127SOL     OW22279   3.038   5.656   4.148
 7127SOL    HW122280   3.044   5.708   4.063
 7127SOL    HW222281   3.127   5.615   4.169
 7128SOL     OW22282   3.610   4.402   0.582
 7128SOL    HW122283   3.688   4.355   0.540
 7128SOL    HW222284   3.574   4.345   0.656
 7129SOL     OW22285   3.365   0.679   1.137
 7129SOL    HW122286   3.356   0.777   1.121
 7129SOL    HW222287   3.278   0.634   1.117
 7130SOL     OW22288   2.959   4.835   3.590
 7130SOL    HW122289   2.932   4.740   3.603
 7130SOL    HW222290   2.880   4.894   3.605
 7131SOL     OW22291   3.159   1.392   2.369
 7131SOL    HW122292   3.155   1.490   2.349
 7131SOL    HW222293   3.119   1.341   2.292
 7132SOL     OW22294   4.089   3.646   2.845
 7132SOL    HW122295   4.135   3.564   2.811
 7132SOL    HW222296   3.990   3.637   2.832
 7133SOL     OW22297   4.926   5.853   3.338
 7133SOL    HW122298   4.826   5.854   3.337
 7133SOL    HW222299   4.959   5.795   3.264
 7134SOL     OW22300   5.997   6.204   3.973
 7134SOL    HW122301   5.971   6.237   4.063
 7134SOL    HW222302   6.062   6.267   3.931
 7135SOL     OW22303   1.305   1.359   4.275
 7135SOL    HW122304   1.357   1.358   4.190
 7135SOL    HW222305   1.223   1.303   4.265
 7136SOL     OW22306   2.151   0.886   0.625
 7136SOL    HW122307   2.239   0.888   0.576
 7136SOL    HW222308   2.168   0.883   0.724
 7137SOL     OW22309   4.723   0.824   4.527
 7137SOL    HW122310   4.700   0.921   4.529
 7137SOL    HW222311   4.770   0.802   4.442
 7138SOL     OW22312   3.153   3.449   1.090
 7138SOL    HW122313   3.153   3.448   1.190
 7138SOL    HW222314   3.178   3.359   1.055
 7139SOL     OW22315   4.815   3.071   1.723
 7139SOL    HW122316   4.841   3.162   1.755
 7139SOL    HW222317   4.769   3.021   1.796
 7140SOL     OW22318   6.740   4.615   4.926
 7140SOL    HW122319   6.674   4.630   4.999
 7140SOL    HW222320   6.736   4.691   4.861
 7141SOL     OW22321   2.871   0.410   0.908
 7141SOL    HW122322   2.825   0.446   0.827
 7141SOL    HW222323   2.970   0.415   0.896
 7142SOL     OW22324   4.223   5.783   4.028
 7142SOL    HW122325   4.209   5.695   3.982
 7142SOL    HW222326   4.146   5.800   4.090
 7143SOL     OW22327   1.597   4.458   6.041
 7143SOL    HW122328   1.696   4.451   6.030
 7143SOL    HW222329   1.552   4.404   5.970
 7144SOL     OW22330   1.063   1.474   2.965
 7144SOL    HW122331   1.097   1.528   2.888
 7144SOL    HW222332   1.028   1.386   2.932
 7145SOL     OW22333   4.382   6.998   6.749
 7145SOL    HW122334   4.333   6.945   6.819
 7145SOL    HW222335   4.462   6.948   6.718
 7146SOL     OW22336   2.883   6.750   0.609
 7146SOL    HW122337   2.855   6.734   0.704
 7146SOL    HW222338   2.803   6.778   0.555
 7147SOL     OW22339   0.016   0.509   3.401
 7147SOL    HW122340   7.005   0.416   3.381
 7147SOL    HW222341   6.963   0.559   3.448
 7148SOL     OW22342   1.199   6.523   1.773
 7148SOL    HW122343   1.213   6.573   1.688
 7148SOL    HW222344   1.226   6.428   1.760
 7149SOL     OW22345   6.442   1.282   3.616
 7149SOL    HW122346   6.368   1.337   3.655
 7149SOL    HW222347   6.459   1.312   3.522
 7150SOL     OW22348   5.301   2.925   0.334
 7150SOL    HW122349   5.288   2.964   0.425
 7150SOL    HW222350   5.291   2.826   0.338
 7151SOL     OW22351   2.013   6.054   1.046
 7151SOL    HW122352   1.964   5.988   1.103
 7151SOL    HW222353   2.065   6.116   1.105
 7152SOL     OW22354   0.620   3.205   4.933
 7152SOL    HW122355   0.634   3.152   5.016
 7152SOL    HW222356   0.618   3.145   4.854
 7153SOL     OW22357   4.460   0.406   5.011
 7153SOL    HW122358   4.532   0.409   4.943
 7153SOL    HW222359   4.371   0.416   4.966
 7154SOL     OW22360   3.711   5.454   4.163
 7154SOL    HW122361   3.681   5.484   4.073
 7154SOL    HW222362   3.778   5.381   4.153
 7155SOL     OW22363   1.327   6.278   2.049
 7155SOL    HW122364   1.341   6.190   2.005
 7155SOL    HW222365   1.309   6.265   2.147
 7156SOL     OW22366   6.393   5.539   5.196
 7156SOL    HW122367   6.333   5.502   5.125
 7156SOL    HW222368   6.340   5.553   5.280
 7157SOL     OW22369   5.918   5.645   0.449
 7157SOL    HW122370   6.005   5.615   0.410
 7157SOL    HW222371   5.844   5.588   0.413
 7158SOL     OW22372   0.127   6.606   3.347
 7158SOL    HW122373   0.183   6.667   3.403
 7158SOL    HW222374   0.054   6.659   3.304
 7159SOL     OW22375   0.442   5.332   0.908
 7159SOL    HW122376   0.374   5.405   0.912
 7159SOL    HW222377   0.440   5.279   0.992
 7160SOL     OW22378   6.208   0.142   1.982
 7160SOL    HW122379   6.263   0.060   1.964
 7160SOL    HW222380   6.250   0.195   2.056
 7161SOL     OW22381   3.746   2.965   3.755
 7161SOL    HW122382   3.662   2.944   3.704
 7161SOL    HW222383   3.813   3.005   3.693
 7162SOL     OW22384   3.455   5.006   3.970
 7162SOL    HW122385   3.379   4.957   4.012
 7162SOL    HW222386   3.520   4.940   3.933
 7163SOL     OW22387   3.337   0.381   3.528
 7163SOL    HW122388   3.287   0.448   3.583
 7163SOL    HW222389   3.385   0.427   3.453
 7164SOL     OW22390   2.167   1.153   3.428
 7164SOL    HW122391   2.197   1.157   3.523
 7164SOL    HW222392   2.244   1.126   3.370
 7165SOL     OW22393   5.598   1.499   0.987
 7165SOL    HW122394   5.583   1.406   0.954
 7165SOL    HW222395   5.514   1.534   1.029
 7166SOL     OW22396   4.698   4.519   1.034
 7166SOL    HW122397   4.657   4.525   1.125
 7166SOL    HW222398   4.709   4.611   0.997
 7167SOL     OW22399   4.769   3.631   5.376
 7167SOL    HW122400   4.730   3.620   5.285
 7167SOL    HW222401   4.851   3.574   5.384
 7168SOL     OW22402   1.048   1.278   4.252
 7168SOL    HW122403   0.954   1.312   4.255
 7168SOL    HW222404   1.065   1.236   4.163
 7169SOL     OW22405   1.614   3.328   5.967
 7169SOL    HW122406   1.653   3.238   5.947
 7169SOL    HW222407   1.653   3.396   5.905
 7170SOL     OW22408   5.605   4.909   3.407
 7170SOL    HW122409   5.506   4.907   3.399
 7170SOL    HW222410   5.632   4.991   3.458
 7171SOL     OW22411   4.354   3.192   5.660
 7171SOL    HW122412   4.334   3.118   5.723
 7171SOL    HW222413   4.327   3.279   5.701
 7172SOL     OW22414   1.761   6.686   0.945
 7172SOL    HW122415   1.777   6.778   0.979
 7172SOL    HW222416   1.847   6.646   0.912
 7173SOL     OW22417   0.254   5.719   4.157
 7173SOL    HW122418   0.156   5.703   4.145
 7173SOL    HW222419   0.291   5.652   4.222
 7174SOL     OW22420   1.855   4.714   0.647
 7174SOL    HW122421   1.804   4.634   0.677
 7174SOL    HW222422   1.796   4.794   0.649
 7175SOL     OW22423   4.963   3.873   0.554
 7175SOL    HW122424   5.060   3.897   0.546
 7175SOL    HW222425   4.945   3.789   0.503
 7176SOL     OW22426   6.754   4.543   1.969
 7176SOL    HW122427   6.731   4.551   2.065
 7176SOL    HW222428   6.732   4.451   1.936
 7177SOL     OW22429   0.755   5.871   3.464
 7177SOL    HW122430   0.848   5.890   3.432
 7177SOL    HW222431   0.737   5.925   3.546
 7178SOL     OW22432   1.117   2.762   5.001
 7178SOL    HW122433   1.043   2.720   4.950
 7178SOL    HW222434   1.159   2.694   5.062
 7179SOL     OW22435   2.873   3.742   5.495
 7179SOL    HW122436   2.776   3.765   5.485
 7179SOL    HW222437   2.899   3.674   5.427
 7180SOL     OW22438   0.577   6.116   0.521
 7180SOL    HW122439   0.674   6.104   0.499
 7180SOL    HW222440   0.522   6.077   0.447
 7181SOL     OW22441   4.308   0.696   1.387
 7181SOL    HW122442   4.366   0.624   1.425
 7181SOL    HW222443   4.288   0.675   1.292
 7182SOL     OW22444   1.993   4.490   5.486
 7182SOL    HW122445   2.073   4.502   5.428
 7182SOL    HW222446   2.015   4.515   5.580
 7183SOL     OW22447   1.664   4.860   2.788
 7183SOL    HW122448   1.637   4.878   2.883
 7183SOL    HW222449   1.642   4.939   2.731
 7184SOL     OW22450   1.325   6.604   4.162
 7184SOL    HW122451   1.337   6.561   4.072
 7184SOL    HW222452   1.231   6.637   4.170
 7185SOL     OW22453   4.786   3.131   6.688
 7185SOL    HW122454   4.834   3.058   6.640
 7185SOL    HW222455   4.803   3.124   6.786
 7186SOL     OW22456   6.616   6.092   5.584
 7186SOL    HW122457   6.567   6.081   5.498
 7186SOL    HW222458   6.580   6.170   5.634
 7187SOL     OW22459   1.513   3.964   1.724
 7187SOL    HW122460   1.549   4.053   1.753
 7187SOL    HW222461   1.576   3.892   1.752
 7188SOL     OW22462   4.945   0.344   1.917
 7188SOL    HW122463   5.025   0.402   1.901
 7188SOL    HW222464   4.931   0.332   2.015
 7189SOL     OW22465   6.901   1.140   5.722
 7189SOL    HW122466   6.887   1.224   5.669
 7189SOL    HW222467   6.822   1.080   5.711
 7190SOL     OW22468   5.268   3.973   2.807
 7190SOL    HW122469   5.310   3.968   2.897
 7190SOL    HW222470   5.197   3.902   2.800
 7191SOL     OW22471   1.351   3.836   2.727
 7191SOL    HW122472   1.296   3.888   2.662
 7191SOL    HW222473   1.293   3.768   2.773
 7192SOL     OW22474   2.015   4.864   6.280
 7192SOL    HW122475   2.017   4.936   6.211
 7192SOL    HW222476   1.935   4.805   6.264
 7193SOL     OW22477   3.365   1.666   4.758
 7193SOL    HW122478   3.437   1.735   4.767
 7193SOL    HW222479   3.295   1.681   4.828
 7194SOL     OW22480   2.603   1.529   1.396
 7194SOL    HW122481   2.674   1.559   1.332
 7194SOL    HW222482   2.580   1.604   1.458
 7195SOL     OW22483   0.219   5.466   0.704
 7195SOL    HW122484   0.294   5.528   0.729
 7195SOL    HW222485   0.145   5.476   0.770
 7196SOL     OW22486   2.860   3.523   2.914
 7196SOL    HW122487   2.896   3.612   2.886
 7196SOL    HW222488   2.760   3.524   2.906
 7197SOL     OW22489   6.800   1.612   4.717
 7197SOL    HW122490   6.843   1.547   4.780
 7197SOL    HW222491   6.866   1.683   4.693
 7198SOL     OW22492   1.506   6.965   5.922
 7198SOL    HW122493   1.468   0.029   5.884
 7198SOL    HW222494   1.444   6.889   5.903
 7199SOL     OW22495   0.281   0.969   2.796
 7199SOL    HW122496   0.371   1.014   2.797
 7199SOL    HW222497   0.273   0.909   2.875
 7200SOL     OW22498   2.407   0.799   0.785
 7200SOL    HW122499   2.429   0.738   0.709
 7200SOL    HW222500   2.351   0.750   0.852
 7201SOL     OW22501   1.358   4.556   3.474
 7201SOL    HW122502   1.435   4.513   3.426
 7201SOL    HW222503   1.382   4.651   3.497
 7202SOL     OW22504   4.432   0.133   6.196
 7202SOL    HW122505   4.357   0.188   6.158
 7202SOL    HW222506   4.488   0.098   6.121
 7203SOL     OW22507   5.693   0.246   0.379
 7203SOL    HW122508   5.630   0.319   0.407
 7203SOL    HW222509   5.760   0.283   0.315
 7204SOL     OW22510   6.108   0.953   3.576
 7204SOL    HW122511   6.031   0.889   3.580
 7204SOL    HW222512   6.187   0.912   3.622
 7205SOL     OW22513   1.595   5.243   3.143
 7205SOL    HW122514   1.577   5.341   3.156
 7205SOL    HW222515   1.670   5.232   3.078
 7206SOL     OW22516   0.034   1.554   0.884
 7206SOL    HW122517   6.973   1.524   0.835
 7206SOL    HW222518   0.006   1.606   0.965
 7207SOL     OW22519   3.226   6.681   1.313
 7207SOL    HW122520   3.213   6.638   1.223
 7207SOL    HW222521   3.173   6.766   1.317
 7208SOL     OW22522   3.172   0.300   5.097
 7208SOL    HW122523   3.234   0.226   5.072
 7208SOL    HW222524   3.194   0.333   5.188
 7209SOL     OW22525   4.137   3.651   3.617
 7209SOL    HW122526   4.226   3.647   3.570
 7209SOL    HW222527   4.152   3.667   3.715
 7210SOL     OW22528   4.620   1.152   4.075
 7210SOL    HW122529   4.660   1.243   4.087
 7210SOL    HW222530   4.547   1.157   4.006
 7211SOL     OW22531   1.246   5.907   4.037
 7211SOL    HW122532   1.339   5.916   4.001
 7211SOL    HW222533   1.235   5.966   4.117
 7212SOL     OW22534   6.444   5.340   4.677
 7212SOL    HW122535   6.505   5.309   4.604
 7212SOL    HW222536   6.359   5.287   4.676
 7213SOL     OW22537   5.428   0.402   5.615
 7213SOL    HW122538   5.492   0.380   5.542
 7213SOL    HW222539   5.336   0.410   5.577
 7214SOL     OW22540   2.571   5.546   4.838
 7214SOL    HW122541   2.630   5.487   4.892
 7214SOL    HW222542   2.617   5.570   4.753
 7215SOL     OW22543   0.830   3.609   4.265
 7215SOL    HW122544   0.830   3.591   4.167
 7215SOL    HW222545   0.824   3.707   4.281
 7216SOL     OW22546   2.474   6.939   0.410
 7216SOL    HW122547   2.377   6.962   0.424
 7216SOL    HW222548   2.517   7.009   0.354
 7217SOL     OW22549   1.336   3.741   2.361
 7217SOL    HW122550   1.252   3.734   2.415
 7217SOL    HW222551   1.399   3.805   2.405
 7218SOL     OW22552   4.606   2.151   5.751
 7218SOL    HW122553   4.670   2.128   5.825
 7218SOL    HW222554   4.571   2.244   5.764
 7219SOL     OW22555   4.258   6.460   3.166
 7219SOL    HW122556   4.179   6.426   3.216
 7219SOL    HW222557   4.330   6.486   3.230
 7220SOL     OW22558   6.228   1.387   2.547
 7220SOL    HW122559   6.161   1.461   2.547
 7220SOL    HW222560   6.239   1.351   2.454
 7221SOL     OW22561   5.550   4.060   5.643
 7221SOL    HW122562   5.465   4.008   5.659
 7221SOL    HW222563   5.549   4.142   5.700
 7222SOL     OW22564   6.531   6.329   1.430
 7222SOL    HW122565   6.599   6.267   1.470
 7222SOL    HW222566   6.524   6.312   1.332
 7223SOL     OW22567   3.289   1.160   6.403
 7223SOL    HW122568   3.288   1.087   6.470
 7223SOL    HW222569   3.196   1.191   6.385
 7224SOL     OW22570   5.566   0.650   4.723
 7224SOL    HW122571   5.659   0.626   4.749
 7224SOL    HW222572   5.567   0.690   4.631
 7225SOL     OW22573   1.586   5.768   0.085
 7225SOL    HW122574   1.669   5.746   0.135
 7225SOL    HW222575   1.508   5.720   0.126
 7226SOL     OW22576   0.592   0.082   0.364
 7226SOL    HW122577   0.498   0.104   0.340
 7226SOL    HW222578   0.640   0.166   0.392
 7227SOL     OW22579   0.315   2.632   6.676
 7227SOL    HW122580   0.285   2.686   6.597
 7227SOL    HW222581   0.413   2.617   6.671
 7228SOL     OW22582   6.741   0.103   2.112
 7228SOL    HW122583   6.676   0.170   2.078
 7228SOL    HW222584   6.709   0.067   2.200
 7229SOL     OW22585   1.637   6.828   4.402
 7229SOL    HW122586   1.736   6.843   4.407
 7229SOL    HW222587   1.607   6.842   4.307
 7230SOL     OW22588   4.629   5.252   3.422
 7230SOL    HW122589   4.593   5.345   3.428
 7230SOL    HW222590   4.721   5.248   3.460
 7231SOL     OW22591   5.790   1.603   6.043
 7231SOL    HW122592   5.718   1.583   6.109
 7231SOL    HW222593   5.811   1.701   6.047
 7232SOL     OW22594   4.019   4.857   2.462
 7232SOL    HW122595   3.998   4.828   2.555
 7232SOL    HW222596   3.934   4.878   2.413
 7233SOL     OW22597   0.347   2.859   5.687
 7233SOL    HW122598   0.255   2.827   5.706
 7233SOL    HW222599   0.412   2.810   5.745
 7234SOL     OW22600   6.621   2.209   1.794
 7234SOL    HW122601   6.545   2.178   1.736
 7234SOL    HW222602   6.662   2.131   1.840
 7235SOL     OW22603   5.264   3.763   5.130
 7235SOL    HW122604   5.358   3.731   5.140
 7235SOL    HW222605   5.214   3.700   5.071
 7236SOL     OW22606   3.969   1.183   3.193
 7236SOL    HW122607   3.915   1.194   3.276
 7236SOL    HW222608   3.918   1.220   3.115
 7237SOL     OW22609   5.960   5.829   5.984
 7237SOL    HW122610   5.921   5.884   5.910
 7237SOL    HW222611   5.929   5.735   5.976
 7238SOL     OW22612   2.671   1.796   2.562
 7238SOL    HW122613   2.599   1.861   2.585
 7238SOL    HW222614   2.632   1.704   2.554
 7239SOL     OW22615   2.861   1.367   2.146
 7239SOL    HW122616   2.862   1.419   2.231
 7239SOL    HW222617   2.948   1.319   2.135
 7240SOL     OW22618   2.577   4.312   0.216
 7240SOL    HW122619   2.562   4.231   0.160
 7240SOL    HW222620   2.664   4.354   0.191
 7241SOL     OW22621   3.507   0.234   5.385
 7241SOL    HW122622   3.429   0.212   5.444
 7241SOL    HW222623   3.578   0.280   5.440
 7242SOL     OW22624   6.178   4.366   6.179
 7242SOL    HW122625   6.120   4.397   6.104
 7242SOL    HW222626   6.177   4.434   6.252
 7243SOL     OW22627   0.942   5.706   7.015
 7243SOL    HW122628   1.011   5.770   0.029
 7243SOL    HW222629   0.894   5.748   6.937
 7244SOL     OW22630   5.853   2.123   1.149
 7244SOL    HW122631   5.765   2.171   1.152
 7244SOL    HW222632   5.852   2.058   1.074
 7245SOL     OW22633   0.115   1.560   4.465
 7245SOL    HW122634   0.062   1.489   4.511
 7245SOL    HW222635   0.189   1.590   4.525
 7246SOL     OW22636   6.486   6.852   5.190
 7246SOL    HW122637   6.485   6.858   5.290
 7246SOL    HW222638   6.553   6.917   5.154
 7247SOL     OW22639   2.521   6.070   2.029
 7247SOL    HW122640   2.440   6.012   2.036
 7247SOL    HW222641   2.601   6.013   2.006
 7248SOL     OW22642   4.096   1.358   4.222
 7248SOL    HW122643   4.027   1.287   4.233
 7248SOL    HW222644   4.088   1.399   4.131
 7249SOL     OW22645   6.040   4.842   6.822
 7249SOL    HW122646   5.999   4.833   6.913
 7249SOL    HW222647   6.131   4.883   6.830
 7250SOL     OW22648   2.720   4.873   6.104
 7250SOL    HW122649   2.643   4.891   6.042
 7250SOL    HW222650   2.694   4.801   6.168
 7251SOL     OW22651   7.015   6.748   4.723
 7251SOL    HW122652   6.934   6.779   4.673
 7251SOL    HW222653   6.987   6.707   4.810
 7252SOL     OW22654   3.450   2.857   4.901
 7252SOL    HW122655   3.436   2.758   4.893
 7252SOL    HW222656   3.362   2.903   4.912
 7253SOL     OW22657   3.587   6.429   0.880
 7253SOL    HW122658   3.537   6.367   0.820
 7253SOL    HW222659   3.662   6.379   0.924
 7254SOL     OW22660   4.476   5.919   4.201
 7254SOL    HW122661   4.477   5.961   4.292
 7254SOL    HW222662   4.392   5.946   4.153
 7255SOL     OW22663   3.253   3.290   2.341
 7255SOL    HW122664   3.198   3.307   2.260
 7255SOL    HW222665   3.210   3.333   2.420
 7256SOL     OW22666   4.375   4.621   3.733
 7256SOL    HW122667   4.438   4.544   3.724
 7256SOL    HW222668   4.422   4.706   3.709
 7257SOL     OW22669   6.285   2.652   3.416
 7257SOL    HW122670   6.278   2.568   3.364
 7257SOL    HW222671   6.369   2.651   3.470
 7258SOL     OW22672   3.513   0.847   5.023
 7258SOL    HW122673   3.495   0.782   5.097
 7258SOL    HW222674   3.606   0.834   4.989
 7259SOL     OW22675   2.352   4.379   0.084
 7259SOL    HW122676   2.310   4.454   0.134
 7259SOL    HW222677   2.425   4.339   0.139
 7260SOL     OW22678   3.416   1.952   2.912
 7260SOL    HW122679   3.346   2.012   2.873
 7260SOL    HW222680   3.405   1.949   3.011
 7261SOL     OW22681   2.060   3.515   1.731
 7261SOL    HW122682   2.114   3.525   1.646
 7261SOL    HW222683   2.122   3.509   1.809
 7262SOL     OW22684   5.989   1.863   4.783
 7262SOL    HW122685   5.943   1.944   4.745
 7262SOL    HW222686   5.936   1.781   4.761
 7263SOL     OW22687   1.682   6.286   1.519
 7263SOL    HW122688   1.740   6.269   1.439
 7263SOL    HW222689   1.724   6.356   1.576
 7264SOL     OW22690   0.206   0.645   6.042
 7264SOL    HW122691   0.210   0.557   5.995
 7264SOL    HW222692   0.252   0.714   5.986
 7265SOL     OW22693   4.346   4.451   5.467
 7265SOL    HW122694   4.372   4.363   5.427
 7265SOL    HW222695   4.258   4.442   5.514
 7266SOL     OW22696   4.813   0.408   1.678
 7266SOL    HW122697   4.740   0.346   1.649
 7266SOL    HW222698   4.853   0.374   1.763
 7267SOL     OW22699   6.980   4.114   4.417
 7267SOL    HW122700   0.044   4.070   4.448
 7267SOL    HW222701   6.935   4.160   4.494
 7268SOL     OW22702   3.993   6.903   1.764
 7268SOL    HW122703   3.917   6.907   1.830
 7268SOL    HW222704   4.074   6.865   1.809
 7269SOL     OW22705   1.226   5.406   2.107
 7269SOL    HW122706   1.320   5.389   2.078
 7269SOL    HW222707   1.168   5.329   2.080
 7270SOL     OW22708   2.772   1.057   2.792
 7270SOL    HW122709   2.845   1.012   2.843
 7270SOL    HW222710   2.759   1.150   2.827
 7271SOL     OW22711   0.360   3.386   3.148
 7271SOL    HW122712   0.281   3.383   3.209
 7271SOL    HW222713   0.366   3.477   3.107
 7272SOL     OW22714   5.530   2.163   2.287
 7272SOL    HW122715   5.604   2.221   2.322
 7272SOL    HW222716   5.544   2.146   2.189
 7273SOL     OW22717   5.637   4.557   0.267
 7273SOL    HW122718   5.663   4.585   0.359
 7273SOL    HW222719   5.635   4.457   0.261
 7274SOL     OW22720   6.447   4.988   5.286
 7274SOL    HW122721   6.515   5.049   5.245
 7274SOL    HW222722   6.492   4.909   5.326
 7275SOL     OW22723   0.019   0.008   0.709
 7275SOL    HW122724   0.027   0.107   0.718
 7275SOL    HW222725   6.980   6.993   0.781
 7276SOL     OW22726   2.212   2.794   3.769
 7276SOL    HW122727   2.292   2.749   3.729
 7276SOL    HW222728   2.237   2.834   3.857
 7277SOL     OW22729   4.431   2.072   4.763
 7277SOL    HW122730   4.402   2.126   4.842
 7277SOL    HW222731   4.379   2.101   4.683
 7278SOL     OW22732   3.337   1.400   2.920
 7278SOL    HW122733   3.352   1.390   3.019
 7278SOL    HW222734   3.397   1.338   2.871
 7279SOL     OW22735   5.428   5.148   0.467
 7279SOL    HW122736   5.394   5.057   0.490
 7279SOL    HW222737   5.508   5.139   0.407
 7280SOL     OW22738   6.068   2.852   5.011
 7280SOL    HW122739   6.089   2.758   5.038
 7280SOL    HW222740   5.974   2.873   5.035
 7281SOL     OW22741   3.714   6.630   2.473
 7281SOL    HW122742   3.810   6.653   2.453
 7281SOL    HW222743   3.682   6.685   2.550
 7282SOL     OW22744   6.754   4.924   2.243
 7282SOL    HW122745   6.725   4.842   2.292
 7282SOL    HW222746   6.850   4.915   2.216
 7283SOL     OW22747   3.935   4.855   2.731
 7283SOL    HW122748   3.888   4.928   2.682
 7283SOL    HW222749   3.901   4.851   2.825
 7284SOL     OW22750   6.546   1.965   3.629
 7284SOL    HW122751   6.500   2.054   3.622
 7284SOL    HW222752   6.617   1.959   3.559
 7285SOL     OW22753   4.936   2.847   1.937
 7285SOL    HW122754   4.899   2.754   1.944
 7285SOL    HW222755   4.873   2.911   1.981
 7286SOL     OW22756   0.556   1.348   1.556
 7286SOL    HW122757   0.640   1.389   1.593
 7286SOL    HW222758   0.563   1.248   1.560
 7287SOL     OW22759   1.281   2.548   3.751
 7287SOL    HW122760   1.355   2.481   3.764
 7287SOL    HW222761   1.321   2.639   3.740
 7288SOL     OW22762   2.899   2.272   3.224
 7288SOL    HW122763   2.983   2.232   3.261
 7288SOL    HW222764   2.842   2.305   3.300
 7289SOL     OW22765   6.145   2.793   0.849
 7289SOL    HW122766   6.200   2.865   0.892
 7289SOL    HW222767   6.156   2.708   0.901
 7290SOL     OW22768   3.129   1.801   5.494
 7290SOL    HW122769   3.121   1.866   5.419
 7290SOL    HW222770   3.164   1.714   5.459
 7291SOL     OW22771   4.565   1.399   0.491
 7291SOL    HW122772   4.573   1.456   0.410
 7291SOL    HW222773   4.626   1.434   0.563
 7292SOL     OW22774   2.506   0.365   2.331
 7292SOL    HW122775   2.410   0.380   2.353
 7292SOL    HW222776   2.562   0.383   2.412
 7293SOL     OW22777   1.059   0.469   5.344
 7293SOL    HW122778   1.019   0.377   5.334
 7293SOL    HW222779   1.083   0.483   5.440
 7294SOL     OW22780   2.278   5.991   1.776
 7294SOL    HW122781   2.322   6.080   1.764
 7294SOL    HW222782   2.235   5.963   1.689
 7295SOL     OW22783   5.890   5.201   2.355
 7295SOL    HW122784   5.825   5.169   2.423
 7295SOL    HW222785   5.850   5.194   2.264
 7296SOL     OW22786   5.160   4.843   2.130
 7296SOL    HW122787   5.066   4.862   2.157
 7296SOL    HW222788   5.222   4.873   2.204
 7297SOL     OW22789   3.876   6.606   1.528
 7297SOL    HW122790   3.908   6.687   1.478
 7297SOL    HW222791   3.829   6.636   1.611
 7298SOL     OW22792   4.803   5.419   6.869
 7298SOL    HW122793   4.897   5.445   6.890
 7298SOL    HW222794   4.781   5.445   6.775
 7299SOL     OW22795   1.682   2.842   6.942
 7299SOL    HW122796   1.611   2.910   6.960
 7299SOL    HW222797   1.699   2.837   6.843
 7300SOL     OW22798   0.482   5.229   2.003
 7300SOL    HW122799   0.416   5.229   1.928
 7300SOL    HW222800   0.552   5.298   1.985
 7301SOL     OW22801   5.173   6.935   5.854
 7301SOL    HW122802   5.265   6.954   5.887
 7301SOL    HW222803   5.115   6.905   5.930
 7302SOL     OW22804   5.295   1.088   6.316
 7302SOL    HW122805   5.241   1.053   6.393
 7302SOL    HW222806   5.390   1.056   6.325
 7303SOL     OW22807   2.739   1.319   1.378
 7303SOL    HW122808   2.797   1.369   1.313
 7303SOL    HW222809   2.670   1.382   1.416
 7304SOL     OW22810   2.569   5.753   1.694
 7304SOL    HW122811   2.515   5.725   1.773
 7304SOL    HW222812   2.660   5.779   1.724
 7305SOL     OW22813   6.482   1.953   0.776
 7305SOL    HW122814   6.450   1.877   0.719
 7305SOL    HW222815   6.474   1.928   0.873
 7306SOL     OW22816   2.374   2.254   1.407
 7306SOL    HW122817   2.429   2.319   1.356
 7306SOL    HW222818   2.425   2.220   1.486
 7307SOL     OW22819   1.949   0.295   1.737
 7307SOL    HW122820   1.856   0.332   1.739
 7307SOL    HW222821   1.998   0.324   1.819
 7308SOL     OW22822   5.038   1.067   3.142
 7308SOL    HW122823   5.010   1.087   3.236
 7308SOL    HW222824   5.137   1.073   3.135
 7309SOL     OW22825   1.478   5.522   3.106
 7309SOL    HW122826   1.496   5.619   3.121
 7309SOL    HW222827   1.427   5.510   3.021
 7310SOL     OW22828   2.218   2.597   6.710
 7310SOL    HW122829   2.266   2.678   6.678
 7310SOL    HW222830   2.164   2.620   6.792
 7311SOL     OW22831   0.232   6.711   6.450
 7311SOL    HW122832   0.181   6.637   6.407
 7311SOL    HW222833   0.169   6.772   6.497
 7312SOL     OW22834   6.944   2.112   4.371
 7312SOL    HW122835   6.860   2.059   4.385
 7312SOL    HW222836   7.012   2.056   4.325
 7313SOL     OW22837   3.268   0.939   1.852
 7313SOL    HW122838   3.357   0.978   1.879
 7313SOL    HW222839   3.203   0.950   1.927
 7314SOL     OW22840   0.090   3.832   0.008
 7314SOL    HW122841   0.089   3.931   7.014
 7314SOL    HW222842   0.167   3.808   0.067
 7315SOL     OW22843   1.208   4.245   2.582
 7315SOL    HW122844   1.127   4.300   2.563
 7315SOL    HW222845   1.261   4.288   2.655
 7316SOL     OW22846   3.253   2.169   1.037
 7316SOL    HW122847   3.309   2.087   1.029
 7316SOL    HW222848   3.234   2.186   1.134
 7317SOL     OW22849   4.069   1.822   1.391
 7317SOL    HW122850   3.985   1.868   1.360
 7317SOL    HW222851   4.105   1.765   1.318
 7318SOL     OW22852   4.294   6.597   0.230
 7318SOL    HW122853   4.275   6.561   0.139
 7318SOL    HW222854   4.364   6.541   0.275
 7319SOL     OW22855   5.937   4.603   6.732
 7319SOL    HW122856   5.980   4.689   6.761
 7319SOL    HW222857   5.886   4.564   6.809
 7320SOL     OW22858   6.529   2.933   1.762
 7320SOL    HW122859   6.484   2.845   1.780
 7320SOL    HW222860   6.617   2.917   1.716
 7321SOL     OW22861   1.670   0.054   6.795
 7321SOL    HW122862   1.667   0.045   6.696
 7321SOL    HW222863   1.601   7.015   6.836
 7322SOL     OW22864   0.765   2.584   2.579
 7322SOL    HW122865   0.758   2.573   2.678
 7322SOL    HW222866   0.710   2.663   2.550
 7323SOL     OW22867   1.301   2.297   1.507
 7323SOL    HW122868   1.325   2.353   1.428
 7323SOL    HW222869   1.236   2.346   1.565
 7324SOL     OW22870   5.315   4.959   3.367
 7324SOL    HW122871   5.220   4.932   3.380
 7324SOL    HW222872   5.325   5.057   3.382
 7325SOL     OW22873   4.625   0.769   5.909
 7325SOL    HW122874   4.601   0.674   5.895
 7325SOL    HW222875   4.550   0.817   5.955
 7326SOL     OW22876   3.323   0.382   0.094
 7326SOL    HW122877   3.288   0.301   0.047
 7326SOL    HW222878   3.317   0.461   0.034
 7327SOL     OW22879   0.059   3.412   3.265
 7327SOL    HW122880   0.045   3.313   3.262
 7327SOL    HW222881   0.104   3.437   3.350
 7328SOL     OW22882   4.276   4.797   5.012
 7328SOL    HW122883   4.276   4.697   5.011
 7328SOL    HW222884   4.370   4.830   4.999
 7329SOL     OW22885   3.088   2.919   0.901
 7329SOL    HW122886   3.125   2.851   0.839
 7329SOL    HW222887   3.029   2.982   0.851
 7330SOL     OW22888   2.962   3.230   1.396
 7330SOL    HW122889   2.946   3.316   1.444
 7330SOL    HW222890   2.879   3.174   1.399
 7331SOL     OW22891   4.714   0.587   3.093
 7331SOL    HW122892   4.732   0.668   3.149
 7331SOL    HW222893   4.665   0.614   3.010
 7332SOL     OW22894   3.004   5.022   6.289
 7332SOL    HW122895   2.981   5.052   6.197
 7332SOL    HW222896   2.922   5.019   6.345
 7333SOL     OW22897   6.761   2.089   0.823
 7333SOL    HW122898   6.677   2.062   0.775
 7333SOL    HW222899   6.783   2.020   0.892
 7334SOL     OW22900   2.713   0.119   4.832
 7334SOL    HW122901   2.622   0.155   4.811
 7334SOL    HW222902   2.773   0.130   4.753
 7335SOL     OW22903   6.882   2.885   2.209
 7335SOL    HW122904   6.957   2.841   2.159
 7335SOL    HW222905   6.808   2.906   2.145
 7336SOL     OW22906   1.624   6.633   1.553
 7336SOL    HW122907   1.558   6.695   1.511
 7336SOL    HW222908   1.581   6.543   1.567
 7337SOL     OW22909   2.035   2.455   2.721
 7337SOL    HW122910   2.008   2.550   2.703
 7337SOL    HW222911   2.103   2.426   2.654
 7338SOL     OW22912   5.699   3.034   1.356
 7338SOL    HW122913   5.722   2.939   1.336
 7338SOL    HW222914   5.601   3.040   1.377
 7339SOL     OW22915   6.445   5.052   4.561
 7339SOL    HW122916   6.359   5.100   4.580
 7339SOL    HW222917   6.451   4.971   4.619
 7340SOL     OW22918   2.812   0.358   0.148
 7340SOL    HW122919   2.716   0.355   0.122
 7340SOL    HW222920   2.820   0.369   0.247
 7341SOL     OW22921   5.878   4.820   4.024
 7341SOL    HW122922   5.857   4.914   4.052
 7341SOL    HW222923   5.847   4.805   3.930
 7342SOL     OW22924   0.103   6.774   0.203
 7342SOL    HW122925   0.035   6.726   0.147
 7342SOL    HW222926   0.132   6.857   0.155
 7343SOL     OW22927   6.073   3.445   2.160
 7343SOL    HW122928   6.019   3.521   2.124
 7343SOL    HW222929   6.017   3.390   2.222
 7344SOL     OW22930   1.674   6.302   0.003
 7344SOL    HW122931   1.677   6.401   7.006
 7344SOL    HW222932   1.634   6.286   0.093
 7345SOL     OW22933   3.697   5.577   6.803
 7345SOL    HW122934   3.698   5.663   6.751
 7345SOL    HW222935   3.679   5.501   6.740
 7346SOL     OW22936   3.958   4.803   1.936
 7346SOL    HW122937   4.016   4.737   1.887
 7346SOL    HW222938   4.013   4.884   1.960
 7347SOL     OW22939   6.512   1.818   2.432
 7347SOL    HW122940   6.549   1.803   2.524
 7347SOL    HW222941   6.531   1.912   2.403
 7348SOL     OW22942   1.546   1.637   3.308
 7348SOL    HW122943   1.543   1.692   3.225
 7348SOL    HW222944   1.596   1.686   3.380
 7349SOL     OW22945   3.285   1.575   1.129
 7349SOL    HW122946   3.360   1.511   1.111
 7349SOL    HW222947   3.322   1.668   1.136
 7350SOL     OW22948   2.157   2.022   3.619
 7350SOL    HW122949   2.176   2.019   3.521
 7350SOL    HW222950   2.081   1.962   3.641
 7351SOL     OW22951   4.786   4.360   6.651
 7351SOL    HW122952   4.723   4.366   6.573
 7351SOL    HW222953   4.819   4.452   6.674
 7352SOL     OW22954   0.806   1.823   2.484
 7352SOL    HW122955   0.748   1.881   2.426
 7352SOL    HW222956   0.895   1.811   2.440
 7353SOL     OW22957   5.554   1.940   4.400
 7353SOL    HW122958   5.576   1.875   4.472
 7353SOL    HW222959   5.578   1.901   4.311
 7354SOL     OW22960   5.951   5.353   5.519
 7354SOL    HW122961   6.045   5.338   5.488
 7354SOL    HW222962   5.892   5.284   5.477
 7355SOL     OW22963   1.714   5.304   1.762
 7355SOL    HW122964   1.738   5.358   1.681
 7355SOL    HW222965   1.767   5.336   1.840
 7356SOL     OW22966   5.933   1.584   5.808
 7356SOL    HW122967   5.872   1.549   5.738
 7356SOL    HW222968   5.883   1.593   5.895
 7357SOL     OW22969   6.081   1.790   0.331
 7357SOL    HW122970   6.081   1.694   0.359
 7357SOL    HW222971   6.076   1.849   0.412
 7358SOL     OW22972   3.272   1.068   4.015
 7358SOL    HW122973   3.320   0.994   3.967
 7358SOL    HW222974   3.183   1.035   4.046
 7359SOL     OW22975   4.109   3.338   3.464
 7359SOL    HW122976   4.052   3.279   3.406
 7359SOL    HW222977   4.117   3.428   3.421
 7360SOL     OW22978   0.725   2.508   4.779
 7360SOL    HW122979   0.627   2.502   4.757
 7360SOL    HW222980   0.754   2.424   4.823
 7361SOL     OW22981   5.321   5.966   2.144
 7361SOL    HW122982   5.317   6.041   2.210
 7361SOL    HW222983   5.391   5.900   2.173
 7362SOL     OW22984   2.137   5.650   6.056
 7362SOL    HW122985   2.041   5.671   6.037
 7362SOL    HW222986   2.179   5.610   5.975
 7363SOL     OW22987   4.951   3.459   6.571
 7363SOL    HW122988   4.870   3.517   6.571
 7363SOL    HW222989   5.023   3.502   6.518
 7364SOL     OW22990   4.389   6.326   1.438
 7364SOL    HW122991   4.380   6.283   1.348
 7364SOL    HW222992   4.485   6.328   1.465
 7365SOL     OW22993   2.792   0.336   2.287
 7365SOL    HW122994   2.757   0.272   2.355
 7365SOL    HW222995   2.719   0.359   2.222
 7366SOL     OW22996   0.322   5.323   6.824
 7366SOL    HW122997   0.238   5.271   6.840
 7366SOL    HW222998   0.346   5.374   6.907
 7367SOL     OW22999   5.051   4.019   1.715
 7367SOL    HW123000   5.116   4.036   1.789
 7367SOL    HW223001   4.959   4.010   1.752
 7368SOL     OW23002   3.214   3.297   4.726
 7368SOL    HW123003   3.155   3.335   4.655
 7368SOL    HW223004   3.178   3.322   4.816
 7369SOL     OW23005   4.711   3.958   0.503
 7369SOL    HW123006   4.808   3.948   0.529
 7369SOL    HW223007   4.694   4.051   0.471
 7370SOL     OW23008   2.661   6.905   0.648
 7370SOL    HW123009   2.605   6.910   0.565
 7370SOL    HW223010   2.605   6.929   0.727
 7371SOL     OW23011   2.767   5.184   4.094
 7371SOL    HW123012   2.685   5.237   4.074
 7371SOL    HW223013   2.748   5.087   4.086
 7372SOL     OW23014   3.535   0.671   5.669
 7372SOL    HW123015   3.464   0.723   5.620
 7372SOL    HW223016   3.494   0.624   5.747
 7373SOL     OW23017   3.956   0.679   2.195
 7373SOL    HW123018   3.861   0.680   2.162
 7373SOL    HW223019   3.963   0.613   2.271
 7374SOL     OW23020   1.555   2.976   6.564
 7374SOL    HW123021   1.538   3.070   6.592
 7374SOL    HW223022   1.563   2.972   6.464
 7375SOL     OW23023   1.090   0.805   4.381
 7375SOL    HW123024   1.165   0.740   4.395
 7375SOL    HW223025   1.099   0.880   4.446
 7376SOL     OW23026   2.201   3.421   6.936
 7376SOL    HW123027   2.110   3.393   6.967
 7376SOL    HW223028   2.214   3.518   6.958
 7377SOL     OW23029   4.674   4.469   1.836
 7377SOL    HW123030   4.608   4.490   1.763
 7377SOL    HW223031   4.624   4.438   1.917
 7378SOL     OW23032   0.053   1.330   5.180
 7378SOL    HW123033   0.146   1.338   5.145
 7378SOL    HW223034   7.014   1.292   5.109
 7379SOL     OW23035   4.226   1.333   2.396
 7379SOL    HW123036   4.216   1.394   2.318
 7379SOL    HW223037   4.322   1.320   2.417
 7380SOL     OW23038   0.322   3.183   5.869
 7380SOL    HW123039   0.366   3.248   5.930
 7380SOL    HW223040   0.352   3.198   5.775
 7381SOL     OW23041   4.951   2.143   2.160
 7381SOL    HW123042   4.893   2.078   2.210
 7381SOL    HW223043   4.980   2.216   2.221
 7382SOL     OW23044   6.731   5.071   4.671
 7382SOL    HW123045   6.703   5.134   4.599
 7382SOL    HW223046   6.654   5.058   4.735
 7383SOL     OW23047   6.751   6.395   3.581
 7383SOL    HW123048   6.661   6.353   3.589
 7383SOL    HW223049   6.783   6.423   3.671
 7384SOL     OW23050   5.257   6.960   2.186
 7384SOL    HW123051   5.232   6.864   2.177
 7384SOL    HW223052   5.177   7.017   2.167
 7385SOL     OW23053   4.697   6.378   1.441
 7385SOL    HW123054   4.727   6.375   1.345
 7385SOL    HW223055   4.711   6.288   1.482
 7386SOL     OW23056   0.673   2.189   5.338
 7386SOL    HW123057   0.660   2.264   5.403
 7386SOL    HW223058   0.669   2.225   5.245
 7387SOL     OW23059   3.656   5.181   3.708
 7387SOL    HW123060   3.735   5.162   3.766
 7387SOL    HW223061   3.621   5.273   3.728
 7388SOL     OW23062   6.511   4.939   3.482
 7388SOL    HW123063   6.547   4.916   3.391
 7388SOL    HW223064   6.433   5.000   3.473
 7389SOL     OW23065   1.496   4.242   6.463
 7389SOL    HW123066   1.481   4.268   6.368
 7389SOL    HW223067   1.539   4.152   6.467
 7390SOL     OW23068   1.043   0.046   5.714
 7390SOL    HW123069   1.128   7.020   5.739
 7390SOL    HW223070   1.054   0.089   5.624
 7391SOL     OW23071   6.201   3.315   6.350
 7391SOL    HW123072   6.117   3.289   6.397
 7391SOL    HW223073   6.180   3.341   6.256
 7392SOL     OW23074   1.585   5.210   4.036
 7392SOL    HW123075   1.519   5.136   4.026
 7392SOL    HW223076   1.539   5.290   4.075
 7393SOL     OW23077   6.879   4.855   2.567
 7393SOL    HW123078   6.783   4.834   2.586
 7393SOL    HW223079   6.916   4.912   2.640
 7394SOL     OW23080   4.152   3.429   6.817
 7394SOL    HW123081   4.229   3.368   6.833
 7394SOL    HW223082   4.067   3.376   6.816
 7395SOL     OW23083   1.077   0.408   0.243
 7395SOL    HW123084   1.025   0.370   0.167
 7395SOL    HW223085   1.121   0.494   0.214
 7396SOL     OW23086   1.210   6.627   6.358
 7396SOL    HW123087   1.173   6.700   6.301
 7396SOL    HW223088   1.178   6.638   6.452
 7397SOL     OW23089   6.815   4.804   5.190
 7397SOL    HW123090   6.848   4.888   5.147
 7397SOL    HW223091   6.772   4.746   5.121
 7398SOL     OW23092   4.818   4.420   4.238
 7398SOL    HW123093   4.910   4.419   4.198
 7398SOL    HW223094   4.805   4.338   4.294
 7399SOL     OW23095   5.234   3.809   6.295
 7399SOL    HW123096   5.140   3.839   6.283
 7399SOL    HW223097   5.296   3.887   6.287
 7400SOL     OW23098   2.759   5.242   6.848
 7400SOL    HW123099   2.761   5.142   6.838
 7400SOL    HW223100   2.818   5.283   6.778
 7401SOL     OW23101   0.114   1.960   4.201
 7401SOL    HW123102   0.148   1.975   4.108
 7401SOL    HW223103   0.103   1.862   4.217
 7402SOL     OW23104   2.856   0.407   3.817
 7402SOL    HW123105   2.920   0.457   3.876
 7402SOL    HW223106   2.840   0.316   3.856
 7403SOL     OW23107   2.064   3.907   3.411
 7403SOL    HW123108   2.113   3.836   3.360
 7403SOL    HW223109   1.966   3.890   3.405
 7404SOL     OW23110   1.242   0.472   1.303
 7404SOL    HW123111   1.244   0.403   1.375
 7404SOL    HW223112   1.324   0.528   1.308
 7405SOL     OW23113   2.712   5.225   6.173
 7405SOL    HW123114   2.653   5.222   6.093
 7405SOL    HW223115   2.806   5.204   6.146
 7406SOL     OW23116   1.206   4.520   2.384
 7406SOL    HW123117   1.253   4.434   2.362
 7406SOL    HW223118   1.113   4.499   2.415
 7407SOL     OW23119   1.556   5.967   6.033
 7407SOL    HW123120   1.542   5.881   5.985
 7407SOL    HW223121   1.487   6.033   6.005
 7408SOL     OW23122   1.480   4.554   5.734
 7408SOL    HW123123   1.444   4.648   5.733
 7408SOL    HW223124   1.576   4.556   5.760
 7409SOL     OW23125   1.805   6.537   4.862
 7409SOL    HW123126   1.713   6.562   4.890
 7409SOL    HW223127   1.838   6.461   4.919
 7410SOL     OW23128   0.035   5.379   1.255
 7410SOL    HW123129   7.011   5.290   1.243
 7410SOL    HW223130   0.101   5.374   1.330
 7411SOL     OW23131   3.272   5.987   4.608
 7411SOL    HW123132   3.331   6.003   4.687
 7411SOL    HW223133   3.210   5.911   4.628
 7412SOL     OW23134   1.426   1.190   0.766
 7412SOL    HW123135   1.372   1.106   0.770
 7412SOL    HW223136   1.439   1.226   0.859
 7413SOL     OW23137   5.974   4.162   5.063
 7413SOL    HW123138   6.033   4.206   4.995
 7413SOL    HW223139   6.026   4.143   5.146
 7414SOL     OW23140   6.536   7.005   2.271
 7414SOL    HW123141   6.500   6.998   2.178
 7414SOL    HW223142   6.515   6.920   2.321
 7415SOL     OW23143   1.948   3.087   3.333
 7415SOL    HW123144   2.029   3.143   3.347
 7415SOL    HW223145   1.881   3.107   3.405
 7416SOL     OW23146   3.665   1.178   4.030
 7416SOL    HW123147   3.574   1.217   4.014
 7416SOL    HW223148   3.700   1.211   4.118
 7417SOL     OW23149   1.368   6.593   0.050
 7417SOL    HW123150   1.298   6.645   0.002
 7417SOL    HW223151   1.346   6.591   0.148
 7418SOL     OW23152   2.757   3.652   1.343
 7418SOL    HW123153   2.839   3.677   1.291
 7418SOL    HW223154   2.783   3.621   1.434
 7419SOL     OW23155   6.055   0.987   5.078
 7419SOL    HW123156   6.068   0.894   5.044
 7419SOL    HW223157   6.137   1.017   5.127
 7420SOL     OW23158   6.741   5.858   2.052
 7420SOL    HW123159   6.837   5.855   2.024
 7420SOL    HW223160   6.694   5.932   2.004
 7421SOL     OW23161   3.692   4.126   1.548
 7421SOL    HW123162   3.771   4.171   1.589
 7421SOL    HW223163   3.723   4.060   1.480
 7422SOL     OW23164   6.661   3.376   0.102
 7422SOL    HW123165   6.682   3.439   0.178
 7422SOL    HW223166   6.672   3.282   0.133
 7423SOL     OW23167   1.247   4.875   6.098
 7423SOL    HW123168   1.298   4.791   6.084
 7423SOL    HW223169   1.266   4.911   6.189
 7424SOL     OW23170   5.440   0.857   4.433
 7424SOL    HW123171   5.346   0.836   4.406
 7424SOL    HW223172   5.504   0.813   4.371
 7425SOL     OW23173   3.527   5.260   6.349
 7425SOL    HW123174   3.626   5.260   6.343
 7425SOL    HW223175   3.499   5.263   6.445
 7426SOL     OW23176   1.349   1.149   6.332
 7426SOL    HW123177   1.255   1.143   6.365
 7426SOL    HW223178   1.403   1.203   6.397
 7427SOL     OW23179   3.580   5.460   5.013
 7427SOL    HW123180   3.639   5.475   4.934
 7427SOL    HW223181   3.526   5.542   5.031
 7428SOL     OW23182   3.468   2.323   5.887
 7428SOL    HW123183   3.412   2.333   5.969
 7428SOL    HW223184   3.562   2.298   5.913
 7429SOL     OW23185   0.057   0.538   2.856
 7429SOL    HW123186   0.151   0.544   2.888
 7429SOL    HW223187   7.015   0.566   2.930
 7430SOL     OW23188   6.454   3.789   5.486
 7430SOL    HW123189   6.449   3.814   5.389
 7430SOL    HW223190   6.538   3.736   5.503
 7431SOL     OW23191   0.223   3.964   2.169
 7431SOL    HW123192   0.217   4.046   2.226
 7431SOL    HW223193   0.277   3.984   2.087
 7432SOL     OW23194   6.955   6.513   4.466
 7432SOL    HW123195   6.932   6.593   4.521
 7432SOL    HW223196   6.905   6.516   4.380
 7433SOL     OW23197   6.378   5.458   0.699
 7433SOL    HW123198   6.336   5.458   0.790
 7433SOL    HW223199   6.356   5.372   0.652
 7434SOL     OW23200   3.170   1.449   6.568
 7434SOL    HW123201   3.125   1.441   6.479
 7434SOL    HW223202   3.147   1.371   6.625
 7435SOL     OW23203   2.793   6.424   0.462
 7435SOL    HW123204   2.754   6.505   0.418
 7435SOL    HW223205   2.732   6.394   0.535
 7436SOL     OW23206   4.998   3.201   6.495
 7436SOL    HW123207   5.065   3.174   6.565
 7436SOL    HW223208   4.955   3.288   6.522
 7437SOL     OW23209   0.546   5.872   5.856
 7437SOL    HW123210   0.577   5.782   5.824
 7437SOL    HW223211   0.449   5.867   5.879
 7438SOL     OW23212   0.012   4.609   1.873
 7438SOL    HW123213   0.088   4.575   1.929
 7438SOL    HW223214   6.946   4.588   1.919
 7439SOL     OW23215   1.817   0.039   3.488
 7439SOL    HW123216   1.754   0.116   3.483
 7439SOL    HW223217   1.873   0.037   3.405
 7440SOL     OW23218   1.322   2.553   4.172
 7440SOL    HW123219   1.368   2.505   4.247
 7440SOL    HW223220   1.374   2.635   4.148
 7441SOL     OW23221   5.716   1.408   4.017
 7441SOL    HW123222   5.710   1.325   4.072
 7441SOL    HW223223   5.780   1.394   3.941
 7442SOL     OW23224   1.063   1.025   6.119
 7442SOL    HW123225   1.134   1.092   6.096
 7442SOL    HW223226   1.057   1.015   6.218
 7443SOL     OW23227   0.568   0.872   6.197
 7443SOL    HW123228   0.587   0.914   6.286
 7443SOL    HW223229   0.652   0.866   6.144
 7444SOL     OW23230   0.558   3.176   6.378
 7444SOL    HW123231   0.466   3.139   6.384
 7444SOL    HW223232   0.603   3.166   6.467
 7445SOL     OW23233   5.118   1.479   1.989
 7445SOL    HW123234   5.193   1.461   2.053
 7445SOL    HW223235   5.042   1.416   2.009
 7446SOL     OW23236   6.822   3.771   1.335
 7446SOL    HW123237   6.800   3.809   1.425
 7446SOL    HW223238   6.788   3.677   1.329
 7447SOL     OW23239   0.941   4.041   6.623
 7447SOL    HW123240   0.845   4.059   6.647
 7447SOL    HW223241   0.998   4.050   6.705
 7448SOL     OW23242   6.128   0.100   5.902
 7448SOL    HW123243   6.044   0.121   5.951
 7448SOL    HW223244   6.190   0.179   5.906
 7449SOL     OW23245   5.108   2.038   1.939
 7449SOL    HW123246   5.058   2.056   2.023
 7449SOL    HW223247   5.078   2.102   1.868
 7450SOL     OW23248   4.769   2.126   2.586
 7450SOL    HW123249   4.802   2.180   2.663
 7450SOL    HW223250   4.669   2.124   2.587
 7451SOL     OW23251   2.116   0.924   4.701
 7451SOL    HW123252   2.119   0.969   4.612
 7451SOL    HW223253   2.022   0.898   4.722
 7452SOL     OW23254   2.123   6.824   4.536
 7452SOL    HW123255   2.036   6.863   4.507
 7452SOL    HW223256   2.130   6.729   4.504
 7453SOL     OW23257   5.692   6.122   4.904
 7453SOL    HW123258   5.619   6.059   4.877
 7453SOL    HW223259   5.756   6.133   4.829
 7454SOL     OW23260   0.672   3.325   1.314
 7454SOL    HW123261   0.581   3.298   1.284
 7454SOL    HW223262   0.694   3.415   1.276
 7455SOL     OW23263   4.693   2.795   0.190
 7455SOL    HW123264   4.743   2.740   0.123
 7455SOL    HW223265   4.621   2.740   0.232
 7456SOL     OW23266   1.672   3.417   4.750
 7456SOL    HW123267   1.739   3.490   4.733
 7456SOL    HW223268   1.586   3.457   4.781
 7457SOL     OW23269   6.173   0.505   5.538
 7457SOL    HW123270   6.133   0.562   5.609
 7457SOL    HW223271   6.267   0.533   5.522
 7458SOL     OW23272   3.099   0.971   0.316
 7458SOL    HW123273   3.198   0.953   0.320
 7458SOL    HW223274   3.049   0.888   0.342
 7459SOL     OW23275   4.855   0.230   5.233
 7459SOL    HW123276   4.817   0.265   5.147
 7459SOL    HW223277   4.798   0.154   5.266
 7460SOL     OW23278   0.571   4.553   0.409
 7460SOL    HW123279   0.610   4.462   0.423
 7460SOL    HW223280   0.540   4.561   0.314
 7461SOL     OW23281   5.292   1.169   5.309
 7461SOL    HW123282   5.332   1.104   5.374
 7461SOL    HW223283   5.286   1.259   5.351
 7462SOL     OW23284   2.440   1.831   2.826
 7462SOL    HW123285   2.421   1.854   2.730
 7462SOL    HW223286   2.473   1.912   2.874
 7463SOL     OW23287   4.092   3.584   1.877
 7463SOL    HW123288   4.060   3.573   1.972
 7463SOL    HW223289   4.081   3.679   1.849
 7464SOL     OW23290   5.141   6.118   0.681
 7464SOL    HW123291   5.165   6.078   0.770
 7464SOL    HW223292   5.201   6.196   0.663
 7465SOL     OW23293   2.892   0.107   2.165
 7465SOL    HW123294   2.896   0.204   2.188
 7465SOL    HW223295   2.848   0.096   2.076
 7466SOL     OW23296   0.285   0.360   0.056
 7466SOL    HW123297   0.198   0.389   0.096
 7466SOL    HW223298   0.349   0.437   0.056
 7467SOL     OW23299   0.222   1.444   0.745
 7467SOL    HW123300   0.169   1.497   0.812
 7467SOL    HW223301   0.203   1.346   0.758
 7468SOL     OW23302   5.298   1.131   3.086
 7468SOL    HW123303   5.277   1.206   3.023
 7468SOL    HW223304   5.387   1.093   3.064
 7469SOL     OW23305   1.415   0.842   0.590
 7469SOL    HW123306   1.374   0.836   0.681
 7469SOL    HW223307   1.359   0.791   0.525
 7470SOL     OW23308   0.187   1.975   1.621
 7470SOL    HW123309   0.189   2.027   1.706
 7470SOL    HW223310   0.280   1.950   1.595
 7471SOL     OW23311   6.163   6.465   5.853
 7471SOL    HW123312   6.144   6.557   5.819
 7471SOL    HW223313   6.225   6.470   5.931
 7472SOL     OW23314   3.630   0.166   3.981
 7472SOL    HW123315   3.609   0.171   3.883
 7472SOL    HW223316   3.707   0.105   3.995
 7473SOL     OW23317   6.508   3.913   4.491
 7473SOL    HW123318   6.423   3.863   4.509
 7473SOL    HW223319   6.583   3.848   4.476
 7474SOL     OW23320   3.721   0.971   3.296
 7474SOL    HW123321   3.679   0.890   3.337
 7474SOL    HW223322   3.752   0.949   3.203
 7475SOL     OW23323   3.823   0.484   1.121
 7475SOL    HW123324   3.749   0.542   1.152
 7475SOL    HW223325   3.817   0.471   1.022
 7476SOL     OW23326   3.965   5.817   4.164
 7476SOL    HW123327   3.932   5.750   4.231
 7476SOL    HW223328   3.967   5.908   4.206
 7477SOL     OW23329   4.331   1.192   3.845
 7477SOL    HW123330   4.306   1.278   3.888
 7477SOL    HW223331   4.386   1.210   3.763
 7478SOL     OW23332   2.128   4.219   6.998
 7478SOL    HW123333   2.205   4.281   7.012
 7478SOL    HW223334   2.085   4.198   0.066
 7479SOL     OW23335   4.809   0.573   0.022
 7479SOL    HW123336   4.824   0.595   6.945
 7479SOL    HW223337   4.713   0.586   0.044
 7480SOL     OW23338   6.391   6.087   1.531
 7480SOL    HW123339   6.437   6.086   1.619
 7480SOL    HW223340   6.439   6.149   1.469
 7481SOL     OW23341   5.916   4.828   0.511
 7481SOL    HW123342   5.850   4.761   0.479
 7481SOL    HW223343   6.008   4.791   0.504
 7482SOL     OW23344   4.692   0.864   2.946
 7482SOL    HW123345   4.662   0.843   2.853
 7482SOL    HW223346   4.791   0.854   2.952
 7483SOL     OW23347   3.810   1.241   4.265
 7483SOL    HW123348   3.752   1.306   4.315
 7483SOL    HW223349   3.761   1.155   4.252
 7484SOL     OW23350   2.210   6.097   2.677
 7484SOL    HW123351   2.256   6.063   2.595
 7484SOL    HW223352   2.147   6.027   2.710
 7485SOL     OW23353   3.401   5.454   6.206
 7485SOL    HW123354   3.425   5.387   6.276
 7485SOL    HW223355   3.447   5.431   6.120
 7486SOL     OW23356   3.233   6.012   5.211
 7486SOL    HW123357   3.222   5.959   5.127
 7486SOL    HW223358   3.300   5.968   5.270
 7487SOL     OW23359   3.168   6.198   3.583
 7487SOL    HW123360   3.108   6.227   3.658
 7487SOL    HW223361   3.145   6.250   3.500
 7488SOL     OW23362   3.347   7.000   6.023
 7488SOL    HW123363   3.391   0.063   5.989
 7488SOL    HW223364   3.342   6.933   5.949
 7489SOL     OW23365   4.847   2.891   4.359
 7489SOL    HW123366   4.861   2.990   4.368
 7489SOL    HW223367   4.780   2.861   4.428
 7490SOL     OW23368   6.186   1.412   0.876
 7490SOL    HW123369   6.122   1.336   0.874
 7490SOL    HW223370   6.149   1.489   0.824
 7491SOL     OW23371   6.810   5.578   6.190
 7491SOL    HW123372   6.800   5.573   6.290
 7491SOL    HW223373   6.823   5.673   6.163
 7492SOL     OW23374   2.028   2.786   5.270
 7492SOL    HW123375   2.105   2.750   5.322
 7492SOL    HW223376   2.053   2.793   5.174
 7493SOL     OW23377   5.741   3.615   6.639
 7493SOL    HW123378   5.734   3.662   6.727
 7493SOL    HW223379   5.786   3.675   6.573
 7494SOL     OW23380   5.699   0.043   1.901
 7494SOL    HW123381   5.622   0.016   1.959
 7494SOL    HW223382   5.732   0.133   1.929
 7495SOL     OW23383   2.470   1.726   0.710
 7495SOL    HW123384   2.563   1.712   0.676
 7495SOL    HW223385   2.416   1.773   0.640
 7496SOL     OW23386   0.981   4.820   6.344
 7496SOL    HW123387   1.048   4.745   6.342
 7496SOL    HW223388   0.903   4.796   6.286
 7497SOL     OW23389   1.742   4.672   2.555
 7497SOL    HW123390   1.743   4.577   2.585
 7497SOL    HW223391   1.711   4.731   2.630
 7498SOL     OW23392   2.919   1.309   4.969
 7498SOL    HW123393   2.963   1.237   4.915
 7498SOL    HW223394   2.837   1.272   5.013
 7499SOL     OW23395   5.668   6.465   4.575
 7499SOL    HW123396   5.653   6.564   4.570
 7499SOL    HW223397   5.597   6.424   4.633
 7500SOL     OW23398   4.410   5.854   1.819
 7500SOL    HW123399   4.497   5.857   1.771
 7500SOL    HW223400   4.426   5.863   1.917
 7501SOL     OW23401   0.803   3.817   3.680
 7501SOL    HW123402   0.861   3.866   3.745
 7501SOL    HW223403   0.855   3.743   3.638
 7502SOL     OW23404   2.741   0.867   4.861
 7502SOL    HW123405   2.666   0.813   4.898
 7502SOL    HW223406   2.742   0.859   4.761
 7503SOL     OW23407   3.225   0.835   6.833
 7503SOL    HW123408   3.159   0.896   6.877
 7503SOL    HW223409   3.273   0.885   6.761
 7504SOL     OW23410   4.197   6.621   3.407
 7504SOL    HW123411   4.132   6.695   3.424
 7504SOL    HW223412   4.257   6.646   3.330
 7505SOL     OW23413   1.941   0.965   5.098
 7505SOL    HW123414   2.019   0.997   5.044
 7505SOL    HW223415   1.895   1.043   5.140
 7506SOL     OW23416   3.350   0.729   2.328
 7506SOL    HW123417   3.390   0.821   2.335
 7506SOL    HW223418   3.424   0.662   2.316
 7507SOL     OW23419   0.937   6.196   5.562
 7507SOL    HW123420   1.001   6.122   5.542
 7507SOL    HW223421   0.884   6.174   5.644
 7508SOL     OW23422   5.582   6.651   2.748
 7508SOL    HW123423   5.604   6.717   2.820
 7508SOL    HW223424   5.485   6.659   2.724
 7509SOL     OW23425   5.127   3.335   6.103
 7509SOL    HW123426   5.028   3.328   6.120
 7509SOL    HW223427   5.164   3.243   6.087
 7510SOL     OW23428   3.531   3.957   5.103
 7510SOL    HW123429   3.589   3.893   5.152
 7510SOL    HW223430   3.553   3.954   5.005
 7511SOL     OW23431   1.614   6.983   2.376
 7511SOL    HW123432   1.685   6.934   2.426
 7511SOL    HW223433   1.529   6.932   2.381
 7512SOL     OW23434   2.628   3.186   1.542
 7512SOL    HW123435   2.576   3.255   1.593
 7512SOL    HW223436   2.601   3.188   1.446
 7513SOL     OW23437   1.715   1.873   5.748
 7513SOL    HW123438   1.802   1.833   5.722
 7513SOL    HW223439   1.719   1.973   5.737
 7514SOL     OW23440   2.952   6.060   2.025
 7514SOL    HW123441   3.030   6.076   2.086
 7514SOL    HW223442   2.972   6.099   1.935
 7515SOL     OW23443   6.870   0.176   2.935
 7515SOL    HW123444   6.834   0.181   2.841
 7515SOL    HW223445   6.796   0.195   2.999
 7516SOL     OW23446   0.237   1.126   3.927
 7516SOL    HW123447   0.148   1.170   3.940
 7516SOL    HW223448   0.268   1.089   4.014
 7517SOL     OW23449   0.467   3.527   0.619
 7517SOL    HW123450   0.448   3.542   0.522
 7517SOL    HW223451   0.486   3.430   0.634
 7518SOL     OW23452   4.465   5.628   3.715
 7518SOL    HW123453   4.399   5.578   3.772
 7518SOL    HW223454   4.417   5.702   3.667
 7519SOL     OW23455   1.416   6.104   4.549
 7519SOL    HW123456   1.482   6.159   4.601
 7519SOL    HW223457   1.328   6.105   4.596
 7520SOL     OW23458   1.027   6.678   3.734
 7520SOL    HW123459   0.966   6.628   3.796
 7520SOL    HW223460   0.972   6.728   3.666
 7521SOL     OW23461   4.687   4.202   5.118
 7521SOL    HW123462   4.732   4.149   5.191
 7521SOL    HW223463   4.712   4.164   5.029
 7522SOL     OW23464   2.007   1.333   0.175
 7522SOL    HW123465   1.928   1.293   0.221
 7522SOL    HW223466   1.988   1.429   0.154
 7523SOL     OW23467   5.609   0.216   5.823
 7523SOL    HW123468   5.621   0.213   5.922
 7523SOL    HW223469   5.536   0.152   5.796
 7524SOL     OW23470   0.366   1.620   5.708
 7524SOL    HW123471   0.366   1.661   5.617
 7524SOL    HW223472   0.394   1.689   5.775
 7525SOL     OW23473   1.682   0.896   0.031
 7525SOL    HW123474   1.772   0.873   0.069
 7525SOL    HW223475   1.612   0.878   0.099
 7526SOL     OW23476   3.855   2.956   3.995
 7526SOL    HW123477   3.934   2.896   4.008
 7526SOL    HW223478   3.816   2.940   3.904
 7527SOL     OW23479   5.382   4.055   2.570
 7527SOL    HW123480   5.400   4.153   2.569
 7527SOL    HW223481   5.356   4.027   2.663
 7528SOL     OW23482   4.583   2.816   6.906
 7528SOL    HW123483   4.598   2.904   6.951
 7528SOL    HW223484   4.659   2.797   6.844
 7529SOL     OW23485   4.346   1.412   4.300
 7529SOL    HW123486   4.250   1.387   4.290
 7529SOL    HW223487   4.371   1.479   4.231
 7530SOL     OW23488   6.963   3.739   2.376
 7530SOL    HW123489   7.007   3.804   2.438
 7530SOL    HW223490   6.984   3.646   2.405
 7531SOL     OW23491   4.395   2.021   3.790
 7531SOL    HW123492   4.465   2.082   3.827
 7531SOL    HW223493   4.338   1.987   3.865
 7532SOL     OW23494   5.512   5.571   2.179
 7532SOL    HW123495   5.578   5.553   2.106
 7532SOL    HW223496   5.539   5.653   2.230
 7533SOL     OW23497   3.304   1.248   4.270
 7533SOL    HW123498   3.293   1.343   4.243
 7533SOL    HW223499   3.296   1.190   4.188
 7534SOL     OW23500   3.979   6.139   5.142
 7534SOL    HW123501   3.886   6.103   5.137
 7534SOL    HW223502   3.976   6.236   5.164
 7535SOL     OW23503   2.879   2.383   5.817
 7535SOL    HW123504   2.958   2.443   5.807
 7535SOL    HW223505   2.875   2.320   5.739
 7536SOL     OW23506   4.508   5.490   4.438
 7536SOL    HW123507   4.503   5.531   4.529
 7536SOL    HW223508   4.474   5.555   4.371
 7537SOL     OW23509   1.867   4.899   5.060
 7537SOL    HW123510   1.867   4.824   5.126
 7537SOL    HW223511   1.889   4.863   4.969
 7538SOL     OW23512   3.289   3.036   2.617
 7538SOL    HW123513   3.306   3.131   2.643
 7538SOL    HW223514   3.351   2.976   2.668
 7539SOL     OW23515   1.868   3.021   5.309
 7539SOL    HW123516   1.880   2.921   5.308
 7539SOL    HW223517   1.955   3.065   5.329
 7540SOL     OW23518   2.889   1.519   6.934
 7540SOL    HW123519   2.811   1.581   6.933
 7540SOL    HW223520   2.966   1.561   6.886
 7541SOL     OW23521   6.097   2.151   5.120
 7541SOL    HW123522   6.085   2.061   5.079
 7541SOL    HW223523   6.194   2.176   5.117
 7542SOL     OW23524   0.921   6.819   5.816
 7542SOL    HW123525   0.964   6.897   5.771
 7542SOL    HW223526   0.946   6.818   5.913
 7543SOL     OW23527   3.849   3.239   0.563
 7543SOL    HW123528   3.922   3.179   0.595
 7543SOL    HW223529   3.847   3.239   0.463
 7544SOL     OW23530   1.582   2.033   3.217
 7544SOL    HW123531   1.678   2.025   3.194
 7544SOL    HW223532   1.536   1.946   3.202
 7545SOL     OW23533   4.823   0.001   3.077
 7545SOL    HW123534   4.893   0.072   3.075
 7545SOL    HW223535   4.786   7.013   3.169
 7546SOL     OW23536   5.270   0.266   0.121
 7546SOL    HW123537   5.193   0.326   0.139
 7546SOL    HW223538   5.237   0.173   0.101
 7547SOL     OW23539   3.569   0.534   0.482
 7547SOL    HW123540   3.633   0.606   0.508
 7547SOL    HW223541   3.479   0.555   0.521
 7548SOL     OW23542   2.573   2.056   1.499
 7548SOL    HW123543   2.671   2.041   1.515
 7548SOL    HW223544   2.557   2.065   1.400
 7549SOL     OW23545   5.126   1.704   2.709
 7549SOL    HW123546   5.091   1.655   2.789
 7549SOL    HW223547   5.146   1.798   2.733
 7550SOL     OW23548   2.309   6.286   2.844
 7550SOL    HW123549   2.229   6.331   2.885
 7550SOL    HW223550   2.278   6.208   2.790
 7551SOL     OW23551   4.601   3.227   6.487
 7551SOL    HW123552   4.534   3.299   6.505
 7551SOL    HW223553   4.635   3.191   6.574
 7552SOL     OW23554   2.549   5.397   4.057
 7552SOL    HW123555   2.463   5.406   4.006
 7552SOL    HW223556   2.625   5.384   3.993
 7553SOL     OW23557   3.810   5.194   6.305
 7553SOL    HW123558   3.885   5.191   6.239
 7553SOL    HW223559   3.848   5.196   6.398
 7554SOL     OW23560   5.095   1.093   0.428
 7554SOL    HW123561   5.082   0.996   0.408
 7554SOL    HW223562   5.034   1.120   0.503
 7555SOL     OW23563   0.036   6.253   4.839
 7555SOL    HW123564   0.097   6.181   4.804
 7555SOL    HW223565   7.011   6.299   4.763
 7556SOL     OW23566   0.687   3.042   4.696
 7556SOL    HW123567   0.640   2.972   4.643
 7556SOL    HW223568   0.786   3.029   4.689
 7557SOL     OW23569   5.508   4.263   6.483
 7557SOL    HW123570   5.599   4.222   6.485
 7557SOL    HW223571   5.516   4.361   6.469
 7558SOL     OW23572   2.195   3.202   3.382
 7558SOL    HW123573   2.263   3.174   3.449
 7558SOL    HW223574   2.232   3.189   3.290
 7559SOL     OW23575   0.118   4.486   0.946
 7559SOL    HW123576   0.035   4.450   0.903
 7559SOL    HW223577   0.183   4.411   0.958
 7560SOL     OW23578   5.547   6.748   0.917
 7560SOL    HW123579   5.486   6.797   0.855
 7560SOL    HW223580   5.639   6.747   0.879
 7561SOL     OW23581   6.685   3.527   0.365
 7561SOL    HW123582   6.759   3.547   0.429
 7561SOL    HW223583   6.656   3.611   0.319
 7562SOL     OW23584   5.149   6.285   5.637
 7562SOL    HW123585   5.195   6.243   5.559
 7562SOL    HW223586   5.212   6.347   5.684
 7563SOL     OW23587   2.970   0.684   1.705
 7563SOL    HW123588   3.069   0.697   1.699
 7563SOL    HW223589   2.934   0.740   1.779
 7564SOL     OW23590   5.022   0.221   3.128
 7564SOL    HW123591   5.051   0.194   3.035
 7564SOL    HW223592   5.095   0.275   3.171
 7565SOL     OW23593   4.583   5.349   0.028
 7565SOL    HW123594   4.640   5.386   6.975
 7565SOL    HW223595   4.627   5.268   0.067
 7566SOL     OW23596   0.546   5.910   4.591
 7566SOL    HW123597   0.554   5.998   4.545
 7566SOL    HW223598   0.554   5.837   4.524
 7567SOL     OW23599   2.533   4.939   5.907
 7567SOL    HW123600   2.532   5.038   5.917
 7567SOL    HW223601   2.451   4.900   5.950
 7568SOL     OW23602   5.626   5.913   3.024
 7568SOL    HW123603   5.694   5.945   2.958
 7568SOL    HW223604   5.580   5.991   3.066
 7569SOL     OW23605   4.414   5.574   0.093
 7569SOL    HW123606   4.469   5.491   0.088
 7569SOL    HW223607   4.416   5.620   0.004
 7570SOL     OW23608   5.890   5.272   3.972
 7570SOL    HW123609   5.856   5.366   3.977
 7570SOL    HW223610   5.971   5.270   3.913
 7571SOL     OW23611   6.091   3.861   1.215
 7571SOL    HW123612   6.011   3.902   1.260
 7571SOL    HW223613   6.076   3.763   1.205
 7572SOL     OW23614   4.077   1.041   4.190
 7572SOL    HW123615   4.040   0.950   4.209
 7572SOL    HW223616   4.110   1.083   4.275
 7573SOL     OW23617   6.838   6.100   4.538
 7573SOL    HW123618   6.790   6.037   4.599
 7573SOL    HW223619   6.856   6.186   4.586
 7574SOL     OW23620   5.550   0.549   3.494
 7574SOL    HW123621   5.616   0.525   3.565
 7574SOL    HW223622   5.570   0.499   3.410
 7575SOL     OW23623   4.554   1.291   5.481
 7575SOL    HW123624   4.547   1.253   5.388
 7575SOL    HW223625   4.529   1.388   5.479
 7576SOL     OW23626   6.526   4.028   6.872
 7576SOL    HW123627   6.584   3.953   6.838
 7576SOL    HW223628   6.437   3.992   6.899
 7577SOL     OW23629   6.534   0.975   4.890
 7577SOL    HW123630   6.450   0.921   4.885
 7577SOL    HW223631   6.613   0.914   4.891
 7578SOL     OW23632   1.842   5.957   4.658
 7578SOL    HW123633   1.933   5.988   4.684
 7578SOL    HW223634   1.781   6.036   4.648
 7579SOL     OW23635   3.874   1.746   2.764
 7579SOL    HW123636   3.798   1.809   2.747
 7579SOL    HW223637   3.961   1.792   2.746
 7580SOL     OW23638   1.666   4.028   3.028
 7580SOL    HW123639   1.750   4.015   2.975
 7580SOL    HW223640   1.670   3.971   3.110
 7581SOL     OW23641   5.346   1.566   0.650
 7581SOL    HW123642   5.343   1.666   0.644
 7581SOL    HW223643   5.437   1.534   0.623
 7582SOL     OW23644   3.385   1.817   1.274
 7582SOL    HW123645   3.300   1.792   1.319
 7582SOL    HW223646   3.454   1.840   1.343
 7583SOL     OW23647   5.817   3.326   1.766
 7583SOL    HW123648   5.786   3.288   1.679
 7583SOL    HW223649   5.896   3.386   1.749
 7584SOL     OW23650   2.631   6.861   1.069
 7584SOL    HW123651   2.726   6.852   1.098
 7584SOL    HW223652   2.577   6.787   1.109
 7585SOL     OW23653   1.316   4.681   6.673
 7585SOL    HW123654   1.369   4.596   6.670
 7585SOL    HW223655   1.234   4.668   6.729
 7586SOL     OW23656   2.649   0.357   2.958
 7586SOL    HW123657   2.728   0.383   2.903
 7586SOL    HW223658   2.578   0.428   2.950
 7587SOL     OW23659   1.018   1.904   6.739
 7587SOL    HW123660   0.921   1.905   6.762
 7587SOL    HW223661   1.030   1.929   6.643
 7588SOL     OW23662   0.222   4.954   2.706
 7588SOL    HW123663   0.315   4.988   2.721
 7588SOL    HW223664   0.225   4.868   2.657
 7589SOL     OW23665   6.252   5.835   0.590
 7589SOL    HW123666   6.215   5.928   0.590
 7589SOL    HW223667   6.196   5.777   0.649
 7590SOL     OW23668   2.772   1.951   5.598
 7590SOL    HW123669   2.752   1.856   5.573
 7590SOL    HW223670   2.755   1.964   5.695
 7591SOL     OW23671   0.006   5.200   6.951
 7591SOL    HW123672   7.012   5.295   6.925
 7591SOL    HW223673   6.966   5.177   0.008
 7592SOL     OW23674   6.677   5.307   6.926
 7592SOL    HW123675   6.705   5.241   6.996
 7592SOL    HW223676   6.745   5.379   6.920
 7593SOL     OW23677   4.701   2.193   6.892
 7593SOL    HW123678   4.613   2.177   6.938
 7593SOL    HW223679   4.768   2.226   6.959
 7594SOL     OW23680   0.864   6.322   3.739
 7594SOL    HW123681   0.823   6.398   3.790
 7594SOL    HW223682   0.962   6.319   3.758
 7595SOL     OW23683   6.878   3.286   6.147
 7595SOL    HW123684   6.922   3.238   6.223
 7595SOL    HW223685   6.920   3.258   6.061
 7596SOL     OW23686   4.949   4.274   2.089
 7596SOL    HW123687   4.887   4.285   2.167
 7596SOL    HW223688   5.037   4.237   2.121
 7597SOL     OW23689   3.418   5.404   1.818
 7597SOL    HW123690   3.434   5.405   1.917
 7597SOL    HW223691   3.324   5.377   1.799
 7598SOL     OW23692   6.637   0.244   3.132
 7598SOL    HW123693   6.646   0.330   3.080
 7598SOL    HW223694   6.648   0.263   3.229
 7599SOL     OW23695   6.186   1.636   3.476
 7599SOL    HW123696   6.278   1.601   3.458
 7599SOL    HW223697   6.133   1.637   3.391
 7600SOL     OW23698   1.562   0.521   2.184
 7600SOL    HW123699   1.575   0.617   2.204
 7600SOL    HW223700   1.649   0.479   2.160
 7601SOL     OW23701   2.064   6.182   3.858
 7601SOL    HW123702   2.020   6.222   3.938
 7601SOL    HW223703   2.150   6.139   3.885
 7602SOL     OW23704   1.706   4.276   4.518
 7602SOL    HW123705   1.695   4.375   4.518
 7602SOL    HW223706   1.764   4.249   4.595
 7603SOL     OW23707   0.831   6.098   0.186
 7603SOL    HW123708   0.782   6.074   0.102
 7603SOL    HW223709   0.879   6.185   0.173
 7604SOL     OW23710   3.474   5.890   4.416
 7604SOL    HW123711   3.409   5.932   4.479
 7604SOL    HW223712   3.493   5.796   4.444
 7605SOL     OW23713   0.618   4.666   6.761
 7605SOL    HW123714   0.706   4.622   6.779
 7605SOL    HW223715   0.622   4.715   6.675
 7606SOL     OW23716   0.095   2.821   2.099
 7606SOL    HW123717   0.167   2.753   2.092
 7606SOL    HW223718   0.133   2.907   2.132
 7607SOL     OW23719   5.049   6.927   6.721
 7607SOL    HW123720   4.956   6.958   6.741
 7607SOL    HW223721   5.084   6.975   6.640
 7608SOL     OW23722   2.974   3.271   3.420
 7608SOL    HW123723   2.951   3.199   3.355
 7608SOL    HW223724   2.948   3.242   3.513
 7609SOL     OW23725   0.441   3.694   3.952
 7609SOL    HW123726   0.393   3.759   4.011
 7609SOL    HW223727   0.459   3.737   3.864
 7610SOL     OW23728   5.441   0.349   1.112
 7610SOL    HW123729   5.393   0.279   1.163
 7610SOL    HW223730   5.490   0.410   1.175
 7611SOL     OW23731   1.004   2.178   0.187
 7611SOL    HW123732   0.965   2.088   0.204
 7611SOL    HW223733   1.038   2.183   0.093
 7612SOL     OW23734   4.090   1.889   4.298
 7612SOL    HW123735   4.011   1.828   4.293
 7612SOL    HW223736   4.136   1.877   4.386
 7613SOL     OW23737   4.713   1.040   1.514
 7613SOL    HW123738   4.791   1.052   1.575
 7613SOL    HW223739   4.648   1.114   1.529
 7614SOL     OW23740   3.706   1.726   1.620
 7614SOL    HW123741   3.732   1.808   1.671
 7614SOL    HW223742   3.611   1.704   1.639
 7615SOL     OW23743   3.724   5.354   6.613
 7615SOL    HW123744   3.791   5.283   6.593
 7615SOL    HW223745   3.638   5.312   6.639
 7616SOL     OW23746   6.957   3.821   3.830
 7616SOL    HW123747   6.936   3.834   3.733
 7616SOL    HW223748   0.020   3.767   3.840
 7617SOL     OW23749   2.941   5.092   3.225
 7617SOL    HW123750   2.923   5.147   3.307
 7617SOL    HW223751   3.020   5.033   3.241
 7618SOL     OW23752   1.400   2.272   6.842
 7618SOL    HW123753   1.437   2.313   6.759
 7618SOL    HW223754   1.392   2.342   6.913
 7619SOL     OW23755   5.799   3.047   5.422
 7619SOL    HW123756   5.802   2.950   5.443
 7619SOL    HW223757   5.752   3.096   5.496
 7620SOL     OW23758   3.900   6.835   0.342
 7620SOL    HW123759   3.904   6.858   0.439
 7620SOL    HW223760   3.822   6.882   0.301
 7621SOL     OW23761   1.888   0.887   0.629
 7621SOL    HW123762   1.854   0.968   0.678
 7621SOL    HW223763   1.988   0.888   0.629
 7622SOL     OW23764   4.513   2.989   1.032
 7622SOL    HW123765   4.422   3.009   1.069
 7622SOL    HW223766   4.580   2.993   1.106
 7623SOL     OW23767   4.469   6.104   6.660
 7623SOL    HW123768   4.475   6.085   6.562
 7623SOL    HW223769   4.443   6.200   6.674
 7624SOL     OW23770   0.699   1.928   3.176
 7624SOL    HW123771   0.637   2.003   3.152
 7624SOL    HW223772   0.646   1.847   3.198
 7625SOL     OW23773   5.309   0.566   0.969
 7625SOL    HW123774   5.280   0.594   1.060
 7625SOL    HW223775   5.373   0.490   0.975
 7626SOL     OW23776   1.181   6.837   4.913
 7626SOL    HW123777   1.137   6.841   5.002
 7626SOL    HW223778   1.111   6.831   4.842
 7627SOL     OW23779   6.373   3.004   0.863
 7627SOL    HW123780   6.362   3.086   0.920
 7627SOL    HW223781   6.421   2.934   0.916
 7628SOL     OW23782   2.640   0.959   1.503
 7628SOL    HW123783   2.620   0.949   1.600
 7628SOL    HW223784   2.555   0.969   1.452
 7629SOL     OW23785   6.716   6.324   2.610
 7629SOL    HW123786   6.679   6.394   2.549
 7629SOL    HW223787   6.703   6.351   2.705
 7630SOL     OW23788   6.348   0.343   2.153
 7630SOL    HW123789   6.415   0.323   2.081
 7630SOL    HW223790   6.372   0.294   2.236
 7631SOL     OW23791   0.948   2.135   5.363
 7631SOL    HW123792   0.974   2.058   5.305
 7631SOL    HW223793   0.858   2.169   5.335
 7632SOL     OW23794   4.287   2.038   0.835
 7632SOL    HW123795   4.219   2.010   0.767
 7632SOL    HW223796   4.328   2.125   0.807
 7633SOL     OW23797   5.553   3.375   6.570
 7633SOL    HW123798   5.454   3.386   6.556
 7633SOL    HW223799   5.591   3.463   6.599
 7634SOL     OW23800   1.591   0.803   2.190
 7634SOL    HW123801   1.665   0.862   2.222
 7634SOL    HW223802   1.503   0.849   2.203
 7635SOL     OW23803   2.470   5.654   6.004
 7635SOL    HW123804   2.436   5.747   5.997
 7635SOL    HW223805   2.444   5.615   6.092
 7636SOL     OW23806   1.092   1.233   3.993
 7636SOL    HW123807   1.026   1.243   3.919
 7636SOL    HW223808   1.181   1.269   3.964
 7637SOL     OW23809   1.156   0.120   4.481
 7637SOL    HW123810   1.093   0.107   4.405
 7637SOL    HW223811   1.233   0.056   4.472
 7638SOL     OW23812   5.615   5.710   1.863
 7638SOL    HW123813   5.625   5.806   1.838
 7638SOL    HW223814   5.582   5.658   1.784
 7639SOL     OW23815   1.351   1.923   5.760
 7639SOL    HW123816   1.291   1.884   5.830
 7639SOL    HW223817   1.435   1.870   5.754
 7640SOL     OW23818   2.395   2.318   0.986
 7640SOL    HW123819   2.302   2.353   0.979
 7640SOL    HW223820   2.392   2.221   1.013
 7641SOL     OW23821   6.767   4.442   2.317
 7641SOL    HW123822   6.837   4.466   2.384
 7641SOL    HW223823   6.796   4.362   2.264
 7642SOL     OW23824   2.898   1.899   2.674
 7642SOL    HW123825   2.833   1.857   2.611
 7642SOL    HW223826   2.888   1.858   2.764
 7643SOL     OW23827   4.560   2.555   2.984
 7643SOL    HW123828   4.483   2.510   3.029
 7643SOL    HW223829   4.588   2.501   2.905
 7644SOL     OW23830   0.330   3.110   3.410
 7644SOL    HW123831   0.383   3.027   3.431
 7644SOL    HW223832   0.233   3.091   3.423
 7645SOL     OW23833   4.656   4.675   0.111
 7645SOL    HW123834   4.653   4.726   0.025
 7645SOL    HW223835   4.697   4.732   0.182
 7646SOL     OW23836   2.264   1.841   2.328
 7646SOL    HW123837   2.341   1.880   2.278
 7646SOL    HW223838   2.219   1.772   2.272
 7647SOL     OW23839   1.866   3.545   1.930
 7647SOL    HW123840   1.923   3.547   1.847
 7647SOL    HW223841   1.891   3.465   1.985
 7648SOL     OW23842   4.569   1.591   3.894
 7648SOL    HW123843   4.503   1.638   3.836
 7648SOL    HW223844   4.646   1.651   3.912
 7649SOL     OW23845   2.195   0.757   2.405
 7649SOL    HW123846   2.115   0.816   2.412
 7649SOL    HW223847   2.243   0.754   2.493
 7650SOL     OW23848   6.730   3.275   2.437
 7650SOL    HW123849   6.730   3.367   2.396
 7650SOL    HW223850   6.789   3.216   2.382
 7651SOL     OW23851   2.844   6.955   0.081
 7651SOL    HW123852   2.935   6.949   0.122
 7651SOL    HW223853   2.839   6.892   0.003
 7652SOL     OW23854   6.480   3.530   3.837
 7652SOL    HW123855   6.401   3.563   3.888
 7652SOL    HW223856   6.515   3.604   3.779
 7653SOL     OW23857   2.720   2.283   1.023
 7653SOL    HW123858   2.698   2.224   1.100
 7653SOL    HW223859   2.730   2.228   0.940
 7654SOL     OW23860   4.602   2.697   3.618
 7654SOL    HW123861   4.580   2.601   3.600
 7654SOL    HW223862   4.625   2.708   3.715
 7655SOL     OW23863   3.137   6.750   4.612
 7655SOL    HW123864   3.092   6.836   4.637
 7655SOL    HW223865   3.098   6.675   4.664
 7656SOL     OW23866   6.817   6.110   5.204
 7656SOL    HW123867   6.862   6.186   5.252
 7656SOL    HW223868   6.859   6.024   5.231
 7657SOL     OW23869   2.747   2.360   3.704
 7657SOL    HW123870   2.671   2.416   3.738
 7657SOL    HW223871   2.809   2.339   3.779
 7658SOL     OW23872   4.879   0.314   5.973
 7658SOL    HW123873   4.957   0.362   5.933
 7658SOL    HW223874   4.844   0.247   5.908
 7659SOL     OW23875   6.487   0.066   0.868
 7659SOL    HW123876   6.494   0.116   0.955
 7659SOL    HW223877   6.537   7.000   0.875
 7660SOL     OW23878   5.382   5.222   3.099
 7660SOL    HW123879   5.292   5.178   3.096
 7660SOL    HW223880   5.415   5.238   3.006
 7661SOL     OW23881   6.016   2.694   4.062
 7661SOL    HW123882   6.020   2.794   4.052
 7661SOL    HW223883   6.093   2.663   4.118
 7662SOL     OW23884   1.543   3.353   2.376
 7662SOL    HW123885   1.522   3.256   2.364
 7662SOL    HW223886   1.634   3.363   2.415
 7663SOL     OW23887   0.539   5.317   6.514
 7663SOL    HW123888   0.532   5.416   6.528
 7663SOL    HW223889   0.619   5.282   6.563
 7664SOL     OW23890   2.865   6.375   3.015
 7664SOL    HW123891   2.921   6.411   3.090
 7664SOL    HW223892   2.872   6.275   3.014
 7665SOL     OW23893   2.741   0.816   4.582
 7665SOL    HW123894   2.648   0.779   4.581
 7665SOL    HW223895   2.807   0.741   4.583
 7666SOL     OW23896   0.871   0.003   1.109
 7666SOL    HW123897   0.807   6.953   1.077
 7666SOL    HW223898   0.871   0.004   1.209
 7667SOL     OW23899   4.815   6.466   6.778
 7667SOL    HW123900   4.828   6.391   6.713
 7667SOL    HW223901   4.841   6.552   6.735
 7668SOL     OW23902   3.563   4.379   1.451
 7668SOL    HW123903   3.487   4.395   1.387
 7668SOL    HW223904   3.597   4.286   1.440
 7669SOL     OW23905   4.848   0.225   4.091
 7669SOL    HW123906   4.821   0.184   4.179
 7669SOL    HW223907   4.932   0.182   4.059
 7670SOL     OW23908   1.279   5.953   0.118
 7670SOL    HW123909   1.342   5.913   0.051
 7670SOL    HW223910   1.289   5.906   0.206
 7671SOL     OW23911   5.147   1.320   4.572
 7671SOL    HW123912   5.100   1.374   4.504
 7671SOL    HW223913   5.081   1.272   4.629
 7672SOL     OW23914   5.966   0.633   3.964
 7672SOL    HW123915   5.884   0.590   4.002
 7672SOL    HW223916   6.028   0.562   3.931
 7673SOL     OW23917   0.776   4.831   0.993
 7673SOL    HW123918   0.861   4.799   1.035
 7673SOL    HW223919   0.797   4.879   0.908
 7674SOL     OW23920   6.694   1.885   4.717
 7674SOL    HW123921   6.791   1.893   4.692
 7674SOL    HW223922   6.661   1.795   4.689
 7675SOL     OW23923   4.759   0.147   1.906
 7675SOL    HW123924   4.791   0.060   1.868
 7675SOL    HW223925   4.833   0.214   1.902
 7676SOL     OW23926   1.442   0.899   6.535
 7676SOL    HW123927   1.380   0.963   6.580
 7676SOL    HW223928   1.400   0.866   6.450
 7677SOL     OW23929   2.116   3.623   2.515
 7677SOL    HW123930   2.119   3.583   2.424
 7677SOL    HW223931   2.155   3.559   2.581
 7678SOL     OW23932   0.834   0.971   0.177
 7678SOL    HW123933   0.933   0.983   0.190
 7678SOL    HW223934   0.817   0.885   0.129
 7679SOL     OW23935   1.142   5.271   5.045
 7679SOL    HW123936   1.093   5.298   5.128
 7679SOL    HW223937   1.229   5.321   5.040
 7680SOL     OW23938   3.614   3.447   6.621
 7680SOL    HW123939   3.618   3.530   6.677
 7680SOL    HW223940   3.705   3.426   6.586
 7681SOL     OW23941   2.548   1.779   0.304
 7681SOL    HW123942   2.554   1.786   0.205
 7681SOL    HW223943   2.606   1.704   0.336
 7682SOL     OW23944   3.047   0.036   1.760
 7682SOL    HW123945   2.972   0.056   1.698
 7682SOL    HW223946   3.087   6.967   1.737
 7683SOL     OW23947   5.973   1.821   2.695
 7683SOL    HW123948   6.047   1.889   2.696
 7683SOL    HW223949   5.914   1.834   2.775
 7684SOL     OW23950   4.818   2.068   6.281
 7684SOL    HW123951   4.905   2.084   6.234
 7684SOL    HW223952   4.775   1.986   6.244
 7685SOL     OW23953   3.459   2.776   0.454
 7685SOL    HW123954   3.469   2.817   0.545
 7685SOL    HW223955   3.441   2.678   0.464
 7686SOL     OW23956   4.722   0.308   3.148
 7686SOL    HW123957   4.717   0.408   3.146
 7686SOL    HW223958   4.817   0.279   3.161
 7687SOL     OW23959   4.975   4.950   5.410
 7687SOL    HW123960   4.989   4.896   5.493
 7687SOL    HW223961   4.898   5.013   5.422
 7688SOL     OW23962   6.888   6.811   5.400
 7688SOL    HW123963   6.926   6.794   5.492
 7688SOL    HW223964   6.801   6.859   5.409
 7689SOL     OW23965   4.209   5.974   4.630
 7689SOL    HW123966   4.243   5.994   4.722
 7689SOL    HW223967   4.145   5.896   4.634
 7690SOL     OW23968   5.369   4.315   2.686
 7690SOL    HW123969   5.383   4.413   2.695
 7690SOL    HW223970   5.448   4.266   2.722
 7691SOL     OW23971   5.345   2.483   4.042
 7691SOL    HW123972   5.424   2.488   4.103
 7691SOL    HW223973   5.372   2.507   3.949
 7692SOL     OW23974   1.439   6.342   1.397
 7692SOL    HW123975   1.359   6.299   1.438
 7692SOL    HW223976   1.522   6.300   1.433
 7693SOL     OW23977   4.379   0.851   6.006
 7693SOL    HW123978   4.383   0.944   6.041
 7693SOL    HW223979   4.291   0.837   5.959
 7694SOL     OW23980   6.761   4.784   4.050
 7694SOL    HW123981   6.738   4.813   4.143
 7694SOL    HW223982   6.853   4.746   4.048
 7695SOL     OW23983   4.355   0.207   0.778
 7695SOL    HW123984   4.313   0.127   0.735
 7695SOL    HW223985   4.284   0.261   0.824
 7696SOL     OW23986   0.243   2.179   4.367
 7696SOL    HW123987   0.185   2.176   4.286
 7696SOL    HW223988   0.337   2.200   4.340
 7697SOL     OW23989   2.385   1.701   3.650
 7697SOL    HW123990   2.405   1.790   3.609
 7697SOL    HW223991   2.354   1.713   3.744
 7698SOL     OW23992   6.749   2.762   4.543
 7698SOL    HW123993   6.750   2.668   4.510
 7698SOL    HW223994   6.758   2.762   4.643
 7699SOL     OW23995   2.668   5.871   0.702
 7699SOL    HW123996   2.668   5.958   0.751
 7699SOL    HW223997   2.748   5.866   0.642
 7700SOL     OW23998   4.600   6.737   4.871
 7700SOL    HW123999   4.504   6.709   4.868
 7700SOL    HW224000   4.641   6.727   4.781
 7701SOL     OW24001   6.853   0.918   5.227
 7701SOL    HW124002   6.907   0.973   5.290
 7701SOL    HW224003   6.873   0.822   5.240
 7702SOL     OW24004   3.370   6.375   5.945
 7702SOL    HW124005   3.343   6.344   5.854
 7702SOL    HW224006   3.420   6.302   5.992
 7703SOL     OW24007   0.463   1.320   5.466
 7703SOL    HW124008   0.480   1.343   5.562
 7703SOL    HW224009   0.368   1.290   5.455
 7704SOL     OW24010   4.018   4.667   0.138
 7704SOL    HW124011   4.053   4.588   0.188
 7704SOL    HW224012   3.920   4.658   0.124
 7705SOL     OW24013   3.807   4.979   5.276
 7705SOL    HW124014   3.831   5.001   5.182
 7705SOL    HW224015   3.805   5.062   5.331
 7706SOL     OW24016   6.298   0.059   5.533
 7706SOL    HW124017   6.236   0.133   5.506
 7706SOL    HW224018   6.245   6.998   5.555
 7707SOL     OW24019   0.167   5.672   6.270
 7707SOL    HW124020   0.169   5.680   6.370
 7707SOL    HW224021   0.174   5.575   6.245
 7708SOL     OW24022   5.001   6.453   4.292
 7708SOL    HW124023   4.954   6.502   4.366
 7708SOL    HW224024   4.933   6.418   4.227
 7709SOL     OW24025   4.400   2.503   1.841
 7709SOL    HW124026   4.462   2.582   1.833
 7709SOL    HW224027   4.306   2.533   1.827
 7710SOL     OW24028   2.861   0.107   0.575
 7710SOL    HW124029   2.794   0.050   0.621
 7710SOL    HW224030   2.824   0.199   0.563
 7711SOL     OW24031   5.825   5.926   5.747
 7711SOL    HW124032   5.745   5.867   5.752
 7711SOL    HW224033   5.873   5.909   5.661
 7712SOL     OW24034   6.023   4.834   1.283
 7712SOL    HW124035   6.045   4.738   1.267
 7712SOL    HW224036   5.984   4.845   1.374
 7713SOL     OW24037   1.891   4.385   6.865
 7713SOL    HW124038   1.859   4.419   6.954
 7713SOL    HW224039   1.988   4.365   6.870
 7714SOL     OW24040   5.787   4.475   4.371
 7714SOL    HW124041   5.795   4.560   4.423
 7714SOL    HW224042   5.695   4.466   4.335
 7715SOL     OW24043   5.291   0.493   1.463
 7715SOL    HW124044   5.361   0.438   1.509
 7715SOL    HW224045   5.206   0.490   1.515
 7716SOL     OW24046   4.625   2.295   2.297
 7716SOL    HW124047   4.667   2.378   2.260
 7716SOL    HW224048   4.695   2.225   2.312
 7717SOL     OW24049   2.726   1.573   5.334
 7717SOL    HW124050   2.745   1.618   5.421
 7717SOL    HW224051   2.766   1.627   5.259
 7718SOL     OW24052   2.256   1.269   3.063
 7718SOL    HW124053   2.216   1.180   3.043
 7718SOL    HW224054   2.321   1.261   3.138
 7719SOL     OW24055   7.005   2.566   4.396
 7719SOL    HW124056   0.034   2.601   4.476
 7719SOL    HW224057   6.922   2.519   4.427
 7720SOL     OW24058   6.309   6.522   1.158
 7720SOL    HW124059   6.394   6.538   1.207
 7720SOL    HW224060   6.311   6.432   1.115
 7721SOL     OW24061   2.513   4.624   3.285
 7721SOL    HW124062   2.442   4.561   3.317
 7721SOL    HW224063   2.512   4.627   3.185
 7722SOL     OW24064   6.125   4.642   2.964
 7722SOL    HW124065   6.206   4.610   2.914
 7722SOL    HW224066   6.110   4.739   2.943
 7723SOL     OW24067   6.991   3.185   0.578
 7723SOL    HW124068   6.949   3.215   0.664
 7723SOL    HW224069   6.959   3.093   0.556
 7724SOL     OW24070   1.643   3.867   1.119
 7724SOL    HW124071   1.563   3.875   1.177
 7724SOL    HW224072   1.627   3.914   1.032
 7725SOL     OW24073   5.719   2.407   3.422
 7725SOL    HW124074   5.702   2.498   3.385
 7725SOL    HW224075   5.652   2.386   3.492
 7726SOL     OW24076   0.477   4.019   2.880
 7726SOL    HW124077   0.488   4.094   2.815
 7726SOL    HW224078   0.492   4.054   2.973
 7727SOL     OW24079   6.552   2.753   3.772
 7727SOL    HW124080   6.621   2.789   3.835
 7727SOL    HW224081   6.478   2.711   3.824
 7728SOL     OW24082   1.604   3.430   3.136
 7728SOL    HW124083   1.671   3.471   3.074
 7728SOL    HW224084   1.532   3.385   3.082
 7729SOL     OW24085   4.888   2.125   0.832
 7729SOL    HW124086   4.877   2.063   0.909
 7729SOL    HW224087   4.970   2.181   0.845
 7730SOL     OW24088   5.096   6.098   2.681
 7730SOL    HW124089   5.171   6.042   2.717
 7730SOL    HW224090   5.054   6.150   2.755
 7731SOL     OW24091   6.077   0.932   0.435
 7731SOL    HW124092   6.079   0.884   0.347
 7731SOL    HW224093   5.997   0.902   0.488
 7732SOL     OW24094   4.774   5.771   0.599
 7732SOL    HW124095   4.838   5.728   0.534
 7732SOL    HW224096   4.741   5.703   0.664
 7733SOL     OW24097   4.013   0.559   1.522
 7733SOL    HW124098   3.990   0.475   1.571
 7733SOL    HW224099   4.112   0.566   1.512
 7734SOL     OW24100   1.333   2.742   3.250
 7734SOL    HW124101   1.381   2.704   3.329
 7734SOL    HW224102   1.326   2.672   3.178
 7735SOL     OW24103   5.174   4.460   6.555
 7735SOL    HW124104   5.097   4.436   6.496
 7735SOL    HW224105   5.230   4.380   6.572
 7736SOL     OW24106   5.420   3.921   0.040
 7736SOL    HW124107   5.350   3.974   7.014
 7736SOL    HW224108   5.398   3.823   0.034
 7737SOL     OW24109   4.581   1.812   0.591
 7737SOL    HW124110   4.563   1.717   0.617
 7737SOL    HW224111   4.509   1.844   0.529
 7738SOL     OW24112   2.903   5.804   0.563
 7738SOL    HW124113   2.939   5.894   0.539
 7738SOL    HW224114   2.928   5.739   0.491
 7739SOL     OW24115   0.791   2.528   1.040
 7739SOL    HW124116   0.776   2.612   1.091
 7739SOL    HW224117   0.823   2.550   0.948
 7740SOL     OW24118   6.891   0.217   2.383
 7740SOL    HW124119   6.891   0.184   2.288
 7740SOL    HW224120   6.817   0.283   2.395
 7741SOL     OW24121   2.313   6.324   3.781
 7741SOL    HW124122   2.229   6.270   3.773
 7741SOL    HW224123   2.342   6.326   3.877
 7742SOL     OW24124   5.967   2.060   3.233
 7742SOL    HW124125   5.878   2.015   3.232
 7742SOL    HW224126   6.033   2.004   3.183
 7743SOL     OW24127   4.728   2.898   5.620
 7743SOL    HW124128   4.772   2.811   5.643
 7743SOL    HW224129   4.652   2.882   5.557
 7744SOL     OW24130   6.284   6.761   3.780
 7744SOL    HW124131   6.194   6.759   3.825
 7744SOL    HW224132   6.355   6.768   3.850
 7745SOL     OW24133   3.232   2.659   6.606
 7745SOL    HW124134   3.140   2.696   6.619
 7745SOL    HW224135   3.292   2.689   6.680
 7746SOL     OW24136   1.844   7.019   0.310
 7746SOL    HW124137   1.884   7.005   0.219
 7746SOL    HW224138   1.914   7.004   0.380
 7747SOL     OW24139   5.280   6.406   0.726
 7747SOL    HW124140   5.318   6.324   0.770
 7747SOL    HW224141   5.346   6.481   0.736
 7748SOL     OW24142   2.405   4.138   6.276
 7748SOL    HW124143   2.472   4.113   6.346
 7748SOL    HW224144   2.365   4.226   6.298
 7749SOL     OW24145   5.230   2.828   5.828
 7749SOL    HW124146   5.245   2.740   5.782
 7749SOL    HW224147   5.210   2.898   5.759
 7750SOL     OW24148   0.349   5.946   1.565
 7750SOL    HW124149   0.348   5.882   1.487
 7750SOL    HW224150   0.384   6.034   1.535
 7751SOL     OW24151   0.869   2.219   1.539
 7751SOL    HW124152   0.875   2.254   1.633
 7751SOL    HW224153   0.950   2.164   1.519
 7752SOL     OW24154   4.589   1.053   4.559
 7752SOL    HW124155   4.553   1.090   4.473
 7752SOL    HW224156   4.525   0.987   4.596
 7753SOL     OW24157   2.367   1.266   5.300
 7753SOL    HW124158   2.420   1.344   5.266
 7753SOL    HW224159   2.280   1.299   5.338
 7754SOL     OW24160   4.226   6.399   1.820
 7754SOL    HW124161   4.251   6.303   1.827
 7754SOL    HW224162   4.289   6.455   1.875
 7755SOL     OW24163   1.410   4.182   6.185
 7755SOL    HW124164   1.366   4.204   6.098
 7755SOL    HW224165   1.389   4.088   6.210
 7756SOL     OW24166   2.687   6.263   1.434
 7756SOL    HW124167   2.642   6.185   1.477
 7756SOL    HW224168   2.764   6.231   1.380
 7757SOL     OW24169   0.397   4.551   3.128
 7757SOL    HW124170   0.319   4.487   3.126
 7757SOL    HW224171   0.467   4.515   3.189
 7758SOL     OW24172   1.351   0.674   5.269
 7758SOL    HW124173   1.415   0.651   5.196
 7758SOL    HW224174   1.392   0.653   5.357
 7759SOL     OW24175   3.177   1.992   6.542
 7759SOL    HW124176   3.233   2.053   6.598
 7759SOL    HW224177   3.236   1.926   6.495
 7760SOL     OW24178   4.639   2.905   1.278
 7760SOL    HW124179   4.721   2.878   1.227
 7760SOL    HW224180   4.566   2.839   1.260
 7761SOL     OW24181   4.570   5.646   4.650
 7761SOL    HW124182   4.626   5.698   4.585
 7761SOL    HW224183   4.517   5.710   4.706
 7762SOL     OW24184   6.856   0.705   3.606
 7762SOL    HW124185   6.782   0.768   3.582
 7762SOL    HW224186   6.820   0.632   3.665
 7763SOL     OW24187   2.649   6.848   4.551
 7763SOL    HW124188   2.549   6.843   4.556
 7763SOL    HW224189   2.688   6.816   4.637
 7764SOL     OW24190   2.925   4.210   5.616
 7764SOL    HW124191   3.019   4.210   5.651
 7764SOL    HW224192   2.885   4.119   5.627
 7765SOL     OW24193   6.339   2.975   4.586
 7765SOL    HW124194   6.372   3.010   4.673
 7765SOL    HW224195   6.366   3.037   4.512
 7766SOL     OW24196   0.379   4.211   7.019
 7766SOL    HW124197   0.359   4.227   0.096
 7766SOL    HW224198   0.334   4.127   6.990
 7767SOL     OW24199   2.626   1.129   3.067
 7767SOL    HW124200   2.580   1.133   3.155
 7767SOL    HW224201   2.648   1.222   3.036
 7768SOL     OW24202   4.556   4.893   3.044
 7768SOL    HW124203   4.548   4.878   3.143
 7768SOL    HW224204   4.630   4.957   3.026
 7769SOL     OW24205   3.353   2.334   5.338
 7769SOL    HW124206   3.281   2.331   5.269
 7769SOL    HW224207   3.311   2.333   5.429
 7770SOL     OW24208   1.839   3.332   4.528
 7770SOL    HW124209   1.781   3.333   4.609
 7770SOL    HW224210   1.881   3.421   4.515
 7771SOL     OW24211   3.019   2.195   6.207
 7771SOL    HW124212   3.011   2.225   6.302
 7771SOL    HW224213   2.937   2.224   6.157
 7772SOL     OW24214   5.495   0.372   1.598
 7772SOL    HW124215   5.522   0.318   1.518
 7772SOL    HW224216   5.573   0.424   1.632
 7773SOL     OW24217   3.494   6.285   0.435
 7773SOL    HW124218   3.429   6.276   0.360
 7773SOL    HW224219   3.583   6.250   0.407
 7774SOL     OW24220   4.447   1.553   3.058
 7774SOL    HW124221   4.439   1.639   3.109
 7774SOL    HW224222   4.413   1.566   2.965
 7775SOL     OW24223   3.686   0.778   6.672
 7775SOL    HW124224   3.686   0.688   6.630
 7775SOL    HW224225   3.736   0.774   6.759
 7776SOL     OW24226   1.489   0.648   5.047
 7776SOL    HW124227   1.536   0.735   5.066
 7776SOL    HW224228   1.476   0.638   4.949
 7777SOL     OW24229   5.082   5.663   3.190
 7777SOL    HW124230   5.070   5.568   3.220
 7777SOL    HW224231   5.077   5.667   3.090
 7778SOL     OW24232   5.584   4.570   2.913
 7778SOL    HW124233   5.586   4.670   2.902
 7778SOL    HW224234   5.678   4.536   2.924
 7779SOL     OW24235   3.801   5.853   2.377
 7779SOL    HW124236   3.877   5.796   2.345
 7779SOL    HW224237   3.715   5.815   2.345
 7780SOL     OW24238   5.719   6.204   5.294
 7780SOL    HW124239   5.681   6.235   5.381
 7780SOL    HW224240   5.664   6.240   5.219
 7781SOL     OW24241   1.729   2.511   0.342
 7781SOL    HW124242   1.793   2.552   0.407
 7781SOL    HW224243   1.779   2.482   0.260
 7782SOL     OW24244   5.279   4.180   3.080
 7782SOL    HW124245   5.366   4.229   3.073
 7782SOL    HW224246   5.203   4.245   3.072
 7783SOL     OW24247   0.836   0.637   5.178
 7783SOL    HW124248   0.840   0.537   5.172
 7783SOL    HW224249   0.923   0.676   5.149
 7784SOL     OW24250   2.319   2.703   2.639
 7784SOL    HW124251   2.317   2.609   2.606
 7784SOL    HW224252   2.303   2.766   2.563
 7785SOL     OW24253   0.625   6.288   2.612
 7785SOL    HW124254   0.692   6.363   2.604
 7785SOL    HW224255   0.550   6.317   2.672
 7786SOL     OW24256   4.482   6.815   6.486
 7786SOL    HW124257   4.533   6.896   6.458
 7786SOL    HW224258   4.385   6.828   6.466
 7787SOL     OW24259   2.912   2.653   0.994
 7787SOL    HW124260   2.904   2.573   1.053
 7787SOL    HW224261   2.957   2.728   1.043
 7788SOL     OW24262   0.384   4.241   1.718
 7788SOL    HW124263   0.473   4.217   1.679
 7788SOL    HW224264   0.323   4.273   1.645
 7789SOL     OW24265   4.305   0.971   6.291
 7789SOL    HW124266   4.401   0.944   6.291
 7789SOL    HW224267   4.287   1.031   6.213
 7790SOL     OW24268   5.081   4.460   1.633
 7790SOL    HW124269   5.027   4.462   1.717
 7790SOL    HW224270   5.045   4.528   1.569
 7791SOL     OW24271   2.836   5.302   2.719
 7791SOL    HW124272   2.892   5.224   2.689
 7791SOL    HW224273   2.816   5.294   2.816
 7792SOL     OW24274   1.361   1.657   2.411
 7792SOL    HW124275   1.454   1.686   2.386
 7792SOL    HW224276   1.318   1.728   2.466
 7793SOL     OW24277   5.306   0.644   6.410
 7793SOL    HW124278   5.345   0.575   6.349
 7793SOL    HW224279   5.218   0.675   6.374
 7794SOL     OW24280   0.306   6.452   3.194
 7794SOL    HW124281   0.226   6.501   3.228
 7794SOL    HW224282   0.384   6.514   3.190
 7795SOL     OW24283   3.170   5.715   6.422
 7795SOL    HW124284   3.244   5.736   6.358
 7795SOL    HW224285   3.208   5.672   6.504
 7796SOL     OW24286   3.438   3.280   6.157
 7796SOL    HW124287   3.355   3.243   6.200
 7796SOL    HW224288   3.492   3.328   6.226
 7797SOL     OW24289   1.116   6.344   3.156
 7797SOL    HW124290   1.166   6.266   3.117
 7797SOL    HW224291   1.047   6.310   3.220
 7798SOL     OW24292   1.113   2.471   0.854
 7798SOL    HW124293   1.017   2.451   0.838
 7798SOL    HW224294   1.148   2.532   0.782
 7799SOL     OW24295   2.540   6.248   3.641
 7799SOL    HW124296   2.612   6.278   3.705
 7799SOL    HW224297   2.451   6.257   3.686
 7800SOL     OW24298   0.190   6.308   1.840
 7800SOL    HW124299   0.254   6.248   1.888
 7800SOL    HW224300   0.195   6.400   1.879
 7801SOL     OW24301   2.080   2.098   1.820
 7801SOL    HW124302   2.013   2.170   1.840
 7801SOL    HW224303   2.132   2.078   1.902
 7802SOL     OW24304   0.070   3.470   4.645
 7802SOL    HW124305   0.053   3.562   4.680
 7802SOL    HW224306   0.100   3.476   4.550
 7803SOL     OW24307   4.237   2.401   5.837
 7803SOL    HW124308   4.194   2.484   5.803
 7803SOL    HW224309   4.205   2.323   5.783
 7804SOL     OW24310   2.551   2.016   5.460
 7804SOL    HW124311   2.631   1.995   5.517
 7804SOL    HW224312   2.574   2.002   5.364
 7805SOL     OW24313   5.657   3.185   0.461
 7805SOL    HW124314   5.733   3.208   0.522
 7805SOL    HW224315   5.693   3.161   0.371
 7806SOL     OW24316   0.134   2.425   5.849
 7806SOL    HW124317   0.228   2.458   5.851
 7806SOL    HW224318   0.108   2.391   5.939
 7807SOL     OW24319   2.103   4.834   5.952
 7807SOL    HW124320   2.190   4.791   5.973
 7807SOL    HW224321   2.117   4.931   5.934
 7808SOL     OW24322   5.074   3.822   2.702
 7808SOL    HW124323   4.978   3.820   2.677
 7808SOL    HW224324   5.128   3.859   2.627
 7809SOL     OW24325   4.395   5.074   3.389
 7809SOL    HW124326   4.464   5.145   3.400
 7809SOL    HW224327   4.304   5.112   3.409
 7810SOL     OW24328   4.027   6.396   5.225
 7810SOL    HW124329   4.093   6.419   5.297
 7810SOL    HW224330   4.061   6.430   5.137
 7811SOL     OW24331   1.205   5.595   2.627
 7811SOL    HW124332   1.141   5.672   2.631
 7811SOL    HW224333   1.214   5.565   2.532
 7812SOL     OW24334   2.563   2.362   6.342
 7812SOL    HW124335   2.596   2.284   6.288
 7812SOL    HW224336   2.559   2.336   6.439
 7813SOL     OW24337   5.970   1.229   0.901
 7813SOL    HW124338   5.999   1.133   0.900
 7813SOL    HW224339   5.910   1.246   0.823
 7814SOL     OW24340   0.420   3.116   2.094
 7814SOL    HW124341   0.378   3.184   2.034
 7814SOL    HW224342   0.503   3.081   2.052
 7815SOL     OW24343   5.675   3.168   4.841
 7815SOL    HW124344   5.661   3.165   4.940
 7815SOL    HW224345   5.591   3.196   4.795
 7816SOL     OW24346   1.014   1.157   4.996
 7816SOL    HW124347   1.101   1.111   5.012
 7816SOL    HW224348   0.992   1.215   5.075
 7817SOL     OW24349   3.048   3.070   6.455
 7817SOL    HW124350   3.012   2.978   6.438
 7817SOL    HW224351   3.101   3.099   6.375
 7818SOL     OW24352   5.403   1.266   2.056
 7818SOL    HW124353   5.320   1.232   2.013
 7818SOL    HW224354   5.472   1.193   2.058
 7819SOL     OW24355   1.171   4.020   3.832
 7819SOL    HW124356   1.250   4.018   3.893
 7819SOL    HW224357   1.202   4.030   3.738
 7820SOL     OW24358   1.894   0.229   5.642
 7820SOL    HW124359   1.841   0.169   5.702
 7820SOL    HW224360   1.839   0.252   5.562
 7821SOL     OW24361   5.631   5.723   5.746
 7821SOL    HW124362   5.680   5.683   5.824
 7821SOL    HW224363   5.552   5.666   5.723
 7822SOL     OW24364   1.255   0.926   4.751
 7822SOL    HW124365   1.341   0.931   4.701
 7822SOL    HW224366   1.202   1.010   4.736
 7823SOL     OW24367   1.156   4.114   6.465
 7823SOL    HW124368   1.229   4.046   6.467
 7823SOL    HW224369   1.074   4.077   6.508
 7824SOL     OW24370   5.226   2.509   2.965
 7824SOL    HW124371   5.263   2.422   2.931
 7824SOL    HW224372   5.127   2.504   2.968
 7825SOL     OW24373   3.652   3.384   2.156
 7825SOL    HW124374   3.656   3.370   2.057
 7825SOL    HW224375   3.566   3.429   2.180
 7826SOL     OW24376   6.902   0.818   0.343
 7826SOL    HW124377   6.848   0.867   0.275
 7826SOL    HW224378   6.857   0.733   0.366
 7827SOL     OW24379   5.295   4.764   1.525
 7827SOL    HW124380   5.364   4.708   1.479
 7827SOL    HW224381   5.307   4.757   1.624
 7828SOL     OW24382   0.956   6.739   0.906
 7828SOL    HW124383   0.868   6.785   0.895
 7828SOL    HW224384   0.942   6.641   0.915
 7829SOL     OW24385   3.917   2.672   1.575
 7829SOL    HW124386   3.895   2.637   1.484
 7829SOL    HW224387   3.839   2.658   1.636
 7830SOL     OW24388   5.606   2.856   6.767
 7830SOL    HW124389   5.539   2.801   6.819
 7830SOL    HW224390   5.609   2.948   6.805
 7831SOL     OW24391   1.276   3.087   0.291
 7831SOL    HW124392   1.339   3.047   0.357
 7831SOL    HW224393   1.306   3.180   0.268
 7832SOL     OW24394   2.371   2.519   5.846
 7832SOL    HW124395   2.285   2.562   5.818
 7832SOL    HW224396   2.437   2.590   5.871
 7833SOL     OW24397   0.359   0.208   0.326
 7833SOL    HW124398   0.286   0.258   0.374
 7833SOL    HW224399   0.385   0.258   0.244
 7834SOL     OW24400   0.833   0.617   1.100
 7834SOL    HW124401   0.899   0.542   1.103
 7834SOL    HW224402   0.882   0.704   1.103
 7835SOL     OW24403   2.215   3.100   4.797
 7835SOL    HW124404   2.174   3.019   4.755
 7835SOL    HW224405   2.284   3.071   4.864
 7836SOL     OW24406   2.115   6.156   0.261
 7836SOL    HW124407   2.036   6.191   0.310
 7836SOL    HW224408   2.107   6.057   0.250
 7837SOL     OW24409   6.151   0.171   3.031
 7837SOL    HW124410   6.189   0.095   2.979
 7837SOL    HW224411   6.052   0.173   3.019
 7838SOL     OW24412   3.482   0.161   4.405
 7838SOL    HW124413   3.455   0.215   4.325
 7838SOL    HW224414   3.529   0.078   4.374
 7839SOL     OW24415   6.471   4.813   4.725
 7839SOL    HW124416   6.451   4.871   4.805
 7839SOL    HW224417   6.410   4.733   4.726
 7840SOL     OW24418   5.691   2.984   4.455
 7840SOL    HW124419   5.716   3.067   4.406
 7840SOL    HW224420   5.771   2.924   4.464
 7841SOL     OW24421   0.700   1.566   6.257
 7841SOL    HW124422   0.674   1.663   6.254
 7841SOL    HW224423   0.657   1.518   6.181
 7842SOL     OW24424   2.448   0.977   2.901
 7842SOL    HW124425   2.521   1.016   2.958
 7842SOL    HW224426   2.471   0.882   2.878
 7843SOL     OW24427   5.275   3.414   0.650
 7843SOL    HW124428   5.372   3.416   0.628
 7843SOL    HW224429   5.229   3.348   0.590
 7844SOL     OW24430   3.994   0.741   3.596
 7844SOL    HW124431   3.945   0.804   3.657
 7844SOL    HW224432   4.092   0.746   3.615
 7845SOL     OW24433   6.138   1.777   4.406
 7845SOL    HW124434   6.179   1.765   4.497
 7845SOL    HW224435   6.136   1.688   4.359
 7846SOL     OW24436   2.837   6.833   1.960
 7846SOL    HW124437   2.830   6.835   1.860
 7846SOL    HW224438   2.789   6.912   1.998
 7847SOL     OW24439   6.503   0.659   0.667
 7847SOL    HW124440   6.539   0.585   0.611
 7847SOL    HW224441   6.491   0.740   0.610
 7848SOL     OW24442   4.762   3.786   1.642
 7848SOL    HW124443   4.811   3.862   1.600
 7848SOL    HW224444   4.759   3.708   1.580
 7849SOL     OW24445   5.824   3.356   4.657
 7849SOL    HW124446   5.774   3.438   4.629
 7849SOL    HW224447   5.768   3.302   4.719
 7850SOL     OW24448   1.062   0.783   5.134
 7850SOL    HW124449   1.097   0.872   5.105
 7850SOL    HW224450   1.113   0.751   5.213
 7851SOL     OW24451   6.110   6.453   0.402
 7851SOL    HW124452   6.133   6.437   0.498
 7851SOL    HW224453   6.115   6.551   0.382
 7852SOL     OW24454   2.662   6.373   0.154
 7852SOL    HW124455   2.668   6.459   0.103
 7852SOL    HW224456   2.566   6.348   0.164
 7853SOL     OW24457   2.558   3.373   0.171
 7853SOL    HW124458   2.641   3.319   0.187
 7853SOL    HW224459   2.510   3.338   0.091
 7854SOL     OW24460   3.188   4.077   2.422
 7854SOL    HW124461   3.266   4.111   2.476
 7854SOL    HW224462   3.221   4.035   2.338
 7855SOL     OW24463   4.256   5.772   6.152
 7855SOL    HW124464   4.250   5.672   6.148
 7855SOL    HW224465   4.326   5.805   6.089
 7856SOL     OW24466   5.421   3.301   5.479
 7856SOL    HW124467   5.422   3.384   5.424
 7856SOL    HW224468   5.381   3.321   5.569
 7857SOL     OW24469   6.755   1.451   5.718
 7857SOL    HW124470   6.754   1.383   5.644
 7857SOL    HW224471   6.756   1.543   5.679
 7858SOL     OW24472   6.206   4.020   2.865
 7858SOL    HW124473   6.198   3.983   2.772
 7858SOL    HW224474   6.117   4.052   2.896
 7859SOL     OW24475   1.382   5.375   6.273
 7859SOL    HW124476   1.401   5.473   6.268
 7859SOL    HW224477   1.462   5.324   6.244
 7860SOL     OW24478   3.879   0.064   1.954
 7860SOL    HW124479   3.860   0.008   2.034
 7860SOL    HW224480   3.974   0.097   1.958
 7861SOL     OW24481   5.095   4.822   0.775
 7861SOL    HW124482   5.024   4.879   0.816
 7861SOL    HW224483   5.119   4.747   0.838
 7862SOL     OW24484   3.098   4.418   1.294
 7862SOL    HW124485   3.041   4.478   1.237
 7862SOL    HW224486   3.041   4.373   1.362
 7863SOL     OW24487   6.626   5.667   1.806
 7863SOL    HW124488   6.709   5.724   1.806
 7863SOL    HW224489   6.649   5.575   1.840
 7864SOL     OW24490   0.775   5.230   4.659
 7864SOL    HW124491   0.731   5.200   4.743
 7864SOL    HW224492   0.833   5.156   4.624
 7865SOL     OW24493   3.274   0.113   3.103
 7865SOL    HW124494   3.194   0.172   3.114
 7865SOL    HW224495   3.244   0.020   3.080
 7866SOL     OW24496   2.512   2.112   4.364
 7866SOL    HW124497   2.513   2.014   4.380
 7866SOL    HW224498   2.495   2.160   4.451
 7867SOL     OW24499   6.348   4.544   1.810
 7867SOL    HW124500   6.376   4.622   1.866
 7867SOL    HW224501   6.341   4.572   1.714
 7868SOL     OW24502   5.409   6.316   0.445
 7868SOL    HW124503   5.312   6.328   0.424
 7868SOL    HW224504   5.421   6.309   0.544
 7869SOL     OW24505   0.649   3.845   1.948
 7869SOL    HW124506   0.676   3.751   1.969
 7869SOL    HW224507   0.712   3.884   1.881
 7870SOL     OW24508   6.834   5.733   3.848
 7870SOL    HW124509   6.876   5.660   3.794
 7870SOL    HW224510   6.737   5.739   3.826
 7871SOL     OW24511   4.855   3.351   3.141
 7871SOL    HW124512   4.801   3.311   3.067
 7871SOL    HW224513   4.839   3.300   3.225
 7872SOL     OW24514   0.148   3.013   3.059
 7872SOL    HW124515   0.211   2.945   3.097
 7872SOL    HW224516   0.062   3.010   3.110
 7873SOL     OW24517   0.445   5.601   5.108
 7873SOL    HW124518   0.459   5.521   5.049
 7873SOL    HW224519   0.529   5.619   5.160
 7874SOL     OW24520   5.812   1.743   0.575
 7874SOL    HW124521   5.864   1.824   0.603
 7874SOL    HW224522   5.757   1.711   0.652
 7875SOL     OW24523   4.306   3.244   6.308
 7875SOL    HW124524   4.372   3.214   6.240
 7875SOL    HW224525   4.214   3.214   6.281
 7876SOL     OW24526   6.645   0.562   3.723
 7876SOL    HW124527   6.628   0.465   3.710
 7876SOL    HW224528   6.605   0.614   3.648
 7877SOL     OW24529   0.142   2.337   2.899
 7877SOL    HW124530   0.104   2.428   2.911
 7877SOL    HW224531   0.099   2.274   2.964
 7878SOL     OW24532   4.825   3.851   2.431
 7878SOL    HW124533   4.795   3.781   2.496
 7878SOL    HW224534   4.788   3.831   2.341
 7879SOL     OW24535   5.261   6.931   3.890
 7879SOL    HW124536   5.203   6.969   3.817
 7879SOL    HW224537   5.312   6.852   3.854
 7880SOL     OW24538   0.184   6.973   6.721
 7880SOL    HW124539   0.211   6.900   6.783
 7880SOL    HW224540   0.252   0.026   6.723
 7881SOL     OW24541   0.365   4.504   4.513
 7881SOL    HW124542   0.426   4.427   4.533
 7881SOL    HW224543   0.271   4.471   4.504
 7882SOL     OW24544   6.473   3.640   3.371
 7882SOL    HW124545   6.500   3.543   3.374
 7882SOL    HW224546   6.400   3.656   3.437
 7883SOL     OW24547   3.075   1.468   3.523
 7883SOL    HW124548   3.089   1.374   3.495
 7883SOL    HW224549   2.979   1.494   3.508
 7884SOL     OW24550   0.638   4.290   4.653
 7884SOL    HW124551   0.679   4.277   4.744
 7884SOL    HW224552   0.703   4.339   4.594
 7885SOL     OW24553   6.039   5.756   3.172
 7885SOL    HW124554   6.063   5.743   3.076
 7885SOL    HW224555   5.997   5.673   3.208
 7886SOL     OW24556   4.755   2.817   2.213
 7886SOL    HW124557   4.842   2.828   2.262
 7886SOL    HW224558   4.740   2.897   2.155
 7887SOL     OW24559   3.096   3.403   0.428
 7887SOL    HW124560   3.139   3.470   0.488
 7887SOL    HW224561   3.025   3.448   0.373
 7888SOL     OW24562   5.603   1.660   3.882
 7888SOL    HW124563   5.677   1.728   3.889
 7888SOL    HW224564   5.614   1.592   3.954
 7889SOL     OW24565   6.074   4.618   1.014
 7889SOL    HW124566   6.017   4.557   1.069
 7889SOL    HW224567   6.127   4.678   1.074
 7890SOL     OW24568   0.943   3.863   4.185
 7890SOL    HW124569   0.925   3.945   4.239
 7890SOL    HW224570   1.040   3.840   4.189
 7891SOL     OW24571   0.749   2.515   3.944
 7891SOL    HW124572   0.803   2.444   3.991
 7891SOL    HW224573   0.811   2.571   3.888
 7892SOL     OW24574   0.974   3.179   5.846
 7892SOL    HW124575   0.976   3.250   5.916
 7892SOL    HW224576   1.023   3.211   5.765
 7893SOL     OW24577   6.221   1.270   1.582
 7893SOL    HW124578   6.190   1.294   1.490
 7893SOL    HW224579   6.301   1.212   1.577
 7894SOL     OW24580   2.685   1.049   6.229
 7894SOL    HW124581   2.674   1.026   6.326
 7894SOL    HW224582   2.782   1.058   6.208
 7895SOL     OW24583   3.942   6.439   3.169
 7895SOL    HW124584   3.846   6.419   3.191
 7895SOL    HW224585   3.947   6.522   3.113
 7896SOL     OW24586   3.855   1.980   1.343
 7896SOL    HW124587   3.894   1.987   1.251
 7896SOL    HW224588   3.907   2.037   1.406
 7897SOL     OW24589   3.682   4.114   0.020
 7897SOL    HW124590   3.630   4.035   0.053
 7897SOL    HW224591   3.620   4.180   6.998
 7898SOL     OW24592   5.552   0.256   4.365
 7898SOL    HW124593   5.645   0.292   4.369
 7898SOL    HW224594   5.505   0.273   4.452
 7899SOL     OW24595   5.696   4.727   1.274
 7899SOL    HW124596   5.620   4.697   1.332
 7899SOL    HW224597   5.742   4.804   1.318
 7900SOL     OW24598   1.132   3.887   0.121
 7900SOL    HW124599   1.084   3.974   0.127
 7900SOL    HW224600   1.126   3.840   0.209
 7901SOL     OW24601   5.916   1.163   6.133
 7901SOL    HW124602   5.978   1.084   6.137
 7901SOL    HW224603   5.966   1.242   6.097
 7902SOL     OW24604   0.555   6.711   2.770
 7902SOL    HW124605   0.493   6.776   2.726
 7902SOL    HW224606   0.647   6.724   2.734
 7903SOL     OW24607   2.126   1.856   4.625
 7903SOL    HW124608   2.073   1.934   4.594
 7903SOL    HW224609   2.220   1.885   4.644
 7904SOL     OW24610   5.697   0.976   1.742
 7904SOL    HW124611   5.719   1.014   1.832
 7904SOL    HW224612   5.753   1.021   1.672
 7905SOL     OW24613   5.653   6.983   0.416
 7905SOL    HW124614   5.673   6.960   0.511
 7905SOL    HW224615   5.656   0.062   0.404
 7906SOL     OW24616   1.264   4.991   1.061
 7906SOL    HW124617   1.189   4.940   1.102
 7906SOL    HW224618   1.350   4.963   1.104
 7907SOL     OW24619   6.216   0.252   3.807
 7907SOL    HW124620   6.203   0.153   3.795
 7907SOL    HW224621   6.128   0.299   3.796
 7908SOL     OW24622   0.173   0.768   6.830
 7908SOL    HW124623   0.269   0.797   6.827
 7908SOL    HW224624   0.145   0.758   6.925
 7909SOL     OW24625   5.763   3.729   1.733
 7909SOL    HW124626   5.738   3.749   1.828
 7909SOL    HW224627   5.684   3.689   1.686
 7910SOL     OW24628   2.322   3.570   0.495
 7910SOL    HW124629   2.287   3.556   0.588
 7910SOL    HW224630   2.415   3.536   0.489
 7911SOL     OW24631   1.050   4.510   0.286
 7911SOL    HW124632   1.025   4.599   0.323
 7911SOL    HW224633   0.972   4.448   0.292
 7912SOL     OW24634   6.108   5.454   0.146
 7912SOL    HW124635   6.029   5.456   0.084
 7912SOL    HW224636   6.087   5.396   0.225
 7913SOL     OW24637   0.821   3.373   0.608
 7913SOL    HW124638   0.724   3.353   0.627
 7913SOL    HW224639   0.865   3.291   0.572
 7914SOL     OW24640   6.436   4.952   4.955
 7914SOL    HW124641   6.513   5.014   4.971
 7914SOL    HW224642   6.438   4.879   5.023
 7915SOL     OW24643   3.646   6.992   2.963
 7915SOL    HW124644   3.578   6.969   2.894
 7915SOL    HW224645   3.602   0.018   3.040
 7916SOL     OW24646   1.441   0.453   4.529
 7916SOL    HW124647   1.369   0.442   4.461
 7916SOL    HW224648   1.412   0.519   4.599
 7917SOL     OW24649   3.973   3.530   0.181
 7917SOL    HW124650   4.003   3.567   0.093
 7917SOL    HW224651   3.880   3.496   0.173
 7918SOL     OW24652   2.516   0.793   5.033
 7918SOL    HW124653   2.495   0.722   4.966
 7918SOL    HW224654   2.433   0.842   5.057
 7919SOL     OW24655   1.233   5.506   2.357
 7919SOL    HW124656   1.226   5.483   2.260
 7919SOL    HW224657   1.315   5.463   2.395
 7920SOL     OW24658   4.618   0.081   0.789
 7920SOL    HW124659   4.533   0.104   0.740
 7920SOL    HW224660   4.597   0.016   0.862
 7921SOL     OW24661   4.972   1.393   1.604
 7921SOL    HW124662   4.994   1.396   1.506
 7921SOL    HW224663   4.891   1.450   1.621
 7922SOL     OW24664   0.359   5.676   0.867
 7922SOL    HW124665   0.418   5.640   0.940
 7922SOL    HW224666   0.414   5.733   0.806
 7923SOL     OW24667   4.176   1.270   6.621
 7923SOL    HW124668   4.144   1.364   6.636
 7923SOL    HW224669   4.115   1.206   6.667
 7924SOL     OW24670   6.169   0.489   0.868
 7924SOL    HW124671   6.198   0.423   0.799
 7924SOL    HW224672   6.070   0.501   0.863
 7925SOL     OW24673   2.338   6.328   0.846
 7925SOL    HW124674   2.287   6.410   0.821
 7925SOL    HW224675   2.405   6.307   0.775
 7926SOL     OW24676   4.677   6.168   6.404
 7926SOL    HW124677   4.708   6.114   6.483
 7926SOL    HW224678   4.716   6.129   6.320
 7927SOL     OW24679   4.831   6.829   2.297
 7927SOL    HW124680   4.797   6.742   2.262
 7927SOL    HW224681   4.894   6.870   2.230
 7928SOL     OW24682   6.705   1.641   3.012
 7928SOL    HW124683   6.748   1.691   3.087
 7928SOL    HW224684   6.773   1.581   2.969
 7929SOL     OW24685   4.420   4.122   6.085
 7929SOL    HW124686   4.331   4.163   6.103
 7929SOL    HW224687   4.480   4.135   6.164
 7930SOL     OW24688   4.003   5.767   5.641
 7930SOL    HW124689   3.925   5.785   5.700
 7930SOL    HW224690   4.087   5.770   5.695
 7931SOL     OW24691   3.277   2.262   0.582
 7931SOL    HW124692   3.288   2.181   0.639
 7931SOL    HW224693   3.325   2.248   0.495
 7932SOL     OW24694   0.571   5.480   1.448
 7932SOL    HW124695   0.514   5.493   1.368
 7932SOL    HW224696   0.540   5.399   1.499
 7933SOL     OW24697   0.050   1.520   5.812
 7933SOL    HW124698   6.992   1.460   5.795
 7933SOL    HW224699   0.133   1.480   5.772
 7934SOL     OW24700   0.934   4.450   1.076
 7934SOL    HW124701   0.977   4.482   0.991
 7934SOL    HW224702   0.835   4.441   1.061
 7935SOL     OW24703   5.462   3.444   2.582
 7935SOL    HW124704   5.498   3.379   2.648
 7935SOL    HW224705   5.383   3.492   2.621
 7936SOL     OW24706   3.250   6.135   4.082
 7936SOL    HW124707   3.326   6.107   4.141
 7936SOL    HW224708   3.283   6.140   3.987
 7937SOL     OW24709   2.410   5.879   6.849
 7937SOL    HW124710   2.400   5.780   6.843
 7937SOL    HW224711   2.475   5.911   6.781
 7938SOL     OW24712   3.388   6.934   4.470
 7938SOL    HW124713   3.317   6.889   4.524
 7938SOL    HW224714   3.350   7.014   4.423
 7939SOL     OW24715   0.620   2.034   4.841
 7939SOL    HW124716   0.642   1.992   4.929
 7939SOL    HW224717   0.562   2.114   4.855
 7940SOL     OW24718   5.348   1.018   3.364
 7940SOL    HW124719   5.337   1.050   3.270
 7940SOL    HW224720   5.424   0.953   3.368
 7941SOL     OW24721   3.706   6.726   1.767
 7941SOL    HW124722   3.680   6.631   1.786
 7941SOL    HW224723   3.633   6.787   1.798
 7942SOL     OW24724   0.975   4.132   1.754
 7942SOL    HW124725   1.031   4.130   1.671
 7942SOL    HW224726   1.017   4.076   1.825
 7943SOL     OW24727   2.105   5.380   6.739
 7943SOL    HW124728   2.054   5.393   6.654
 7943SOL    HW224729   2.202   5.371   6.718
 7944SOL     OW24730   1.583   3.028   0.742
 7944SOL    HW124731   1.641   2.974   0.681
 7944SOL    HW224732   1.640   3.078   0.807
 7945SOL     OW24733   5.713   4.516   2.442
 7945SOL    HW124734   5.809   4.503   2.417
 7945SOL    HW224735   5.706   4.523   2.542
 7946SOL     OW24736   3.866   1.167   5.061
 7946SOL    HW124737   3.768   1.159   5.083
 7946SOL    HW224738   3.894   1.262   5.070
 7947SOL     OW24739   1.261   2.626   5.213
 7947SOL    HW124740   1.224   2.644   5.304
 7947SOL    HW224741   1.303   2.535   5.211
 7948SOL     OW24742   1.555   4.882   2.394
 7948SOL    HW124743   1.631   4.847   2.448
 7948SOL    HW224744   1.570   4.861   2.297
 7949SOL     OW24745   3.636   4.638   6.112
 7949SOL    HW124746   3.643   4.540   6.095
 7949SOL    HW224747   3.544   4.658   6.148
 7950SOL     OW24748   5.714   5.148   5.401
 7950SOL    HW124749   5.766   5.062   5.401
 7950SOL    HW224750   5.658   5.154   5.318
 7951SOL     OW24751   3.035   5.718   2.777
 7951SOL    HW124752   3.028   5.647   2.847
 7951SOL    HW224753   3.019   5.807   2.819
 7952SOL     OW24754   5.423   3.133   6.918
 7952SOL    HW124755   5.444   3.120   7.015
 7952SOL    HW224756   5.356   3.065   6.889
 7953SOL     OW24757   2.839   1.660   0.956
 7953SOL    HW124758   2.784   1.641   0.875
 7953SOL    HW224759   2.936   1.648   0.934
 7954SOL     OW24760   3.504   3.074   0.141
 7954SOL    HW124761   3.524   3.095   0.237
 7954SOL    HW224762   3.582   3.102   0.084
 7955SOL     OW24763   1.599   1.128   6.580
 7955SOL    HW124764   1.563   1.036   6.562
 7955SOL    HW224765   1.657   1.125   6.661
 7956SOL     OW24766   6.605   6.832   1.219
 7956SOL    HW124767   6.614   6.924   1.257
 7956SOL    HW224768   6.602   6.838   1.119
 7957SOL     OW24769   5.053   0.103   5.127
 7957SOL    HW124770   4.970   0.154   5.150
 7957SOL    HW224771   5.097   0.144   5.048
 7958SOL     OW24772   5.676   3.307   6.949
 7958SOL    HW124773   5.599   3.251   6.920
 7958SOL    HW224774   5.742   3.315   6.875
 7959SOL     OW24775   5.341   0.781   5.677
 7959SOL    HW124776   5.404   0.712   5.713
 7959SOL    HW224777   5.315   0.758   5.584
 7960SOL     OW24778   0.155   0.735   6.310
 7960SOL    HW124779   0.082   0.799   6.332
 7960SOL    HW224780   0.166   0.729   6.211
 7961SOL     OW24781   6.406   0.709   0.379
 7961SOL    HW124782   6.336   0.698   0.308
 7961SOL    HW224783   6.459   0.625   0.387
 7962SOL     OW24784   6.379   6.782   5.743
 7962SOL    HW124785   6.433   6.698   5.752
 7962SOL    HW224786   6.402   6.844   5.818
 7963SOL     OW24787   6.970   5.365   4.547
 7963SOL    HW124788   0.022   5.392   4.483
 7963SOL    HW224789   6.993   5.276   4.587
 7964SOL     OW24790   6.338   3.519   2.239
 7964SOL    HW124791   6.381   3.429   2.240
 7964SOL    HW224792   6.242   3.510   2.213
 7965SOL     OW24793   4.212   1.751   6.794
 7965SOL    HW124794   4.178   1.687   6.862
 7965SOL    HW224795   4.172   1.730   6.705
 7966SOL     OW24796   4.569   4.020   5.368
 7966SOL    HW124797   4.514   4.104   5.365
 7966SOL    HW224798   4.665   4.042   5.350
 7967SOL     OW24799   1.456   4.685   1.873
 7967SOL    HW124800   1.368   4.704   1.831
 7967SOL    HW224801   1.445   4.673   1.971
 7968SOL     OW24802   6.422   1.947   4.371
 7968SOL    HW124803   6.416   2.037   4.327
 7968SOL    HW224804   6.335   1.899   4.361
 7969SOL     OW24805   4.913   5.985   0.013
 7969SOL    HW124806   4.882   5.895   0.042
 7969SOL    HW224807   4.915   5.988   6.933
 7970SOL     OW24808   5.982   2.898   2.429
 7970SOL    HW124809   5.914   2.923   2.498
 7970SOL    HW224810   6.053   2.842   2.471
 7971SOL     OW24811   3.077   1.434   0.980
 7971SOL    HW124812   3.065   1.430   0.881
 7971SOL    HW224813   3.156   1.492   1.001
 7972SOL     OW24814   3.926   3.349   2.880
 7972SOL    HW124815   3.888   3.259   2.900
 7972SOL    HW224816   3.871   3.419   2.926
 7973SOL     OW24817   5.943   3.708   3.228
 7973SOL    HW124818   6.016   3.652   3.267
 7973SOL    HW224819   5.892   3.655   3.160
 7974SOL     OW24820   6.458   1.920   4.949
 7974SOL    HW124821   6.527   1.855   4.915
 7974SOL    HW224822   6.367   1.887   4.925
 7975SOL     OW24823   5.319   0.904   1.058
 7975SOL    HW124824   5.245   0.941   1.115
 7975SOL    HW224825   5.346   0.814   1.093
 7976SOL     OW24826   1.180   6.734   6.607
 7976SOL    HW124827   1.206   6.650   6.655
 7976SOL    HW224828   1.262   6.790   6.592
 7977SOL     OW24829   5.540   6.402   2.944
 7977SOL    HW124830   5.541   6.395   2.844
 7977SOL    HW224831   5.469   6.467   2.972
 7978SOL     OW24832   0.209   4.715   0.783
 7978SOL    HW124833   0.136   4.759   0.836
 7978SOL    HW224834   0.242   4.634   0.832
 7979SOL     OW24835   1.478   3.541   5.108
 7979SOL    HW124836   1.534   3.623   5.118
 7979SOL    HW224837   1.385   3.560   5.140
 7980SOL     OW24838   3.933   5.168   6.548
 7980SOL    HW124839   4.015   5.221   6.568
 7980SOL    HW224840   3.942   5.076   6.588
 7981SOL     OW24841   1.708   5.067   3.331
 7981SOL    HW124842   1.785   5.015   3.294
 7981SOL    HW224843   1.666   5.119   3.256
 7982SOL     OW24844   0.948   2.251   6.295
 7982SOL    HW124845   0.992   2.247   6.205
 7982SOL    HW224846   0.854   2.285   6.285
 7983SOL     OW24847   5.175   0.473   1.202
 7983SOL    HW124848   5.125   0.558   1.185
 7983SOL    HW224849   5.232   0.484   1.284
 7984SOL     OW24850   1.366   1.821   1.929
 7984SOL    HW124851   1.332   1.914   1.911
 7984SOL    HW224852   1.449   1.827   1.985
 7985SOL     OW24853   1.682   2.662   5.617
 7985SOL    HW124854   1.722   2.677   5.526
 7985SOL    HW224855   1.754   2.634   5.681
 7986SOL     OW24856   3.179   1.206   3.738
 7986SOL    HW124857   3.137   1.251   3.817
 7986SOL    HW224858   3.185   1.107   3.755
 7987SOL     OW24859   1.198   3.394   0.655
 7987SOL    HW124860   1.115   3.428   0.699
 7987SOL    HW224861   1.278   3.423   0.707
 7988SOL     OW24862   0.206   1.873   1.018
 7988SOL    HW124863   0.137   1.897   0.949
 7988SOL    HW224864   0.250   1.787   0.994
 7989SOL     OW24865   0.510   4.474   0.796
 7989SOL    HW124866   0.594   4.420   0.795
 7989SOL    HW224867   0.449   4.444   0.723
 7990SOL     OW24868   3.076   5.471   5.463
 7990SOL    HW124869   3.119   5.557   5.437
 7990SOL    HW224870   3.133   5.423   5.529
 7991SOL     OW24871   5.587   1.220   5.071
 7991SOL    HW124872   5.677   1.184   5.048
 7991SOL    HW224873   5.578   1.313   5.036
 7992SOL     OW24874   2.727   0.698   0.497
 7992SOL    HW124875   2.727   0.704   0.398
 7992SOL    HW224876   2.756   0.786   0.536
 7993SOL     OW24877   6.779   6.010   1.786
 7993SOL    HW124878   6.830   5.924   1.781
 7993SOL    HW224879   6.842   6.086   1.800
 7994SOL     OW24880   5.193   0.732   3.274
 7994SOL    HW124881   5.289   0.759   3.261
 7994SOL    HW224882   5.152   0.787   3.347
 7995SOL     OW24883   0.205   4.410   1.587
 7995SOL    HW124884   0.230   4.474   1.660
 7995SOL    HW224885   0.114   4.432   1.553
 7996SOL     OW24886   4.230   6.870   3.120
 7996SOL    HW124887   4.215   6.855   3.022
 7996SOL    HW224888   4.300   6.806   3.154
 7997SOL     OW24889   0.430   2.019   6.681
 7997SOL    HW124890   0.427   1.984   6.775
 7997SOL    HW224891   0.502   2.089   6.675
 7998SOL     OW24892   3.411   0.793   0.429
 7998SOL    HW124893   3.503   0.781   0.468
 7998SOL    HW224894   3.413   0.868   0.363
 7999SOL     OW24895   1.398   1.463   5.341
 7999SOL    HW124896   1.453   1.426   5.415
 7999SOL    HW224897   1.458   1.506   5.273
 8000SOL     OW24898   5.681   5.629   6.273
 8000SOL    HW124899   5.726   5.715   6.252
 8000SOL    HW224900   5.739   5.575   6.333
 8001SOL     OW24901   4.788   0.538   1.123
 8001SOL    HW124902   4.694   0.572   1.113
 8001SOL    HW224903   4.821   0.508   1.033
 8002SOL     OW24904   0.784   0.050   5.670
 8002SOL    HW124905   0.745   7.004   5.734
 8002SOL    HW224906   0.870   0.085   5.707
 8003SOL     OW24907   1.889   6.645   2.915
 8003SOL    HW124908   1.928   6.729   2.953
 8003SOL    HW224909   1.836   6.598   2.985
 8004SOL     OW24910   1.046   3.242   4.049
 8004SOL    HW124911   1.109   3.285   4.114
 8004SOL    HW224912   0.971   3.305   4.030
 8005SOL     OW24913   2.708   0.616   3.529
 8005SOL    HW124914   2.622   0.617   3.478
 8005SOL    HW224915   2.777   0.566   3.476
 8006SOL     OW24916   3.931   4.623   5.585
 8006SOL    HW124917   4.018   4.613   5.633
 8006SOL    HW224918   3.869   4.550   5.614
 8007SOL     OW24919   6.112   1.274   6.538
 8007SOL    HW124920   6.093   1.358   6.488
 8007SOL    HW224921   6.052   1.269   6.618
 8008SOL     OW24922   4.561   6.491   6.871
 8008SOL    HW124923   4.646   6.481   6.820
 8008SOL    HW224924   4.582   6.507   6.967
 8009SOL     OW24925   4.995   1.212   0.687
 8009SOL    HW124926   5.023   1.308   0.685
 8009SOL    HW224927   4.925   1.196   0.617
 8010SOL     OW24928   2.842   2.570   5.406
 8010SOL    HW124929   2.828   2.504   5.333
 8010SOL    HW224930   2.786   2.545   5.485
 8011SOL     OW24931   3.926   1.812   2.297
 8011SOL    HW124932   3.884   1.903   2.300
 8011SOL    HW224933   4.025   1.821   2.311
 8012SOL     OW24934   0.999   2.769   5.395
 8012SOL    HW124935   0.980   2.848   5.455
 8012SOL    HW224936   1.021   2.802   5.304
 8013SOL     OW24937   1.864   2.330   3.368
 8013SOL    HW124938   1.870   2.362   3.463
 8013SOL    HW224939   1.873   2.408   3.306
 8014SOL     OW24940   1.951   0.633   3.143
 8014SOL    HW124941   1.961   0.701   3.216
 8014SOL    HW224942   1.855   0.623   3.121
 8015SOL     OW24943   2.184   6.920   5.219
 8015SOL    HW124944   2.102   6.893   5.170
 8015SOL    HW224945   2.264   6.880   5.175
 8016SOL     OW24946   4.540   1.535   5.715
 8016SOL    HW124947   4.508   1.524   5.621
 8016SOL    HW224948   4.467   1.510   5.779
 8017SOL     OW24949   6.492   0.434   0.392
 8017SOL    HW124950   6.449   0.385   0.316
 8017SOL    HW224951   6.519   0.369   0.463
 8018SOL     OW24952   4.002   1.445   0.297
 8018SOL    HW124953   3.970   1.449   0.203
 8018SOL    HW224954   4.102   1.451   0.299
 8019SOL     OW24955   3.182   2.982   0.533
 8019SOL    HW124956   3.254   3.049   0.519
 8019SOL    HW224957   3.207   2.921   0.608
 8020SOL     OW24958   0.317   0.335   5.156
 8020SOL    HW124959   0.375   0.415   5.143
 8020SOL    HW224960   0.345   0.286   5.239
 8021SOL     OW24961   1.319   2.091   2.564
 8021SOL    HW124962   1.323   2.036   2.482
 8021SOL    HW224963   1.336   2.187   2.541
 8022SOL     OW24964   5.019   1.137   2.454
 8022SOL    HW124965   4.978   1.060   2.406
 8022SOL    HW224966   5.050   1.107   2.545
 8023SOL     OW24967   4.803   5.823   3.705
 8023SOL    HW124968   4.735   5.773   3.760
 8023SOL    HW224969   4.762   5.908   3.671
 8024SOL     OW24970   2.076   6.516   6.272
 8024SOL    HW124971   2.021   6.439   6.239
 8024SOL    HW224972   2.015   6.592   6.294
 8025SOL     OW24973   1.933   5.177   1.542
 8025SOL    HW124974   1.969   5.094   1.502
 8025SOL    HW224975   1.848   5.156   1.592
 8026SOL     OW24976   0.799   5.815   6.766
 8026SOL    HW124977   0.786   5.759   6.684
 8026SOL    HW224978   0.875   5.879   6.750
 8027SOL     OW24979   3.620   6.473   6.707
 8027SOL    HW124980   3.682   6.400   6.737
 8027SOL    HW224981   3.642   6.498   6.612
 8028SOL     OW24982   2.905   5.426   4.730
 8028SOL    HW124983   2.856   5.338   4.735
 8028SOL    HW224984   2.912   5.465   4.822
 8029SOL     OW24985   6.389   1.248   0.765
 8029SOL    HW124986   6.349   1.177   0.707
 8029SOL    HW224987   6.320   1.319   0.783
 8030SOL     OW24988   6.384   4.815   1.062
 8030SOL    HW124989   6.386   4.814   0.962
 8030SOL    HW224990   6.342   4.900   1.094
 8031SOL     OW24991   6.667   0.872   3.144
 8031SOL    HW124992   6.584   0.916   3.178
 8031SOL    HW224993   6.699   0.805   3.211
 8032SOL     OW24994   5.529   2.788   0.834
 8032SOL    HW124995   5.492   2.696   0.850
 8032SOL    HW224996   5.616   2.797   0.883
 8033SOL     OW24997   3.780   4.492   1.090
 8033SOL    HW124998   3.878   4.481   1.072
 8033SOL    HW224999   3.733   4.520   1.006
 8034SOL     OW25000   5.917   6.933   5.530
 8034SOL    HW125001   5.960   6.960   5.443
 8034SOL    HW225002   5.987   6.926   5.600
 8035SOL     OW25003   4.899   1.795   2.906
 8035SOL    HW125004   4.834   1.756   2.841
 8035SOL    HW225005   4.967   1.725   2.931
 8036SOL     OW25006   6.318   3.413   3.550
 8036SOL    HW125007   6.369   3.406   3.464
 8036SOL    HW225008   6.294   3.321   3.582
 8037SOL     OW25009   0.943   2.907   6.488
 8037SOL    HW125010   1.024   2.853   6.511
 8037SOL    HW225011   0.864   2.847   6.476
 8038SOL     OW25012   6.293   6.322   2.411
 8038SOL    HW125013   6.336   6.393   2.355
 8038SOL    HW225014   6.263   6.247   2.351
 8039SOL     OW25015   1.308   2.067   5.509
 8039SOL    HW125016   1.337   2.004   5.581
 8039SOL    HW225017   1.279   2.154   5.549
 8040SOL     OW25018   1.965   5.112   6.130
 8040SOL    HW125019   1.869   5.084   6.132
 8040SOL    HW225020   1.991   5.149   6.220
 8041SOL     OW25021   4.093   1.903   2.654
 8041SOL    HW125022   4.173   1.902   2.715
 8041SOL    HW225023   4.123   1.905   2.559
 8042SOL     OW25024   4.512   4.119   5.808
 8042SOL    HW125025   4.455   4.144   5.729
 8042SOL    HW225026   4.454   4.114   5.890
 8043SOL     OW25027   5.615   4.268   0.273
 8043SOL    HW125028   5.682   4.206   0.313
 8043SOL    HW225029   5.524   4.246   0.307
 8044SOL     OW25030   3.590   3.941   0.696
 8044SOL    HW125031   3.621   3.944   0.791
 8044SOL    HW225032   3.641   3.871   0.646
 8045SOL     OW25033   0.786   1.324   2.436
 8045SOL    HW125034   0.864   1.279   2.479
 8045SOL    HW225035   0.701   1.281   2.467
 8046SOL     OW25036   0.368   5.461   2.117
 8046SOL    HW125037   0.422   5.474   2.200
 8046SOL    HW225038   0.397   5.377   2.071
 8047SOL     OW25039   4.367   6.722   5.565
 8047SOL    HW125040   4.383   6.631   5.603
 8047SOL    HW225041   4.374   6.790   5.638
 8048SOL     OW25042   3.227   3.863   0.008
 8048SOL    HW125043   3.284   3.782   7.019
 8048SOL    HW225044   3.156   3.846   0.077
 8049SOL     OW25045   2.392   0.432   0.771
 8049SOL    HW125046   2.391   0.338   0.737
 8049SOL    HW225047   2.305   0.476   0.749
 8050SOL     OW25048   2.171   4.660   4.133
 8050SOL    HW125049   2.117   4.708   4.064
 8050SOL    HW225050   2.117   4.649   4.216
 8051SOL     OW25051   3.202   6.348   4.276
 8051SOL    HW125052   3.212   6.327   4.179
 8051SOL    HW225053   3.212   6.447   4.290
 8052SOL     OW25054   2.297   2.026   1.962
 8052SOL    HW125055   2.327   2.013   1.868
 8052SOL    HW225056   2.361   1.981   2.024
 8053SOL     OW25057   2.674   3.638   6.299
 8053SOL    HW125058   2.588   3.593   6.274
 8053SOL    HW225059   2.715   3.592   6.377
 8054SOL     OW25060   5.415   4.028   5.061
 8054SOL    HW125061   5.458   4.074   5.139
 8054SOL    HW225062   5.359   3.952   5.094
 8055SOL     OW25063   0.133   0.573   5.320
 8055SOL    HW125064   0.037   0.602   5.321
 8055SOL    HW225065   0.173   0.593   5.230
 8056SOL     OW25066   2.394   0.656   4.075
 8056SOL    HW125067   2.342   0.739   4.054
 8056SOL    HW225068   2.456   0.636   3.999
 8057SOL     OW25069   2.518   2.431   1.799
 8057SOL    HW125070   2.469   2.502   1.748
 8057SOL    HW225071   2.453   2.378   1.852
 8058SOL     OW25072   2.868   6.929   3.132
 8058SOL    HW125073   2.909   6.965   3.048
 8058SOL    HW225074   2.935   6.873   3.180
 8059SOL     OW25075   2.677   3.477   6.529
 8059SOL    HW125076   2.719   3.386   6.531
 8059SOL    HW225077   2.664   3.510   6.623
 8060SOL     OW25078   6.660   0.013   5.562
 8060SOL    HW125079   6.749   0.058   5.558
 8060SOL    HW225080   6.593   0.075   5.603
 8061SOL     OW25081   0.795   1.687   2.105
 8061SOL    HW125082   0.879   1.729   2.139
 8061SOL    HW225083   0.797   1.589   2.123
 8062SOL     OW25084   4.075   5.887   5.241
 8062SOL    HW125085   4.023   5.963   5.202
 8062SOL    HW225086   4.111   5.831   5.167
 8063SOL     OW25087   3.391   0.203   2.895
 8063SOL    HW125088   3.341   0.173   2.976
 8063SOL    HW225089   3.489   0.189   2.909
 8064SOL     OW25090   5.794   2.865   0.067
 8064SOL    HW125091   5.861   2.891   7.018
 8064SOL    HW225092   5.792   2.933   0.140
 8065SOL     OW25093   3.191   6.709   5.064
 8065SOL    HW125094   3.092   6.719   5.073
 8065SOL    HW225095   3.236   6.793   5.092
 8066SOL     OW25096   0.011   1.017   4.950
 8066SOL    HW125097   0.103   0.980   4.934
 8066SOL    HW225098   6.996   0.980   5.036
 8067SOL     OW25099   5.025   2.989   3.443
 8067SOL    HW125100   4.946   2.965   3.500
 8067SOL    HW225101   5.071   2.906   3.414
 8068SOL     OW25102   6.556   4.700   1.245
 8068SOL    HW125103   6.538   4.720   1.341
 8068SOL    HW225104   6.519   4.774   1.188
 8069SOL     OW25105   2.834   4.761   2.342
 8069SOL    HW125106   2.841   4.761   2.243
 8069SOL    HW225107   2.925   4.775   2.382
 8070SOL     OW25108   5.449   4.739   0.098
 8070SOL    HW125109   5.502   4.691   0.168
 8070SOL    HW225110   5.351   4.732   0.120
 8071SOL     OW25111   3.743   6.563   6.099
 8071SOL    HW125112   3.645   6.572   6.117
 8071SOL    HW225113   3.789   6.648   6.122
 8072SOL     OW25114   1.794   2.859   6.678
 8072SOL    HW125115   1.712   2.880   6.624
 8072SOL    HW225116   1.850   2.941   6.688
 8073SOL     OW25117   3.649   0.262   6.673
 8073SOL    HW125118   3.638   0.256   6.772
 8073SOL    HW225119   3.592   0.193   6.629
 8074SOL     OW25120   1.948   1.910   0.314
 8074SOL    HW125121   2.031   1.961   0.294
 8074SOL    HW225122   1.895   1.898   0.230
 8075SOL     OW25123   0.001   6.197   0.044
 8075SOL    HW125124   6.944   6.259   0.031
 8075SOL    HW225125   6.989   6.112   0.084
 8076SOL     OW25126   6.497   0.025   6.699
 8076SOL    HW125127   6.494   6.945   6.690
 8076SOL    HW225128   6.541   0.048   6.786
 8077SOL     OW25129   4.161   5.583   1.455
 8077SOL    HW125130   4.195   5.595   1.361
 8077SOL    HW225131   4.234   5.607   1.519
 8078SOL     OW25132   0.911   1.030   0.599
 8078SOL    HW125133   0.824   1.039   0.648
 8078SOL    HW225134   0.912   0.942   0.551
 8079SOL     OW25135   1.484   1.291   4.897
 8079SOL    HW125136   1.389   1.319   4.886
 8079SOL    HW225137   1.535   1.312   4.814
 8080SOL     OW25138   1.327   3.480   3.078
 8080SOL    HW125139   1.321   3.389   3.121
 8080SOL    HW225140   1.259   3.487   3.006
 8081SOL     OW25141   6.019   4.889   4.893
 8081SOL    HW125142   6.035   4.819   4.823
 8081SOL    HW225143   5.960   4.961   4.857
 8082SOL     OW25144   3.151   1.856   2.575
 8082SOL    HW125145   3.143   1.856   2.475
 8082SOL    HW225146   3.060   1.867   2.615
 8083SOL     OW25147   5.814   2.066   4.745
 8083SOL    HW125148   5.750   2.024   4.810
 8083SOL    HW225149   5.844   2.154   4.781
 8084SOL     OW25150   2.599   0.291   6.494
 8084SOL    HW125151   2.611   0.197   6.524
 8084SOL    HW225152   2.511   0.300   6.447
 8085SOL     OW25153   0.454   5.628   3.871
 8085SOL    HW125154   0.487   5.560   3.938
 8085SOL    HW225155   0.521   5.702   3.864
 8086SOL     OW25156   0.788   1.435   2.161
 8086SOL    HW125157   0.770   1.361   2.097
 8086SOL    HW225158   0.779   1.401   2.255
 8087SOL     OW25159   1.518   0.521   6.925
 8087SOL    HW125160   1.496   0.479   7.013
 8087SOL    HW225161   1.496   0.619   6.928
 8088SOL     OW25162   5.134   6.630   6.284
 8088SOL    HW125163   5.120   6.539   6.244
 8088SOL    HW225164   5.183   6.621   6.370
 8089SOL     OW25165   5.980   2.448   6.420
 8089SOL    HW125166   5.988   2.440   6.321
 8089SOL    HW225167   6.041   2.520   6.453
 8090SOL     OW25168   4.395   1.584   6.369
 8090SOL    HW125169   4.426   1.678   6.386
 8090SOL    HW225170   4.401   1.531   6.453
 8091SOL     OW25171   1.107   4.176   4.858
 8091SOL    HW125172   1.060   4.093   4.888
 8091SOL    HW225173   1.071   4.254   4.909
 8092SOL     OW25174   4.986   2.095   5.518
 8092SOL    HW125175   4.939   2.165   5.572
 8092SOL    HW225176   5.079   2.082   5.554
 8093SOL     OW25177   2.607   6.208   2.736
 8093SOL    HW125178   2.537   6.144   2.770
 8093SOL    HW225179   2.634   6.270   2.810
 8094SOL     OW25180   1.220   4.201   4.367
 8094SOL    HW125181   1.209   4.284   4.422
 8094SOL    HW225182   1.131   4.173   4.331
 8095SOL     OW25183   1.496   4.229   5.447
 8095SOL    HW125184   1.590   4.255   5.426
 8095SOL    HW225185   1.436   4.309   5.439
 8096SOL     OW25186   0.957   6.862   2.449
 8096SOL    HW125187   0.908   6.889   2.366
 8096SOL    HW225188   1.013   6.782   2.429
 8097SOL     OW25189   2.818   6.406   5.170
 8097SOL    HW125190   2.882   6.339   5.133
 8097SOL    HW225191   2.862   6.496   5.171
 8098SOL     OW25192   0.855   5.810   3.805
 8098SOL    HW125193   0.874   5.869   3.884
 8098SOL    HW225194   0.863   5.714   3.831
 8099SOL     OW25195   3.438   5.820   3.985
 8099SOL    HW125196   3.414   5.879   3.908
 8099SOL    HW225197   3.393   5.731   3.975
 8100SOL     OW25198   6.389   0.858   6.186
 8100SOL    HW125199   6.296   0.866   6.152
 8100SOL    HW225200   6.433   0.948   6.186
 8101SOL     OW25201   1.665   6.266   1.023
 8101SOL    HW125202   1.573   6.304   1.040
 8101SOL    HW225203   1.659   6.167   1.014
 8102SOL     OW25204   1.212   2.995   4.608
 8102SOL    HW125205   1.277   3.070   4.596
 8102SOL    HW225206   1.215   2.934   4.529
 8103SOL     OW25207   4.020   1.142   2.325
 8103SOL    HW125208   4.089   1.212   2.345
 8103SOL    HW225209   4.056   1.052   2.351
 8104SOL     OW25210   2.212   6.585   5.908
 8104SOL    HW125211   2.152   6.604   5.831
 8104SOL    HW225212   2.164   6.604   5.994
 8105SOL     OW25213   6.851   2.023   3.082
 8105SOL    HW125214   6.879   1.946   3.139
 8105SOL    HW225215   6.762   2.057   3.112
 8106SOL     OW25216   2.000   6.313   4.367
 8106SOL    HW125217   1.966   6.224   4.399
 8106SOL    HW225218   1.975   6.384   4.433
 8107SOL     OW25219   2.083   5.616   4.390
 8107SOL    HW125220   2.107   5.620   4.293
 8107SOL    HW225221   1.985   5.637   4.400
 8108SOL     OW25222   0.352   0.902   6.399
 8108SOL    HW125223   0.279   0.850   6.355
 8108SOL    HW225224   0.371   0.864   6.489
 8109SOL     OW25225   6.710   3.765   6.509
 8109SOL    HW125226   6.804   3.773   6.477
 8109SOL    HW225227   6.663   3.694   6.457
 8110SOL     OW25228   4.727   4.799   1.007
 8110SOL    HW125229   4.742   4.804   0.908
 8110SOL    HW225230   4.814   4.809   1.054
 8111SOL     OW25231   5.957   0.951   3.274
 8111SOL    HW125232   5.865   0.931   3.309
 8111SOL    HW225233   6.000   1.020   3.333
 8112SOL     OW25234   0.560   2.600   5.107
 8112SOL    HW125235   0.583   2.661   5.032
 8112SOL    HW225236   0.583   2.643   5.194
 8113SOL     OW25237   6.140   2.907   1.124
 8113SOL    HW125238   6.183   2.997   1.132
 8113SOL    HW225239   6.061   2.913   1.064
 8114SOL     OW25240   1.609   4.198   1.833
 8114SOL    HW125241   1.699   4.236   1.813
 8114SOL    HW225242   1.547   4.272   1.860
 8115SOL     OW25243   3.082   6.884   0.163
 8115SOL    HW125244   3.143   6.962   0.177
 8115SOL    HW225245   3.071   6.834   0.249
 8116SOL     OW25246   3.514   5.261   0.989
 8116SOL    HW125247   3.600   5.227   1.027
 8116SOL    HW225248   3.476   5.194   0.925
 8117SOL     OW25249   2.242   7.004   3.073
 8117SOL    HW125250   2.205   6.993   3.166
 8117SOL    HW225251   2.328   6.953   3.066
 8118SOL     OW25252   6.121   3.810   6.613
 8118SOL    HW125253   6.099   3.874   6.687
 8118SOL    HW225254   6.170   3.731   6.650
 8119SOL     OW25255   5.340   5.762   5.490
 8119SOL    HW125256   5.313   5.666   5.498
 8119SOL    HW225257   5.408   5.771   5.418
 8120SOL     OW25258   2.222   5.513   0.756
 8120SOL    HW125259   2.214   5.536   0.659
 8120SOL    HW225260   2.319   5.512   0.782
 8121SOL     OW25261   1.142   4.370   3.053
 8121SOL    HW125262   1.060   4.409   3.013
 8121SOL    HW225263   1.211   4.356   2.981
 8122SOL     OW25264   0.939   4.662   2.651
 8122SOL    HW125265   0.991   4.746   2.636
 8122SOL    HW225266   0.843   4.678   2.629
 8123SOL     OW25267   0.369   1.966   6.946
 8123SOL    HW125268   0.420   1.882   6.965
 8123SOL    HW225269   0.303   1.983   7.020
 8124SOL     OW25270   5.042   6.130   3.959
 8124SOL    HW125271   5.059   6.154   3.863
 8124SOL    HW225272   5.126   6.142   4.012
 8125SOL     OW25273   0.306   0.781   3.006
 8125SOL    HW125274   0.405   0.793   3.014
 8125SOL    HW225275   0.286   0.684   2.988
 8126SOL     OW25276   3.947   4.862   4.143
 8126SOL    HW125277   4.001   4.940   4.111
 8126SOL    HW225278   3.890   4.890   4.219
 8127SOL     OW25279   2.628   2.769   0.405
 8127SOL    HW125280   2.638   2.673   0.379
 8127SOL    HW225281   2.537   2.784   0.443
 8128SOL     OW25282   3.413   2.812   1.576
 8128SOL    HW125283   3.397   2.790   1.480
 8128SOL    HW225284   3.367   2.745   1.634
 8129SOL     OW25285   1.016   2.308   0.440
 8129SOL    HW125286   1.035   2.264   0.352
 8129SOL    HW225287   1.091   2.287   0.503
 8130SOL     OW25288   1.362   5.276   0.137
 8130SOL    HW125289   1.371   5.332   0.054
 8130SOL    HW225290   1.285   5.214   0.126
 8131SOL     OW25291   2.338   2.664   0.757
 8131SOL    HW125292   2.382   2.624   0.838
 8131SOL    HW225293   2.291   2.748   0.784
 8132SOL     OW25294   6.464   0.055   4.022
 8132SOL    HW125295   6.493   0.047   4.117
 8132SOL    HW225296   6.467   0.151   3.995
 8133SOL     OW25297   3.759   5.097   1.292
 8133SOL    HW125298   3.671   5.054   1.312
 8133SOL    HW225299   3.822   5.029   1.257
 8134SOL     OW25300   6.481   1.075   5.751
 8134SOL    HW125301   6.482   1.141   5.676
 8134SOL    HW225302   6.434   0.992   5.722
 8135SOL     OW25303   2.748   0.138   1.937
 8135SOL    HW125304   2.677   0.186   1.989
 8135SOL    HW225305   2.707   0.101   1.853
 8136SOL     OW25306   5.052   5.267   2.608
 8136SOL    HW125307   4.962   5.238   2.577
 8136SOL    HW225308   5.114   5.274   2.529
 8137SOL     OW25309   3.747   1.677   5.347
 8137SOL    HW125310   3.665   1.733   5.337
 8137SOL    HW225311   3.721   1.581   5.361
 8138SOL     OW25312   5.413   1.232   1.689
 8138SOL    HW125313   5.356   1.310   1.712
 8138SOL    HW225314   5.507   1.262   1.674
 8139SOL     OW25315   1.502   1.541   2.808
 8139SOL    HW125316   1.452   1.624   2.785
 8139SOL    HW225317   1.586   1.536   2.754
 8140SOL     OW25318   4.716   1.268   4.664
 8140SOL    HW125319   4.680   1.201   4.600
 8140SOL    HW225320   4.644   1.295   4.728
 8141SOL     OW25321   4.240   5.395   5.753
 8141SOL    HW125322   4.186   5.418   5.672
 8141SOL    HW225323   4.207   5.308   5.791
 8142SOL     OW25324   6.153   4.680   0.454
 8142SOL    HW125325   6.134   4.626   0.537
 8142SOL    HW225326   6.252   4.683   0.440
 8143SOL     OW25327   5.990   4.365   5.975
 8143SOL    HW125328   5.897   4.397   5.997
 8143SOL    HW225329   5.991   4.265   5.974
 8144SOL     OW25330   5.502   6.536   6.759
 8144SOL    HW125331   5.462   6.606   6.818
 8144SOL    HW225332   5.505   6.570   6.665
 8145SOL     OW25333   5.889   6.016   3.204
 8145SOL    HW125334   5.809   5.973   3.244
 8145SOL    HW225335   5.947   5.947   3.161
 8146SOL     OW25336   3.910   0.977   5.751
 8146SOL    HW125337   3.979   0.962   5.681
 8146SOL    HW225338   3.821   0.993   5.708
 8147SOL     OW25339   4.521   1.874   4.227
 8147SOL    HW125340   4.561   1.784   4.246
 8147SOL    HW225341   4.586   1.930   4.176
 8148SOL     OW25342   5.491   2.479   2.573
 8148SOL    HW125343   5.492   2.393   2.625
 8148SOL    HW225344   5.404   2.526   2.589
 8149SOL     OW25345   3.848   5.060   2.571
 8149SOL    HW125346   3.816   5.117   2.495
 8149SOL    HW225347   3.894   5.118   2.639
 8150SOL     OW25348   0.598   5.198   0.709
 8150SOL    HW125349   0.554   5.242   0.788
 8150SOL    HW225350   0.635   5.269   0.649
 8151SOL     OW25351   1.262   2.281   4.105
 8151SOL    HW125352   1.202   2.250   4.031
 8151SOL    HW225353   1.269   2.381   4.102
 8152SOL     OW25354   2.277   0.816   3.585
 8152SOL    HW125355   2.307   0.858   3.499
 8152SOL    HW225356   2.178   0.823   3.593
 8153SOL     OW25357   2.673   0.287   1.570
 8153SOL    HW125358   2.722   0.374   1.565
 8153SOL    HW225359   2.636   0.264   1.480
 8154SOL     OW25360   2.190   6.495   4.057
 8154SOL    HW125361   2.123   6.422   4.041
 8154SOL    HW225362   2.165   6.575   4.002
 8155SOL     OW25363   3.275   2.867   2.140
 8155SOL    HW125364   3.268   2.922   2.223
 8155SOL    HW225365   3.226   2.781   2.153
 8156SOL     OW25366   5.913   0.700   5.306
 8156SOL    HW125367   5.829   0.711   5.359
 8156SOL    HW225368   5.977   0.643   5.358
 8157SOL     OW25369   5.983   4.074   6.314
 8157SOL    HW125370   6.067   4.062   6.368
 8157SOL    HW225371   5.908   4.026   6.360
 8158SOL     OW25372   0.893   5.720   1.316
 8158SOL    HW125373   0.827   5.783   1.356
 8158SOL    HW225374   0.974   5.770   1.287
 8159SOL     OW25375   2.034   5.106   1.806
 8159SOL    HW125376   2.095   5.088   1.729
 8159SOL    HW225377   2.044   5.202   1.834
 8160SOL     OW25378   4.111   2.234   1.080
 8160SOL    HW125379   4.035   2.202   1.024
 8160SOL    HW225380   4.155   2.156   1.124
 8161SOL     OW25381   4.813   1.230   0.170
 8161SOL    HW125382   4.716   1.235   0.148
 8161SOL    HW225383   4.844   1.317   0.207
 8162SOL     OW25384   5.789   6.748   0.786
 8162SOL    HW125385   5.834   6.698   0.713
 8162SOL    HW225386   5.857   6.775   0.854
 8163SOL     OW25387   2.459   4.417   5.191
 8163SOL    HW125388   2.490   4.325   5.214
 8163SOL    HW225389   2.531   4.483   5.215
 8164SOL     OW25390   4.564   2.297   1.098
 8164SOL    HW125391   4.564   2.370   1.166
 8164SOL    HW225392   4.615   2.218   1.133
 8165SOL     OW25393   2.025   3.975   1.313
 8165SOL    HW125394   1.957   4.042   1.282
 8165SOL    HW225395   1.982   3.886   1.323
 8166SOL     OW25396   2.605   0.689   2.227
 8166SOL    HW125397   2.651   0.613   2.181
 8166SOL    HW225398   2.506   0.678   2.219
 8167SOL     OW25399   6.119   2.860   3.496
 8167SOL    HW125400   6.188   2.802   3.452
 8167SOL    HW225401   6.040   2.870   3.436
 8168SOL     OW25402   3.985   1.648   3.246
 8168SOL    HW125403   3.891   1.654   3.212
 8168SOL    HW225404   4.017   1.554   3.237
 8169SOL     OW25405   4.248   3.686   6.730
 8169SOL    HW125406   4.214   3.764   6.782
 8169SOL    HW225407   4.187   3.608   6.744
 8170SOL     OW25408   0.862   5.919   4.079
 8170SOL    HW125409   0.799   5.930   4.156
 8170SOL    HW225410   0.934   5.988   4.085
 8171SOL     OW25411   0.490   1.733   6.560
 8171SOL    HW125412   0.512   1.783   6.477
 8171SOL    HW225413   0.449   1.795   6.627
 8172SOL     OW25414   0.136   0.036   0.153
 8172SOL    HW125415   0.130   0.038   0.253
 8172SOL    HW225416   0.204   0.103   0.122
 8173SOL     OW25417   3.379   2.631   6.993
 8173SOL    HW125418   3.417   2.694   0.040
 8173SOL    HW225419   3.450   2.569   6.961
 8174SOL     OW25420   5.500   1.288   1.303
 8174SOL    HW125421   5.530   1.241   1.220
 8174SOL    HW225422   5.580   1.314   1.357
 8175SOL     OW25423   0.539   1.823   6.287
 8175SOL    HW125424   0.624   1.876   6.278
 8175SOL    HW225425   0.461   1.885   6.276
 8176SOL     OW25426   2.438   5.385   1.810
 8176SOL    HW125427   2.480   5.387   1.719
 8176SOL    HW225428   2.496   5.332   1.872
 8177SOL     OW25429   0.893   6.835   4.515
 8177SOL    HW125430   0.816   6.816   4.577
 8177SOL    HW225431   0.871   6.915   4.459
 8178SOL     OW25432   1.318   6.531   6.793
 8178SOL    HW125433   1.309   6.437   6.760
 8178SOL    HW225434   1.360   6.531   6.883
 8179SOL     OW25435   3.173   3.022   6.854
 8179SOL    HW125436   3.155   3.078   6.772
 8179SOL    HW225437   3.227   3.076   6.919
 8180SOL     OW25438   6.624   6.772   4.375
 8180SOL    HW125439   6.601   6.675   4.387
 8180SOL    HW225440   6.693   6.799   4.443
 8181SOL     OW25441   2.619   2.418   3.245
 8181SOL    HW125442   2.645   2.398   3.340
 8181SOL    HW225443   2.701   2.421   3.189
 8182SOL     OW25444   3.585   2.088   5.425
 8182SOL    HW125445   3.657   2.145   5.464
 8182SOL    HW225446   3.511   2.146   5.392
 8183SOL     OW25447   1.241   3.693   4.678
 8183SOL    HW125448   1.213   3.667   4.586
 8183SOL    HW225449   1.161   3.727   4.728
 8184SOL     OW25450   0.325   0.276   5.468
 8184SOL    HW125451   0.336   0.222   5.552
 8184SOL    HW225452   0.229   0.299   5.456
 8185SOL     OW25453   3.129   1.659   2.294
 8185SOL    HW125454   3.223   1.665   2.261
 8185SOL    HW225455   3.091   1.751   2.302
 8186SOL     OW25456   3.995   5.785   6.047
 8186SOL    HW125457   4.084   5.806   6.087
 8186SOL    HW225458   3.961   5.865   5.997
 8187SOL     OW25459   1.278   2.334   5.596
 8187SOL    HW125460   1.203   2.395   5.621
 8187SOL    HW225461   1.365   2.382   5.607
 8188SOL     OW25462   5.908   2.443   3.041
 8188SOL    HW125463   6.008   2.438   3.038
 8188SOL    HW225464   5.875   2.398   3.124
 8189SOL     OW25465   6.038   4.466   2.694
 8189SOL    HW125466   6.111   4.398   2.703
 8189SOL    HW225467   5.949   4.421   2.697
 8190SOL     OW25468   5.295   3.209   3.810
 8190SOL    HW125469   5.276   3.303   3.781
 8190SOL    HW225470   5.223   3.178   3.872
 8191SOL     OW25471   0.538   5.107   4.245
 8191SOL    HW125472   0.487   5.022   4.256
 8191SOL    HW225473   0.635   5.089   4.261
 8192SOL     OW25474   2.496   4.929   2.071
 8192SOL    HW125475   2.464   5.024   2.074
 8192SOL    HW225476   2.422   4.868   2.098
 8193SOL     OW25477   4.085   6.907   5.112
 8193SOL    HW125478   4.092   7.003   5.137
 8193SOL    HW225479   3.989   6.885   5.093
 8194SOL     OW25480   6.761   0.599   0.092
 8194SOL    HW125481   6.759   0.698   0.110
 8194SOL    HW225482   6.855   0.571   0.072
 8195SOL     OW25483   6.569   0.002   0.336
 8195SOL    HW125484   6.567   0.003   0.436
 8195SOL    HW225485   6.646   0.058   0.305
 8196SOL     OW25486   3.240   6.435   6.464
 8196SOL    HW125487   3.297   6.377   6.406
 8196SOL    HW225488   3.298   6.500   6.514
 8197SOL     OW25489   0.308   0.539   6.412
 8197SOL    HW125490   0.240   0.612   6.404
 8197SOL    HW225491   0.308   0.504   6.505
 8198SOL     OW25492   2.436   6.640   3.193
 8198SOL    HW125493   2.472   6.599   3.277
 8198SOL    HW225494   2.343   6.673   3.209
 8199SOL     OW25495   6.987   3.321   6.568
 8199SOL    HW125496   0.052   3.288   6.608
 8199SOL    HW225497   7.003   3.408   6.523
 8200SOL     OW25498   5.126   4.197   1.138
 8200SOL    HW125499   5.095   4.211   1.232
 8200SOL    HW225500   5.223   4.175   1.138
 8201SOL     OW25501   5.935   6.963   3.639
 8201SOL    HW125502   5.836   6.976   3.636
 8201SOL    HW225503   5.976   7.006   3.559
 8202SOL     OW25504   1.638   4.271   4.054
 8202SOL    HW125505   1.592   4.209   3.991
 8202SOL    HW225506   1.736   4.270   4.036
 8203SOL     OW25507   5.882   3.963   1.356
 8203SOL    HW125508   5.862   3.942   1.452
 8203SOL    HW225509   5.800   3.948   1.301
 8204SOL     OW25510   3.241   0.349   2.155
 8204SOL    HW125511   3.331   0.391   2.167
 8204SOL    HW225512   3.227   0.326   2.058
 8205SOL     OW25513   5.501   5.588   1.644
 8205SOL    HW125514   5.449   5.672   1.629
 8205SOL    HW225515   5.494   5.529   1.564
 8206SOL     OW25516   4.068   1.959   5.233
 8206SOL    HW125517   4.160   1.921   5.218
 8206SOL    HW225518   4.027   1.916   5.314
 8207SOL     OW25519   2.620   5.398   6.645
 8207SOL    HW125520   2.678   5.358   6.716
 8207SOL    HW225521   2.656   5.372   6.555
 8208SOL     OW25522   1.318   4.466   0.878
 8208SOL    HW125523   1.312   4.384   0.935
 8208SOL    HW225524   1.409   4.506   0.887
 8209SOL     OW25525   0.908   0.238   5.383
 8209SOL    HW125526   0.850   0.212   5.306
 8209SOL    HW225527   0.850   0.268   5.460
 8210SOL     OW25528   2.253   1.245   0.100
 8210SOL    HW125529   2.157   1.272   0.106
 8210SOL    HW225530   2.274   1.179   0.172
 8211SOL     OW25531   3.345   2.983   4.168
 8211SOL    HW125532   3.436   2.965   4.132
 8211SOL    HW225533   3.322   2.915   4.237
 8212SOL     OW25534   3.260   0.264   1.271
 8212SOL    HW125535   3.282   0.337   1.336
 8212SOL    HW225536   3.166   0.233   1.286
 8213SOL     OW25537   4.625   4.178   1.652
 8213SOL    HW125538   4.690   4.254   1.649
 8213SOL    HW225539   4.558   4.194   1.723
 8214SOL     OW25540   3.576   5.514   4.399
 8214SOL    HW125541   3.606   5.484   4.309
 8214SOL    HW225542   3.568   5.435   4.460
 8215SOL     OW25543   4.380   6.365   6.712
 8215SOL    HW125544   4.292   6.411   6.725
 8215SOL    HW225545   4.453   6.424   6.748
 8216SOL     OW25546   5.132   5.522   1.334
 8216SOL    HW125547   5.157   5.466   1.413
 8216SOL    HW225548   5.041   5.562   1.350
 8217SOL     OW25549   2.003   5.873   3.700
 8217SOL    HW125550   1.997   5.901   3.604
 8217SOL    HW225551   1.957   5.940   3.758
 8218SOL     OW25552   1.649   0.225   5.495
 8218SOL    HW125553   1.557   0.239   5.530
 8218SOL    HW225554   1.649   0.238   5.395
 8219SOL     OW25555   3.687   3.910   1.364
 8219SOL    HW125556   3.713   3.894   1.269
 8219SOL    HW225557   3.707   3.829   1.419
 8220SOL     OW25558   3.992   3.722   3.926
 8220SOL    HW125559   4.020   3.626   3.930
 8220SOL    HW225560   3.969   3.754   4.018
 8221SOL     OW25561   5.597   3.198   3.114
 8221SOL    HW125562   5.546   3.150   3.043
 8221SOL    HW225563   5.547   3.194   3.200
 8222SOL     OW25564   6.385   3.041   0.580
 8222SOL    HW125565   6.380   3.016   0.677
 8222SOL    HW225566   6.323   3.117   0.562
 8223SOL     OW25567   0.591   6.020   5.187
 8223SOL    HW125568   0.680   5.985   5.156
 8223SOL    HW225569   0.602   6.114   5.219
 8224SOL     OW25570   5.662   1.986   0.550
 8224SOL    HW125571   5.736   2.031   0.599
 8224SOL    HW225572   5.690   1.894   0.525
 8225SOL     OW25573   5.092   1.451   0.688
 8225SOL    HW125574   5.025   1.505   0.740
 8225SOL    HW225575   5.180   1.499   0.689
 8226SOL     OW25576   3.943   0.122   0.357
 8226SOL    HW125577   3.938   0.089   0.451
 8226SOL    HW225578   3.863   0.090   0.306
 8227SOL     OW25579   4.887   2.078   3.020
 8227SOL    HW125580   4.797   2.087   3.063
 8227SOL    HW225581   4.918   1.984   3.028
 8228SOL     OW25582   1.910   0.595   5.516
 8228SOL    HW125583   1.811   0.605   5.523
 8228SOL    HW225584   1.949   0.587   5.608
 8229SOL     OW25585   4.593   4.369   1.304
 8229SOL    HW125586   4.610   4.290   1.362
 8229SOL    HW225587   4.649   4.445   1.334
 8230SOL     OW25588   5.355   0.298   5.901
 8230SOL    HW125589   5.431   0.276   5.962
 8230SOL    HW225590   5.374   0.261   5.810
 8231SOL     OW25591   2.649   1.470   3.036
 8231SOL    HW125592   2.550   1.463   3.030
 8231SOL    HW225593   2.674   1.563   3.065
 8232SOL     OW25594   3.795   6.312   2.811
 8232SOL    HW125595   3.835   6.404   2.809
 8232SOL    HW225596   3.740   6.298   2.729
 8233SOL     OW25597   1.013   1.100   5.683
 8233SOL    HW125598   0.975   1.021   5.633
 8233SOL    HW225599   0.942   1.170   5.692
 8234SOL     OW25600   1.809   1.738   0.704
 8234SOL    HW125601   1.853   1.718   0.792
 8234SOL    HW225602   1.839   1.672   0.635
 8235SOL     OW25603   0.089   5.739   0.850
 8235SOL    HW125604   0.002   5.692   0.863
 8235SOL    HW225605   0.163   5.682   0.886
 8236SOL     OW25606   0.584   6.365   0.277
 8236SOL    HW125607   0.586   6.461   0.305
 8236SOL    HW225608   0.676   6.326   0.283
 8237SOL     OW25609   4.626   5.064   6.806
 8237SOL    HW125610   4.601   4.967   6.812
 8237SOL    HW225611   4.670   5.093   6.891
 8238SOL     OW25612   0.742   4.221   0.187
 8238SOL    HW125613   0.721   4.123   0.188
 8238SOL    HW225614   0.702   4.263   0.106
 8239SOL     OW25615   1.443   1.110   5.130
 8239SOL    HW125616   1.458   1.174   5.055
 8239SOL    HW225617   1.398   1.157   5.205
 8240SOL     OW25618   3.518   3.671   4.462
 8240SOL    HW125619   3.511   3.769   4.448
 8240SOL    HW225620   3.497   3.650   4.558
 8241SOL     OW25621   2.257   4.040   5.890
 8241SOL    HW125622   2.348   4.064   5.855
 8241SOL    HW225623   2.262   3.951   5.936
 8242SOL     OW25624   0.550   3.423   3.887
 8242SOL    HW125625   0.510   3.473   3.965
 8242SOL    HW225626   0.642   3.394   3.910
 8243SOL     OW25627   0.594   4.887   4.791
 8243SOL    HW125628   0.648   4.832   4.727
 8243SOL    HW225629   0.579   4.835   4.875
 8244SOL     OW25630   1.189   0.388   4.391
 8244SOL    HW125631   1.195   0.293   4.421
 8244SOL    HW225632   1.113   0.433   4.437
 8245SOL     OW25633   5.324   1.743   3.989
 8245SOL    HW125634   5.328   1.645   3.974
 8245SOL    HW225635   5.417   1.780   3.990
 8246SOL     OW25636   2.058   5.199   6.390
 8246SOL    HW125637   1.999   5.262   6.441
 8246SOL    HW225638   2.149   5.237   6.382
 8247SOL     OW25639   3.189   5.234   3.010
 8247SOL    HW125640   3.217   5.296   2.936
 8247SOL    HW225641   3.146   5.152   2.970
 8248SOL     OW25642   0.411   5.214   2.902
 8248SOL    HW125643   0.493   5.262   2.933
 8248SOL    HW225644   0.438   5.135   2.847
 8249SOL     OW25645   2.972   1.924   6.224
 8249SOL    HW125646   2.970   2.021   6.200
 8249SOL    HW225647   3.015   1.872   6.150
 8250SOL     OW25648   1.544   1.343   6.427
 8250SOL    HW125649   1.531   1.422   6.486
 8250SOL    HW225650   1.575   1.265   6.481
 8251SOL     OW25651   0.195   1.949   4.536
 8251SOL    HW125652   0.193   2.021   4.467
 8251SOL    HW225653   0.213   1.861   4.492
 8252SOL     OW25654   1.454   2.165   6.501
 8252SOL    HW125655   1.407   2.173   6.413
 8252SOL    HW225656   1.400   2.110   6.564
 8253SOL     OW25657   4.698   6.064   1.084
 8253SOL    HW125658   4.785   6.105   1.058
 8253SOL    HW225659   4.644   6.045   1.001
 8254SOL     OW25660   4.994   4.876   6.849
 8254SOL    HW125661   5.040   4.869   6.937
 8254SOL    HW225662   5.019   4.798   6.792
 8255SOL     OW25663   0.847   6.437   6.659
 8255SOL    HW125664   0.790   6.434   6.576
 8255SOL    HW225665   0.796   6.395   6.735
 8256SOL     OW25666   1.598   5.863   3.515
 8256SOL    HW125667   1.590   5.953   3.558
 8256SOL    HW225668   1.644   5.872   3.427
 8257SOL     OW25669   4.982   3.553   2.913
 8257SOL    HW125670   4.920   3.484   2.876
 8257SOL    HW225671   4.935   3.641   2.917
 8258SOL     OW25672   6.934   3.153   2.292
 8258SOL    HW125673   6.911   3.056   2.291
 8258SOL    HW225674   0.013   3.163   2.281
 8259SOL     OW25675   4.710   1.386   4.354
 8259SOL    HW125676   4.809   1.369   4.351
 8259SOL    HW225677   4.665   1.310   4.402
 8260SOL     OW25678   4.300   1.530   1.143
 8260SOL    HW125679   4.397   1.524   1.165
 8260SOL    HW225680   4.267   1.440   1.113
 8261SOL     OW25681   5.711   0.377   2.983
 8261SOL    HW125682   5.706   0.277   2.984
 8261SOL    HW225683   5.790   0.407   3.036
 8262SOL     OW25684   6.144   3.963   2.010
 8262SOL    HW125685   6.140   4.062   2.025
 8262SOL    HW225686   6.178   3.918   2.093
 8263SOL     OW25687   6.946   2.165   6.309
 8263SOL    HW125688   6.887   2.086   6.291
 8263SOL    HW225689   6.976   2.163   6.404
 8264SOL     OW25690   2.610   6.901   2.481
 8264SOL    HW125691   2.532   6.897   2.419
 8264SOL    HW225692   2.662   6.816   2.474
 8265SOL     OW25693   5.037   0.197   0.584
 8265SOL    HW125694   4.950   0.199   0.534
 8265SOL    HW225695   5.108   0.155   0.528
 8266SOL     OW25696   2.664   0.747   3.837
 8266SOL    HW125697   2.715   0.748   3.923
 8266SOL    HW225698   2.622   0.837   3.823
 8267SOL     OW25699   1.496   4.156   3.213
 8267SOL    HW125700   1.429   4.225   3.188
 8267SOL    HW225701   1.549   4.129   3.132
 8268SOL     OW25702   2.892   4.731   6.366
 8268SOL    HW125703   2.929   4.663   6.303
 8268SOL    HW225704   2.957   4.746   6.440
 8269SOL     OW25705   5.594   2.343   3.673
 8269SOL    HW125706   5.526   2.270   3.670
 8269SOL    HW225707   5.680   2.306   3.710
 8270SOL     OW25708   3.785   0.410   5.967
 8270SOL    HW125709   3.737   0.378   6.049
 8270SOL    HW225710   3.815   0.330   5.914
 8271SOL     OW25711   3.902   6.163   6.096
 8271SOL    HW125712   3.913   6.253   6.053
 8271SOL    HW225713   3.807   6.150   6.122
 8272SOL     OW25714   0.869   0.343   1.553
 8272SOL    HW125715   0.771   0.330   1.568
 8272SOL    HW225716   0.921   0.289   1.619
 8273SOL     OW25717   3.666   0.535   6.564
 8273SOL    HW125718   3.665   0.458   6.628
 8273SOL    HW225719   3.591   0.525   6.499
 8274SOL     OW25720   5.119   5.905   5.933
 8274SOL    HW125721   5.160   5.863   5.852
 8274SOL    HW225722   5.190   5.931   5.997
 8275SOL     OW25723   5.228   0.841   3.898
 8275SOL    HW125724   5.323   0.873   3.890
 8275SOL    HW225725   5.197   0.806   3.810
 8276SOL     OW25726   0.232   2.440   6.378
 8276SOL    HW125727   0.141   2.451   6.418
 8276SOL    HW225728   0.270   2.530   6.356
 8277SOL     OW25729   1.191   5.971   6.166
 8277SOL    HW125730   1.127   5.947   6.240
 8277SOL    HW225731   1.271   6.017   6.205
 8278SOL     OW25732   3.821   1.130   0.686
 8278SOL    HW125733   3.855   1.043   0.651
 8278SOL    HW225734   3.865   1.205   0.638
 8279SOL     OW25735   5.180   5.008   5.961
 8279SOL    HW125736   5.279   5.014   5.979
 8279SOL    HW225737   5.142   5.099   5.951
 8280SOL     OW25738   4.947   3.114   0.131
 8280SOL    HW125739   4.984   3.111   0.039
 8280SOL    HW225740   4.924   3.209   0.155
 8281SOL     OW25741   2.351   5.116   0.013
 8281SOL    HW125742   2.359   5.018   7.020
 8281SOL    HW225743   2.284   5.135   0.084
 8282SOL     OW25744   3.041   2.631   0.470
 8282SOL    HW125745   2.981   2.709   0.451
 8282SOL    HW225746   3.036   2.608   0.568
 8283SOL     OW25747   0.279   5.570   3.056
 8283SOL    HW125748   0.246   5.655   3.098
 8283SOL    HW225749   0.201   5.511   3.038
 8284SOL     OW25750   2.765   1.915   2.187
 8284SOL    HW125751   2.718   1.827   2.183
 8284SOL    HW225752   2.806   1.935   2.098
 8285SOL     OW25753   3.305   4.444   6.129
 8285SOL    HW125754   3.402   4.423   6.129
 8285SOL    HW225755   3.277   4.473   6.221
 8286SOL     OW25756   5.406   1.017   5.515
 8286SOL    HW125757   5.488   0.999   5.459
 8286SOL    HW225758   5.394   0.943   5.581
 8287SOL     OW25759   2.259   0.572   3.201
 8287SOL    HW125760   2.233   0.668   3.194
 8287SOL    HW225761   2.180   0.515   3.175
 8288SOL     OW25762   1.663   1.083   2.915
 8288SOL    HW125763   1.763   1.087   2.923
 8288SOL    HW225764   1.624   1.172   2.940
 8289SOL     OW25765   6.634   1.678   6.121
 8289SOL    HW125766   6.636   1.584   6.154
 8289SOL    HW225767   6.557   1.688   6.057
 8290SOL     OW25768   4.519   2.714   1.543
 8290SOL    HW125769   4.599   2.770   1.524
 8290SOL    HW225770   4.439   2.773   1.552
 8291SOL     OW25771   4.841   4.625   6.407
 8291SOL    HW125772   4.749   4.605   6.443
 8291SOL    HW225773   4.892   4.540   6.395
 8292SOL     OW25774   0.573   3.851   4.502
 8292SOL    HW125775   0.593   3.753   4.489
 8292SOL    HW225776   0.491   3.875   4.450
 8293SOL     OW25777   2.782   5.025   3.667
 8293SOL    HW125778   2.824   5.093   3.727
 8293SOL    HW225779   2.683   5.038   3.666
 8294SOL     OW25780   4.860   3.161   5.872
 8294SOL    HW125781   4.896   3.254   5.862
 8294SOL    HW225782   4.780   3.150   5.813
 8295SOL     OW25783   5.164   3.928   2.466
 8295SOL    HW125784   5.097   4.001   2.454
 8295SOL    HW225785   5.253   3.969   2.487
 8296SOL     OW25786   4.018   6.398   1.607
 8296SOL    HW125787   3.951   6.464   1.575
 8296SOL    HW225788   4.057   6.430   1.693
 8297SOL     OW25789   5.597   4.186   2.772
 8297SOL    HW125790   5.603   4.205   2.870
 8297SOL    HW225791   5.632   4.094   2.753
 8298SOL     OW25792   6.436   0.039   5.976
 8298SOL    HW125793   6.412   0.135   5.963
 8298SOL    HW225794   6.516   0.017   5.921
 8299SOL     OW25795   0.557   3.544   0.966
 8299SOL    HW125796   0.472   3.591   0.990
 8299SOL    HW225797   0.634   3.607   0.980
 8300SOL     OW25798   5.690   4.831   2.902
 8300SOL    HW125799   5.759   4.790   2.963
 8300SOL    HW225800   5.637   4.898   2.954
 8301SOL     OW25801   4.509   6.574   0.629
 8301SOL    HW125802   4.568   6.559   0.708
 8301SOL    HW225803   4.527   6.665   0.591
 8302SOL     OW25804   3.833   6.664   5.250
 8302SOL    HW125805   3.851   6.681   5.154
 8302SOL    HW225806   3.742   6.698   5.274
 8303SOL     OW25807   0.022   6.413   2.795
 8303SOL    HW125808   6.944   6.409   2.810
 8303SOL    HW225809   0.059   6.495   2.838
 8304SOL     OW25810   5.123   3.807   3.284
 8304SOL    HW125811   5.071   3.722   3.277
 8304SOL    HW225812   5.104   3.865   3.205
 8305SOL     OW25813   4.564   6.564   4.627
 8305SOL    HW125814   4.468   6.542   4.608
 8305SOL    HW225815   4.603   6.494   4.686
 8306SOL     OW25816   7.014   1.003   2.371
 8306SOL    HW125817   6.961   1.079   2.408
 8306SOL    HW225818   0.032   1.029   2.282
 8307SOL     OW25819   1.623   3.810   3.205
 8307SOL    HW125820   1.588   3.762   3.126
 8307SOL    HW225821   1.594   3.764   3.289
 8308SOL     OW25822   1.310   5.644   1.059
 8308SOL    HW125823   1.362   5.666   0.977
 8308SOL    HW225824   1.261   5.558   1.047
 8309SOL     OW25825   5.517   4.475   4.251
 8309SOL    HW125826   5.540   4.512   4.161
 8309SOL    HW225827   5.486   4.380   4.241
 8310SOL     OW25828   1.007   0.071   0.208
 8310SOL    HW125829   0.956   0.153   0.183
 8310SOL    HW225830   1.105   0.088   0.198
 8311SOL     OW25831   6.090   6.838   3.301
 8311SOL    HW125832   6.143   6.922   3.312
 8311SOL    HW225833   5.998   6.860   3.269
 8312SOL     OW25834   5.455   1.569   0.250
 8312SOL    HW125835   5.365   1.596   0.286
 8312SOL    HW225836   5.471   1.613   0.162
 8313SOL     OW25837   5.198   2.136   5.001
 8313SOL    HW125838   5.146   2.120   5.085
 8313SOL    HW225839   5.135   2.157   4.926
 8314SOL     OW25840   4.820   6.196   5.121
 8314SOL    HW125841   4.874   6.148   5.052
 8314SOL    HW225842   4.824   6.146   5.208
 8315SOL     OW25843   3.409   3.693   4.939
 8315SOL    HW125844   3.370   3.668   5.028
 8315SOL    HW225845   3.509   3.702   4.949
 8316SOL     OW25846   2.358   2.743   6.180
 8316SOL    HW125847   2.289   2.804   6.140
 8316SOL    HW225848   2.426   2.721   6.111
 8317SOL     OW25849   2.198   1.198   3.712
 8317SOL    HW125850   2.270   1.156   3.767
 8317SOL    HW225851   2.113   1.146   3.723
 8318SOL     OW25852   4.002   0.244   6.943
 8318SOL    HW125853   3.964   0.292   0.002
 8318SOL    HW225854   4.096   0.216   6.963
 8319SOL     OW25855   1.420   6.789   6.536
 8319SOL    HW125856   1.499   6.731   6.555
 8319SOL    HW225857   1.406   6.795   6.437
 8320SOL     OW25858   2.949   3.304   4.613
 8320SOL    HW125859   2.926   3.293   4.516
 8320SOL    HW225860   2.974   3.215   4.651
 8321SOL     OW25861   0.423   6.786   1.691
 8321SOL    HW125862   0.357   6.861   1.695
 8321SOL    HW225863   0.375   6.699   1.683
 8322SOL     OW25864   1.043   6.882   6.779
 8322SOL    HW125865   1.090   6.809   6.730
 8322SOL    HW225866   1.108   6.955   6.800
 8323SOL     OW25867   5.218   3.970   0.525
 8323SOL    HW125868   5.276   3.897   0.560
 8323SOL    HW225869   5.261   4.013   0.445
 8324SOL     OW25870   5.062   5.946   6.305
 8324SOL    HW125871   5.146   5.997   6.284
 8324SOL    HW225872   5.086   5.853   6.333
 8325SOL     OW25873   1.007   5.428   6.155
 8325SOL    HW125874   1.004   5.516   6.108
 8325SOL    HW225875   0.938   5.368   6.116
 8326SOL     OW25876   1.415   3.912   1.285
 8326SOL    HW125877   1.337   3.964   1.252
 8326SOL    HW225878   1.389   3.816   1.297
 8327SOL     OW25879   0.676   0.074   4.736
 8327SOL    HW125880   0.708   0.157   4.783
 8327SOL    HW225881   0.586   0.091   4.697
 8328SOL     OW25882   1.316   0.009   6.961
 8328SOL    HW125883   1.386   0.009   0.011
 8328SOL    HW225884   1.237   0.062   6.992
 8329SOL     OW25885   1.690   2.830   4.967
 8329SOL    HW125886   1.736   2.884   5.038
 8329SOL    HW225887   1.718   2.734   4.976
 8330SOL     OW25888   3.892   1.197   5.958
 8330SOL    HW125889   3.899   1.116   5.900
 8330SOL    HW225890   3.834   1.177   6.037
 8331SOL     OW25891   1.951   2.615   6.096
 8331SOL    HW125892   1.911   2.543   6.039
 8331SOL    HW225893   1.933   2.596   6.192
 8332SOL     OW25894   6.051   5.230   1.836
 8332SOL    HW125895   6.061   5.135   1.867
 8332SOL    HW225896   5.960   5.263   1.858
 8333SOL     OW25897   2.354   4.608   1.224
 8333SOL    HW125898   2.403   4.522   1.210
 8333SOL    HW225899   2.256   4.590   1.232
 8334SOL     OW25900   3.725   1.852   6.101
 8334SOL    HW125901   3.655   1.786   6.074
 8334SOL    HW225902   3.684   1.943   6.106
 8335SOL     OW25903   5.395   3.638   6.065
 8335SOL    HW125904   5.449   3.721   6.082
 8335SOL    HW225905   5.304   3.648   6.107
 8336SOL     OW25906   0.810   4.169   3.825
 8336SOL    HW125907   0.870   4.194   3.749
 8336SOL    HW225908   0.830   4.076   3.856
 8337SOL     OW25909   0.772   1.330   4.959
 8337SOL    HW125910   0.859   1.304   4.917
 8337SOL    HW225911   0.709   1.253   4.956
 8338SOL     OW25912   4.519   5.709   2.332
 8338SOL    HW125913   4.425   5.722   2.362
 8338SOL    HW225914   4.579   5.704   2.412
 8339SOL     OW25915   6.118   6.419   0.680
 8339SOL    HW125916   6.085   6.372   0.763
 8339SOL    HW225917   6.193   6.480   0.705
 8340SOL     OW25918   5.909   2.350   6.882
 8340SOL    HW125919   5.830   2.410   6.895
 8340SOL    HW225920   5.928   2.301   6.967
 8341SOL     OW25921   3.127   0.784   0.643
 8341SOL    HW125922   3.178   0.850   0.698
 8341SOL    HW225923   3.096   0.828   0.559
 8342SOL     OW25924   4.993   0.392   0.107
 8342SOL    HW125925   4.971   0.301   0.072
 8342SOL    HW225926   4.921   0.456   0.080
 8343SOL     OW25927   6.042   4.070   3.461
 8343SOL    HW125928   6.101   4.078   3.380
 8343SOL    HW225929   6.095   4.034   3.537
 8344SOL     OW25930   1.401   5.019   5.288
 8344SOL    HW125931   1.468   4.953   5.257
 8344SOL    HW225932   1.445   5.088   5.345
 8345SOL     OW25933   4.477   1.287   3.616
 8345SOL    HW125934   4.425   1.355   3.565
 8345SOL    HW225935   4.573   1.315   3.621
 8346SOL     OW25936   5.778   2.910   5.075
 8346SOL    HW125937   5.833   2.956   5.145
 8346SOL    HW225938   5.717   2.844   5.119
 8347SOL     OW25939   2.973   0.179   6.996
 8347SOL    HW125940   2.944   0.084   7.012
 8347SOL    HW225941   2.936   0.238   0.047
 8348SOL     OW25942   3.691   6.424   1.797
 8348SOL    HW125943   3.718   6.331   1.772
 8348SOL    HW225944   3.592   6.427   1.813
 8349SOL     OW25945   0.550   6.258   1.741
 8349SOL    HW125946   0.490   6.194   1.788
 8349SOL    HW225947   0.645   6.225   1.745
 8350SOL     OW25948   2.664   0.348   0.527
 8350SOL    HW125949   2.665   0.403   0.610
 8350SOL    HW225950   2.581   0.367   0.475
 8351SOL     OW25951   6.470   3.154   2.700
 8351SOL    HW125952   6.459   3.110   2.790
 8351SOL    HW225953   6.530   3.098   2.643
 8352SOL     OW25954   2.046   5.952   1.539
 8352SOL    HW125955   2.128   6.004   1.517
 8352SOL    HW225956   1.992   6.001   1.608
 8353SOL     OW25957   1.178   4.329   1.984
 8353SOL    HW125958   1.145   4.236   1.972
 8353SOL    HW225959   1.250   4.348   1.917
 8354SOL     OW25960   3.099   0.297   3.169
 8354SOL    HW125961   3.108   0.388   3.131
 8354SOL    HW225962   3.003   0.268   3.166
 8355SOL     OW25963   2.248   5.888   6.452
 8355SOL    HW125964   2.296   5.800   6.447
 8355SOL    HW225965   2.313   5.961   6.472
 8356SOL     OW25966   1.621   5.747   0.729
 8356SOL    HW125967   1.683   5.673   0.702
 8356SOL    HW225968   1.673   5.832   0.736
 8357SOL     OW25969   3.980   6.142   5.756
 8357SOL    HW125970   4.010   6.085   5.680
 8357SOL    HW225971   3.919   6.214   5.722
 8358SOL     OW25972   0.734   1.851   5.049
 8358SOL    HW125973   0.818   1.896   5.081
 8358SOL    HW225974   0.747   1.752   5.049
 8359SOL     OW25975   3.214   2.104   5.673
 8359SOL    HW125976   3.181   2.063   5.588
 8359SOL    HW225977   3.256   2.193   5.653
 8360SOL     OW25978   4.737   0.057   1.343
 8360SOL    HW125979   4.745   0.151   1.311
 8360SOL    HW225980   4.673   0.053   1.420
 8361SOL     OW25981   3.466   0.074   6.582
 8361SOL    HW125982   3.378   0.041   6.615
 8361SOL    HW225983   3.539   0.014   6.617
 8362SOL     OW25984   0.168   3.703   1.704
 8362SOL    HW125985   0.249   3.670   1.655
 8362SOL    HW225986   0.193   3.722   1.799
 8363SOL     OW25987   2.793   3.176   6.932
 8363SOL    HW125988   2.864   3.111   6.906
 8363SOL    HW225989   2.706   3.128   6.944
 8364SOL     OW25990   6.919   3.014   4.194
 8364SOL    HW125991   6.857   2.962   4.135
 8364SOL    HW225992   6.918   2.975   4.286
 8365SOL     OW25993   1.727   2.484   2.457
 8365SOL    HW125994   1.734   2.528   2.546
 8365SOL    HW225995   1.816   2.485   2.412
 8366SOL     OW25996   4.809   5.300   1.936
 8366SOL    HW125997   4.879   5.232   1.915
 8366SOL    HW225998   4.718   5.259   1.924
 8367SOL     OW25999   3.742   5.043   4.633
 8367SOL    HW126000   3.645   5.025   4.650
 8367SOL    HW226001   3.797   4.984   4.693
 8368SOL     OW26002   6.837   6.843   0.612
 8368SOL    HW126003   6.912   6.908   0.600
 8368SOL    HW226004   6.868   6.766   0.668
 8369SOL     OW26005   2.564   0.333   1.314
 8369SOL    HW126006   2.579   0.412   1.254
 8369SOL    HW226007   2.518   0.364   1.397
 8370SOL     OW26008   2.731   3.141   0.263
 8370SOL    HW126009   2.671   3.130   0.343
 8370SOL    HW226010   2.826   3.143   0.293
 8371SOL     OW26011   1.547   4.679   6.407
 8371SOL    HW126012   1.631   4.641   6.367
 8371SOL    HW226013   1.519   4.624   6.485
 8372SOL     OW26014   2.260   5.374   2.653
 8372SOL    HW126015   2.345   5.323   2.664
 8372SOL    HW226016   2.277   5.455   2.596
 8373SOL     OW26017   6.730   1.080   4.418
 8373SOL    HW126018   6.647   1.114   4.373
 8373SOL    HW226019   6.807   1.140   4.396
 8374SOL     OW26020   1.632   0.362   4.701
 8374SOL    HW126021   1.574   0.390   4.625
 8374SOL    HW226022   1.694   0.437   4.724
 8375SOL     OW26023   4.012   1.133   4.516
 8375SOL    HW126024   3.937   1.148   4.452
 8375SOL    HW226025   3.975   1.103   4.604
 8376SOL     OW26026   2.201   0.818   3.134
 8376SOL    HW126027   2.187   0.873   3.051
 8376SOL    HW226028   2.117   0.816   3.188
 8377SOL     OW26029   4.684   5.789   6.919
 8377SOL    HW126030   4.713   5.736   6.839
 8377SOL    HW226031   4.689   5.731   7.000
 8378SOL     OW26032   5.584   5.710   3.711
 8378SOL    HW126033   5.557   5.705   3.807
 8378SOL    HW226034   5.681   5.734   3.705
 8379SOL     OW26035   6.018   1.240   2.016
 8379SOL    HW126036   5.987   1.216   1.924
 8379SOL    HW226037   6.089   1.176   2.045
 8380SOL     OW26038   6.525   5.746   0.756
 8380SOL    HW126039   6.481   5.730   0.667
 8380SOL    HW226040   6.620   5.717   0.752
 8381SOL     OW26041   0.197   2.154   1.822
 8381SOL    HW126042   0.293   2.177   1.812
 8381SOL    HW226043   0.174   2.146   1.919
 8382SOL     OW26044   2.655   0.506   0.740
 8382SOL    HW126045   2.564   0.475   0.765
 8382SOL    HW226046   2.679   0.587   0.792
 8383SOL     OW26047   2.779   6.281   6.485
 8383SOL    HW126048   2.781   6.381   6.490
 8383SOL    HW226049   2.771   6.244   6.577
 8384SOL     OW26050   0.581   2.296   1.151
 8384SOL    HW126051   0.513   2.224   1.163
 8384SOL    HW226052   0.568   2.366   1.221
 8385SOL     OW26053   3.386   3.794   1.282
 8385SOL    HW126054   3.379   3.820   1.186
 8385SOL    HW226055   3.387   3.877   1.339
 8386SOL     OW26056   1.745   5.673   1.912
 8386SOL    HW126057   1.822   5.613   1.890
 8386SOL    HW226058   1.705   5.645   1.999
 8387SOL     OW26059   1.389   0.966   2.242
 8387SOL    HW126060   1.357   0.933   2.331
 8387SOL    HW226061   1.415   1.062   2.249
 8388SOL     OW26062   3.624   6.715   1.239
 8388SOL    HW126063   3.683   6.794   1.255
 8388SOL    HW226064   3.619   6.696   1.141
 8389SOL     OW26065   0.957   2.831   4.151
 8389SOL    HW126066   0.867   2.841   4.109
 8389SOL    HW226067   1.027   2.864   4.088
 8390SOL     OW26068   3.139   0.584   6.006
 8390SOL    HW126069   3.180   0.665   5.964
 8390SOL    HW226070   3.094   0.609   6.091
 8391SOL     OW26071   5.450   5.887   1.526
 8391SOL    HW126072   5.414   5.832   1.450
 8391SOL    HW226073   5.391   5.877   1.606
 8392SOL     OW26074   5.370   6.235   5.241
 8392SOL    HW126075   5.282   6.279   5.224
 8392SOL    HW226076   5.438   6.269   5.176
 8393SOL     OW26077   0.373   6.211   3.294
 8393SOL    HW126078   0.369   6.309   3.273
 8393SOL    HW226079   0.282   6.179   3.320
 8394SOL     OW26080   0.721   1.925   2.880
 8394SOL    HW126081   0.628   1.962   2.876
 8394SOL    HW226082   0.754   1.928   2.974
 8395SOL     OW26083   6.642   5.819   5.247
 8395SOL    HW126084   6.610   5.741   5.300
 8395SOL    HW226085   6.741   5.830   5.260
 8396SOL     OW26086   4.964   3.663   2.234
 8396SOL    HW126087   4.990   3.602   2.159
 8396SOL    HW226088   4.945   3.755   2.197
 8397SOL     OW26089   2.144   6.028   3.262
 8397SOL    HW126090   2.143   5.983   3.172
 8397SOL    HW226091   2.186   6.118   3.253
 8398SOL     OW26092   4.282   1.435   0.376
 8398SOL    HW126093   4.278   1.335   0.368
 8398SOL    HW226094   4.374   1.462   0.402
 8399SOL     OW26095   5.823   6.167   0.314
 8399SOL    HW126096   5.921   6.146   0.305
 8399SOL    HW226097   5.804   6.191   0.410
 8400SOL     OW26098   6.473   0.667   2.706
 8400SOL    HW126099   6.552   0.725   2.687
 8400SOL    HW226100   6.466   0.596   2.636
 8401SOL     OW26101   3.189   4.469   6.397
 8401SOL    HW126102   3.107   4.517   6.428
 8401SOL    HW226103   3.264   4.486   6.462
 8402SOL     OW26104   4.636   1.646   6.917
 8402SOL    HW126105   4.704   1.614   6.852
 8402SOL    HW226106   4.681   1.674   7.002
 8403SOL     OW26107   1.491   1.199   4.460
 8403SOL    HW126108   1.408   1.247   4.430
 8403SOL    HW226109   1.526   1.242   4.543
 8404SOL     OW26110   4.549   5.429   5.730
 8404SOL    HW126111   4.593   5.455   5.816
 8404SOL    HW226112   4.540   5.330   5.726
 8405SOL     OW26113   0.428   2.488   6.109
 8405SOL    HW126114   0.511   2.450   6.151
 8405SOL    HW226115   0.435   2.588   6.105
 8406SOL     OW26116   5.057   2.572   1.373
 8406SOL    HW126117   5.125   2.525   1.430
 8406SOL    HW226118   5.099   2.599   1.287
 8407SOL     OW26119   4.643   4.239   3.153
 8407SOL    HW126120   4.584   4.319   3.148
 8407SOL    HW226121   4.713   4.244   3.082
 8408SOL     OW26122   4.757   2.287   4.576
 8408SOL    HW126123   4.747   2.360   4.509
 8408SOL    HW226124   4.685   2.219   4.564
 8409SOL     OW26125   1.145   1.644   3.870
 8409SOL    HW126126   1.115   1.592   3.790
 8409SOL    HW226127   1.082   1.627   3.945
 8410SOL     OW26128   4.217   7.011   1.364
 8410SOL    HW126129   4.179   6.919   1.357
 8410SOL    HW226130   4.250   0.021   1.275
 8411SOL     OW26131   1.616   4.149   4.861
 8411SOL    HW126132   1.526   4.188   4.844
 8411SOL    HW226133   1.617   4.104   4.950
 8412SOL     OW26134   5.002   2.690   3.415
 8412SOL    HW126135   5.024   2.729   3.326
 8412SOL    HW226136   4.929   2.743   3.458
 8413SOL     OW26137   3.578   4.862   0.591
 8413SOL    HW126138   3.577   4.881   0.493
 8413SOL    HW226139   3.661   4.901   0.631
 8414SOL     OW26140   4.175   6.569   2.909
 8414SOL    HW126141   4.246   6.636   2.888
 8414SOL    HW226142   4.196   6.526   2.997
 8415SOL     OW26143   6.216   4.298   2.800
 8415SOL    HW126144   6.159   4.299   2.882
 8415SOL    HW226145   6.237   4.203   2.776
 8416SOL     OW26146   5.748   3.888   1.980
 8416SOL    HW126147   5.660   3.935   1.979
 8416SOL    HW226148   5.774   3.867   2.075
 8417SOL     OW26149   2.481   6.135   6.049
 8417SOL    HW126150   2.432   6.180   5.974
 8417SOL    HW226151   2.453   6.175   6.136
 8418SOL     OW26152   6.647   5.858   3.279
 8418SOL    HW126153   6.557   5.823   3.306
 8418SOL    HW226154   6.718   5.793   3.308
 8419SOL     OW26155   4.377   0.726   3.132
 8419SOL    HW126156   4.422   0.714   3.044
 8419SOL    HW226157   4.308   0.798   3.126
 8420SOL     OW26158   3.544   0.457   5.874
 8420SOL    HW126159   3.639   0.440   5.901
 8420SOL    HW226160   3.516   0.548   5.905
 8421SOL     OW26161   1.777   6.429   2.464
 8421SOL    HW126162   1.792   6.354   2.399
 8421SOL    HW226163   1.862   6.450   2.511
 8422SOL     OW26164   4.259   7.019   0.648
 8422SOL    HW126165   4.202   6.995   0.727
 8422SOL    HW226166   4.251   6.947   0.578
 8423SOL     OW26167   3.541   4.269   0.809
 8423SOL    HW126168   3.536   4.170   0.796
 8423SOL    HW226169   3.584   4.288   0.897
 8424SOL     OW26170   3.592   1.679   3.136
 8424SOL    HW126171   3.498   1.646   3.142
 8424SOL    HW226172   3.620   1.683   3.040
 8425SOL     OW26173   6.417   4.860   0.597
 8425SOL    HW126174   6.382   4.933   0.539
 8425SOL    HW226175   6.508   4.886   0.630
 8426SOL     OW26176   3.822   3.904   3.059
 8426SOL    HW126177   3.909   3.857   3.075
 8426SOL    HW226178   3.780   3.927   3.147
 8427SOL     OW26179   2.064   4.163   6.376
 8427SOL    HW126180   2.094   4.148   6.282
 8427SOL    HW226181   2.024   4.254   6.384
 8428SOL     OW26182   6.576   3.891   2.023
 8428SOL    HW126183   6.588   3.861   2.117
 8428SOL    HW226184   6.665   3.916   1.984
 8429SOL     OW26185   1.643   6.101   3.766
 8429SOL    HW126186   1.547   6.075   3.766
 8429SOL    HW226187   1.679   6.095   3.859
 8430SOL     OW26188   4.237   5.003   2.927
 8430SOL    HW126189   4.279   4.917   2.901
 8430SOL    HW226190   4.143   4.986   2.957
 8431SOL     OW26191   3.062   4.731   1.428
 8431SOL    HW126192   3.138   4.699   1.371
 8431SOL    HW226193   3.044   4.664   1.500
 8432SOL     OW26194   3.766   6.686   6.484
 8432SOL    HW126195   3.810   6.598   6.468
 8432SOL    HW226196   3.673   6.685   6.446
 8433SOL     OW26197   1.324   2.160   6.256
 8433SOL    HW126198   1.353   2.184   6.164
 8433SOL    HW226199   1.294   2.064   6.258
 8434SOL     OW26200   4.878   6.494   5.435
 8434SOL    HW126201   4.970   6.501   5.474
 8434SOL    HW226202   4.811   6.480   5.508
 8435SOL     OW26203   4.193   2.313   1.515
 8435SOL    HW126204   4.187   2.406   1.479
 8435SOL    HW226205   4.288   2.284   1.517
 8436SOL     OW26206   4.367   4.487   1.742
 8436SOL    HW126207   4.432   4.498   1.666
 8436SOL    HW226208   4.386   4.401   1.789
 8437SOL     OW26209   0.780   1.917   0.987
 8437SOL    HW126210   0.715   1.841   0.994
 8437SOL    HW226211   0.741   1.989   0.930
 8438SOL     OW26212   1.624   5.077   2.636
 8438SOL    HW126213   1.671   5.070   2.548
 8438SOL    HW226214   1.624   5.173   2.665
 8439SOL     OW26215   6.835   5.533   2.458
 8439SOL    HW126216   6.880   5.443   2.468
 8439SOL    HW226217   6.820   5.572   2.549
 8440SOL     OW26218   0.744   1.388   1.747
 8440SOL    HW126219   0.842   1.376   1.728
 8440SOL    HW226220   0.722   1.347   1.836
 8441SOL     OW26221   4.488   5.552   6.340
 8441SOL    HW126222   4.484   5.464   6.293
 8441SOL    HW226223   4.554   5.611   6.293
 8442SOL     OW26224   2.028   4.860   6.979
 8442SOL    HW126225   1.953   4.825   6.923
 8442SOL    HW226226   2.080   4.928   6.926
 8443SOL     OW26227   1.778   0.187   2.920
 8443SOL    HW126228   1.802   0.157   2.827
 8443SOL    HW226229   1.711   0.260   2.915
 8444SOL     OW26230   3.657   6.585   3.324
 8444SOL    HW126231   3.649   6.508   3.260
 8444SOL    HW226232   3.685   6.551   3.414
 8445SOL     OW26233   3.608   4.924   2.619
 8445SOL    HW126234   3.686   4.980   2.592
 8445SOL    HW226235   3.572   4.957   2.707
 8446SOL     OW26236   5.637   4.731   2.254
 8446SOL    HW126237   5.661   4.642   2.293
 8446SOL    HW226238   5.603   4.719   2.161
 8447SOL     OW26239   4.849   2.585   1.949
 8447SOL    HW126240   4.778   2.634   1.899
 8447SOL    HW226241   4.817   2.492   1.970
 8448SOL     OW26242   0.476   3.539   6.658
 8448SOL    HW126243   0.490   3.451   6.703
 8448SOL    HW226244   0.433   3.602   6.722
 8449SOL     OW26245   1.055   3.291   4.703
 8449SOL    HW126246   1.135   3.283   4.642
 8449SOL    HW226247   0.983   3.229   4.672
 8450SOL     OW26248   2.586   5.708   3.154
 8450SOL    HW126249   2.637   5.697   3.068
 8450SOL    HW226250   2.550   5.618   3.182
 8451SOL     OW26251   3.879   2.582   1.314
 8451SOL    HW126252   3.960   2.576   1.255
 8451SOL    HW226253   3.856   2.491   1.348
 8452SOL     OW26254   6.882   6.964   0.924
 8452SOL    HW126255   6.947   6.951   0.999
 8452SOL    HW226256   6.840   0.034   0.931
 8453SOL     OW26257   6.617   4.108   5.965
 8453SOL    HW126258   6.519   4.120   5.982
 8453SOL    HW226259   6.669   4.150   6.039
 8454SOL     OW26260   1.753   0.117   4.237
 8454SOL    HW126261   1.668   0.161   4.267
 8454SOL    HW226262   1.741   0.079   4.146
 8455SOL     OW26263   4.858   1.429   1.256
 8455SOL    HW126264   4.794   1.463   1.325
 8455SOL    HW226265   4.856   1.329   1.256
 8456SOL     OW26266   4.998   5.397   3.101
 8456SOL    HW126267   4.993   5.304   3.137
 8456SOL    HW226268   5.058   5.398   3.021
 8457SOL     OW26269   0.096   6.054   5.818
 8457SOL    HW126270   0.042   6.109   5.882
 8457SOL    HW226271   0.036   6.011   5.751
 8458SOL     OW26272   1.768   1.527   0.294
 8458SOL    HW126273   1.745   1.435   0.326
 8458SOL    HW226274   1.790   1.585   0.373
 8459SOL     OW26275   3.446   5.905   2.167
 8459SOL    HW126276   3.490   5.968   2.102
 8459SOL    HW226277   3.411   5.957   2.245
 8460SOL     OW26278   4.762   1.858   0.395
 8460SOL    HW126279   4.811   1.914   0.462
 8460SOL    HW226280   4.690   1.807   0.442
 8461SOL     OW26281   6.987   3.885   1.714
 8461SOL    HW126282   6.909   3.877   1.652
 8461SOL    HW226283   0.023   3.802   1.708
 8462SOL     OW26284   3.424   4.543   6.544
 8462SOL    HW126285   3.502   4.586   6.590
 8462SOL    HW226286   3.409   4.588   6.456
 8463SOL     OW26287   6.705   1.706   0.086
 8463SOL    HW126288   6.783   1.735   0.141
 8463SOL    HW226289   6.728   1.712   7.009
 8464SOL     OW26290   0.273   3.181   7.014
 8464SOL    HW126291   0.202   3.157   0.061
 8464SOL    HW226292   0.286   3.104   6.951
 8465SOL     OW26293   4.260   3.121   1.067
 8465SOL    HW126294   4.233   3.079   0.980
 8465SOL    HW226295   4.211   3.207   1.078
 8466SOL     OW26296   5.599   0.326   5.413
 8466SOL    HW126297   5.666   0.262   5.451
 8466SOL    HW226298   5.530   0.274   5.362
 8467SOL     OW26299   3.485   1.364   1.070
 8467SOL    HW126300   3.433   1.279   1.060
 8467SOL    HW226301   3.539   1.362   1.154
 8468SOL     OW26302   6.145   3.215   6.809
 8468SOL    HW126303   6.196   3.266   6.740
 8468SOL    HW226304   6.078   3.276   6.852
 8469SOL     OW26305   3.611   2.804   5.728
 8469SOL    HW126306   3.681   2.858   5.775
 8469SOL    HW226307   3.521   2.825   5.768
 8470SOL     OW26308   1.418   4.930   1.268
 8470SOL    HW126309   1.440   5.023   1.297
 8470SOL    HW226310   1.336   4.898   1.317
 8471SOL     OW26311   3.532   1.818   5.423
 8471SOL    HW126312   3.520   1.778   5.515
 8471SOL    HW226313   3.564   1.912   5.432
 8472SOL     OW26314   5.555   1.285   5.945
 8472SOL    HW126315   5.640   1.335   5.960
 8472SOL    HW226316   5.492   1.302   6.021
 8473SOL     OW26317   4.987   4.383   6.305
 8473SOL    HW126318   4.987   4.408   6.209
 8473SOL    HW226319   4.925   4.305   6.319
 8474SOL     OW26320   3.110   3.602   2.402
 8474SOL    HW126321   3.020   3.566   2.427
 8474SOL    HW226322   3.104   3.647   2.313
 8475SOL     OW26323   6.409   3.040   1.544
 8475SOL    HW126324   6.428   2.998   1.633
 8475SOL    HW226325   6.495   3.065   1.500
 8476SOL     OW26326   6.179   0.196   1.574
 8476SOL    HW126327   6.153   0.159   1.663
 8476SOL    HW226328   6.240   0.132   1.528
 8477SOL     OW26329   5.958   6.671   1.225
 8477SOL    HW126330   5.924   6.598   1.166
 8477SOL    HW226331   6.057   6.662   1.236
 8478SOL     OW26332   0.305   6.899   5.050
 8478SOL    HW126333   0.221   6.940   5.014
 8478SOL    HW226334   0.329   6.819   4.995
 8479SOL     OW26335   1.093   2.079   1.500
 8479SOL    HW126336   1.121   1.988   1.530
 8479SOL    HW226337   1.173   2.139   1.495
 8480SOL     OW26338   4.988   4.080   0.197
 8480SOL    HW126339   5.033   3.992   0.181
 8480SOL    HW226340   5.027   4.123   0.278
 8481SOL     OW26341   3.908   2.160   3.808
 8481SOL    HW126342   3.971   2.135   3.882
 8481SOL    HW226343   3.958   2.159   3.721
 8482SOL     OW26344   4.540   1.215   0.124
 8482SOL    HW126345   4.523   1.199   0.027
 8482SOL    HW226346   4.456   1.246   0.168
 8483SOL     OW26347   2.990   6.196   3.812
 8483SOL    HW126348   2.984   6.152   3.902
 8483SOL    HW226349   2.937   6.281   3.813
 8484SOL     OW26350   6.203   5.635   4.500
 8484SOL    HW126351   6.254   5.681   4.573
 8484SOL    HW226352   6.135   5.698   4.462
 8485SOL     OW26353   3.039   2.532   6.925
 8485SOL    HW126354   3.058   2.604   6.992
 8485SOL    HW226355   3.070   2.444   6.960
 8486SOL     OW26356   1.287   0.835   2.472
 8486SOL    HW126357   1.197   0.801   2.496
 8486SOL    HW226358   1.356   0.794   2.532
 8487SOL     OW26359   5.430   1.760   5.874
 8487SOL    HW126360   5.497   1.794   5.808
 8487SOL    HW226361   5.404   1.667   5.850
 8488SOL     OW26362   4.958   5.472   1.760
 8488SOL    HW126363   4.874   5.435   1.800
 8488SOL    HW226364   5.033   5.463   1.825
 8489SOL     OW26365   5.105   0.896   1.525
 8489SOL    HW126366   5.142   0.953   1.452
 8489SOL    HW226367   5.049   0.823   1.485
 8490SOL     OW26368   2.508   6.884   0.131
 8490SOL    HW126369   2.527   6.836   0.216
 8490SOL    HW226370   2.572   6.960   0.119
 8491SOL     OW26371   3.134   5.896   2.430
 8491SOL    HW126372   3.082   5.811   2.419
 8491SOL    HW226373   3.090   5.953   2.499
 8492SOL     OW26374   5.695   4.817   4.792
 8492SOL    HW126375   5.772   4.851   4.739
 8492SOL    HW226376   5.622   4.886   4.793
 8493SOL     OW26377   3.796   0.498   6.871
 8493SOL    HW126378   3.746   0.456   6.946
 8493SOL    HW226379   3.746   0.483   6.785
 8494SOL     OW26380   5.781   5.272   2.096
 8494SOL    HW126381   5.770   5.225   2.009
 8494SOL    HW226382   5.764   5.369   2.084
 8495SOL     OW26383   6.690   6.133   0.378
 8495SOL    HW126384   6.674   6.156   0.282
 8495SOL    HW226385   6.756   6.198   0.417
 8496SOL     OW26386   4.866   1.572   2.277
 8496SOL    HW126387   4.843   1.635   2.203
 8496SOL    HW226388   4.827   1.482   2.258
 8497SOL     OW26389   6.415   0.789   4.137
 8497SOL    HW126390   6.328   0.831   4.163
 8497SOL    HW226391   6.406   0.689   4.140
 8498SOL     OW26392   4.860   6.847   4.315
 8498SOL    HW126393   4.917   6.848   4.233
 8498SOL    HW226394   4.854   6.754   4.350
 8499SOL     OW26395   6.626   5.908   6.864
 8499SOL    HW126396   6.707   5.964   6.847
 8499SOL    HW226397   6.632   5.823   6.811
 8500SOL     OW26398   2.018   0.635   5.753
 8500SOL    HW126399   2.109   0.633   5.794
 8500SOL    HW226400   1.961   0.702   5.801
 8501SOL     OW26401   0.974   1.261   0.174
 8501SOL    HW126402   0.980   1.358   0.201
 8501SOL    HW226403   0.916   1.212   0.239
 8502SOL     OW26404   0.345   2.947   6.908
 8502SOL    HW126405   0.339   2.878   6.980
 8502SOL    HW226406   0.415   2.920   6.842
 8503SOL     OW26407   6.120   5.816   4.130
 8503SOL    HW126408   6.133   5.915   4.144
 8503SOL    HW226409   6.199   5.780   4.080
 8504SOL     OW26410   2.335   5.000   2.875
 8504SOL    HW126411   2.388   4.979   2.793
 8504SOL    HW226412   2.361   4.937   2.948
 8505SOL     OW26413   5.138   3.258   2.529
 8505SOL    HW126414   5.093   3.178   2.569
 8505SOL    HW226415   5.166   3.320   2.602
 8506SOL     OW26416   2.637   0.130   0.062
 8506SOL    HW126417   2.732   0.098   0.063
 8506SOL    HW226418   2.617   0.172   6.993
 8507SOL     OW26419   4.707   6.192   5.584
 8507SOL    HW126420   4.769   6.246   5.641
 8507SOL    HW226421   4.615   6.232   5.589
 8508SOL     OW26422   4.156   1.575   7.009
 8508SOL    HW126423   4.252   1.551   0.005
 8508SOL    HW226424   4.109   1.579   0.077
 8509SOL     OW26425   5.888   0.778   3.610
 8509SOL    HW126426   5.877   0.679   3.622
 8509SOL    HW226427   5.871   0.824   3.698
 8510SOL     OW26428   5.902   2.477   4.604
 8510SOL    HW126429   5.877   2.400   4.544
 8510SOL    HW226430   5.833   2.549   4.596
 8511SOL     OW26431   5.937   2.934   1.657
 8511SOL    HW126432   5.941   3.032   1.677
 8511SOL    HW226433   5.946   2.919   1.559
 8512SOL     OW26434   1.558   6.793   4.681
 8512SOL    HW126435   1.538   6.876   4.734
 8512SOL    HW226436   1.572   6.818   4.585
 8513SOL     OW26437   6.320   6.149   6.664
 8513SOL    HW126438   6.324   6.057   6.703
 8513SOL    HW226439   6.240   6.196   6.701
 8514SOL     OW26440   2.491   6.471   4.345
 8514SOL    HW126441   2.454   6.549   4.394
 8514SOL    HW226442   2.576   6.441   4.387
 8515SOL     OW26443   5.086   2.103   1.500
 8515SOL    HW126444   5.082   2.014   1.545
 8515SOL    HW226445   5.117   2.172   1.566
 8516SOL     OW26446   6.282   2.752   2.093
 8516SOL    HW126447   6.213   2.702   2.146
 8516SOL    HW226448   6.238   2.828   2.046
 8517SOL     OW26449   1.516   2.600   6.573
 8517SOL    HW126450   1.455   2.575   6.497
 8517SOL    HW226451   1.593   2.653   6.538
 8518SOL     OW26452   3.665   5.491   0.263
 8518SOL    HW126453   3.702   5.436   0.337
 8518SOL    HW226454   3.663   5.437   0.179
 8519SOL     OW26455   0.526   5.537   2.338
 8519SOL    HW126456   0.560   5.468   2.402
 8519SOL    HW226457   0.506   5.621   2.387
 8520SOL     OW26458   4.204   0.841   0.201
 8520SOL    HW126459   4.135   0.779   0.163
 8520SOL    HW226460   4.257   0.793   0.271
 8521SOL     OW26461   1.474   5.768   5.703
 8521SOL    HW126462   1.568   5.739   5.685
 8521SOL    HW226463   1.414   5.687   5.705
 8522SOL     OW26464   1.296   6.207   5.235
 8522SOL    HW126465   1.225   6.137   5.231
 8522SOL    HW226466   1.364   6.181   5.304
 8523SOL     OW26467   1.658   6.645   0.022
 8523SOL    HW126468   1.559   6.661   0.030
 8523SOL    HW226469   1.681   6.623   6.948
 8524SOL     OW26470   1.602   3.382   6.237
 8524SOL    HW126471   1.661   3.456   6.206
 8524SOL    HW226472   1.586   3.318   6.161
 8525SOL     OW26473   6.392   3.370   3.249
 8525SOL    HW126474   6.421   3.365   3.153
 8525SOL    HW226475   6.317   3.307   3.265
 8526SOL     OW26476   2.317   2.778   2.368
 8526SOL    HW126477   2.275   2.869   2.375
 8526SOL    HW226478   2.349   2.763   2.275
 8527SOL     OW26479   4.294   0.665   4.733
 8527SOL    HW126480   4.326   0.581   4.776
 8527SOL    HW226481   4.221   0.644   4.668
 8528SOL     OW26482   4.771   2.676   6.183
 8528SOL    HW126483   4.847   2.740   6.173
 8528SOL    HW226484   4.713   2.680   6.102
 8529SOL     OW26485   0.926   4.899   6.800
 8529SOL    HW126486   0.878   4.962   6.740
 8529SOL    HW226487   0.951   4.816   6.749
 8530SOL     OW26488   1.911   3.877   5.295
 8530SOL    HW126489   1.907   3.821   5.212
 8530SOL    HW226490   1.986   3.942   5.287
 8531SOL     OW26491   4.904   4.775   2.242
 8531SOL    HW126492   4.924   4.860   2.289
 8531SOL    HW226493   4.893   4.702   2.309
 8532SOL     OW26494   3.563   4.098   5.948
 8532SOL    HW126495   3.540   4.087   6.045
 8532SOL    HW226496   3.484   4.069   5.893
 8533SOL     OW26497   3.617   1.127   5.116
 8533SOL    HW126498   3.551   1.063   5.078
 8533SOL    HW226499   3.576   1.218   5.122
 8534SOL     OW26500   1.650   3.202   2.872
 8534SOL    HW126501   1.630   3.156   2.785
 8534SOL    HW226502   1.651   3.301   2.857
 8535SOL     OW26503   0.497   2.206   4.552
 8535SOL    HW126504   0.505   2.204   4.652
 8535SOL    HW226505   0.402   2.226   4.526
 8536SOL     OW26506   0.593   1.452   6.047
 8536SOL    HW126507   0.523   1.396   6.002
 8536SOL    HW226508   0.595   1.543   6.006
 8537SOL     OW26509   5.632   0.509   2.001
 8537SOL    HW126510   5.559   0.540   2.062
 8537SOL    HW226511   5.675   0.588   1.958
 8538SOL     OW26512   5.919   0.543   4.612
 8538SOL    HW126513   5.993   0.482   4.584
 8538SOL    HW226514   5.957   0.629   4.645
 8539SOL     OW26515   0.496   3.439   1.897
 8539SOL    HW126516   0.585   3.482   1.910
 8539SOL    HW226517   0.431   3.475   1.964
 8540SOL     OW26518   3.941   0.323   0.173
 8540SOL    HW126519   3.947   0.262   0.252
 8540SOL    HW226520   3.923   0.416   0.205
 8541SOL     OW26521   3.187   0.869   4.718
 8541SOL    HW126522   3.227   0.949   4.674
 8541SOL    HW226523   3.098   0.892   4.757
 8542SOL     OW26524   1.654   4.945   7.011
 8542SOL    HW126525   1.557   4.922   7.011
 8542SOL    HW226526   1.693   4.928   6.920
 8543SOL     OW26527   2.189   1.860   6.015
 8543SOL    HW126528   2.129   1.914   5.956
 8543SOL    HW226529   2.256   1.920   6.058
 8544SOL     OW26530   4.932   3.788   5.245
 8544SOL    HW126531   4.878   3.749   5.320
 8544SOL    HW226532   4.921   3.731   5.164
 8545SOL     OW26533   3.074   0.403   6.439
 8545SOL    HW126534   2.987   0.453   6.436
 8545SOL    HW226535   3.104   0.382   6.346
 8546SOL     OW26536   5.782   0.508   1.652
 8546SOL    HW126537   5.704   0.571   1.648
 8546SOL    HW226538   5.838   0.529   1.733
 8547SOL     OW26539   6.132   6.190   5.854
 8547SOL    HW126540   6.166   6.175   5.947
 8547SOL    HW226541   6.129   6.289   5.835
 8548SOL     OW26542   0.496   2.864   6.303
 8548SOL    HW126543   0.455   2.825   6.221
 8548SOL    HW226544   0.445   2.946   6.330
 8549SOL     OW26545   1.639   0.610   3.114
 8549SOL    HW126546   1.615   0.703   3.087
 8549SOL    HW226547   1.615   0.547   3.040
 8550SOL     OW26548   6.960   4.829   6.487
 8550SOL    HW126549   7.006   4.905   6.534
 8550SOL    HW226550   6.902   4.780   6.552
 8551SOL     OW26551   2.021   1.925   5.553
 8551SOL    HW126552   1.960   1.860   5.507
 8551SOL    HW226553   2.082   1.967   5.486
 8552SOL     OW26554   2.639   2.067   3.605
 8552SOL    HW126555   2.615   1.990   3.664
 8552SOL    HW226556   2.597   2.150   3.641
 8553SOL     OW26557   5.463   3.077   0.159
 8553SOL    HW126558   5.452   3.150   0.226
 8553SOL    HW226559   5.420   2.994   0.193
 8554SOL     OW26560   1.376   0.452   0.149
 8554SOL    HW126561   1.312   0.410   0.085
 8554SOL    HW226562   1.360   0.415   0.241
 8555SOL     OW26563   4.377   0.915   4.677
 8555SOL    HW126564   4.321   0.935   4.597
 8555SOL    HW226565   4.351   0.827   4.715
 8556SOL     OW26566   1.501   6.397   0.609
 8556SOL    HW126567   1.433   6.328   0.583
 8556SOL    HW226568   1.568   6.407   0.535
 8557SOL     OW26569   0.563   0.977   0.251
 8557SOL    HW126570   0.548   1.072   0.224
 8557SOL    HW226571   0.656   0.967   0.286
 8558SOL     OW26572   2.495   5.036   3.815
 8558SOL    HW126573   2.500   5.114   3.753
 8558SOL    HW226574   2.476   4.953   3.763
 8559SOL     OW26575   0.791   5.556   2.505
 8559SOL    HW126576   0.766   5.645   2.541
 8559SOL    HW226577   0.733   5.486   2.546
 8560SOL     OW26578   2.936   4.166   1.709
 8560SOL    HW126579   2.969   4.092   1.768
 8560SOL    HW226580   2.941   4.253   1.759
 8561SOL     OW26581   4.574   7.019   2.259
 8561SOL    HW126582   4.634   0.077   2.239
 8561SOL    HW226583   4.629   6.937   2.275
 8562SOL     OW26584   4.671   1.140   6.802
 8562SOL    HW126585   4.580   1.131   6.761
 8562SOL    HW226586   4.695   1.053   6.846
 8563SOL     OW26587   1.768   5.092   2.389
 8563SOL    HW126588   1.856   5.133   2.412
 8563SOL    HW226589   1.777   4.992   2.388
 8564SOL     OW26590   4.717   0.733   6.673
 8564SOL    HW126591   4.803   0.684   6.655
 8564SOL    HW226592   4.644   0.693   6.618
 8565SOL     OW26593   2.828   5.314   1.071
 8565SOL    HW126594   2.852   5.405   1.104
 8565SOL    HW226595   2.776   5.266   1.142
 8566SOL     OW26596   3.491   0.980   2.901
 8566SOL    HW126597   3.521   1.075   2.903
 8566SOL    HW226598   3.561   0.923   2.857
 8567SOL     OW26599   2.627   1.972   1.873
 8567SOL    HW126600   2.679   2.058   1.874
 8567SOL    HW226601   2.541   1.986   1.824
 8568SOL     OW26602   6.750   0.905   0.128
 8568SOL    HW126603   6.684   0.929   0.057
 8568SOL    HW226604   6.798   0.988   0.158
 8569SOL     OW26605   4.912   2.454   6.301
 8569SOL    HW126606   4.825   2.415   6.329
 8569SOL    HW226607   4.897   2.547   6.268
 8570SOL     OW26608   1.826   3.164   3.843
 8570SOL    HW126609   1.858   3.070   3.839
 8570SOL    HW226610   1.750   3.171   3.907
 8571SOL     OW26611   1.525   0.596   3.592
 8571SOL    HW126612   1.482   0.644   3.669
 8571SOL    HW226613   1.576   0.517   3.627
 8572SOL     OW26614   2.904   4.433   5.826
 8572SOL    HW126615   2.954   4.490   5.760
 8572SOL    HW226616   2.886   4.344   5.786
 8573SOL     OW26617   4.028   6.152   0.595
 8573SOL    HW126618   4.020   6.097   0.512
 8573SOL    HW226619   3.967   6.115   0.665
 8574SOL     OW26620   5.985   6.620   5.605
 8574SOL    HW126621   5.980   6.521   5.593
 8574SOL    HW226622   6.025   6.662   5.524
 8575SOL     OW26623   3.091   6.342   3.362
 8575SOL    HW126624   3.000   6.382   3.353
 8575SOL    HW226625   3.156   6.396   3.308
 8576SOL     OW26626   0.552   4.248   3.742
 8576SOL    HW126627   0.474   4.204   3.786
 8576SOL    HW226628   0.636   4.196   3.762
 8577SOL     OW26629   1.852   1.912   0.056
 8577SOL    HW126630   1.802   1.827   0.041
 8577SOL    HW226631   1.883   1.948   6.989
 8578SOL     OW26632   6.642   6.900   5.836
 8578SOL    HW126633   6.689   6.819   5.869
 8578SOL    HW226634   6.675   6.922   5.744
 8579SOL     OW26635   3.229   6.293   2.804
 8579SOL    HW126636   3.142   6.308   2.757
 8579SOL    HW226637   3.304   6.324   2.746
 8580SOL     OW26638   1.931   0.712   1.718
 8580SOL    HW126639   1.937   0.646   1.643
 8580SOL    HW226640   1.896   0.665   1.799
 8581SOL     OW26641   3.289   4.774   1.038
 8581SOL    HW126642   3.341   4.698   1.078
 8581SOL    HW226643   3.280   4.760   0.939
 8582SOL     OW26644   4.068   4.522   5.997
 8582SOL    HW126645   4.023   4.608   5.971
 8582SOL    HW226646   4.021   4.482   6.076
 8583SOL     OW26647   4.280   0.529   2.892
 8583SOL    HW126648   4.213   0.504   2.961
 8583SOL    HW226649   4.250   0.610   2.843
 8584SOL     OW26650   6.286   1.061   4.532
 8584SOL    HW126651   6.367   1.091   4.481
 8584SOL    HW226652   6.314   1.025   4.621
 8585SOL     OW26653   5.099   1.378   2.318
 8585SOL    HW126654   5.019   1.424   2.279
 8585SOL    HW226655   5.073   1.288   2.352
 8586SOL     OW26656   6.036   5.732   1.122
 8586SOL    HW126657   6.052   5.715   1.219
 8586SOL    HW226658   6.124   5.735   1.074
 8587SOL     OW26659   2.123   1.679   5.746
 8587SOL    HW126660   2.160   1.654   5.835
 8587SOL    HW226661   2.100   1.777   5.746
 8588SOL     OW26662   2.864   1.277   6.825
 8588SOL    HW126663   2.835   1.366   6.860
 8588SOL    HW226664   2.948   1.287   6.772
 8589SOL     OW26665   6.737   2.912   6.399
 8589SOL    HW126666   6.689   2.892   6.314
 8589SOL    HW226667   6.695   2.992   6.443
 8590SOL     OW26668   1.407   1.298   2.761
 8590SOL    HW126669   1.432   1.254   2.847
 8590SOL    HW226670   1.441   1.392   2.761
 8591SOL     OW26671   6.740   4.531   0.278
 8591SOL    HW126672   6.801   4.530   0.358
 8591SOL    HW226673   6.680   4.611   0.285
 8592SOL     OW26674   1.323   1.731   6.268
 8592SOL    HW126675   1.350   1.690   6.181
 8592SOL    HW226676   1.393   1.713   6.337
 8593SOL     OW26677   3.781   0.722   6.251
 8593SOL    HW126678   3.823   0.812   6.254
 8593SOL    HW226679   3.812   0.667   6.328
 8594SOL     OW26680   6.701   2.526   5.627
 8594SOL    HW126681   6.776   2.470   5.662
 8594SOL    HW226682   6.716   2.621   5.652
 8595SOL     OW26683   5.227   6.453   2.591
 8595SOL    HW126684   5.308   6.486   2.543
 8595SOL    HW226685   5.246   6.362   2.630
 8596SOL     OW26686   0.899   2.352   3.703
 8596SOL    HW126687   0.956   2.370   3.623
 8596SOL    HW226688   0.803   2.346   3.674
 8597SOL     OW26689   5.819   3.696   0.483
 8597SOL    HW126690   5.764   3.635   0.425
 8597SOL    HW226691   5.880   3.641   0.540
 8598SOL     OW26692   5.703   6.714   3.944
 8598SOL    HW126693   5.735   6.623   3.968
 8598SOL    HW226694   5.655   6.711   3.856
 8599SOL     OW26695   1.257   2.932   4.097
 8599SOL    HW126696   1.250   2.847   4.045
 8599SOL    HW226697   1.220   3.008   4.044
 8600SOL     OW26698   4.056   2.717   1.084
 8600SOL    HW126699   4.091   2.627   1.110
 8600SOL    HW226700   4.082   2.784   1.154
 8601SOL     OW26701   0.882   6.908   3.589
 8601SOL    HW126702   0.787   6.877   3.589
 8601SOL    HW226703   0.899   6.963   3.671
 8602SOL     OW26704   2.158   6.675   4.264
 8602SOL    HW126705   2.075   6.632   4.300
 8602SOL    HW226706   2.198   6.616   4.194
 8603SOL     OW26707   6.941   0.499   0.648
 8603SOL    HW126708   6.940   0.502   0.748
 8603SOL    HW226709   6.888   0.420   0.617
 8604SOL     OW26710   0.264   4.213   6.114
 8604SOL    HW126711   0.206   4.267   6.053
 8604SOL    HW226712   0.352   4.259   6.125
 8605SOL     OW26713   6.800   5.325   4.028
 8605SOL    HW126714   6.871   5.381   3.985
 8605SOL    HW226715   6.814   5.229   4.003
 8606SOL     OW26716   2.319   3.055   6.928
 8606SOL    HW126717   2.336   2.956   6.924
 8606SOL    HW226718   2.253   3.074   7.000
 8607SOL     OW26719   2.475   4.193   1.854
 8607SOL    HW126720   2.440   4.214   1.945
 8607SOL    HW226721   2.412   4.131   1.807
 8608SOL     OW26722   2.130   5.136   3.097
 8608SOL    HW126723   2.190   5.100   3.026
 8608SOL    HW226724   2.184   5.157   3.179
 8609SOL     OW26725   4.494   1.174   4.330
 8609SOL    HW126726   4.532   1.165   4.238
 8609SOL    HW226727   4.426   1.248   4.330
 8610SOL     OW26728   0.920   6.617   2.893
 8610SOL    HW126729   0.884   6.656   2.808
 8610SOL    HW226730   1.016   6.644   2.904
 8611SOL     OW26731   2.532   1.325   4.544
 8611SOL    HW126732   2.630   1.303   4.546
 8611SOL    HW226733   2.490   1.298   4.630
 8612SOL     OW26734   3.814   3.980   3.333
 8612SOL    HW126735   3.729   4.024   3.362
 8612SOL    HW226736   3.861   3.944   3.413
 8613SOL     OW26737   3.483   3.094   1.363
 8613SOL    HW126738   3.399   3.104   1.311
 8613SOL    HW226739   3.559   3.136   1.313
 8614SOL     OW26740   1.165   2.560   2.303
 8614SOL    HW126741   1.146   2.463   2.285
 8614SOL    HW226742   1.257   2.583   2.272
 8615SOL     OW26743   3.870   1.125   3.457
 8615SOL    HW126744   3.830   1.215   3.474
 8615SOL    HW226745   3.801   1.065   3.417
 8616SOL     OW26746   4.216   4.781   2.735
 8616SOL    HW126747   4.257   4.797   2.645
 8616SOL    HW226748   4.116   4.775   2.725
 8617SOL     OW26749   4.304   0.217   3.745
 8617SOL    HW126750   4.311   0.286   3.674
 8617SOL    HW226751   4.288   0.261   3.834
 8618SOL     OW26752   5.622   3.971   1.222
 8618SOL    HW126753   5.598   3.875   1.210
 8618SOL    HW226754   5.586   4.003   1.310
 8619SOL     OW26755   5.631   4.288   0.757
 8619SOL    HW126756   5.705   4.354   0.771
 8619SOL    HW226757   5.630   4.222   0.833
 8620SOL     OW26758   1.496   0.643   4.784
 8620SOL    HW126759   1.461   0.728   4.744
 8620SOL    HW226760   1.594   0.636   4.765
 8621SOL     OW26761   5.299   2.651   1.732
 8621SOL    HW126762   5.258   2.727   1.783
 8621SOL    HW226763   5.376   2.686   1.678
 8622SOL     OW26764   6.267   5.080   3.035
 8622SOL    HW126765   6.204   5.021   3.085
 8622SOL    HW226766   6.319   5.136   3.099
 8623SOL     OW26767   6.651   3.389   4.347
 8623SOL    HW126768   6.587   3.463   4.366
 8623SOL    HW226769   6.725   3.391   4.414
 8624SOL     OW26770   2.830   3.955   5.785
 8624SOL    HW126771   2.903   3.891   5.762
 8624SOL    HW226772   2.856   4.009   5.865
 8625SOL     OW26773   3.739   2.028   5.867
 8625SOL    HW126774   3.677   2.091   5.914
 8625SOL    HW226775   3.758   1.950   5.927
 8626SOL     OW26776   4.209   4.560   0.605
 8626SOL    HW126777   4.199   4.595   0.698
 8626SOL    HW226778   4.126   4.579   0.553
 8627SOL     OW26779   1.886   0.523   2.849
 8627SOL    HW126780   1.945   0.449   2.815
 8627SOL    HW226781   1.937   0.578   2.916
 8628SOL     OW26782   0.749   6.415   0.531
 8628SOL    HW126783   0.816   6.489   0.526
 8628SOL    HW226784   0.790   6.336   0.576
 8629SOL     OW26785   0.323   0.238   4.328
 8629SOL    HW126786   0.358   0.217   4.420
 8629SOL    HW226787   0.364   0.175   4.262
 8630SOL     OW26788   5.146   3.042   2.260
 8630SOL    HW126789   5.191   3.110   2.202
 8630SOL    HW226790   5.061   3.081   2.297
 8631SOL     OW26791   2.958   6.578   0.048
 8631SOL    HW126792   2.961   6.660   7.011
 8631SOL    HW226793   3.051   6.548   0.068
 8632SOL     OW26794   4.800   4.437   5.507
 8632SOL    HW126795   4.735   4.371   5.545
 8632SOL    HW226796   4.750   4.519   5.477
 8633SOL     OW26797   5.628   3.315   6.113
 8633SOL    HW126798   5.664   3.300   6.205
 8633SOL    HW226799   5.537   3.274   6.106
 8634SOL     OW26800   5.355   4.381   0.650
 8634SOL    HW126801   5.284   4.334   0.703
 8634SOL    HW226802   5.442   4.333   0.661
 8635SOL     OW26803   5.697   2.592   6.423
 8635SOL    HW126804   5.705   2.686   6.457
 8635SOL    HW226805   5.776   2.539   6.453
 8636SOL     OW26806   4.915   6.603   1.002
 8636SOL    HW126807   4.902   6.662   0.923
 8636SOL    HW226808   5.006   6.619   1.040
 8637SOL     OW26809   2.158   1.427   6.586
 8637SOL    HW126810   2.177   1.487   6.663
 8637SOL    HW226811   2.080   1.462   6.534
 8638SOL     OW26812   4.592   2.756   5.185
 8638SOL    HW126813   4.559   2.662   5.190
 8638SOL    HW226814   4.545   2.811   5.254
 8639SOL     OW26815   4.128   3.697   6.271
 8639SOL    HW126816   4.167   3.789   6.260
 8639SOL    HW226817   4.098   3.663   6.182
 8640SOL     OW26818   2.867   3.469   1.531
 8640SOL    HW126819   2.819   3.522   1.601
 8640SOL    HW226820   2.965   3.473   1.547
 8641SOL     OW26821   4.306   6.000   2.592
 8641SOL    HW126822   4.272   6.049   2.512
 8641SOL    HW226823   4.404   5.985   2.583
 8642SOL     OW26824   1.281   6.368   4.340
 8642SOL    HW126825   1.257   6.408   4.429
 8642SOL    HW226826   1.375   6.392   4.317
 8643SOL     OW26827   4.156   6.859   0.852
 8643SOL    HW126828   4.092   6.883   0.924
 8643SOL    HW226829   4.169   6.760   0.851
 8644SOL     OW26830   5.956   1.627   6.899
 8644SOL    HW126831   5.871   1.629   6.952
 8644SOL    HW226832   6.029   1.589   6.956
 8645SOL     OW26833   6.001   3.686   2.005
 8645SOL    HW126834   5.904   3.695   2.024
 8645SOL    HW226835   6.046   3.774   2.017
 8646SOL     OW26836   0.040   1.590   5.510
 8646SOL    HW126837   0.116   1.603   5.447
 8646SOL    HW226838   0.030   1.671   5.568
 8647SOL     OW26839   2.335   4.787   1.825
 8647SOL    HW126840   2.345   4.858   1.755
 8647SOL    HW226841   2.422   4.740   1.838
 8648SOL     OW26842   5.836   5.242   0.918
 8648SOL    HW126843   5.859   5.328   0.964
 8648SOL    HW226844   5.869   5.165   0.972
 8649SOL     OW26845   4.489   6.933   0.994
 8649SOL    HW126846   4.416   6.991   1.030
 8649SOL    HW226847   4.451   6.844   0.970
 8650SOL     OW26848   1.915   6.744   4.074
 8650SOL    HW126849   1.817   6.749   4.056
 8650SOL    HW226850   1.930   6.717   4.170
 8651SOL     OW26851   3.362   1.923   1.021
 8651SOL    HW126852   3.383   1.853   0.953
 8651SOL    HW226853   3.386   1.891   1.112
 8652SOL     OW26854   1.542   3.853   4.008
 8652SOL    HW126855   1.530   3.785   3.936
 8652SOL    HW226856   1.518   3.943   3.973
 8653SOL     OW26857   0.349   1.292   5.949
 8653SOL    HW126858   0.320   1.265   5.857
 8653SOL    HW226859   0.268   1.297   6.008
 8654SOL     OW26860   0.928   4.518   1.513
 8654SOL    HW126861   0.886   4.599   1.472
 8654SOL    HW226862   0.875   4.490   1.593
 8655SOL     OW26863   0.211   0.967   5.205
 8655SOL    HW126864   0.208   1.064   5.182
 8655SOL    HW226865   0.223   0.957   5.303
 8656SOL     OW26866   5.097   0.191   1.666
 8656SOL    HW126867   5.014   0.204   1.612
 8656SOL    HW226868   5.072   0.153   1.756
 8657SOL     OW26869   5.271   0.937   2.678
 8657SOL    HW126870   5.258   0.840   2.699
 8657SOL    HW226871   5.342   0.946   2.608
 8658SOL     OW26872   0.014   4.827   0.942
 8658SOL    HW126873   6.972   4.899   0.972
 8658SOL    HW226874   6.993   4.738   0.963
 8659SOL     OW26875   4.663   1.063   2.232
 8659SOL    HW126876   4.574   1.097   2.201
 8659SOL    HW226877   4.665   1.060   2.332
 8660SOL     OW26878   0.425   3.564   1.582
 8660SOL    HW126879   0.427   3.465   1.601
 8660SOL    HW226880   0.516   3.602   1.594
 8661SOL     OW26881   6.783   3.528   3.249
 8661SOL    HW126882   6.876   3.513   3.283
 8661SOL    HW226883   6.779   3.617   3.203
 8662SOL     OW26884   2.942   5.048   2.892
 8662SOL    HW126885   2.907   4.963   2.931
 8662SOL    HW226886   2.896   5.126   2.935
 8663SOL     OW26887   3.771   5.880   3.180
 8663SOL    HW126888   3.843   5.926   3.127
 8663SOL    HW226889   3.805   5.793   3.215
 8664SOL     OW26890   2.516   5.064   3.420
 8664SOL    HW126891   2.450   4.990   3.411
 8664SOL    HW226892   2.598   5.042   3.366
 8665SOL     OW26893   5.680   3.141   5.883
 8665SOL    HW126894   5.639   3.188   5.961
 8665SOL    HW226895   5.779   3.139   5.893
 8666SOL     OW26896   4.660   6.293   2.654
 8666SOL    HW126897   4.718   6.233   2.709
 8666SOL    HW226898   4.566   6.291   2.689
 8667SOL     OW26899   5.088   2.167   4.409
 8667SOL    HW126900   5.172   2.112   4.404
 8667SOL    HW226901   5.111   2.263   4.389
 8668SOL     OW26902   4.876   3.244   5.493
 8668SOL    HW126903   4.791   3.257   5.441
 8668SOL    HW226904   4.881   3.150   5.526
 8669SOL     OW26905   6.397   6.371   6.014
 8669SOL    HW126906   6.452   6.290   6.032
 8669SOL    HW226907   6.376   6.417   6.101
 8670SOL     OW26908   6.329   4.607   5.894
 8670SOL    HW126909   6.398   4.541   5.924
 8670SOL    HW226910   6.264   4.562   5.834
 8671SOL     OW26911   0.033   2.036   2.600
 8671SOL    HW126912   0.066   2.126   2.627
 8671SOL    HW226913   0.019   1.979   2.681
 8672SOL     OW26914   0.375   1.391   3.526
 8672SOL    HW126915   0.435   1.385   3.446
 8672SOL    HW226916   0.383   1.306   3.579
 8673SOL     OW26917   1.072   1.924   1.256
 8673SOL    HW126918   1.167   1.948   1.235
 8673SOL    HW226919   1.042   1.975   1.337
 8674SOL     OW26920   6.715   4.670   3.103
 8674SOL    HW126921   6.790   4.604   3.099
 8674SOL    HW226922   6.628   4.621   3.096
 8675SOL     OW26923   3.904   2.025   5.622
 8675SOL    HW126924   3.862   2.099   5.571
 8675SOL    HW226925   3.854   2.011   5.708
 8676SOL     OW26926   5.309   0.771   0.805
 8676SOL    HW126927   5.301   0.847   0.871
 8676SOL    HW226928   5.301   0.684   0.854
 8677SOL     OW26929   1.763   0.031   5.807
 8677SOL    HW126930   1.671   0.039   5.845
 8677SOL    HW226931   1.774   6.961   5.765
 8678SOL     OW26932   1.697   0.978   1.241
 8678SOL    HW126933   1.790   1.014   1.244
 8678SOL    HW226934   1.698   0.883   1.274
 8679SOL     OW26935   1.634   1.294   4.672
 8679SOL    HW126936   1.649   1.392   4.658
 8679SOL    HW226937   1.716   1.253   4.709
 8680SOL     OW26938   6.701   1.973   6.414
 8680SOL    HW126939   6.683   1.902   6.482
 8680SOL    HW226940   6.693   2.063   6.456
 8681SOL     OW26941   5.352   5.858   0.912
 8681SOL    HW126942   5.440   5.852   0.959
 8681SOL    HW226943   5.291   5.918   0.964
 8682SOL     OW26944   0.696   1.091   1.018
 8682SOL    HW126945   0.645   1.140   1.089
 8682SOL    HW226946   0.794   1.096   1.038
 8683SOL     OW26947   2.331   4.412   4.659
 8683SOL    HW126948   2.310   4.314   4.664
 8683SOL    HW226949   2.399   4.428   4.588
 8684SOL     OW26950   0.418   3.503   4.323
 8684SOL    HW126951   0.336   3.449   4.344
 8684SOL    HW226952   0.471   3.457   4.252
 8685SOL     OW26953   4.916   2.287   5.268
 8685SOL    HW126954   4.957   2.209   5.221
 8685SOL    HW226955   4.898   2.263   5.364
 8686SOL     OW26956   6.927   6.135   2.983
 8686SOL    HW126957   6.901   6.046   2.946
 8686SOL    HW226958   7.017   6.161   2.948
 8687SOL     OW26959   6.011   3.545   3.742
 8687SOL    HW126960   6.066   3.623   3.711
 8687SOL    HW226961   6.032   3.525   3.838
 8688SOL     OW26962   0.769   4.451   6.255
 8688SOL    HW126963   0.756   4.438   6.157
 8688SOL    HW226964   0.792   4.363   6.297
 8689SOL     OW26965   4.680   3.842   6.556
 8689SOL    HW126966   4.632   3.831   6.469
 8689SOL    HW226967   4.695   3.939   6.574
 8690SOL     OW26968   2.272   1.939   3.853
 8690SOL    HW126969   2.227   1.969   3.936
 8690SOL    HW226970   2.215   1.961   3.773
 8691SOL     OW26971   2.857   2.191   5.078
 8691SOL    HW126972   2.957   2.192   5.073
 8691SOL    HW226973   2.821   2.146   4.996
 8692SOL     OW26974   4.409   1.964   5.834
 8692SOL    HW126975   4.476   2.030   5.800
 8692SOL    HW226976   4.352   1.932   5.759
 8693SOL     OW26977   6.499   0.262   6.267
 8693SOL    HW126978   6.534   0.239   6.358
 8693SOL    HW226979   6.576   0.267   6.203
 8694SOL     OW26980   5.366   3.322   4.155
 8694SOL    HW126981   5.403   3.239   4.112
 8694SOL    HW226982   5.404   3.402   4.110
 8695SOL     OW26983   3.610   4.345   6.116
 8695SOL    HW126984   3.583   4.257   6.080
 8695SOL    HW226985   3.644   4.334   6.210
 8696SOL     OW26986   3.452   5.850   6.255
 8696SOL    HW126987   3.504   5.768   6.276
 8696SOL    HW226988   3.416   5.843   6.162
 8697SOL     OW26989   1.630   3.804   5.875
 8697SOL    HW126990   1.637   3.896   5.836
 8697SOL    HW226991   1.702   3.746   5.836
 8698SOL     OW26992   5.252   5.428   4.960
 8698SOL    HW126993   5.232   5.525   4.945
 8698SOL    HW226994   5.197   5.373   4.897
 8699SOL     OW26995   1.907   3.035   0.273
 8699SOL    HW126996   1.930   2.965   0.205
 8699SOL    HW226997   1.849   3.105   0.231
 8700SOL     OW26998   0.749   0.377   5.115
 8700SOL    HW126999   0.717   0.300   5.171
 8700SOL    HW227000   0.759   0.347   5.020
 8701SOL     OW27001   0.620   2.077   7.013
 8701SOL    HW127002   0.535   2.067   6.960
 8701SOL    HW227003   0.601   2.128   0.076
 8702SOL     OW27004   5.911   4.242   1.301
 8702SOL    HW127005   5.994   4.280   1.342
 8702SOL    HW227006   5.911   4.143   1.311
 8703SOL     OW27007   2.724   4.761   1.256
 8703SOL    HW127008   2.823   4.779   1.262
 8703SOL    HW227009   2.687   4.749   1.348
 8704SOL     OW27010   1.397   2.049   3.698
 8704SOL    HW127011   1.354   2.138   3.710
 8704SOL    HW227012   1.486   2.061   3.654
 8705SOL     OW27013   4.101   2.216   0.200
 8705SOL    HW127014   4.080   2.313   0.207
 8705SOL    HW227015   4.145   2.197   0.112
 8706SOL     OW27016   4.470   3.472   6.271
 8706SOL    HW127017   4.407   3.406   6.312
 8706SOL    HW227018   4.563   3.454   6.302
 8707SOL     OW27019   1.528   2.052   4.826
 8707SOL    HW127020   1.509   2.012   4.737
 8707SOL    HW227021   1.443   2.061   4.877
 8708SOL     OW27022   5.811   2.317   1.946
 8708SOL    HW127023   5.761   2.260   2.011
 8708SOL    HW227024   5.772   2.408   1.943
 8709SOL     OW27025   6.841   0.361   5.595
 8709SOL    HW127026   6.871   0.266   5.602
 8709SOL    HW227027   6.784   0.372   5.514
 8710SOL     OW27028   2.508   1.443   3.705
 8710SOL    HW127029   2.459   1.406   3.784
 8710SOL    HW227030   2.452   1.515   3.662
 8711SOL     OW27031   1.427   0.441   1.937
 8711SOL    HW127032   1.490   0.480   2.003
 8711SOL    HW227033   1.450   0.345   1.921
 8712SOL     OW27034   1.498   2.921   5.848
 8712SOL    HW127035   1.574   2.978   5.880
 8712SOL    HW227036   1.519   2.825   5.864
 8713SOL     OW27037   0.625   4.857   1.668
 8713SOL    HW127038   0.601   4.806   1.585
 8713SOL    HW227039   0.553   4.846   1.736
 8714SOL     OW27040   6.691   6.555   6.982
 8714SOL    HW127041   6.611   6.540   6.925
 8714SOL    HW227042   6.682   6.643   0.009
 8715SOL     OW27043   2.461   2.121   0.686
 8715SOL    HW127044   2.524   2.168   0.747
 8715SOL    HW227045   2.411   2.051   0.737
 8716SOL     OW27046   6.702   6.549   1.514
 8716SOL    HW127047   6.641   6.496   1.456
 8716SOL    HW227048   6.773   6.489   1.551
 8717SOL     OW27049   2.857   4.201   0.754
 8717SOL    HW127050   2.772   4.153   0.776
 8717SOL    HW227051   2.934   4.149   0.790
 8718SOL     OW27052   2.325   4.523   6.025
 8718SOL    HW127053   2.410   4.510   6.077
 8718SOL    HW227054   2.260   4.452   6.051
 8719SOL     OW27055   4.112   0.901   5.537
 8719SOL    HW127056   4.210   0.892   5.548
 8719SOL    HW227057   4.068   0.811   5.549
 8720SOL     OW27058   0.010   4.357   5.026
 8720SOL    HW127059   7.002   4.438   5.079
 8720SOL    HW227060   7.012   4.275   5.080
 8721SOL     OW27061   0.696   6.831   6.073
 8721SOL    HW127062   0.608   6.785   6.088
 8721SOL    HW227063   0.769   6.763   6.070
 8722SOL     OW27064   4.138   1.091   1.672
 8722SOL    HW127065   4.057   1.039   1.644
 8722SOL    HW227066   4.110   1.172   1.722
 8723SOL     OW27067   4.609   6.847   2.633
 8723SOL    HW127068   4.597   6.906   2.713
 8723SOL    HW227069   4.706   6.841   2.610
 8724SOL     OW27070   4.041   0.735   4.939
 8724SOL    HW127071   4.118   0.797   4.952
 8724SOL    HW227072   4.060   0.675   4.861
 8725SOL     OW27073   0.145   6.390   4.023
 8725SOL    HW127074   0.222   6.345   3.978
 8725SOL    HW227075   0.155   6.382   4.122
 8726SOL     OW27076   1.043   1.276   0.537
 8726SOL    HW127077   1.041   1.338   0.615
 8726SOL    HW227078   0.986   1.196   0.556
 8727SOL     OW27079   4.713   5.136   6.277
 8727SOL    HW127080   4.802   5.171   6.306
 8727SOL    HW227081   4.725   5.076   6.198
 8728SOL     OW27082   6.666   1.223   3.187
 8728SOL    HW127083   6.608   1.280   3.129
 8728SOL    HW227084   6.612   1.149   3.227
 8729SOL     OW27085   3.546   5.891   6.699
 8729SOL    HW127086   3.548   5.956   6.774
 8729SOL    HW227087   3.607   5.922   6.626
 8730SOL     OW27088   4.643   4.764   2.164
 8730SOL    HW127089   4.609   4.681   2.207
 8730SOL    HW227090   4.742   4.771   2.179
 8731SOL     OW27091   0.671   1.871   3.497
 8731SOL    HW127092   0.636   1.825   3.415
 8731SOL    HW227093   0.711   1.802   3.558
 8732SOL     OW27094   5.674   5.726   0.714
 8732SOL    HW127095   5.702   5.633   0.737
 8732SOL    HW227096   5.597   5.722   0.650
 8733SOL     OW27097   6.480   5.475   2.059
 8733SOL    HW127098   6.405   5.453   1.996
 8733SOL    HW227099   6.472   5.570   2.088
 8734SOL     OW27100   0.087   3.425   1.987
 8734SOL    HW127101   0.024   3.401   2.061
 8734SOL    HW227102   0.045   3.405   1.899
 8735SOL     OW27103   1.721   4.044   5.727
 8735SOL    HW127104   1.784   4.096   5.786
 8735SOL    HW227105   1.746   4.058   5.632
 8736SOL     OW27106   1.165   5.781   2.301
 8736SOL    HW127107   1.193   5.691   2.336
 8736SOL    HW227108   1.191   5.851   2.367
 8737SOL     OW27109   1.767   5.990   6.667
 8737SOL    HW127110   1.863   5.995   6.639
 8737SOL    HW227111   1.758   5.926   6.744
 8738SOL     OW27112   1.004   3.526   3.525
 8738SOL    HW127113   1.089   3.529   3.578
 8738SOL    HW227114   1.021   3.555   3.431
 8739SOL     OW27115   5.733   4.334   4.922
 8739SOL    HW127116   5.749   4.235   4.912
 8739SOL    HW227117   5.685   4.367   4.841
 8740SOL     OW27118   3.257   1.506   4.061
 8740SOL    HW127119   3.293   1.559   4.138
 8740SOL    HW227120   3.159   1.491   4.074
 8741SOL     OW27121   1.102   0.171   2.735
 8741SOL    HW127122   1.165   0.122   2.796
 8741SOL    HW227123   1.011   0.129   2.741
 8742SOL     OW27124   3.136   1.735   2.913
 8742SOL    HW127125   3.158   1.823   2.955
 8742SOL    HW227126   3.143   1.744   2.813
 8743SOL     OW27127   1.388   1.302   1.286
 8743SOL    HW127128   1.423   1.209   1.298
 8743SOL    HW227129   1.403   1.354   1.370
 8744SOL     OW27130   3.536   4.301   6.612
 8744SOL    HW127131   3.540   4.282   6.710
 8744SOL    HW227132   3.481   4.383   6.596
 8745SOL     OW27133   6.168   1.713   6.259
 8745SOL    HW127134   6.168   1.693   6.161
 8745SOL    HW227135   6.262   1.732   6.289
 8746SOL     OW27136   4.720   5.212   4.761
 8746SOL    HW127137   4.777   5.169   4.692
 8746SOL    HW227138   4.624   5.191   4.743
 8747SOL     OW27139   0.326   0.952   1.890
 8747SOL    HW127140   0.368   0.979   1.977
 8747SOL    HW227141   0.336   0.853   1.878
 8748SOL     OW27142   1.253   2.278   3.709
 8748SOL    HW127143   1.192   2.302   3.633
 8748SOL    HW227144   1.202   2.280   3.795
 8749SOL     OW27145   2.781   1.302   5.413
 8749SOL    HW127146   2.770   1.398   5.391
 8749SOL    HW227147   2.877   1.283   5.434
 8750SOL     OW27148   3.924   2.812   5.939
 8750SOL    HW127149   3.854   2.884   5.932
 8750SOL    HW227150   3.911   2.762   6.024
 8751SOL     OW27151   0.547   5.601   1.804
 8751SOL    HW127152   0.580   5.524   1.859
 8751SOL    HW227153   0.609   5.616   1.727
 8752SOL     OW27154   4.709   3.579   6.550
 8752SOL    HW127155   4.625   3.531   6.572
 8752SOL    HW227156   4.694   3.678   6.552
 8753SOL     OW27157   1.828   2.823   0.531
 8753SOL    HW127158   1.870   2.914   0.523
 8753SOL    HW227159   1.881   2.757   0.478
 8754SOL     OW27160   2.967   5.493   6.910
 8754SOL    HW127161   2.999   5.582   6.941
 8754SOL    HW227162   2.964   5.492   6.810
 8755SOL     OW27163   0.178   2.371   2.467
 8755SOL    HW127164   0.110   2.439   2.494
 8755SOL    HW227165   0.240   2.352   2.543
 8756SOL     OW27166   1.903   2.164   3.163
 8756SOL    HW127167   1.951   2.221   3.096
 8756SOL    HW227168   1.893   2.215   3.249
 8757SOL     OW27169   4.865   6.563   5.175
 8757SOL    HW127170   4.908   6.533   5.260
 8757SOL    HW227171   4.792   6.499   5.150
 8758SOL     OW27172   3.493   6.688   4.346
 8758SOL    HW127173   3.478   6.683   4.247
 8758SOL    HW227174   3.473   6.780   4.378
 8759SOL     OW27175   5.674   1.696   0.804
 8759SOL    HW127176   5.599   1.761   0.815
 8759SOL    HW227177   5.656   1.613   0.857
 8760SOL     OW27178   2.175   2.191   4.504
 8760SOL    HW127179   2.087   2.177   4.549
 8760SOL    HW227180   2.238   2.119   4.533
 8761SOL     OW27181   4.669   0.565   2.319
 8761SOL    HW127182   4.653   0.557   2.221
 8761SOL    HW227183   4.766   0.551   2.339
 8762SOL     OW27184   1.158   5.083   3.082
 8762SOL    HW127185   1.181   4.985   3.078
 8762SOL    HW227186   1.108   5.109   3.000
 8763SOL     OW27187   0.958   1.423   6.255
 8763SOL    HW127188   0.949   1.323   6.260
 8763SOL    HW227189   0.867   1.464   6.267
 8764SOL     OW27190   3.726   5.035   5.918
 8764SOL    HW127191   3.628   5.051   5.933
 8764SOL    HW227192   3.739   4.993   5.828
 8765SOL     OW27193   5.095   6.535   4.955
 8765SOL    HW127194   5.079   6.573   5.046
 8765SOL    HW227195   5.192   6.514   4.943
 8766SOL     OW27196   5.049   4.663   5.572
 8766SOL    HW127197   5.055   4.662   5.473
 8766SOL    HW227198   5.013   4.576   5.605
 8767SOL     OW27199   2.986   1.072   4.031
 8767SOL    HW127200   2.996   1.046   3.935
 8767SOL    HW227201   2.917   1.145   4.038
 8768SOL     OW27202   6.506   2.342   0.035
 8768SOL    HW127203   6.606   2.344   0.033
 8768SOL    HW227204   6.471   2.393   6.976
 8769SOL     OW27205   6.540   0.896   0.547
 8769SOL    HW127206   6.518   0.828   0.477
 8769SOL    HW227207   6.555   0.985   0.505
 8770SOL     OW27208   4.803   4.011   1.837
 8770SOL    HW127209   4.806   4.108   1.858
 8770SOL    HW227210   4.719   3.990   1.787
 8771SOL     OW27211   0.163   3.429   7.015
 8771SOL    HW127212   0.065   3.414   7.005
 8771SOL    HW227213   0.211   3.341   7.010
 8772SOL     OW27214   5.513   6.909   3.509
 8772SOL    HW127215   5.445   6.917   3.436
 8772SOL    HW227216   5.536   6.813   3.523
 8773SOL     OW27217   0.251   1.561   4.204
 8773SOL    HW127218   0.204   1.546   4.291
 8773SOL    HW227219   0.347   1.585   4.222
 8774SOL     OW27220   1.792   0.659   0.820
 8774SOL    HW127221   1.777   0.564   0.847
 8774SOL    HW227222   1.830   0.661   0.727
 8775SOL     OW27223   5.117   1.862   4.476
 8775SOL    HW127224   5.198   1.894   4.428
 8775SOL    HW227225   5.142   1.788   4.538
 8776SOL     OW27226   4.081   2.813   0.138
 8776SOL    HW127227   4.026   2.800   0.056
 8776SOL    HW227228   4.127   2.902   0.133
 8777SOL     OW27229   1.004   2.042   3.594
 8777SOL    HW127230   1.081   1.986   3.560
 8777SOL    HW227231   0.986   2.019   3.689
 8778SOL     OW27232   4.021   4.919   6.663
 8778SOL    HW127233   3.994   4.830   6.627
 8778SOL    HW227234   4.119   4.918   6.685
 8779SOL     OW27235   3.483   5.152   2.796
 8779SOL    HW127236   3.514   5.237   2.753
 8779SOL    HW227237   3.427   5.100   2.731
 8780SOL     OW27238   6.153   5.255   3.346
 8780SOL    HW127239   6.248   5.282   3.359
 8780SOL    HW227240   6.133   5.247   3.248
 8781SOL     OW27241   3.622   6.532   2.240
 8781SOL    HW127242   3.641   6.581   2.325
 8781SOL    HW227243   3.570   6.448   2.261
 8782SOL     OW27244   5.111   0.952   1.791
 8782SOL    HW127245   5.207   0.959   1.820
 8782SOL    HW227246   5.107   0.927   1.694
 8783SOL     OW27247   5.100   3.585   5.000
 8783SOL    HW127248   5.015   3.537   5.023
 8783SOL    HW227249   5.150   3.534   4.931
 8784SOL     OW27250   5.655   6.288   0.560
 8784SOL    HW127251   5.730   6.228   0.588
 8784SOL    HW227252   5.583   6.234   0.517
 8785SOL     OW27253   0.878   5.835   6.308
 8785SOL    HW127254   0.820   5.824   6.227
 8785SOL    HW227255   0.856   5.922   6.353
 8786SOL     OW27256   4.316   1.616   2.004
 8786SOL    HW127257   4.333   1.656   2.095
 8786SOL    HW227258   4.223   1.580   2.001
 8787SOL     OW27259   3.365   0.172   1.653
 8787SOL    HW127260   3.436   0.107   1.628
 8787SOL    HW227261   3.354   0.172   1.752
 8788SOL     OW27262   0.692   0.425   4.466
 8788SOL    HW127263   0.695   0.400   4.369
 8788SOL    HW227264   0.691   0.524   4.476
 8789SOL     OW27265   0.037   2.839   4.895
 8789SOL    HW127266   0.005   2.865   4.986
 8789SOL    HW227267   0.056   2.922   4.841
 8790SOL     OW27268   5.604   2.486   6.174
 8790SOL    HW127269   5.640   2.538   6.251
 8790SOL    HW227270   5.539   2.418   6.207
 8791SOL     OW27271   4.276   5.249   6.173
 8791SOL    HW127272   4.327   5.203   6.101
 8791SOL    HW227273   4.265   5.187   6.251
 8792SOL     OW27274   5.391   5.369   1.161
 8792SOL    HW127275   5.416   5.454   1.116
 8792SOL    HW227276   5.439   5.293   1.118
 8793SOL     OW27277   7.020   4.678   4.082
 8793SOL    HW127278   0.017   4.729   4.167
 8793SOL    HW227279   0.087   4.654   4.040
 8794SOL     OW27280   0.399   0.846   2.362
 8794SOL    HW127281   0.364   0.802   2.445
 8794SOL    HW227282   0.485   0.892   2.383
 8795SOL     OW27283   1.572   5.410   5.638
 8795SOL    HW127284   1.643   5.341   5.624
 8795SOL    HW227285   1.504   5.402   5.565
 8796SOL     OW27286   6.761   3.611   3.557
 8796SOL    HW127287   6.754   3.514   3.537
 8796SOL    HW227288   6.673   3.645   3.589
 8797SOL     OW27289   5.022   6.676   3.973
 8797SOL    HW127290   5.086   6.673   4.050
 8797SOL    HW227291   5.038   6.597   3.913
 8798SOL     OW27292   3.938   6.430   5.943
 8798SOL    HW127293   3.856   6.456   5.994
 8798SOL    HW227294   3.935   6.470   5.852
 8799SOL     OW27295   1.473   5.377   1.965
 8799SOL    HW127296   1.519   5.290   1.982
 8799SOL    HW227297   1.390   5.362   1.912
 8800SOL     OW27298   0.281   6.173   5.417
 8800SOL    HW127299   0.279   6.199   5.514
 8800SOL    HW227300   0.355   6.221   5.371
 8801SOL     OW27301   6.331   2.741   5.230
 8801SOL    HW127302   6.317   2.803   5.307
 8801SOL    HW227303   6.308   2.787   5.145
 8802SOL     OW27304   1.757   6.515   5.933
 8802SOL    HW127305   1.716   6.446   5.873
 8802SOL    HW227306   1.689   6.549   5.997
 8803SOL     OW27307   6.572   0.236   6.537
 8803SOL    HW127308   6.573   0.324   6.585
 8803SOL    HW227309   6.546   0.164   6.601
 8804SOL     OW27310   1.342   6.259   2.330
 8804SOL    HW127311   1.334   6.167   2.370
 8804SOL    HW227312   1.406   6.313   2.383
 8805SOL     OW27313   4.738   5.079   2.941
 8805SOL    HW127314   4.822   5.033   2.913
 8805SOL    HW227315   4.679   5.094   2.861
 8806SOL     OW27316   1.878   6.954   0.608
 8806SOL    HW127317   1.834   6.934   0.696
 8806SOL    HW227318   1.945   0.007   0.620
 8807SOL     OW27319   4.845   2.854   1.105
 8807SOL    HW127320   4.799   2.816   1.025
 8807SOL    HW227321   4.941   2.824   1.106
 8808SOL     OW27322   2.110   2.423   1.039
 8808SOL    HW127323   2.094   2.342   0.982
 8808SOL    HW227324   2.075   2.407   1.131
 8809SOL     OW27325   1.219   4.042   3.564
 8809SOL    HW127326   1.219   4.009   3.469
 8809SOL    HW227327   1.149   4.112   3.576
 8810SOL     OW27328   0.633   0.528   5.987
 8810SOL    HW127329   0.540   0.506   6.014
 8810SOL    HW227330   0.633   0.608   5.927
 8811SOL     OW27331   3.730   5.667   2.579
 8811SOL    HW127332   3.763   5.586   2.531
 8811SOL    HW227333   3.752   5.749   2.526
 8812SOL     OW27334   4.498   1.432   6.577
 8812SOL    HW127335   4.513   1.351   6.633
 8812SOL    HW227336   4.482   1.511   6.636
 8813SOL     OW27337   2.160   4.714   3.722
 8813SOL    HW127338   2.135   4.745   3.814
 8813SOL    HW227339   2.112   4.769   3.654
 8814SOL     OW27340   5.156   6.318   6.188
 8814SOL    HW127341   5.238   6.340   6.134
 8814SOL    HW227342   5.088   6.275   6.129
 8815SOL     OW27343   5.437   1.315   0.354
 8815SOL    HW127344   5.428   1.409   0.319
 8815SOL    HW227345   5.358   1.261   0.324
 8816SOL     OW27346   0.805   6.475   5.264
 8816SOL    HW127347   0.817   6.377   5.253
 8816SOL    HW227348   0.891   6.522   5.246
 8817SOL     OW27349   1.907   2.961   4.281
 8817SOL    HW127350   1.981   3.029   4.279
 8817SOL    HW227351   1.833   2.995   4.339
 8818SOL     OW27352   1.887   6.972   4.453
 8818SOL    HW127353   1.824   7.009   4.385
 8818SOL    HW227354   1.878   0.002   4.539
 8819SOL     OW27355   6.115   4.473   5.747
 8819SOL    HW127356   6.065   4.433   5.824
 8819SOL    HW227357   6.169   4.402   5.703
 8820SOL     OW27358   3.179   0.293   4.505
 8820SOL    HW127359   3.161   0.300   4.603
 8820SOL    HW227360   3.271   0.328   4.485
 8821SOL     OW27361   0.677   4.356   6.982
 8821SOL    HW127362   0.736   4.380   6.905
 8821SOL    HW227363   0.598   4.305   6.948
 8822SOL     OW27364   6.759   6.738   3.936
 8822SOL    HW127365   6.855   6.730   3.910
 8822SOL    HW227366   6.744   6.825   3.983
 8823SOL     OW27367   3.775   1.060   2.912
 8823SOL    HW127368   3.844   1.067   2.840
 8823SOL    HW227369   3.799   0.985   2.973
 8824SOL     OW27370   1.808   0.965   1.897
 8824SOL    HW127371   1.863   1.004   1.971
 8824SOL    HW227372   1.789   1.036   1.829
 8825SOL     OW27373   6.956   6.649   0.024
 8825SOL    HW127374   6.971   6.688   6.953
 8825SOL    HW227375   6.899   6.567   0.016
 8826SOL     OW27376   1.024   3.244   0.466
 8826SOL    HW127377   1.105   3.282   0.511
 8826SOL    HW227378   1.043   3.231   0.368
 8827SOL     OW27379   3.980   6.852   2.410
 8827SOL    HW127380   3.979   6.896   2.320
 8827SOL    HW227381   4.059   6.884   2.462
 8828SOL     OW27382   3.540   2.952   6.168
 8828SOL    HW127383   3.620   2.987   6.218
 8828SOL    HW227384   3.472   3.025   6.160
 8829SOL     OW27385   0.420   1.856   2.358
 8829SOL    HW127386   0.391   1.870   2.264
 8829SOL    HW227387   0.403   1.939   2.411
 8830SOL     OW27388   2.970   1.730   4.024
 8830SOL    HW127389   2.892   1.790   4.045
 8830SOL    HW227390   3.051   1.763   4.072
 8831SOL     OW27391   0.534   2.873   2.240
 8831SOL    HW127392   0.470   2.796   2.243
 8831SOL    HW227393   0.491   2.950   2.194
 8832SOL     OW27394   6.524   0.426   4.337
 8832SOL    HW127395   6.596   0.360   4.318
 8832SOL    HW227396   6.562   0.503   4.390
 8833SOL     OW27397   3.494   2.925   0.700
 8833SOL    HW127398   3.489   3.024   0.706
 8833SOL    HW227399   3.412   2.885   0.741
 8834SOL     OW27400   5.159   3.270   5.682
 8834SOL    HW127401   5.075   3.318   5.659
 8834SOL    HW227402   5.190   3.298   5.773
 8835SOL     OW27403   6.047   1.056   5.514
 8835SOL    HW127404   6.057   1.122   5.439
 8835SOL    HW227405   6.060   1.103   5.601
 8836SOL     OW27406   5.388   1.861   0.599
 8836SOL    HW127407   5.411   1.953   0.570
 8836SOL    HW227408   5.340   1.813   0.526
 8837SOL     OW27409   5.808   6.761   1.436
 8837SOL    HW127410   5.844   6.721   1.351
 8837SOL    HW227411   5.849   6.851   1.451
 8838SOL     OW27412   0.241   4.304   3.039
 8838SOL    HW127413   0.194   4.294   2.951
 8838SOL    HW227414   0.248   4.215   3.083
 8839SOL     OW27415   5.253   5.909   3.300
 8839SOL    HW127416   5.320   5.901   3.374
 8839SOL    HW227417   5.166   5.869   3.329
 8840SOL     OW27418   0.155   1.376   1.699
 8840SOL    HW127419   0.113   1.327   1.623
 8840SOL    HW227420   0.085   1.400   1.766
 8841SOL     OW27421   3.749   1.208   1.541
 8841SOL    HW127422   3.769   1.138   1.609
 8841SOL    HW227423   3.776   1.298   1.576
 8842SOL     OW27424   3.717   3.667   4.068
 8842SOL    HW127425   3.784   3.729   4.110
 8842SOL    HW227426   3.763   3.584   4.037
 8843SOL     OW27427   1.747   4.627   5.763
 8843SOL    HW127428   1.824   4.572   5.794
 8843SOL    HW227429   1.705   4.674   5.841
 8844SOL     OW27430   4.898   1.824   5.253
 8844SOL    HW127431   4.803   1.830   5.282
 8844SOL    HW227432   4.921   1.729   5.232
 8845SOL     OW27433   0.360   4.656   1.714
 8845SOL    HW127434   0.278   4.692   1.668
 8845SOL    HW227435   0.374   4.706   1.800
 8846SOL     OW27436   5.931   4.887   3.394
 8846SOL    HW127437   5.899   4.793   3.406
 8846SOL    HW227438   5.995   4.910   3.468
 8847SOL     OW27439   2.459   2.219   3.135
 8847SOL    HW127440   2.366   2.248   3.157
 8847SOL    HW227441   2.524   2.286   3.168
 8848SOL     OW27442   3.679   1.774   1.142
 8848SOL    HW127443   3.739   1.843   1.183
 8848SOL    HW227444   3.732   1.718   1.079
 8849SOL     OW27445   2.749   5.157   4.644
 8849SOL    HW127446   2.822   5.111   4.694
 8849SOL    HW227447   2.665   5.155   4.699
 8850SOL     OW27448   3.077   1.578   1.301
 8850SOL    HW127449   3.138   1.549   1.228
 8850SOL    HW227450   3.112   1.545   1.389
 8851SOL     OW27451   0.202   5.206   3.076
 8851SOL    HW127452   0.275   5.219   3.008
 8851SOL    HW227453   0.243   5.187   3.165
 8852SOL     OW27454   5.509   2.128   5.587
 8852SOL    HW127455   5.476   2.102   5.496
 8852SOL    HW227456   5.439   2.181   5.634
 8853SOL     OW27457   4.620   0.826   5.438
 8853SOL    HW127458   4.697   0.852   5.495
 8853SOL    HW227459   4.535   0.851   5.483
 8854SOL     OW27460   2.012   1.680   6.128
 8854SOL    HW127461   2.081   1.729   6.074
 8854SOL    HW227462   2.046   1.590   6.153
 8855SOL     OW27463   6.327   5.352   6.523
 8855SOL    HW127464   6.282   5.405   6.595
 8855SOL    HW227465   6.278   5.266   6.510
 8856SOL     OW27466   5.803   0.665   5.061
 8856SOL    HW127467   5.738   0.734   5.029
 8856SOL    HW227468   5.847   0.697   5.145
 8857SOL     OW27469   6.319   1.888   3.914
 8857SOL    HW127470   6.262   1.921   3.990
 8857SOL    HW227471   6.260   1.870   3.834
 8858SOL     OW27472   0.407   3.365   6.097
 8858SOL    HW127473   0.379   3.461   6.089
 8858SOL    HW227474   0.376   3.329   6.184
 8859SOL     OW27475   1.704   5.406   6.026
 8859SOL    HW127476   1.778   5.427   6.091
 8859SOL    HW227477   1.646   5.487   6.015
 8860SOL     OW27478   1.295   1.909   3.001
 8860SOL    HW127479   1.378   1.861   2.972
 8860SOL    HW227480   1.265   1.874   3.090
 8861SOL     OW27481   4.261   3.086   0.280
 8861SOL    HW127482   4.289   2.992   0.260
 8861SOL    HW227483   4.328   3.128   0.341
 8862SOL     OW27484   5.771   1.435   4.356
 8862SOL    HW127485   5.734   1.344   4.378
 8862SOL    HW227486   5.706   1.483   4.297
 8863SOL     OW27487   2.193   5.669   5.116
 8863SOL    HW127488   2.219   5.692   5.022
 8863SOL    HW227489   2.180   5.570   5.124
 8864SOL     OW27490   1.257   2.550   6.741
 8864SOL    HW127491   1.267   2.543   6.840
 8864SOL    HW227492   1.347   2.552   6.698
 8865SOL     OW27493   2.798   2.255   6.052
 8865SOL    HW127494   2.702   2.227   6.062
 8865SOL    HW227495   2.811   2.296   5.961
 8866SOL     OW27496   3.464   6.398   3.966
 8866SOL    HW127497   3.511   6.329   3.909
 8866SOL    HW227498   3.406   6.455   3.908
 8867SOL     OW27499   6.537   2.612   3.504
 8867SOL    HW127500   6.562   2.646   3.595
 8867SOL    HW227501   6.576   2.521   3.490
 8868SOL     OW27502   4.580   4.072   0.022
 8868SOL    HW127503   4.497   4.108   0.065
 8868SOL    HW227504   4.621   4.142   6.985
 8869SOL     OW27505   4.799   2.840   3.525
 8869SOL    HW127506   4.723   2.784   3.559
 8869SOL    HW227507   4.779   2.871   3.432
 8870SOL     OW27508   4.127   1.270   0.795
 8870SOL    HW127509   4.081   1.309   0.715
 8870SOL    HW227510   4.225   1.288   0.789
 8871SOL     OW27511   2.434   1.884   3.477
 8871SOL    HW127512   2.525   1.919   3.453
 8871SOL    HW227513   2.364   1.942   3.437
 8872SOL     OW27514   1.293   3.731   4.120
 8872SOL    HW127515   1.389   3.714   4.098
 8872SOL    HW227516   1.285   3.817   4.171
 8873SOL     OW27517   0.207   5.295   4.357
 8873SOL    HW127518   0.271   5.232   4.399
 8873SOL    HW227519   0.235   5.389   4.377
 8874SOL     OW27520   2.663   0.524   1.147
 8874SOL    HW127521   2.630   0.607   1.102
 8874SOL    HW227522   2.730   0.479   1.089
 8875SOL     OW27523   1.846   2.855   4.043
 8875SOL    HW127524   1.762   2.804   4.066
 8875SOL    HW227525   1.880   2.902   4.124
 8876SOL     OW27526   0.832   0.540   4.743
 8876SOL    HW127527   0.743   0.558   4.783
 8876SOL    HW227528   0.904   0.575   4.805
 8877SOL     OW27529   2.895   0.227   4.639
 8877SOL    HW127530   2.987   0.242   4.674
 8877SOL    HW227531   2.872   0.298   4.573
 8878SOL     OW27532   6.951   4.078   6.678
 8878SOL    HW127533   0.026   4.056   6.656
 8878SOL    HW227534   6.947   4.169   6.720
 8879SOL     OW27535   5.674   6.452   6.309
 8879SOL    HW127536   5.721   6.478   6.225
 8879SOL    HW227537   5.725   6.486   6.388
 8880SOL     OW27538   0.029   4.811   4.298
 8880SOL    HW127539   6.954   4.840   4.303
 8880SOL    HW227540   0.088   4.891   4.312
 8881SOL     OW27541   6.798   1.457   1.583
 8881SOL    HW127542   6.871   1.414   1.530
 8881SOL    HW227543   6.717   1.468   1.525
 8882SOL     OW27544   5.445   1.989   6.589
 8882SOL    HW127545   5.506   1.910   6.589
 8882SOL    HW227546   5.383   1.983   6.510
 8883SOL     OW27547   6.600   0.972   5.465
 8883SOL    HW127548   6.582   0.903   5.395
 8883SOL    HW227549   6.609   1.062   5.423
 8884SOL     OW27550   6.351   0.474   6.209
 8884SOL    HW127551   6.372   0.389   6.257
 8884SOL    HW227552   6.435   0.527   6.197
 8885SOL     OW27553   5.532   3.615   1.607
 8885SOL    HW127554   5.454   3.592   1.664
 8885SOL    HW227555   5.504   3.678   1.535
 8886SOL     OW27556   3.294   6.859   5.737
 8886SOL    HW127557   3.214   6.805   5.711
 8886SOL    HW227558   3.377   6.807   5.719
 8887SOL     OW27559   2.623   1.009   0.717
 8887SOL    HW127560   2.534   0.965   0.726
 8887SOL    HW227561   2.626   1.090   0.775
 8888SOL     OW27562   3.172   1.878   1.941
 8888SOL    HW127563   3.223   1.960   1.915
 8888SOL    HW227564   3.077   1.902   1.959
 8889SOL     OW27565   3.877   6.721   4.214
 8889SOL    HW127566   3.813   6.734   4.138
 8889SOL    HW227567   3.831   6.671   4.288
 8890SOL     OW27568   0.658   5.314   4.423
 8890SOL    HW127569   0.696   5.320   4.515
 8890SOL    HW227570   0.587   5.243   4.421
 8891SOL     OW27571   5.110   2.832   6.434
 8891SOL    HW127572   5.144   2.750   6.388
 8891SOL    HW227573   5.099   2.906   6.368
 8892SOL     OW27574   2.134   0.073   2.778
 8892SOL    HW127575   2.097   0.166   2.770
 8892SOL    HW227576   2.217   0.075   2.833
 8893SOL     OW27577   0.470   1.485   0.905
 8893SOL    HW127578   0.397   1.475   0.837
 8893SOL    HW227579   0.450   1.427   0.984
 8894SOL     OW27580   3.880   2.652   6.141
 8894SOL    HW127581   3.910   2.628   6.233
 8894SOL    HW227582   3.825   2.578   6.103
 8895SOL     OW27583   0.347   6.987   2.093
 8895SOL    HW127584   0.352   6.918   2.166
 8895SOL    HW227585   0.292   6.952   2.018
 8896SOL     OW27586   1.899   3.952   4.624
 8896SOL    HW127587   1.810   3.922   4.660
 8896SOL    HW227588   1.933   4.029   4.679
 8897SOL     OW27589   1.836   1.643   1.618
 8897SOL    HW127590   1.811   1.739   1.629
 8897SOL    HW227591   1.936   1.635   1.607
 8898SOL     OW27592   5.852   3.887   4.180
 8898SOL    HW127593   5.798   3.832   4.116
 8898SOL    HW227594   5.883   3.970   4.134
 8899SOL     OW27595   1.246   4.757   0.454
 8899SOL    HW127596   1.258   4.822   0.379
 8899SOL    HW227597   1.219   4.668   0.417
 8900SOL     OW27598   5.089   2.260   3.127
 8900SOL    HW127599   5.077   2.277   3.225
 8900SOL    HW227600   5.018   2.199   3.094
 8901SOL     OW27601   1.046   0.386   2.578
 8901SOL    HW127602   1.123   0.449   2.574
 8901SOL    HW227603   1.068   0.310   2.639
 8902SOL     OW27604   1.307   5.746   6.060
 8902SOL    HW127605   1.237   5.692   6.014
 8902SOL    HW227606   1.274   5.840   6.073
 8903SOL     OW27607   1.971   1.875   3.736
 8903SOL    HW127608   1.923   1.828   3.810
 8903SOL    HW227609   1.933   1.846   3.648
 8904SOL     OW27610   0.357   6.450   3.739
 8904SOL    HW127611   0.291   6.425   3.669
 8904SOL    HW227612   0.373   6.372   3.800
 8905SOL     OW27613   2.497   3.683   5.587
 8905SOL    HW127614   2.458   3.723   5.504
 8905SOL    HW227615   2.464   3.589   5.597
 8906SOL     OW27616   6.579   6.580   5.828
 8906SOL    HW127617   6.540   6.543   5.913
 8906SOL    HW227618   6.655   6.522   5.799
 8907SOL     OW27619   3.227   2.749   5.205
 8907SOL    HW127620   3.213   2.675   5.271
 8907SOL    HW227621   3.192   2.720   5.116
 8908SOL     OW27622   1.498   2.245   1.688
 8908SOL    HW127623   1.449   2.222   1.772
 8908SOL    HW227624   1.434   2.249   1.611
 8909SOL     OW27625   2.134   0.692   6.735
 8909SOL    HW127626   2.086   0.640   6.806
 8909SOL    HW227627   2.232   0.688   6.752
 8910SOL     OW27628   2.580   3.526   6.812
 8910SOL    HW127629   2.540   3.435   6.819
 8910SOL    HW227630   2.519   3.593   6.855
 8911SOL     OW27631   3.457   2.046   4.546
 8911SOL    HW127632   3.420   2.073   4.457
 8911SOL    HW227633   3.557   2.049   4.543
 8912SOL     OW27634   4.574   1.919   6.042
 8912SOL    HW127635   4.502   1.905   5.975
 8912SOL    HW227636   4.645   1.978   6.003
 8913SOL     OW27637   5.103   4.172   1.460
 8913SOL    HW127638   5.085   4.123   1.545
 8913SOL    HW227639   5.100   4.270   1.476
 8914SOL     OW27640   3.197   1.678   4.991
 8914SOL    HW127641   3.259   1.703   5.066
 8914SOL    HW227642   3.120   1.741   4.989
 8915SOL     OW27643   1.645   3.767   2.695
 8915SOL    HW127644   1.714   3.775   2.767
 8915SOL    HW227645   1.555   3.753   2.735
 8916SOL     OW27646   6.497   3.680   2.845
 8916SOL    HW127647   6.401   3.666   2.868
 8916SOL    HW227648   6.538   3.593   2.817
 8917SOL     OW27649   6.485   5.856   0.217
 8917SOL    HW127650   6.482   5.859   0.316
 8917SOL    HW227651   6.414   5.793   0.184
 8918SOL     OW27652   5.410   5.343   6.427
 8918SOL    HW127653   5.458   5.302   6.504
 8918SOL    HW227654   5.412   5.443   6.436
 8919SOL     OW27655   3.471   5.157   1.436
 8919SOL    HW127656   3.405   5.164   1.361
 8919SOL    HW227657   3.485   5.248   1.476
 8920SOL     OW27658   5.813   5.560   5.270
 8920SOL    HW127659   5.717   5.533   5.274
 8920SOL    HW227660   5.859   5.532   5.355
 8921SOL     OW27661   1.129   0.485   3.706
 8921SOL    HW127662   1.096   0.495   3.800
 8921SOL    HW227663   1.153   0.389   3.690
 8922SOL     OW27664   1.108   4.325   0.652
 8922SOL    HW127665   1.030   4.346   0.594
 8922SOL    HW227666   1.134   4.407   0.704
 8923SOL     OW27667   1.937   4.412   6.406
 8923SOL    HW127668   1.845   4.435   6.372
 8923SOL    HW227669   1.963   4.476   6.478
 8924SOL     OW27670   2.932   5.316   5.289
 8924SOL    HW127671   2.992   5.365   5.352
 8924SOL    HW227672   2.988   5.274   5.217
 8925SOL     OW27673   6.734   0.407   2.464
 8925SOL    HW127674   6.768   0.422   2.557
 8925SOL    HW227675   6.634   0.403   2.464
 8926SOL     OW27676   5.614   2.253   1.249
 8926SOL    HW127677   5.648   2.291   1.334
 8926SOL    HW227678   5.603   2.326   1.182
 8927SOL     OW27679   2.074   2.583   4.919
 8927SOL    HW127680   2.066   2.679   4.948
 8927SOL    HW227681   2.155   2.543   4.962
 8928SOL     OW27682   0.638   6.719   5.431
 8928SOL    HW127683   0.691   6.700   5.349
 8928SOL    HW227684   0.683   6.791   5.484
 8929SOL     OW27685   6.626   3.973   3.801
 8929SOL    HW127686   6.564   4.046   3.827
 8929SOL    HW227687   6.709   4.012   3.760
 8930SOL     OW27688   1.537   4.736   4.581
 8930SOL    HW127689   1.446   4.774   4.599
 8930SOL    HW227690   1.568   4.767   4.491
 8931SOL     OW27691   4.444   1.329   0.969
 8931SOL    HW127692   4.410   1.379   0.889
 8931SOL    HW227693   4.541   1.351   0.983
 8932SOL     OW27694   6.835   0.468   6.277
 8932SOL    HW127695   6.867   0.382   6.317
 8932SOL    HW227696   6.737   0.478   6.293
 8933SOL     OW27697   1.603   0.418   5.083
 8933SOL    HW127698   1.544   0.484   5.038
 8933SOL    HW227699   1.552   0.334   5.102
 8934SOL     OW27700   3.325   5.709   2.755
 8934SOL    HW127701   3.368   5.794   2.786
 8934SOL    HW227702   3.226   5.723   2.746
 8935SOL     OW27703   4.949   2.587   2.848
 8935SOL    HW127704   4.920   2.493   2.827
 8935SOL    HW227705   4.953   2.640   2.763
 8936SOL     OW27706   1.026   5.497   1.695
 8936SOL    HW127707   1.041   5.548   1.779
 8936SOL    HW227708   1.084   5.535   1.622
 8937SOL     OW27709   6.415   6.700   4.012
 8937SOL    HW127710   6.473   6.640   4.068
 8937SOL    HW227711   6.386   6.778   4.067
 8938SOL     OW27712   6.268   0.975   0.668
 8938SOL    HW127713   6.360   0.961   0.632
 8938SOL    HW227714   6.200   0.952   0.597
 8939SOL     OW27715   0.772   2.908   3.735
 8939SOL    HW127716   0.807   2.997   3.764
 8939SOL    HW227717   0.772   2.902   3.635
 8940SOL     OW27718   6.522   3.254   1.271
 8940SOL    HW127719   6.436   3.306   1.272
 8940SOL    HW227720   6.573   3.273   1.355
 8941SOL     OW27721   4.901   2.170   1.338
 8941SOL    HW127722   4.883   2.268   1.342
 8941SOL    HW227723   4.955   2.142   1.417
 8942SOL     OW27724   5.742   4.390   3.765
 8942SOL    HW127725   5.778   4.297   3.758
 8942SOL    HW227726   5.814   4.451   3.798
 8943SOL     OW27727   4.967   3.869   6.953
 8943SOL    HW127728   4.936   3.963   6.971
 8943SOL    HW227729   4.976   3.821   0.020
 8944SOL     OW27730   4.974   5.595   4.500
 8944SOL    HW127731   4.899   5.536   4.528
 8944SOL    HW227732   5.054   5.578   4.558
 8945SOL     OW27733   5.862   3.943   5.658
 8945SOL    HW127734   5.862   3.990   5.570
 8945SOL    HW227735   5.775   3.896   5.671
 8946SOL     OW27736   5.230   0.661   4.619
 8946SOL    HW127737   5.148   0.669   4.562
 8946SOL    HW227738   5.242   0.745   4.672
 8947SOL     OW27739   1.889   5.082   6.618
 8947SOL    HW127740   1.911   5.094   6.521
 8947SOL    HW227741   1.864   5.170   6.658
 8948SOL     OW27742   6.526   1.443   3.076
 8948SOL    HW127743   6.593   1.516   3.066
 8948SOL    HW227744   6.449   1.459   3.013
 8949SOL     OW27745   2.910   6.068   0.805
 8949SOL    HW127746   2.939   5.977   0.834
 8949SOL    HW227747   2.923   6.077   0.706
 8950SOL     OW27748   4.834   3.916   1.412
 8950SOL    HW127749   4.882   3.995   1.374
 8950SOL    HW227750   4.780   3.872   1.341
 8951SOL     OW27751   1.790   1.789   4.567
 8951SOL    HW127752   1.776   1.830   4.657
 8951SOL    HW227753   1.794   1.862   4.498
 8952SOL     OW27754   2.064   4.414   3.947
 8952SOL    HW127755   2.162   4.400   3.964
 8952SOL    HW227756   2.034   4.497   3.994
 8953SOL     OW27757   1.334   5.014   1.856
 8953SOL    HW127758   1.323   4.951   1.779
 8953SOL    HW227759   1.421   5.063   1.847
 8954SOL     OW27760   1.631   5.266   5.028
 8954SOL    HW127761   1.618   5.169   5.008
 8954SOL    HW227762   1.586   5.320   4.957
 8955SOL     OW27763   5.770   2.509   4.310
 8955SOL    HW127764   5.779   2.420   4.356
 8955SOL    HW227765   5.812   2.580   4.367
 8956SOL     OW27766   0.797   5.648   5.784
 8956SOL    HW127767   0.872   5.627   5.720
 8956SOL    HW227768   0.819   5.731   5.835
 8957SOL     OW27769   1.033   5.808   2.635
 8957SOL    HW127770   1.070   5.896   2.667
 8957SOL    HW227771   0.953   5.784   2.690
 8958SOL     OW27772   1.868   4.055   5.030
 8958SOL    HW127773   1.866   3.956   5.011
 8958SOL    HW227774   1.945   4.076   5.090
 8959SOL     OW27775   0.044   2.941   2.775
 8959SOL    HW127776   6.969   2.947   2.806
 8959SOL    HW227777   0.105   2.973   2.848
 8960SOL     OW27778   5.120   4.176   3.476
 8960SOL    HW127779   5.105   4.274   3.486
 8960SOL    HW227780   5.121   4.133   3.567
 8961SOL     OW27781   2.597   6.338   5.548
 8961SOL    HW127782   2.582   6.373   5.641
 8961SOL    HW227783   2.608   6.415   5.485
 8962SOL     OW27784   0.863   5.913   1.544
 8962SOL    HW127785   0.953   5.936   1.579
 8962SOL    HW227786   0.826   5.835   1.596
 8963SOL     OW27787   3.719   6.012   4.444
 8963SOL    HW127788   3.653   5.955   4.394
 8963SOL    HW227789   3.724   5.981   4.539
 8964SOL     OW27790   0.624   3.251   4.513
 8964SOL    HW127791   0.532   3.281   4.539
 8964SOL    HW227792   0.667   3.207   4.591
 8965SOL     OW27793   4.290   4.956   0.668
 8965SOL    HW127794   4.281   5.035   0.608
 8965SOL    HW227795   4.374   4.906   0.646
 8966SOL     OW27796   4.975   4.852   6.490
 8966SOL    HW127797   4.932   4.769   6.454
 8966SOL    HW227798   4.954   4.929   6.430
 8967SOL     OW27799   2.823   0.233   3.150
 8967SOL    HW127800   2.780   0.142   3.158
 8967SOL    HW227801   2.757   0.297   3.112
 8968SOL     OW27802   3.371   4.858   1.796
 8968SOL    HW127803   3.358   4.791   1.723
 8968SOL    HW227804   3.441   4.825   1.859
 8969SOL     OW27805   0.000   1.175   2.911
 8969SOL    HW127806   0.076   1.120   2.947
 8969SOL    HW227807   0.036   1.262   2.875
 8970SOL     OW27808   2.114   0.806   5.473
 8970SOL    HW127809   2.132   0.761   5.385
 8970SOL    HW227810   2.062   0.744   5.532
 8971SOL     OW27811   4.659   5.510   1.024
 8971SOL    HW127812   4.672   5.522   0.926
 8971SOL    HW227813   4.611   5.424   1.041
 8972SOL     OW27814   6.434   4.605   0.723
 8972SOL    HW127815   6.348   4.554   0.722
 8972SOL    HW227816   6.417   4.699   0.696
 8973SOL     OW27817   0.923   2.676   2.365
 8973SOL    HW127818   1.007   2.622   2.361
 8973SOL    HW227819   0.876   2.658   2.452
 8974SOL     OW27820   2.120   4.457   4.441
 8974SOL    HW127821   2.141   4.361   4.460
 8974SOL    HW227822   2.171   4.515   4.505
 8975SOL     OW27823   0.491   6.639   6.129
 8975SOL    HW127824   0.442   6.586   6.059
 8975SOL    HW227825   0.436   6.719   6.154
 8976SOL     OW27826   6.795   6.783   1.789
 8976SOL    HW127827   6.761   6.755   1.879
 8976SOL    HW227828   6.770   6.878   1.772
 8977SOL     OW27829   0.152   5.024   5.967
 8977SOL    HW127830   0.183   4.979   5.884
 8977SOL    HW227831   0.110   4.957   6.028
 8978SOL     OW27832   5.512   5.437   5.727
 8978SOL    HW127833   5.526   5.428   5.629
 8978SOL    HW227834   5.516   5.346   5.770
 8979SOL     OW27835   0.794   4.736   5.909
 8979SOL    HW127836   0.762   4.830   5.923
 8979SOL    HW227837   0.788   4.714   5.811
 8980SOL     OW27838   3.267   0.750   4.985
 8980SOL    HW127839   3.354   0.798   4.986
 8980SOL    HW227840   3.211   0.782   4.909
 8981SOL     OW27841   3.757   2.683   6.970
 8981SOL    HW127842   3.788   2.601   7.019
 8981SOL    HW227843   3.831   2.750   6.967
 8982SOL     OW27844   0.835   1.556   1.383
 8982SOL    HW127845   0.751   1.521   1.342
 8982SOL    HW227846   0.902   1.482   1.390
 8983SOL     OW27847   1.070   0.440   2.293
 8983SOL    HW127848   1.044   0.365   2.232
 8983SOL    HW227849   1.026   0.428   2.382
 8984SOL     OW27850   6.154   0.305   4.105
 8984SOL    HW127851   6.078   0.366   4.084
 8984SOL    HW227852   6.137   0.215   4.065
 8985SOL     OW27853   4.336   2.787   0.608
 8985SOL    HW127854   4.399   2.712   0.631
 8985SOL    HW227855   4.258   2.750   0.557
 8986SOL     OW27856   0.099   5.655   0.520
 8986SOL    HW127857   0.173   5.632   0.584
 8986SOL    HW227858   0.048   5.733   0.556
 8987SOL     OW27859   1.884   0.509   1.516
 8987SOL    HW127860   1.849   0.474   1.429
 8987SOL    HW227861   1.855   0.447   1.590
 8988SOL     OW27862   1.198   5.333   1.526
 8988SOL    HW127863   1.178   5.423   1.488
 8988SOL    HW227864   1.116   5.297   1.572
 8989SOL     OW27865   4.797   1.548   1.805
 8989SOL    HW127866   4.734   1.504   1.869
 8989SOL    HW227867   4.870   1.594   1.855
 8990SOL     OW27868   3.861   0.510   1.930
 8990SOL    HW127869   3.814   0.446   1.870
 8990SOL    HW227870   3.944   0.467   1.966
 8991SOL     OW27871   2.215   2.751   0.031
 8991SOL    HW127872   2.132   2.702   0.004
 8991SOL    HW227873   2.282   2.685   0.065
 8992SOL     OW27874   0.422   3.512   0.336
 8992SOL    HW127875   0.480   3.443   0.295
 8992SOL    HW227876   0.372   3.561   0.265
 8993SOL     OW27877   5.709   3.224   3.733
 8993SOL    HW127878   5.647   3.279   3.789
 8993SOL    HW227879   5.694   3.127   3.753
 8994SOL     OW27880   0.583   5.114   3.148
 8994SOL    HW127881   0.550   5.208   3.147
 8994SOL    HW227882   0.678   5.112   3.179
 8995SOL     OW27883   1.764   3.692   4.824
 8995SOL    HW127884   1.695   3.745   4.774
 8995SOL    HW227885   1.846   3.683   4.767
 8996SOL     OW27886   0.441   4.207   2.676
 8996SOL    HW127887   0.501   4.251   2.609
 8996SOL    HW227888   0.374   4.150   2.629
 8997SOL     OW27889   4.604   1.862   5.442
 8997SOL    HW127890   4.563   1.926   5.508
 8997SOL    HW227891   4.619   1.910   5.355
 8998SOL     OW27892   1.392   2.478   6.371
 8998SOL    HW127893   1.425   2.470   6.277
 8998SOL    HW227894   1.346   2.393   6.398
 8999SOL     OW27895   6.262   1.359   4.626
 8999SOL    HW127896   6.300   1.269   4.605
 8999SOL    HW227897   6.163   1.352   4.632
 9000SOL     OW27898   3.222   3.650   0.528
 9000SOL    HW127899   3.235   3.659   0.429
 9000SOL    HW227900   3.235   3.739   0.572
 9001SOL     OW27901   1.524   5.404   3.418
 9001SOL    HW127902   1.505   5.354   3.503
 9001SOL    HW227903   1.469   5.365   3.344
 9002SOL     OW27904   5.520   4.410   5.590
 9002SOL    HW127905   5.552   4.369   5.675
 9002SOL    HW227906   5.593   4.467   5.551
 9003SOL     OW27907   5.454   2.431   6.743
 9003SOL    HW127908   5.418   2.487   6.668
 9003SOL    HW227909   5.406   2.344   6.747
 9004SOL     OW27910   4.491   6.613   1.058
 9004SOL    HW127911   4.394   6.632   1.077
 9004SOL    HW227912   4.548   6.655   1.129
 9005SOL     OW27913   5.009   1.924   3.420
 9005SOL    HW127914   5.033   1.913   3.516
 9005SOL    HW227915   5.047   1.849   3.366
 9006SOL     OW27916   0.807   5.165   0.947
 9006SOL    HW127917   0.792   5.246   0.891
 9006SOL    HW227918   0.905   5.157   0.968
 9007SOL     OW27919   2.725   6.842   3.997
 9007SOL    HW127920   2.655   6.859   4.066
 9007SOL    HW227921   2.814   6.868   4.033
 9008SOL     OW27922   6.996   4.381   2.461
 9008SOL    HW127923   6.977   4.285   2.482
 9008SOL    HW227924   0.040   4.417   2.528
 9009SOL     OW27925   2.765   6.294   0.849
 9009SOL    HW127926   2.834   6.222   0.851
 9009SOL    HW227927   2.786   6.361   0.921
 9010SOL     OW27928   1.197   6.414   5.115
 9010SOL    HW127929   1.241   6.336   5.159
 9010SOL    HW227930   1.169   6.389   5.022
 9011SOL     OW27931   4.734   1.798   0.886
 9011SOL    HW127932   4.659   1.859   0.862
 9011SOL    HW227933   4.783   1.835   0.965
 9012SOL     OW27934   0.160   5.340   1.492
 9012SOL    HW127935   0.126   5.362   1.584
 9012SOL    HW227936   0.242   5.283   1.499
 9013SOL     OW27937   5.971   5.585   3.544
 9013SOL    HW127938   6.052   5.645   3.546
 9013SOL    HW227939   5.950   5.561   3.449
 9014SOL     OW27940   2.956   1.071   0.816
 9014SOL    HW127941   2.932   1.034   0.905
 9014SOL    HW227942   3.055   1.081   0.808
 9015SOL     OW27943   0.287   0.838   5.857
 9015SOL    HW127944   0.339   0.912   5.900
 9015SOL    HW227945   0.198   0.872   5.828
 9016SOL     OW27946   6.134   5.689   6.502
 9016SOL    HW127947   6.109   5.665   6.409
 9016SOL    HW227948   6.232   5.672   6.516
 9017SOL     OW27949   6.849   2.525   3.595
 9017SOL    HW127950   6.758   2.484   3.584
 9017SOL    HW227951   6.878   2.517   3.691
 9018SOL     OW27952   3.615   2.481   5.350
 9018SOL    HW127953   3.534   2.424   5.365
 9018SOL    HW227954   3.587   2.571   5.317
 9019SOL     OW27955   2.268   7.017   0.668
 9019SOL    HW127956   2.359   0.038   0.672
 9019SOL    HW227957   2.221   0.011   0.755
 9020SOL     OW27958   0.555   4.712   2.964
 9020SOL    HW127959   0.651   4.699   2.990
 9020SOL    HW227960   0.496   4.658   3.024
 9021SOL     OW27961   6.610   5.609   5.407
 9021SOL    HW127962   6.620   5.663   5.490
 9021SOL    HW227963   6.526   5.553   5.414
 9022SOL     OW27964   3.653   0.565   0.109
 9022SOL    HW127965   3.746   0.599   0.110
 9022SOL    HW227966   3.646   0.485   0.170
 9023SOL     OW27967   3.597   3.223   3.261
 9023SOL    HW127968   3.675   3.268   3.217
 9023SOL    HW227969   3.540   3.180   3.190
 9024SOL     OW27970   2.323   6.573   6.885
 9024SOL    HW127971   2.351   6.669   6.883
 9024SOL    HW227972   2.284   6.551   6.974
 9025SOL     OW27973   5.997   5.041   1.104
 9025SOL    HW127974   5.999   4.962   1.165
 9025SOL    HW227975   5.999   5.125   1.158
 9026SOL     OW27976   3.684   2.838   5.043
 9026SOL    HW127977   3.646   2.803   5.129
 9026SOL    HW227978   3.613   2.834   4.972
 9027SOL     OW27979   2.058   3.059   3.596
 9027SOL    HW127980   2.010   3.014   3.671
 9027SOL    HW227981   2.044   3.006   3.512
 9028SOL     OW27982   2.978   4.851   4.965
 9028SOL    HW127983   2.980   4.879   5.060
 9028SOL    HW227984   2.915   4.774   4.953
 9029SOL     OW27985   4.817   6.270   3.321
 9029SOL    HW127986   4.725   6.232   3.324
 9029SOL    HW227987   4.815   6.365   3.349
 9030SOL     OW27988   2.822   1.132   1.885
 9030SOL    HW127989   2.856   1.113   1.793
 9030SOL    HW227990   2.748   1.199   1.881
 9031SOL     OW27991   2.723   6.062   6.334
 9031SOL    HW127992   2.738   6.151   6.376
 9031SOL    HW227993   2.662   6.071   6.255
 9032SOL     OW27994   2.480   1.926   2.168
 9032SOL    HW127995   2.553   1.992   2.188
 9032SOL    HW227996   2.519   1.834   2.164
 9033SOL     OW27997   1.853   3.751   2.895
 9033SOL    HW127998   1.950   3.766   2.873
 9033SOL    HW227999   1.845   3.716   2.988
 9034SOL     OW28000   3.563   6.769   5.710
 9034SOL    HW128001   3.598   6.681   5.742
 9034SOL    HW228002   3.638   6.835   5.704
 9035SOL     OW28003   6.931   1.243   4.345
 9035SOL    HW128004   6.921   1.307   4.268
 9035SOL    HW228005   7.019   1.196   4.337
 9036SOL     OW28006   0.734   2.262   5.832
 9036SOL    HW128007   0.801   2.223   5.896
 9036SOL    HW228008   0.749   2.223   5.741
 9037SOL     OW28009   2.202   4.646   6.609
 9037SOL    HW128010   2.219   4.683   6.700
 9037SOL    HW228011   2.115   4.682   6.574
 9038SOL     OW28012   4.853   6.039   5.419
 9038SOL    HW128013   4.808   6.096   5.487
 9038SOL    HW228014   4.946   6.073   5.404
 9039SOL     OW28015   2.244   5.805   5.342
 9039SOL    HW128016   2.284   5.734   5.400
 9039SOL    HW228017   2.221   5.766   5.252
 9040SOL     OW28018   1.979   1.306   2.764
 9040SOL    HW128019   2.038   1.384   2.743
 9040SOL    HW228020   1.981   1.288   2.862
 9041SOL     OW28021   1.795   3.220   0.875
 9041SOL    HW128022   1.833   3.253   0.789
 9041SOL    HW228023   1.858   3.243   0.950
 9042SOL     OW28024   2.700   4.646   3.581
 9042SOL    HW128025   2.608   4.641   3.543
 9042SOL    HW228026   2.695   4.676   3.677
 9043SOL     OW28027   0.648   2.498   5.740
 9043SOL    HW128028   0.692   2.422   5.787
 9043SOL    HW228029   0.710   2.576   5.737
 9044SOL     OW28030   6.283   6.754   0.980
 9044SOL    HW128031   6.309   6.669   1.025
 9044SOL    HW228032   6.285   6.829   1.047
 9045SOL     OW28033   2.762   6.768   3.489
 9045SOL    HW128034   2.758   6.731   3.396
 9045SOL    HW228035   2.857   6.791   3.511
 9046SOL     OW28036   3.069   4.048   4.956
 9046SOL    HW128037   3.123   3.967   4.980
 9046SOL    HW228038   3.110   4.129   4.996
 9047SOL     OW28039   1.270   4.870   4.572
 9047SOL    HW128040   1.276   4.877   4.473
 9047SOL    HW228041   1.267   4.961   4.612
 9048SOL     OW28042   0.610   3.596   4.486
 9048SOL    HW128043   0.537   3.553   4.433
 9048SOL    HW228044   0.697   3.551   4.465
 9049SOL     OW28045   5.441   5.621   6.409
 9049SOL    HW128046   5.522   5.622   6.350
 9049SOL    HW228047   5.386   5.703   6.390
 9050SOL     OW28048   0.092   5.214   6.145
 9050SOL    HW128049   0.100   5.160   6.062
 9050SOL    HW228050   0.017   5.280   6.135
 9051SOL     OW28051   5.534   6.287   6.624
 9051SOL    HW128052   5.460   6.308   6.561
 9051SOL    HW228053   5.582   6.204   6.594
 9052SOL     OW28054   2.374   5.184   4.337
 9052SOL    HW128055   2.331   5.198   4.427
 9052SOL    HW228056   2.451   5.247   4.327
 9053SOL     OW28057   2.718   2.356   4.021
 9053SOL    HW128058   2.811   2.374   4.055
 9053SOL    HW228059   2.662   2.320   4.095
 9054SOL     OW28060   2.769   0.541   1.434
 9054SOL    HW128061   2.808   0.629   1.459
 9054SOL    HW228062   2.750   0.539   1.336
 9055SOL     OW28063   1.131   2.733   3.926
 9055SOL    HW128064   1.155   2.641   3.896
 9055SOL    HW228065   1.042   2.758   3.888
 9056SOL     OW28066   5.621   0.383   3.290
 9056SOL    HW128067   5.714   0.354   3.313
 9056SOL    HW228068   5.575   0.310   3.239
 9057SOL     OW28069   5.810   5.542   5.958
 9057SOL    HW128070   5.811   5.517   6.055
 9057SOL    HW228071   5.845   5.466   5.904
 9058SOL     OW28072   1.545   2.819   4.730
 9058SOL    HW128073   1.580   2.829   4.823
 9058SOL    HW228074   1.445   2.829   4.732
 9059SOL     OW28075   0.096   2.139   3.085
 9059SOL    HW128076   0.003   2.103   3.094
 9059SOL    HW228077   0.127   2.175   3.173
 9060SOL     OW28078   0.664   3.646   1.641
 9060SOL    HW128079   0.706   3.729   1.677
 9060SOL    HW228080   0.734   3.574   1.633
 9061SOL     OW28081   5.212   5.356   1.978
 9061SOL    HW128082   5.161   5.272   1.956
 9061SOL    HW228083   5.292   5.363   1.919
 9062SOL     OW28084   0.758   5.484   3.238
 9062SOL    HW128085   0.727   5.521   3.326
 9062SOL    HW228086   0.683   5.433   3.196
 9063SOL     OW28087   3.683   0.817   2.357
 9063SOL    HW128088   3.620   0.853   2.287
 9063SOL    HW228089   3.631   0.791   2.438
 9064SOL     OW28090   0.642   4.392   3.545
 9064SOL    HW128091   0.583   4.357   3.618
 9064SOL    HW228092   0.736   4.394   3.577
 9065SOL     OW28093   2.640   5.322   5.303
 9065SOL    HW128094   2.623   5.237   5.353
 9065SOL    HW228095   2.736   5.348   5.313
 9066SOL     OW28096   5.024   4.861   5.749
 9066SOL    HW128097   5.106   4.871   5.805
 9066SOL    HW228098   5.039   4.792   5.678
 9067SOL     OW28099   6.995   0.295   4.806
 9067SOL    HW128100   0.049   0.258   4.863
 9067SOL    HW228101   0.011   0.366   4.746
 9068SOL     OW28102   5.246   6.554   4.117
 9068SOL    HW128103   5.203   6.470   4.152
 9068SOL    HW228104   5.345   6.540   4.109
 9069SOL     OW28105   4.813   2.295   1.980
 9069SOL    HW128106   4.714   2.288   1.991
 9069SOL    HW228107   4.859   2.238   2.048
 9070SOL     OW28108   1.672   2.116   5.425
 9070SOL    HW128109   1.668   2.066   5.512
 9070SOL    HW228110   1.633   2.208   5.438
 9071SOL     OW28111   5.030   1.309   5.630
 9071SOL    HW128112   5.077   1.242   5.687
 9071SOL    HW228113   4.990   1.380   5.688
 9072SOL     OW28114   5.318   0.519   2.412
 9072SOL    HW128115   5.373   0.481   2.486
 9072SOL    HW228116   5.224   0.532   2.444
 9073SOL     OW28117   4.512   0.922   6.576
 9073SOL    HW128118   4.588   0.884   6.629
 9073SOL    HW228119   4.536   0.920   6.479
 9074SOL     OW28120   1.377   0.176   1.829
 9074SOL    HW128121   1.305   0.238   1.858
 9074SOL    HW228122   1.357   0.084   1.862
 9075SOL     OW28123   6.904   0.382   1.508
 9075SOL    HW128124   6.893   0.443   1.429
 9075SOL    HW228125   7.001   0.370   1.528
 9076SOL     OW28126   6.564   0.561   2.012
 9076SOL    HW128127   6.548   0.604   2.100
 9076SOL    HW228128   6.478   0.555   1.962
 9077SOL     OW28129   6.054   1.387   6.053
 9077SOL    HW128130   6.140   1.435   6.035
 9077SOL    HW228131   5.978   1.452   6.053
 9078SOL     OW28132   5.696   5.668   0.030
 9078SOL    HW128133   5.675   5.765   0.042
 9078SOL    HW228134   5.633   5.614   0.086
 9079SOL     OW28135   1.350   0.294   6.060
 9079SOL    HW128136   1.433   0.297   6.116
 9079SOL    HW228137   1.270   0.283   6.119
 9080SOL     OW28138   6.713   3.542   1.374
 9080SOL    HW128139   6.673   3.516   1.462
 9080SOL    HW228140   6.766   3.466   1.337
 9081SOL     OW28141   3.443   1.978   0.697
 9081SOL    HW128142   3.495   1.947   0.617
 9081SOL    HW228143   3.434   1.903   0.762
 9082SOL     OW28144   3.377   5.863   5.814
 9082SOL    HW128145   3.450   5.929   5.793
 9082SOL    HW228146   3.324   5.896   5.892
 9083SOL     OW28147   4.644   4.810   6.862
 9083SOL    HW128148   4.579   4.782   6.791
 9083SOL    HW228149   4.735   4.777   6.840
 9084SOL     OW28150   0.591   2.834   5.871
 9084SOL    HW128151   0.635   2.776   5.802
 9084SOL    HW228152   0.617   2.930   5.856
 9085SOL     OW28153   2.572   5.294   0.003
 9085SOL    HW128154   2.492   5.236   7.011
 9085SOL    HW228155   2.638   5.276   6.950
 9086SOL     OW28156   6.933   4.311   0.533
 9086SOL    HW128157   6.992   4.289   0.455
 9086SOL    HW228158   6.923   4.410   0.541
 9087SOL     OW28159   5.818   1.480   1.744
 9087SOL    HW128160   5.795   1.575   1.724
 9087SOL    HW228161   5.794   1.460   1.839
 9088SOL     OW28162   6.267   0.743   1.123
 9088SOL    HW128163   6.202   0.769   1.052
 9088SOL    HW228164   6.356   0.786   1.103
 9089SOL     OW28165   4.380   5.871   3.571
 9089SOL    HW128166   4.455   5.922   3.530
 9089SOL    HW228167   4.359   5.910   3.661
 9090SOL     OW28168   5.695   6.497   4.934
 9090SOL    HW128169   5.788   6.521   4.960
 9090SOL    HW228170   5.686   6.503   4.834
 9091SOL     OW28171   3.096   1.836   0.900
 9091SOL    HW128172   3.105   1.806   0.804
 9091SOL    HW228173   3.164   1.907   0.919
 9092SOL     OW28174   1.557   6.360   5.794
 9092SOL    HW128175   1.506   6.275   5.805
 9092SOL    HW228176   1.569   6.380   5.697
 9093SOL     OW28177   1.403   5.578   0.261
 9093SOL    HW128178   1.441   5.503   0.207
 9093SOL    HW228179   1.470   5.606   0.330
 9094SOL     OW28180   0.153   5.653   2.386
 9094SOL    HW128181   0.226   5.674   2.321
 9094SOL    HW228182   0.066   5.649   2.337
 9095SOL     OW28183   4.342   3.708   6.485
 9095SOL    HW128184   4.292   3.701   6.571
 9095SOL    HW228185   4.279   3.690   6.409
 9096SOL     OW28186   5.859   2.849   2.697
 9096SOL    HW128187   5.790   2.784   2.730
 9096SOL    HW228188   5.914   2.880   2.774
 9097SOL     OW28189   1.034   3.764   6.642
 9097SOL    HW128190   0.995   3.717   6.563
 9097SOL    HW228191   1.019   3.863   6.632
 9098SOL     OW28192   3.902   3.904   2.325
 9098SOL    HW128193   3.947   3.917   2.237
 9098SOL    HW228194   3.851   3.818   2.324
 9099SOL     OW28195   2.845   3.207   0.954
 9099SOL    HW128196   2.829   3.252   0.866
 9099SOL    HW228197   2.843   3.276   1.027
 9100SOL     OW28198   0.576   3.275   0.989
 9100SOL    HW128199   0.484   3.245   0.966
 9100SOL    HW228200   0.588   3.370   0.961
 9101SOL     OW28201   1.436   2.702   2.570
 9101SOL    HW128202   1.431   2.613   2.615
 9101SOL    HW228203   1.531   2.729   2.560
 9102SOL     OW28204   3.562   5.392   1.573
 9102SOL    HW128205   3.557   5.489   1.551
 9102SOL    HW228206   3.518   5.375   1.661
 9103SOL     OW28207   0.172   3.723   0.762
 9103SOL    HW128208   0.173   3.694   0.666
 9103SOL    HW228209   0.133   3.650   0.819
 9104SOL     OW28210   4.306   6.095   1.604
 9104SOL    HW128211   4.365   6.026   1.563
 9104SOL    HW228212   4.293   6.171   1.541
 9105SOL     OW28213   1.277   0.729   6.339
 9105SOL    HW128214   1.253   0.692   6.249
 9105SOL    HW228215   1.193   0.753   6.388
 9106SOL     OW28216   5.893   4.845   0.042
 9106SOL    HW128217   5.797   4.873   0.047
 9106SOL    HW228218   5.898   4.746   0.031
 9107SOL     OW28219   3.696   0.058   0.250
 9107SOL    HW128220   3.661   0.151   0.261
 9107SOL    HW228221   3.656   0.017   0.169
 9108SOL     OW28222   4.970   4.324   5.352
 9108SOL    HW128223   4.918   4.357   5.430
 9108SOL    HW228224   5.049   4.271   5.384
 9109SOL     OW28225   2.348   2.782   3.455
 9109SOL    HW128226   2.384   2.723   3.527
 9109SOL    HW228227   2.306   2.863   3.496
 9110SOL     OW28228   1.852   5.315   3.364
 9110SOL    HW128229   1.786   5.388   3.343
 9110SOL    HW228230   1.802   5.234   3.394
 9111SOL     OW28231   3.520   4.144   1.297
 9111SOL    HW128232   3.560   4.059   1.333
 9111SOL    HW228233   3.428   4.156   1.335
 9112SOL     OW28234   0.822   4.109   3.372
 9112SOL    HW128235   0.745   4.063   3.417
 9112SOL    HW228236   0.868   4.044   3.311
 9113SOL     OW28237   5.376   0.566   0.472
 9113SOL    HW128238   5.361   0.540   0.567
 9113SOL    HW228239   5.298   0.538   0.417
 9114SOL     OW28240   2.132   4.671   2.094
 9114SOL    HW128241   2.230   4.661   2.114
 9114SOL    HW228242   2.110   4.767   2.082
 9115SOL     OW28243   1.333   4.889   4.294
 9115SOL    HW128244   1.296   4.981   4.285
 9115SOL    HW228245   1.418   4.882   4.242
 9116SOL     OW28246   6.745   1.268   6.552
 9116SOL    HW128247   6.725   1.348   6.496
 9116SOL    HW228248   6.844   1.249   6.549
 9117SOL     OW28249   6.402   2.966   6.043
 9117SOL    HW128250   6.449   3.044   6.085
 9117SOL    HW228251   6.471   2.903   6.006
 9118SOL     OW28252   6.592   0.370   1.245
 9118SOL    HW128253   6.587   0.311   1.326
 9118SOL    HW228254   6.510   0.427   1.240
 9119SOL     OW28255   5.701   0.953   2.490
 9119SOL    HW128256   5.745   0.899   2.417
 9119SOL    HW228257   5.606   0.925   2.498
 9120SOL     OW28258   5.761   2.255   5.871
 9120SOL    HW128259   5.686   2.213   5.924
 9120SOL    HW228260   5.726   2.287   5.783
 9121SOL     OW28261   0.626   2.801   4.905
 9121SOL    HW128262   0.699   2.847   4.954
 9121SOL    HW228263   0.631   2.825   4.808
 9122SOL     OW28264   1.498   2.488   2.306
 9122SOL    HW128265   1.517   2.550   2.230
 9122SOL    HW228266   1.577   2.487   2.368
 9123SOL     OW28267   3.199   6.261   5.131
 9123SOL    HW128268   3.226   6.171   5.164
 9123SOL    HW228269   3.100   6.262   5.115
 9124SOL     OW28270   6.178   5.825   5.319
 9124SOL    HW128271   6.213   5.885   5.391
 9124SOL    HW228272   6.223   5.847   5.232
 9125SOL     OW28273   4.574   4.416   3.624
 9125SOL    HW128274   4.604   4.351   3.554
 9125SOL    HW228275   4.633   4.407   3.704
 9126SOL     OW28276   6.232   1.080   1.915
 9126SOL    HW128277   6.274   1.170   1.928
 9126SOL    HW228278   6.293   1.022   1.862
 9127SOL     OW28279   5.915   6.828   6.127
 9127SOL    HW128280   5.825   6.785   6.140
 9127SOL    HW228281   5.942   6.875   6.211
 9128SOL     OW28282   4.412   1.577   5.139
 9128SOL    HW128283   4.498   1.531   5.119
 9128SOL    HW228284   4.336   1.513   5.126
 9129SOL     OW28285   1.948   3.367   6.973
 9129SOL    HW128286   1.948   3.344   0.050
 9129SOL    HW228287   1.872   3.320   6.928
 9130SOL     OW28288   0.042   4.300   6.449
 9130SOL    HW128289   0.142   4.309   6.439
 9130SOL    HW228290   0.021   4.227   6.514
 9131SOL     OW28291   0.578   4.173   5.074
 9131SOL    HW128292   0.571   4.239   4.999
 9131SOL    HW228293   0.591   4.081   5.037
 9132SOL     OW28294   6.477   4.196   3.909
 9132SOL    HW128295   6.515   4.155   3.992
 9132SOL    HW228296   6.383   4.225   3.926
 9133SOL     OW28297   2.825   4.725   0.747
 9133SOL    HW128298   2.864   4.773   0.825
 9133SOL    HW228299   2.744   4.774   0.715
 9134SOL     OW28300   3.384   6.643   0.722
 9134SOL    HW128301   3.414   6.577   0.790
 9134SOL    HW228302   3.454   6.713   0.709
 9135SOL     OW28303   0.112   0.254   2.486
 9135SOL    HW128304   0.188   0.231   2.425
 9135SOL    HW228305   0.026   0.232   2.441
 9136SOL     OW28306   4.663   5.153   5.876
 9136SOL    HW128307   4.741   5.216   5.882
 9136SOL    HW228308   4.669   5.101   5.790
 9137SOL     OW28309   5.916   1.313   1.175
 9137SOL    HW128310   5.872   1.403   1.182
 9137SOL    HW228311   5.916   1.283   1.080
 9138SOL     OW28312   6.253   5.330   5.594
 9138SOL    HW128313   6.242   5.318   5.693
 9138SOL    HW228314   6.240   5.242   5.548
 9139SOL     OW28315   2.328   1.559   5.089
 9139SOL    HW128316   2.408   1.503   5.113
 9139SOL    HW228317   2.297   1.536   4.997
 9140SOL     OW28318   6.517   2.769   2.578
 9140SOL    HW128319   6.446   2.770   2.648
 9140SOL    HW228320   6.561   2.859   2.574
 9141SOL     OW28321   5.421   6.540   6.401
 9141SOL    HW128322   5.450   6.458   6.352
 9141SOL    HW228323   5.500   6.599   6.418
 9142SOL     OW28324   0.324   2.467   5.043
 9142SOL    HW128325   0.398   2.535   5.046
 9142SOL    HW228326   0.349   2.388   5.098
 9143SOL     OW28327   4.359   3.849   0.525
 9143SOL    HW128328   4.322   3.929   0.476
 9143SOL    HW228329   4.287   3.782   0.539
 9144SOL     OW28330   2.388   5.651   6.412
 9144SOL    HW128331   2.392   5.600   6.326
 9144SOL    HW228332   2.471   5.706   6.422
 9145SOL     OW28333   0.152   5.496   1.018
 9145SOL    HW128334   0.135   5.451   1.105
 9145SOL    HW228335   0.074   5.480   0.956
 9146SOL     OW28336   5.106   1.870   1.217
 9146SOL    HW128337   5.134   1.781   1.253
 9146SOL    HW228338   5.121   1.940   1.286
 9147SOL     OW28339   5.659   6.757   4.539
 9147SOL    HW128340   5.651   6.786   4.635
 9147SOL    HW228341   5.570   6.767   4.495
 9148SOL     OW28342   6.106   6.338   1.708
 9148SOL    HW128343   6.174   6.369   1.641
 9148SOL    HW228344   6.017   6.328   1.663
 9149SOL     OW28345   4.860   2.445   4.183
 9149SOL    HW128346   4.853   2.414   4.088
 9149SOL    HW228347   4.955   2.473   4.201
 9150SOL     OW28348   3.897   5.916   3.511
 9150SOL    HW128349   3.816   5.964   3.477
 9150SOL    HW228350   3.915   5.836   3.454
 9151SOL     OW28351   1.087   3.978   2.982
 9151SOL    HW128352   1.071   3.987   2.884
 9151SOL    HW228353   1.185   3.981   3.001
 9152SOL     OW28354   2.614   6.033   3.923
 9152SOL    HW128355   2.599   5.975   3.843
 9152SOL    HW228356   2.648   5.977   3.999
 9153SOL     OW28357   1.641   3.200   0.393
 9153SOL    HW128358   1.644   3.101   0.374
 9153SOL    HW228359   1.592   3.215   0.478
 9154SOL     OW28360   2.376   5.269   6.682
 9154SOL    HW128361   2.375   5.171   6.701
 9154SOL    HW228362   2.470   5.300   6.671
 9155SOL     OW28363   2.091   3.701   0.425
 9155SOL    HW128364   2.180   3.659   0.408
 9155SOL    HW228365   2.021   3.631   0.432
 9156SOL     OW28366   3.076   2.831   1.149
 9156SOL    HW128367   3.096   2.866   1.058
 9156SOL    HW228368   3.159   2.836   1.205
 9157SOL     OW28369   6.008   4.719   5.691
 9157SOL    HW128370   5.925   4.680   5.651
 9157SOL    HW228371   6.066   4.645   5.725
 9158SOL     OW28372   6.083   3.474   4.581
 9158SOL    HW128373   5.989   3.441   4.592
 9158SOL    HW228374   6.139   3.442   4.657
 9159SOL     OW28375   0.138   6.134   3.435
 9159SOL    HW128376   0.153   6.055   3.495
 9159SOL    HW228377   0.058   6.118   3.378
 9160SOL     OW28378   0.106   0.206   5.009
 9160SOL    HW128379   0.080   0.175   5.101
 9160SOL    HW228380   0.189   0.261   5.016
 9161SOL     OW28381   4.827   3.972   4.528
 9161SOL    HW128382   4.886   4.021   4.593
 9161SOL    HW228383   4.793   3.889   4.571
 9162SOL     OW28384   4.773   2.148   3.357
 9162SOL    HW128385   4.801   2.243   3.364
 9162SOL    HW228386   4.837   2.090   3.407
 9163SOL     OW28387   1.878   3.330   3.646
 9163SOL    HW128388   1.841   3.280   3.724
 9163SOL    HW228389   1.971   3.362   3.667
 9164SOL     OW28390   3.034   1.038   6.954
 9164SOL    HW128391   2.988   1.117   6.913
 9164SOL    HW228392   3.082   1.067   0.016
 9165SOL     OW28393   6.208   1.155   6.187
 9165SOL    HW128394   6.231   1.241   6.233
 9165SOL    HW228395   6.235   1.160   6.091
 9166SOL     OW28396   4.919   6.221   0.969
 9166SOL    HW128397   4.900   6.264   0.881
 9166SOL    HW228398   4.888   6.281   1.043
 9167SOL     OW28399   1.670   3.735   6.180
 9167SOL    HW128400   1.572   3.754   6.187
 9167SOL    HW228401   1.710   3.732   6.271
 9168SOL     OW28402   1.580   6.372   5.498
 9168SOL    HW128403   1.679   6.374   5.484
 9168SOL    HW228404   1.537   6.446   5.446
 9169SOL     OW28405   0.306   1.278   5.082
 9169SOL    HW128406   0.398   1.246   5.105
 9169SOL    HW228407   0.312   1.372   5.047
 9170SOL     OW28408   0.580   4.867   0.180
 9170SOL    HW128409   0.490   4.849   0.219
 9170SOL    HW228410   0.591   4.814   0.096
 9171SOL     OW28411   3.390   5.676   0.530
 9171SOL    HW128412   3.489   5.681   0.544
 9171SOL    HW228413   3.365   5.583   0.505
 9172SOL     OW28414   3.221   1.073   5.285
 9172SOL    HW128415   3.243   1.124   5.202
 9172SOL    HW228416   3.292   1.091   5.354
 9173SOL     OW28417   5.965   4.514   5.012
 9173SOL    HW128418   5.912   4.564   5.080
 9173SOL    HW228419   5.904   4.478   4.941
 9174SOL     OW28420   6.447   4.466   1.141
 9174SOL    HW128421   6.500   4.463   1.056
 9174SOL    HW228422   6.452   4.559   1.179
 9175SOL     OW28423   1.949   6.594   4.414
 9175SOL    HW128424   1.865   6.554   4.377
 9175SOL    HW228425   1.949   6.584   4.514
 9176SOL     OW28426   2.874   0.658   5.651
 9176SOL    HW128427   2.856   0.746   5.606
 9176SOL    HW228428   2.802   0.640   5.718
 9177SOL     OW28429   1.530   5.414   4.740
 9177SOL    HW128430   1.443   5.366   4.729
 9177SOL    HW228431   1.549   5.469   4.659
 9178SOL     OW28432   1.878   5.739   1.032
 9178SOL    HW128433   1.862   5.753   0.934
 9178SOL    HW228434   1.960   5.683   1.044
 9179SOL     OW28435   3.001   6.051   4.058
 9179SOL    HW128436   3.002   5.951   4.053
 9179SOL    HW228437   3.092   6.084   4.084
 9180SOL     OW28438   5.950   2.313   3.315
 9180SOL    HW128439   5.863   2.337   3.356
 9180SOL    HW228440   5.951   2.216   3.292
 9181SOL     OW28441   4.249   2.150   3.404
 9181SOL    HW128442   4.154   2.139   3.376
 9181SOL    HW228443   4.269   2.247   3.417
 9182SOL     OW28444   2.390   6.906   2.298
 9182SOL    HW128445   2.331   6.825   2.294
 9182SOL    HW228446   2.348   6.974   2.358
 9183SOL     OW28447   5.330   5.902   0.245
 9183SOL    HW128448   5.309   5.978   0.184
 9183SOL    HW228449   5.252   5.886   0.306
 9184SOL     OW28450   4.852   1.494   0.183
 9184SOL    HW128451   4.888   1.547   0.106
 9184SOL    HW228452   4.909   1.510   0.264
 9185SOL     OW28453   4.284   6.690   4.562
 9185SOL    HW128454   4.213   6.621   4.552
 9185SOL    HW228455   4.268   6.766   4.499
 9186SOL     OW28456   5.561   0.881   3.945
 9186SOL    HW128457   5.553   0.981   3.945
 9186SOL    HW228458   5.577   0.849   4.038
 9187SOL     OW28459   2.396   0.652   1.709
 9187SOL    HW128460   2.324   0.696   1.762
 9187SOL    HW228461   2.484   0.694   1.730
 9188SOL     OW28462   2.221   6.696   2.111
 9188SOL    HW128463   2.169   6.775   2.079
 9188SOL    HW228464   2.195   6.675   2.205
 9189SOL     OW28465   5.747   6.006   2.133
 9189SOL    HW128466   5.670   6.020   2.071
 9189SOL    HW228467   5.816   5.948   2.088
 9190SOL     OW28468   0.927   4.960   0.202
 9190SOL    HW128469   0.866   4.933   0.128
 9190SOL    HW228470   0.936   4.885   0.268
 9191SOL     OW28471   5.964   0.576   5.973
 9191SOL    HW128472   5.910   0.660   5.968
 9191SOL    HW228473   6.036   0.586   6.042
 9192SOL     OW28474   0.483   4.202   5.715
 9192SOL    HW128475   0.448   4.108   5.724
 9192SOL    HW228476   0.560   4.203   5.651
 9193SOL     OW28477   4.823   4.625   0.535
 9193SOL    HW128478   4.799   4.535   0.498
 9193SOL    HW228479   4.923   4.635   0.536
 9194SOL     OW28480   3.136   1.103   3.271
 9194SOL    HW128481   3.201   1.155   3.326
 9194SOL    HW228482   3.057   1.161   3.250
 9195SOL     OW28483   1.841   2.296   4.057
 9195SOL    HW128484   1.797   2.212   4.026
 9195SOL    HW228485   1.905   2.276   4.130
 9196SOL     OW28486   3.807   0.484   4.561
 9196SOL    HW128487   3.721   0.457   4.605
 9196SOL    HW228488   3.799   0.473   4.462
 9197SOL     OW28489   1.386   4.403   1.813
 9197SOL    HW128490   1.408   4.387   1.717
 9197SOL    HW228491   1.424   4.491   1.842
 9198SOL     OW28492   6.647   5.178   5.683
 9198SOL    HW128493   6.599   5.091   5.695
 9198SOL    HW228494   6.684   5.183   5.590
 9199SOL     OW28495   1.146   3.661   6.267
 9199SOL    HW128496   1.151   3.717   6.184
 9199SOL    HW228497   1.052   3.659   6.300
 9200SOL     OW28498   2.949   0.562   0.626
 9200SOL    HW128499   2.857   0.601   0.613
 9200SOL    HW228500   3.015   0.636   0.638
 9201SOL     OW28501   0.556   2.992   0.749
 9201SOL    HW128502   0.498   2.955   0.821
 9201SOL    HW228503   0.652   2.973   0.769
 9202SOL     OW28504   2.186   6.887   3.336
 9202SOL    HW128505   2.153   6.800   3.299
 9202SOL    HW228506   2.240   6.871   3.419
 9203SOL     OW28507   0.614   5.035   6.911
 9203SOL    HW128508   0.620   4.935   6.922
 9203SOL    HW228509   0.537   5.070   6.964
 9204SOL     OW28510   4.372   2.517   6.923
 9204SOL    HW128511   4.304   2.583   6.892
 9204SOL    HW228512   4.332   2.425   6.922
 9205SOL     OW28513   5.812   4.334   2.714
 9205SOL    HW128514   5.725   4.292   2.687
 9205SOL    HW228515   5.803   4.374   2.805
 9206SOL     OW28516   3.815   5.560   1.784
 9206SOL    HW128517   3.797   5.657   1.768
 9206SOL    HW228518   3.775   5.534   1.872
 9207SOL     OW28519   4.365   4.975   0.093
 9207SOL    HW128520   4.268   4.950   0.095
 9207SOL    HW228521   4.379   5.047   0.025
 9208SOL     OW28522   5.496   4.300   3.818
 9208SOL    HW128523   5.518   4.216   3.868
 9208SOL    HW228524   5.581   4.342   3.785
 9209SOL     OW28525   2.997   0.716   0.199
 9209SOL    HW128526   3.075   0.668   0.238
 9209SOL    HW228527   2.975   0.676   0.110
 9210SOL     OW28528   6.646   1.311   2.799
 9210SOL    HW128529   6.654   1.215   2.772
 9210SOL    HW228530   6.716   1.332   2.868
 9211SOL     OW28531   6.445   3.165   4.338
 9211SOL    HW128532   6.513   3.237   4.351
 9211SOL    HW228533   6.486   3.090   4.286
 9212SOL     OW28534   4.254   5.320   4.229
 9212SOL    HW128535   4.328   5.312   4.162
 9212SOL    HW228536   4.279   5.390   4.296
 9213SOL     OW28537   5.710   2.643   5.811
 9213SOL    HW128538   5.613   2.656   5.834
 9213SOL    HW228539   5.721   2.644   5.711
 9214SOL     OW28540   0.292   5.859   5.378
 9214SOL    HW128541   0.287   5.959   5.371
 9214SOL    HW228542   0.232   5.818   5.310
 9215SOL     OW28543   1.351   2.466   0.007
 9215SOL    HW128544   1.435   2.521   0.012
 9215SOL    HW228545   1.312   2.456   0.099
 9216SOL     OW28546   2.687   0.705   2.963
 9216SOL    HW128547   2.731   0.773   3.021
 9216SOL    HW228548   2.747   0.683   2.886
 9217SOL     OW28549   0.150   0.717   5.569
 9217SOL    HW128550   0.150   0.633   5.514
 9217SOL    HW228551   0.079   0.711   5.638
 9218SOL     OW28552   3.888   6.497   0.400
 9218SOL    HW128553   3.932   6.521   0.487
 9218SOL    HW228554   3.953   6.510   0.325
 9219SOL     OW28555   0.092   2.755   0.198
 9219SOL    HW128556   0.025   2.784   0.131
 9219SOL    HW228557   0.127   2.835   0.248
 9220SOL     OW28558   2.465   6.998   1.401
 9220SOL    HW128559   2.397   6.932   1.370
 9220SOL    HW228560   2.420   0.064   1.424
 9221SOL     OW28561   3.255   0.898   4.311
 9221SOL    HW128562   3.158   0.884   4.327
 9221SOL    HW228563   3.298   0.937   4.393
 9222SOL     OW28564   2.396   6.832   6.883
 9222SOL    HW128565   2.421   6.844   6.979
 9222SOL    HW228566   2.347   6.913   6.852
 9223SOL     OW28567   1.479   1.643   4.810
 9223SOL    HW128568   1.502   1.700   4.890
 9223SOL    HW228569   1.561   1.593   4.780
 9224SOL     OW28570   2.917   5.513   4.985
 9224SOL    HW128571   2.866   5.446   5.039
 9224SOL    HW228572   2.911   5.602   5.028
 9225SOL     OW28573   3.842   6.856   5.931
 9225SOL    HW128574   3.926   6.912   5.929
 9225SOL    HW228575   3.822   6.830   6.025
 9226SOL     OW28576   5.648   6.611   1.596
 9226SOL    HW128577   5.718   6.659   1.542
 9226SOL    HW228578   5.589   6.678   1.640
 9227SOL     OW28579   0.841   5.525   2.127
 9227SOL    HW128580   0.884   5.480   2.205
 9227SOL    HW228581   0.785   5.601   2.159
 9228SOL     OW28582   1.697   0.354   5.929
 9228SOL    HW128583   1.785   0.305   5.933
 9228SOL    HW228584   1.625   0.289   5.904
 9229SOL     OW28585   1.533   5.525   4.489
 9229SOL    HW128586   1.441   5.487   4.496
 9229SOL    HW228587   1.539   5.583   4.408
 9230SOL     OW28588   6.101   0.534   2.563
 9230SOL    HW128589   6.128   0.616   2.613
 9230SOL    HW228590   6.036   0.482   2.618
 9231SOL     OW28591   1.932   4.196   4.305
 9231SOL    HW128592   1.848   4.190   4.359
 9231SOL    HW228593   2.006   4.232   4.362
 9232SOL     OW28594   2.878   5.302   0.804
 9232SOL    HW128595   2.845   5.306   0.898
 9232SOL    HW228596   2.969   5.343   0.798
 9233SOL     OW28597   5.518   5.102   1.418
 9233SOL    HW128598   5.585   5.028   1.428
 9233SOL    HW228599   5.522   5.138   1.325
 9234SOL     OW28600   3.506   4.998   4.761
 9234SOL    HW128601   3.520   5.001   4.860
 9234SOL    HW228602   3.437   5.066   4.736
 9235SOL     OW28603   1.863   2.409   3.627
 9235SOL    HW128604   1.864   2.320   3.673
 9235SOL    HW228605   1.818   2.477   3.686
 9236SOL     OW28606   3.181   4.209   5.797
 9236SOL    HW128607   3.260   4.264   5.824
 9236SOL    HW228608   3.121   4.195   5.876
 9237SOL     OW28609   2.223   4.788   4.902
 9237SOL    HW128610   2.131   4.783   4.865
 9237SOL    HW228611   2.264   4.696   4.904
 9238SOL     OW28612   4.197   2.077   5.947
 9238SOL    HW128613   4.289   2.055   5.915
 9238SOL    HW228614   4.194   2.071   6.047
 9239SOL     OW28615   0.361   3.888   1.526
 9239SOL    HW128616   0.421   3.884   1.606
 9239SOL    HW228617   0.388   3.966   1.469
 9240SOL     OW28618   5.595   1.440   0.591
 9240SOL    HW128619   5.661   1.374   0.629
 9240SOL    HW228620   5.552   1.400   0.510
 9241SOL     OW28621   0.063   5.711   6.001
 9241SOL    HW128622   0.145   5.751   5.960
 9241SOL    HW228623   0.077   5.699   6.099
 9242SOL     OW28624   6.761   5.791   0.394
 9242SOL    HW128625   6.695   5.867   0.393
 9242SOL    HW228626   6.714   5.706   0.373
 9243SOL     OW28627   5.934   5.499   2.876
 9243SOL    HW128628   6.006   5.568   2.878
 9243SOL    HW228629   5.884   5.500   2.963
 9244SOL     OW28630   4.652   5.509   5.979
 9244SOL    HW128631   4.640   5.428   6.036
 9244SOL    HW228632   4.670   5.589   6.036
 9245SOL     OW28633   1.346   5.551   2.838
 9245SOL    HW128634   1.422   5.595   2.791
 9245SOL    HW228635   1.268   5.543   2.776
 9246SOL     OW28636   6.481   4.549   3.021
 9246SOL    HW128637   6.437   4.581   2.937
 9246SOL    HW228638   6.485   4.449   3.020
 9247SOL     OW28639   0.661   6.829   3.112
 9247SOL    HW128640   0.724   6.817   3.035
 9247SOL    HW228641   0.713   6.845   3.195
 9248SOL     OW28642   2.155   2.935   6.108
 9248SOL    HW128643   2.137   2.968   6.200
 9248SOL    HW228644   2.211   3.002   6.058
 9249SOL     OW28645   5.906   2.422   6.139
 9249SOL    HW128646   5.940   2.436   6.046
 9249SOL    HW228647   5.811   2.452   6.145
 9250SOL     OW28648   5.533   3.668   5.072
 9250SOL    HW128649   5.616   3.708   5.111
 9250SOL    HW228650   5.516   3.707   4.982
 9251SOL     OW28651   3.670   2.076   3.278
 9251SOL    HW128652   3.649   2.072   3.180
 9251SOL    HW228653   3.732   2.152   3.296
 9252SOL     OW28654   6.539   0.008   4.281
 9252SOL    HW128655   6.548   6.937   4.322
 9252SOL    HW228656   6.566   0.078   4.347
 9253SOL     OW28657   4.703   5.711   6.156
 9253SOL    HW128658   4.794   5.740   6.124
 9253SOL    HW228659   4.688   5.743   6.249
 9254SOL     OW28660   6.412   4.326   1.389
 9254SOL    HW128661   6.435   4.385   1.311
 9254SOL    HW228662   6.495   4.291   1.431
 9255SOL     OW28663   5.090   2.869   0.125
 9255SOL    HW128664   5.178   2.894   0.165
 9255SOL    HW228665   5.017   2.924   0.167
 9256SOL     OW28666   3.842   4.956   3.454
 9256SOL    HW128667   3.755   5.004   3.446
 9256SOL    HW228668   3.857   4.930   3.549
 9257SOL     OW28669   0.904   3.733   2.707
 9257SOL    HW128670   0.900   3.752   2.805
 9257SOL    HW228671   0.813   3.707   2.675
 9258SOL     OW28672   3.945   3.332   3.696
 9258SOL    HW128673   3.974   3.354   3.603
 9258SOL    HW228674   3.885   3.253   3.695
 9259SOL     OW28675   1.614   2.589   0.956
 9259SOL    HW128676   1.621   2.498   0.914
 9259SOL    HW228677   1.657   2.657   0.896
 9260SOL     OW28678   5.095   1.672   5.468
 9260SOL    HW128679   5.030   1.732   5.514
 9260SOL    HW228680   5.057   1.644   5.379
 9261SOL     OW28681   4.907   6.759   6.406
 9261SOL    HW128682   4.831   6.719   6.355
 9261SOL    HW228683   4.993   6.735   6.362
 9262SOL     OW28684   6.411   2.672   5.537
 9262SOL    HW128685   6.325   2.689   5.585
 9262SOL    HW228686   6.464   2.757   5.532
 9263SOL     OW28687   6.156   4.291   0.654
 9263SOL    HW128688   6.244   4.254   0.683
 9263SOL    HW228689   6.082   4.242   0.700
 9264SOL     OW28690   5.973   3.928   0.540
 9264SOL    HW128691   5.932   3.841   0.511
 9264SOL    HW228692   6.072   3.918   0.546
 9265SOL     OW28693   3.211   1.529   0.734
 9265SOL    HW128694   3.156   1.546   0.652
 9265SOL    HW228695   3.280   1.458   0.714
 9266SOL     OW28696   2.338   6.001   2.472
 9266SOL    HW128697   2.427   5.985   2.428
 9266SOL    HW228698   2.291   5.914   2.484
 9267SOL     OW28699   0.055   4.038   5.379
 9267SOL    HW128700   6.984   3.997   5.376
 9267SOL    HW228701   0.125   3.966   5.377
 9268SOL     OW28702   0.742   6.638   1.969
 9268SOL    HW128703   0.728   6.732   1.939
 9268SOL    HW228704   0.805   6.591   1.906
 9269SOL     OW28705   2.982   2.693   6.693
 9269SOL    HW128706   2.934   2.619   6.644
 9269SOL    HW228707   2.997   2.665   6.788
 9270SOL     OW28708   4.588   6.368   5.384
 9270SOL    HW128709   4.678   6.340   5.351
 9270SOL    HW228710   4.535   6.407   5.310
 9271SOL     OW28711   1.323   6.284   0.867
 9271SOL    HW128712   1.357   6.284   0.961
 9271SOL    HW228713   1.242   6.341   0.860
 9272SOL     OW28714   3.095   5.067   5.631
 9272SOL    HW128715   3.099   4.997   5.702
 9272SOL    HW228716   3.001   5.073   5.596
 9273SOL     OW28717   5.069   5.744   3.762
 9273SOL    HW128718   5.102   5.819   3.819
 9273SOL    HW228719   4.975   5.762   3.735
 9274SOL     OW28720   6.142   2.061   6.702
 9274SOL    HW128721   6.086   2.144   6.689
 9274SOL    HW228722   6.100   2.004   6.772
 9275SOL     OW28723   0.476   1.516   0.499
 9275SOL    HW128724   0.489   1.587   0.567
 9275SOL    HW228725   0.546   1.523   0.428
 9276SOL     OW28726   2.224   5.093   3.894
 9276SOL    HW128727   2.304   5.033   3.891
 9276SOL    HW228728   2.209   5.125   3.987
 9277SOL     OW28729   3.635   3.884   0.156
 9277SOL    HW128730   3.734   3.882   0.167
 9277SOL    HW228731   3.595   3.806   0.204
 9278SOL     OW28732   1.889   0.943   4.000
 9278SOL    HW128733   1.816   1.000   4.036
 9278SOL    HW228734   1.853   0.853   3.976
 9279SOL     OW28735   4.687   0.778   1.372
 9279SOL    HW128736   4.704   0.840   1.295
 9279SOL    HW228737   4.648   0.829   1.448
 9280SOL     OW28738   2.021   0.321   3.670
 9280SOL    HW128739   1.988   0.374   3.592
 9280SOL    HW228740   2.044   0.228   3.641
 9281SOL     OW28741   3.306   3.585   0.900
 9281SOL    HW128742   3.270   3.678   0.893
 9281SOL    HW228743   3.241   3.529   0.952
 9282SOL     OW28744   4.622   2.254   4.225
 9282SOL    HW128745   4.717   2.230   4.206
 9282SOL    HW228746   4.619   2.335   4.284
 9283SOL     OW28747   5.980   0.864   2.537
 9283SOL    HW128748   5.988   0.957   2.570
 9283SOL    HW228749   6.060   0.840   2.482
 9284SOL     OW28750   3.710   5.070   0.183
 9284SOL    HW128751   3.731   5.149   0.241
 9284SOL    HW228752   3.769   5.071   0.102
 9285SOL     OW28753   4.831   3.407   0.176
 9285SOL    HW128754   4.733   3.391   0.187
 9285SOL    HW228755   4.853   3.411   0.078
 9286SOL     OW28756   5.679   6.902   5.702
 9286SOL    HW128757   5.680   6.836   5.778
 9286SOL    HW228758   5.768   6.899   5.656
 9287SOL     OW28759   3.038   5.642   0.755
 9287SOL    HW128760   3.101   5.714   0.724
 9287SOL    HW228761   2.957   5.642   0.697
 9288SOL     OW28762   2.866   1.294   5.860
 9288SOL    HW128763   2.874   1.374   5.800
 9288SOL    HW228764   2.957   1.259   5.881
 9289SOL     OW28765   3.667   1.706   2.332
 9289SOL    HW128766   3.686   1.635   2.400
 9289SOL    HW228767   3.754   1.745   2.301
 9290SOL     OW28768   4.844   1.531   4.645
 9290SOL    HW128769   4.850   1.432   4.630
 9290SOL    HW228770   4.781   1.571   4.579
 9291SOL     OW28771   2.483   0.312   5.631
 9291SOL    HW128772   2.431   0.395   5.610
 9291SOL    HW228773   2.579   0.335   5.644
 9292SOL     OW28774   6.371   3.408   6.077
 9292SOL    HW128775   6.299   3.466   6.116
 9292SOL    HW228776   6.441   3.392   6.147
 9293SOL     OW28777   6.483   4.025   1.227
 9293SOL    HW128778   6.506   3.940   1.276
 9293SOL    HW228779   6.531   4.102   1.269
 9294SOL     OW28780   3.794   6.339   5.688
 9294SOL    HW128781   3.859   6.392   5.635
 9294SOL    HW228782   3.718   6.399   5.717
 9295SOL     OW28783   5.107   2.304   3.617
 9295SOL    HW128784   5.120   2.401   3.635
 9295SOL    HW228785   5.019   2.274   3.653
 9296SOL     OW28786   6.852   5.951   6.491
 9296SOL    HW128787   6.812   5.860   6.503
 9296SOL    HW228788   6.948   5.949   6.519
 9297SOL     OW28789   0.250   0.468   0.947
 9297SOL    HW128790   0.305   0.424   1.018
 9297SOL    HW228791   0.310   0.499   0.873
 9298SOL     OW28792   2.091   6.126   5.961
 9298SOL    HW128793   2.119   6.147   6.055
 9298SOL    HW228794   2.023   6.053   5.962
 9299SOL     OW28795   0.922   3.574   4.535
 9299SOL    HW128796   0.943   3.482   4.500
 9299SOL    HW228797   0.882   3.629   4.461
 9300SOL     OW28798   7.005   5.027   4.064
 9300SOL    HW128799   6.923   5.007   4.011
 9300SOL    HW228800   0.060   4.970   4.032
 9301SOL     OW28801   4.733   4.903   3.468
 9301SOL    HW128802   4.759   4.845   3.545
 9301SOL    HW228803   4.752   4.998   3.490
 9302SOL     OW28804   2.290   2.845   4.016
 9302SOL    HW128805   2.276   2.939   4.047
 9302SOL    HW228806   2.321   2.789   4.092
 9303SOL     OW28807   3.745   6.001   0.768
 9303SOL    HW128808   3.838   5.967   0.777
 9303SOL    HW228809   3.726   6.020   0.672
 9304SOL     OW28810   4.396   4.033   1.218
 9304SOL    HW128811   4.454   4.010   1.140
 9304SOL    HW228812   4.446   4.018   1.303
 9305SOL     OW28813   4.378   1.507   1.461
 9305SOL    HW128814   4.437   1.567   1.515
 9305SOL    HW228815   4.412   1.503   1.367
 9306SOL     OW28816   0.108   4.837   4.589
 9306SOL    HW128817   0.152   4.825   4.678
 9306SOL    HW228818   0.124   4.756   4.533
 9307SOL     OW28819   1.429   3.584   1.326
 9307SOL    HW128820   1.357   3.544   1.382
 9307SOL    HW228821   1.488   3.511   1.290
 9308SOL     OW28822   0.873   4.055   1.441
 9308SOL    HW128823   0.887   4.143   1.396
 9308SOL    HW228824   0.957   4.002   1.437
 9309SOL     OW28825   3.597   5.009   5.525
 9309SOL    HW128826   3.622   4.954   5.445
 9309SOL    HW228827   3.499   5.030   5.522
 9310SOL     OW28828   4.293   5.774   6.520
 9310SOL    HW128829   4.324   5.838   6.449
 9310SOL    HW228830   4.369   5.715   6.547
 9311SOL     OW28831   6.639   4.748   1.597
 9311SOL    HW128832   6.627   4.754   1.696
 9311SOL    HW228833   6.736   4.746   1.575
 9312SOL     OW28834   2.033   3.951   1.022
 9312SOL    HW128835   1.963   3.888   1.055
 9312SOL    HW228836   2.026   3.959   0.922
 9313SOL     OW28837   0.253   0.723   1.145
 9313SOL    HW128838   0.309   0.776   1.081
 9313SOL    HW228839   0.276   0.626   1.138
 9314SOL     OW28840   4.166   5.301   6.602
 9314SOL    HW128841   4.170   5.388   6.552
 9314SOL    HW228842   4.211   5.312   6.690
 9315SOL     OW28843   6.561   0.622   5.266
 9315SOL    HW128844   6.518   0.712   5.272
 9315SOL    HW228845   6.584   0.603   5.170
 9316SOL     OW28846   4.234   5.801   5.814
 9316SOL    HW128847   4.277   5.746   5.886
 9316SOL    HW228848   4.237   5.898   5.840
 9317SOL     OW28849   6.441   5.832   2.925
 9317SOL    HW128850   6.388   5.820   3.009
 9317SOL    HW228851   6.482   5.923   2.925
 9318SOL     OW28852   6.901   1.248   4.998
 9318SOL    HW128853   6.948   1.166   4.964
 9318SOL    HW228854   6.812   1.222   5.036
 9319SOL     OW28855   0.364   2.760   6.080
 9319SOL    HW128856   0.285   2.818   6.100
 9319SOL    HW228857   0.425   2.808   6.016
 9320SOL     OW28858   4.358   1.969   6.778
 9320SOL    HW128859   4.452   1.939   6.766
 9320SOL    HW228860   4.299   1.890   6.795
 9321SOL     OW28861   6.397   6.874   2.082
 9321SOL    HW128862   6.342   6.797   2.114
 9321SOL    HW228863   6.378   6.890   1.985
 9322SOL     OW28864   6.884   6.150   6.244
 9322SOL    HW128865   6.899   6.180   6.150
 9322SOL    HW228866   6.896   6.051   6.249
 9323SOL     OW28867   2.181   0.210   5.677
 9323SOL    HW128868   2.194   0.170   5.586
 9323SOL    HW228869   2.086   0.199   5.705
 9324SOL     OW28870   1.406   4.775   0.669
 9324SOL    HW128871   1.370   4.840   0.735
 9324SOL    HW228872   1.344   4.769   0.590
 9325SOL     OW28873   4.949   1.679   0.792
 9325SOL    HW128874   5.030   1.711   0.841
 9325SOL    HW228875   4.869   1.732   0.821
 9326SOL     OW28876   2.728   0.128   1.215
 9326SOL    HW128877   2.712   0.055   1.282
 9326SOL    HW228878   2.670   0.206   1.235
 9327SOL     OW28879   5.092   6.466   2.340
 9327SOL    HW128880   4.998   6.473   2.373
 9327SOL    HW228881   5.150   6.428   2.412
 9328SOL     OW28882   4.360   1.449   5.928
 9328SOL    HW128883   4.262   1.433   5.938
 9328SOL    HW228884   4.404   1.442   6.018
 9329SOL     OW28885   6.875   3.715   2.696
 9329SOL    HW128886   6.923   3.770   2.764
 9329SOL    HW228887   6.799   3.767   2.658
 9330SOL     OW28888   0.087   6.100   0.409
 9330SOL    HW128889   0.057   6.043   0.485
 9330SOL    HW228890   0.176   6.140   0.430
 9331SOL     OW28891   0.816   1.180   6.308
 9331SOL    HW128892   0.799   1.146   6.215
 9331SOL    HW228893   0.753   1.255   6.328
 9332SOL     OW28894   3.186   4.059   2.873
 9332SOL    HW128895   3.285   4.052   2.873
 9332SOL    HW228896   3.151   4.036   2.964
 9333SOL     OW28897   5.056   3.783   1.538
 9333SOL    HW128898   5.084   3.833   1.620
 9333SOL    HW228899   4.982   3.832   1.492
 9334SOL     OW28900   3.667   6.744   3.694
 9334SOL    HW128901   3.659   6.830   3.644
 9334SOL    HW228902   3.721   6.679   3.641
 9335SOL     OW28903   1.221   0.678   5.725
 9335SOL    HW128904   1.157   0.734   5.778
 9335SOL    HW228905   1.282   0.738   5.673
 9336SOL     OW28906   3.465   6.053   6.911
 9336SOL    HW128907   3.395   6.123   6.904
 9336SOL    HW228908   3.511   6.060   7.000
 9337SOL     OW28909   5.077   0.538   3.109
 9337SOL    HW128910   5.100   0.616   3.168
 9337SOL    HW228911   4.986   0.552   3.070
 9338SOL     OW28912   4.769   0.656   1.810
 9338SOL    HW128913   4.688   0.706   1.778
 9338SOL    HW228914   4.777   0.570   1.760
 9339SOL     OW28915   5.144   6.869   0.667
 9339SOL    HW128916   5.055   6.856   0.711
 9339SOL    HW228917   5.132   6.918   0.581
 9340SOL     OW28918   5.379   3.878   5.401
 9340SOL    HW128919   5.428   3.791   5.401
 9340SOL    HW228920   5.444   3.953   5.388
 9341SOL     OW28921   0.765   6.066   6.444
 9341SOL    HW128922   0.749   6.159   6.410
 9341SOL    HW228923   0.679   6.016   6.445
 9342SOL     OW28924   2.119   0.642   4.347
 9342SOL    HW128925   2.185   0.567   4.339
 9342SOL    HW228926   2.135   0.708   4.274
 9343SOL     OW28927   6.137   4.379   3.395
 9343SOL    HW128928   6.149   4.318   3.474
 9343SOL    HW228929   6.227   4.405   3.360
 9344SOL     OW28930   4.337   5.639   1.677
 9344SOL    HW128931   4.345   5.729   1.720
 9344SOL    HW228932   4.403   5.576   1.718
 9345SOL     OW28933   6.028   3.150   1.801
 9345SOL    HW128934   5.965   3.227   1.795
 9345SOL    HW228935   6.109   3.169   1.745
 9346SOL     OW28936   5.959   0.975   0.853
 9346SOL    HW128937   5.873   0.951   0.898
 9346SOL    HW228938   5.991   0.897   0.799
 9347SOL     OW28939   1.626   5.341   0.964
 9347SOL    HW128940   1.657   5.429   1.000
 9347SOL    HW228941   1.705   5.283   0.945
 9348SOL     OW28942   4.631   5.587   1.506
 9348SOL    HW128943   4.581   5.603   1.591
 9348SOL    HW228944   4.573   5.610   1.428
 9349SOL     OW28945   0.822   0.213   2.296
 9349SOL    HW128946   0.886   0.136   2.285
 9349SOL    HW228947   0.831   0.251   2.387
 9350SOL     OW28948   0.782   2.732   5.717
 9350SOL    HW128949   0.805   2.741   5.620
 9350SOL    HW228950   0.821   2.809   5.767
 9351SOL     OW28951   3.578   1.447   6.865
 9351SOL    HW128952   3.526   1.433   6.780
 9351SOL    HW228953   3.514   1.450   6.942
 9352SOL     OW28954   2.645   3.625   0.208
 9352SOL    HW128955   2.648   3.662   0.115
 9352SOL    HW228956   2.599   3.537   0.207
 9353SOL     OW28957   0.848   5.173   1.868
 9353SOL    HW128958   0.843   5.083   1.911
 9353SOL    HW228959   0.919   5.227   1.913
 9354SOL     OW28960   6.713   2.428   6.168
 9354SOL    HW128961   6.658   2.360   6.216
 9354SOL    HW228962   6.731   2.397   6.075
 9355SOL     OW28963   1.002   2.267   4.739
 9355SOL    HW128964   0.968   2.237   4.828
 9355SOL    HW228965   1.092   2.309   4.751
 9356SOL     OW28966   3.950   0.194   1.353
 9356SOL    HW128967   3.858   0.223   1.325
 9356SOL    HW228968   3.943   0.126   1.425
 9357SOL     OW28969   0.783   2.319   0.146
 9357SOL    HW128970   0.807   2.406   0.190
 9357SOL    HW228971   0.856   2.253   0.161
 9358SOL     OW28972   0.154   4.435   2.672
 9358SOL    HW128973   0.163   4.514   2.733
 9358SOL    HW228974   0.113   4.359   2.722
 9359SOL     OW28975   2.098   5.644   6.527
 9359SOL    HW128976   2.179   5.605   6.485
 9359SOL    HW228977   2.113   5.742   6.544
 9360SOL     OW28978   1.839   6.167   6.432
 9360SOL    HW128979   1.922   6.127   6.471
 9360SOL    HW228980   1.825   6.133   6.339
 9361SOL     OW28981   1.829   6.318   3.796
 9361SOL    HW128982   1.743   6.269   3.781
 9361SOL    HW228983   1.904   6.251   3.801
 9362SOL     OW28984   1.814   1.411   2.286
 9362SOL    HW128985   1.807   1.312   2.271
 9362SOL    HW228986   1.773   1.460   2.210
 9363SOL     OW28987   3.020   5.391   1.912
 9363SOL    HW128988   3.105   5.389   1.861
 9363SOL    HW228989   2.966   5.309   1.891
 9364SOL     OW28990   2.663   2.765   1.651
 9364SOL    HW128991   2.716   2.772   1.736
 9364SOL    HW228992   2.566   2.751   1.673
 9365SOL     OW28993   2.888   1.941   4.600
 9365SOL    HW128994   2.947   1.974   4.674
 9365SOL    HW228995   2.852   1.851   4.623
 9366SOL     OW28996   3.972   5.568   0.448
 9366SOL    HW128997   4.063   5.531   0.432
 9366SOL    HW228998   3.904   5.497   0.427
 9367SOL     OW28999   5.106   0.315   0.982
 9367SOL    HW129000   5.076   0.369   0.903
 9367SOL    HW229001   5.108   0.373   1.063
 9368SOL     OW29002   3.849   0.159   2.715
 9368SOL    HW129003   3.948   0.175   2.712
 9368SOL    HW229004   3.828   0.070   2.674
 9369SOL     OW29005   0.789   5.560   5.296
 9369SOL    HW129006   0.866   5.614   5.262
 9369SOL    HW229007   0.710   5.621   5.312
 9370SOL     OW29008   4.410   1.604   4.119
 9370SOL    HW129009   4.373   1.689   4.158
 9370SOL    HW229010   4.457   1.625   4.034
 9371SOL     OW29011   3.507   5.515   1.137
 9371SOL    HW129012   3.540   5.432   1.092
 9371SOL    HW229013   3.542   5.595   1.088
 9372SOL     OW29014   4.650   6.847   1.613
 9372SOL    HW129015   4.607   6.820   1.699
 9372SOL    HW229016   4.693   6.768   1.571
 9373SOL     OW29017   6.042   2.482   0.436
 9373SOL    HW129018   6.076   2.465   0.343
 9373SOL    HW229019   5.981   2.561   0.436
 9374SOL     OW29020   0.325   4.677   5.444
 9374SOL    HW129021   0.338   4.655   5.540
 9374SOL    HW229022   0.278   4.600   5.399
 9375SOL     OW29023   6.424   1.737   6.924
 9375SOL    HW129024   6.401   1.830   6.894
 9375SOL    HW229025   6.515   1.713   6.892
 9376SOL     OW29026   2.078   3.531   2.261
 9376SOL    HW129027   2.132   3.529   2.177
 9376SOL    HW229028   1.982   3.547   2.239
 9377SOL     OW29029   1.581   5.225   2.243
 9377SOL    HW129030   1.586   5.172   2.159
 9377SOL    HW229031   1.664   5.210   2.297
 9378SOL     OW29032   3.776   0.640   4.039
 9378SOL    HW129033   3.706   0.583   3.996
 9378SOL    HW229034   3.746   0.735   4.037
 9379SOL     OW29035   3.830   6.916   4.589
 9379SOL    HW129036   3.788   6.825   4.592
 9379SOL    HW229037   3.818   6.955   4.498
 9380SOL     OW29038   4.061   5.425   6.165
 9380SOL    HW129039   4.009   5.446   6.082
 9380SOL    HW229040   4.137   5.364   6.142
 9381SOL     OW29041   5.009   1.454   4.365
 9381SOL    HW129042   5.057   1.409   4.289
 9381SOL    HW229043   4.989   1.549   4.341
 9382SOL     OW29044   3.451   0.792   4.141
 9382SOL    HW129045   3.431   0.711   4.087
 9382SOL    HW229046   3.365   0.831   4.175
 9383SOL     OW29047   4.830   4.011   3.461
 9383SOL    HW129048   4.817   3.970   3.371
 9383SOL    HW229049   4.887   3.950   3.517
 9384SOL     OW29050   1.736   6.867   2.126
 9384SOL    HW129051   1.692   6.780   2.100
 9384SOL    HW229052   1.725   6.881   2.224
 9385SOL     OW29053   4.361   1.702   3.761
 9385SOL    HW129054   4.265   1.689   3.784
 9385SOL    HW229055   4.372   1.701   3.661
 9386SOL     OW29056   3.750   5.655   5.231
 9386SOL    HW129057   3.721   5.560   5.235
 9386SOL    HW229058   3.837   5.665   5.279
 9387SOL     OW29059   3.892   1.671   6.653
 9387SOL    HW129060   3.925   1.589   6.699
 9387SOL    HW229061   3.914   1.665   6.556
 9388SOL     OW29062   2.037   0.117   4.013
 9388SOL    HW129063   2.086   0.090   4.095
 9388SOL    HW229064   1.963   0.052   3.994
 9389SOL     OW29065   3.367   5.186   2.515
 9389SOL    HW129066   3.421   5.253   2.464
 9389SOL    HW229067   3.280   5.226   2.543
 9390SOL     OW29068   5.405   4.339   5.366
 9390SOL    HW129069   5.452   4.374   5.446
 9390SOL    HW229070   5.376   4.416   5.308
 9391SOL     OW29071   1.299   6.756   4.661
 9391SOL    HW129072   1.399   6.752   4.663
 9391SOL    HW229073   1.265   6.793   4.747
 9392SOL     OW29074   5.045   4.149   2.779
 9392SOL    HW129075   5.117   4.082   2.796
 9392SOL    HW229076   5.017   4.143   2.683
 9393SOL     OW29077   3.253   6.089   6.342
 9393SOL    HW129078   3.167   6.104   6.390
 9393SOL    HW229079   3.242   6.013   6.277
 9394SOL     OW29080   5.001   0.333   1.388
 9394SOL    HW129081   5.041   0.388   1.461
 9394SOL    HW229082   5.061   0.336   1.308
 9395SOL     OW29083   2.708   1.394   0.787
 9395SOL    HW129084   2.629   1.419   0.732
 9395SOL    HW229085   2.780   1.358   0.728
 9396SOL     OW29086   1.859   5.727   6.762
 9396SOL    HW129087   1.957   5.709   6.767
 9396SOL    HW229088   1.812   5.674   6.832
 9397SOL     OW29089   4.337   0.158   6.466
 9397SOL    HW129090   4.382   0.154   6.376
 9397SOL    HW229091   4.316   0.066   6.497
 9398SOL     OW29092   0.022   1.343   6.543
 9398SOL    HW129093   0.073   1.417   6.499
 9398SOL    HW229094   0.085   1.276   6.581
 9399SOL     OW29095   2.013   2.948   3.850
 9399SOL    HW129096   2.071   2.877   3.810
 9399SOL    HW229097   1.968   2.913   3.931
 9400SOL     OW29098   5.239   1.086   0.680
 9400SOL    HW129099   5.150   1.132   0.682
 9400SOL    HW229100   5.239   1.017   0.608
 9401SOL     OW29101   1.120   1.707   2.845
 9401SOL    HW129102   1.055   1.740   2.777
 9401SOL    HW229103   1.096   1.743   2.935
 9402SOL     OW29104   1.232   5.799   3.188
 9402SOL    HW129105   1.230   5.711   3.235
 9402SOL    HW229106   1.189   5.790   3.098
 9403SOL     OW29107   6.625   1.952   2.195
 9403SOL    HW129108   6.696   1.888   2.226
 9403SOL    HW229109   6.620   1.951   2.096
 9404SOL     OW29110   2.118   3.352   0.860
 9404SOL    HW129111   2.164   3.332   0.947
 9404SOL    HW229112   2.121   3.271   0.802
 9405SOL     OW29113   0.197   4.933   5.059
 9405SOL    HW129114   0.138   5.004   5.021
 9405SOL    HW229115   0.197   4.938   5.159
 9406SOL     OW29116   6.956   3.117   6.377
 9406SOL    HW129117   6.907   3.035   6.406
 9406SOL    HW229118   6.979   3.173   6.458
 9407SOL     OW29119   2.336   4.981   5.080
 9407SOL    HW129120   2.297   4.911   5.019
 9407SOL    HW229121   2.265   5.045   5.106
 9408SOL     OW29122   6.725   4.338   4.903
 9408SOL    HW129123   6.749   4.328   5.000
 9408SOL    HW229124   6.748   4.431   4.873
 9409SOL     OW29125   6.772   5.204   2.215
 9409SOL    HW129126   6.759   5.105   2.221
 9409SOL    HW229127   6.700   5.250   2.266
 9410SOL     OW29128   4.072   0.641   1.804
 9410SOL    HW129129   3.993   0.590   1.837
 9410SOL    HW229130   4.044   0.703   1.730
 9411SOL     OW29131   3.927   3.210   3.323
 9411SOL    HW129132   3.919   3.140   3.251
 9411SOL    HW229133   3.895   3.298   3.287
 9412SOL     OW29134   0.134   0.884   1.339
 9412SOL    HW129135   0.036   0.867   1.338
 9412SOL    HW229136   0.182   0.812   1.288
 9413SOL     OW29137   4.050   4.761   3.916
 9413SOL    HW129138   4.148   4.739   3.915
 9413SOL    HW229139   4.022   4.786   4.008
 9414SOL     OW29140   2.200   2.358   5.423
 9414SOL    HW129141   2.280   2.348   5.482
 9414SOL    HW229142   2.125   2.302   5.458
 9415SOL     OW29143   3.948   0.881   2.449
 9415SOL    HW129144   4.012   0.817   2.407
 9415SOL    HW229145   3.858   0.872   2.406
 9416SOL     OW29146   0.299   5.912   6.277
 9416SOL    HW129147   0.279   5.969   6.197
 9416SOL    HW229148   0.249   5.826   6.269
 9417SOL     OW29149   3.032   6.347   1.284
 9417SOL    HW129150   2.985   6.435   1.274
 9417SOL    HW229151   3.019   6.294   1.200
 9418SOL     OW29152   3.035   1.892   5.001
 9418SOL    HW129153   3.080   1.979   4.982
 9418SOL    HW229154   2.945   1.891   4.957
 9419SOL     OW29155   3.125   2.712   0.066
 9419SOL    HW129156   3.102   2.792   0.121
 9419SOL    HW229157   3.224   2.709   0.052
 9420SOL     OW29158   5.728   3.135   0.182
 9420SOL    HW129159   5.735   3.231   0.154
 9420SOL    HW229160   5.640   3.098   0.152
 9421SOL     OW29161   3.955   6.482   5.526
 9421SOL    HW129162   4.035   6.451   5.475
 9421SOL    HW229163   3.982   6.555   5.589
 9422SOL     OW29164   2.647   5.724   4.235
 9422SOL    HW129165   2.742   5.714   4.208
 9422SOL    HW229166   2.633   5.816   4.273
 9423SOL     OW29167   4.125   5.946   3.168
 9423SOL    HW129168   4.083   5.972   3.081
 9423SOL    HW229169   4.125   5.847   3.177
 9424SOL     OW29170   5.433   0.513   4.502
 9424SOL    HW129171   5.424   0.418   4.531
 9424SOL    HW229172   5.377   0.571   4.561
 9425SOL     OW29173   6.794   4.942   0.762
 9425SOL    HW129174   6.894   4.938   0.761
 9425SOL    HW229175   6.764   5.036   0.776
 9426SOL     OW29176   0.153   1.564   6.437
 9426SOL    HW129177   0.250   1.545   6.423
 9426SOL    HW229178   0.114   1.603   6.354
 9427SOL     OW29179   3.452   5.938   2.802
 9427SOL    HW129180   3.488   5.999   2.730
 9427SOL    HW229181   3.403   5.992   2.870
 9428SOL     OW29182   6.526   0.454   6.707
 9428SOL    HW129183   6.532   0.464   6.806
 9428SOL    HW229184   6.570   0.532   6.663
 9429SOL     OW29185   1.808   2.575   4.235
 9429SOL    HW129186   1.836   2.501   4.173
 9429SOL    HW229187   1.889   2.623   4.268
 9430SOL     OW29188   0.591   2.296   3.953
 9430SOL    HW129189   0.639   2.378   3.924
 9430SOL    HW229190   0.515   2.276   3.891
 9431SOL     OW29191   0.198   5.083   6.393
 9431SOL    HW129192   0.144   5.081   6.309
 9431SOL    HW229193   0.137   5.077   6.472
 9432SOL     OW29194   6.841   1.854   3.547
 9432SOL    HW129195   6.813   1.870   3.641
 9432SOL    HW229196   6.832   1.939   3.494
 9433SOL     OW29197   3.646   6.363   3.140
 9433SOL    HW129198   3.659   6.399   3.048
 9433SOL    HW229199   3.617   6.267   3.134
 9434SOL     OW29200   5.462   5.766   3.992
 9434SOL    HW129201   5.370   5.729   4.009
 9434SOL    HW229202   5.523   5.739   4.067
 9435SOL     OW29203   0.851   3.088   1.769
 9435SOL    HW129204   0.947   3.114   1.768
 9435SOL    HW229205   0.803   3.131   1.692
 9436SOL     OW29206   0.981   0.809   3.336
 9436SOL    HW129207   1.065   0.764   3.307
 9436SOL    HW229208   0.904   0.746   3.329
 9437SOL     OW29209   6.949   5.136   4.297
 9437SOL    HW129210   6.964   5.083   4.214
 9437SOL    HW229211   0.015   5.178   4.326
 9438SOL     OW29212   2.710   6.428   1.895
 9438SOL    HW129213   2.653   6.387   1.967
 9438SOL    HW229214   2.663   6.509   1.859
 9439SOL     OW29215   1.016   2.760   0.171
 9439SOL    HW129216   0.957   2.839   0.159
 9439SOL    HW229217   1.053   2.760   0.264
 9440SOL     OW29218   3.173   4.866   3.090
 9440SOL    HW129219   3.157   4.886   3.187
 9440SOL    HW229220   3.260   4.906   3.062
 9441SOL     OW29221   6.621   6.414   4.771
 9441SOL    HW129222   6.659   6.333   4.817
 9441SOL    HW229223   6.532   6.436   4.809
 9442SOL     OW29224   4.483   3.635   0.375
 9442SOL    HW129225   4.569   3.632   0.425
 9442SOL    HW229226   4.430   3.715   0.405
 9443SOL     OW29227   2.352   4.595   2.772
 9443SOL    HW129228   2.261   4.618   2.737
 9443SOL    HW229229   2.356   4.496   2.790
 9444SOL     OW29230   1.460   4.249   0.189
 9444SOL    HW129231   1.543   4.207   0.153
 9444SOL    HW229232   1.444   4.215   0.282
 9445SOL     OW29233   0.303   1.712   3.966
 9445SOL    HW129234   0.281   1.664   4.051
 9445SOL    HW229235   0.375   1.662   3.918
 9446SOL     OW29236   6.469   5.167   3.206
 9446SOL    HW129237   6.529   5.088   3.218
 9446SOL    HW229238   6.503   5.242   3.263
 9447SOL     OW29239   5.322   4.944   2.375
 9447SOL    HW129240   5.412   4.913   2.405
 9447SOL    HW229241   5.253   4.916   2.442
 9448SOL     OW29242   5.519   0.210   6.121
 9448SOL    HW129243   5.575   0.292   6.130
 9448SOL    HW229244   5.454   0.206   6.197
 9449SOL     OW29245   6.198   6.649   1.763
 9449SOL    HW129246   6.179   6.592   1.844
 9449SOL    HW229247   6.194   6.592   1.681
 9450SOL     OW29248   1.735   5.900   4.197
 9450SOL    HW129249   1.688   5.967   4.254
 9450SOL    HW229250   1.694   5.810   4.211
 9451SOL     OW29251   3.285   5.825   6.858
 9451SOL    HW129252   3.366   5.876   6.830
 9451SOL    HW229253   3.276   5.743   6.802
 9452SOL     OW29254   0.057   4.084   1.006
 9452SOL    HW129255   0.086   4.126   1.091
 9452SOL    HW229256   0.135   4.077   0.944
 9453SOL     OW29257   3.829   5.487   3.502
 9453SOL    HW129258   3.881   5.405   3.527
 9453SOL    HW229259   3.771   5.514   3.579
 9454SOL     OW29260   4.426   4.381   0.957
 9454SOL    HW129261   4.392   4.463   0.911
 9454SOL    HW229262   4.472   4.408   1.042
 9455SOL     OW29263   2.749   2.161   2.288
 9455SOL    HW129264   2.745   2.066   2.258
 9455SOL    HW229265   2.793   2.217   2.217
 9456SOL     OW29266   5.909   2.588   2.552
 9456SOL    HW129267   5.976   2.652   2.590
 9456SOL    HW229268   5.829   2.638   2.520
 9457SOL     OW29269   0.419   4.920   3.668
 9457SOL    HW129270   0.484   4.957   3.600
 9457SOL    HW229271   0.399   4.990   3.736
 9458SOL     OW29272   6.623   4.245   0.002
 9458SOL    HW129273   6.700   4.190   0.034
 9458SOL    HW229274   6.563   4.189   6.964
 9459SOL     OW29275   5.065   4.894   5.159
 9459SOL    HW129276   5.050   4.795   5.156
 9459SOL    HW229277   5.033   4.930   5.247
 9460SOL     OW29278   0.942   2.325   3.252
 9460SOL    HW129279   0.897   2.239   3.275
 9460SOL    HW229280   1.007   2.310   3.178
 9461SOL     OW29281   1.819   2.275   1.893
 9461SOL    HW129282   1.839   2.287   1.796
 9461SOL    HW229283   1.858   2.350   1.946
 9462SOL     OW29284   1.720   1.567   4.694
 9462SOL    HW129285   1.813   1.560   4.732
 9462SOL    HW229286   1.715   1.649   4.636
 9463SOL     OW29287   5.429   6.172   0.782
 9463SOL    HW129288   5.478   6.150   0.865
 9463SOL    HW229289   5.467   6.120   0.705
 9464SOL     OW29290   0.377   1.097   1.690
 9464SOL    HW129291   0.307   1.111   1.620
 9464SOL    HW229292   0.344   1.033   1.759
 9465SOL     OW29293   0.129   4.060   1.501
 9465SOL    HW129294   0.225   4.046   1.527
 9465SOL    HW229295   0.070   4.010   1.563
 9466SOL     OW29296   3.825   5.274   6.895
 9466SOL    HW129297   3.731   5.289   6.927
 9466SOL    HW229298   3.836   5.315   6.805
 9467SOL     OW29299   2.307   3.232   1.015
 9467SOL    HW129300   2.330   3.139   1.042
 9467SOL    HW229301   2.362   3.258   0.935
 9468SOL     OW29302   6.198   3.251   0.646
 9468SOL    HW129303   6.202   3.268   0.744
 9468SOL    HW229304   6.202   3.338   0.597
 9469SOL     OW29305   0.378   6.177   0.687
 9469SOL    HW129306   0.456   6.147   0.631
 9469SOL    HW229307   0.321   6.098   0.708
 9470SOL     OW29308   3.995   4.172   0.707
 9470SOL    HW129309   4.094   4.170   0.691
 9470SOL    HW229310   3.977   4.197   0.802
 9471SOL     OW29311   6.202   2.516   5.340
 9471SOL    HW129312   6.260   2.436   5.357
 9471SOL    HW229313   6.259   2.598   5.330
 9472SOL     OW29314   1.685   4.004   6.487
 9472SOL    HW129315   1.746   4.044   6.555
 9472SOL    HW229316   1.697   4.049   6.399
 9473SOL     OW29317   2.882   4.590   0.485
 9473SOL    HW129318   2.874   4.625   0.579
 9473SOL    HW229319   2.871   4.491   0.486
 9474SOL     OW29320   5.628   3.434   1.410
 9474SOL    HW129321   5.685   3.386   1.478
 9474SOL    HW229322   5.562   3.491   1.458
 9475SOL     OW29323   4.904   3.637   6.014
 9475SOL    HW129324   4.987   3.692   6.014
 9475SOL    HW229325   4.867   3.634   6.107
 9476SOL     OW29326   3.704   3.757   6.225
 9476SOL    HW129327   3.758   3.739   6.307
 9476SOL    HW229328   3.765   3.759   6.146
 9477SOL     OW29329   2.020   4.053   1.868
 9477SOL    HW129330   2.003   3.973   1.811
 9477SOL    HW229331   2.053   4.024   1.957
 9478SOL     OW29332   5.493   2.627   0.320
 9478SOL    HW129333   5.428   2.562   0.281
 9478SOL    HW229334   5.446   2.712   0.343
 9479SOL     OW29335   4.257   0.866   1.816
 9479SOL    HW129336   4.222   0.777   1.843
 9479SOL    HW229337   4.219   0.891   1.726
 9480SOL     OW29338   6.244   6.855   6.942
 9480SOL    HW129339   6.161   6.851   6.998
 9480SOL    HW229340   6.220   6.878   6.848
 9481SOL     OW29341   4.317   1.641   2.808
 9481SOL    HW129342   4.312   1.740   2.821
 9481SOL    HW229343   4.240   1.610   2.752
 9482SOL     OW29344   5.904   0.509   0.834
 9482SOL    HW129345   5.850   0.555   0.905
 9482SOL    HW229346   5.850   0.436   0.793
 9483SOL     OW29347   0.046   0.830   1.010
 9483SOL    HW129348   0.117   0.792   1.069
 9483SOL    HW229349   7.002   0.884   1.064
 9484SOL     OW29350   3.294   5.610   4.491
 9484SOL    HW129351   3.362   5.640   4.558
 9484SOL    HW229352   3.215   5.671   4.494
 9485SOL     OW29353   6.959   1.298   7.017
 9485SOL    HW129354   0.011   1.298   6.947
 9485SOL    HW229355   6.979   1.368   0.066
 9486SOL     OW29356   4.726   5.625   0.134
 9486SOL    HW129357   4.785   5.551   0.167
 9486SOL    HW229358   4.630   5.599   0.143
 9487SOL     OW29359   3.638   3.270   3.837
 9487SOL    HW129360   3.539   3.282   3.826
 9487SOL    HW229361   3.660   3.173   3.831
 9488SOL     OW29362   1.415   1.479   0.658
 9488SOL    HW129363   1.399   1.381   0.670
 9488SOL    HW229364   1.339   1.530   0.697
 9489SOL     OW29365   4.798   4.376   0.458
 9489SOL    HW129366   4.780   4.327   0.543
 9489SOL    HW229367   4.733   4.345   0.388
 9490SOL     OW29368   5.814   4.029   3.198
 9490SOL    HW129369   5.888   3.967   3.225
 9490SOL    HW229370   5.817   4.112   3.254
 9491SOL     OW29371   5.015   6.545   3.259
 9491SOL    HW129372   5.080   6.470   3.254
 9491SOL    HW229373   4.983   6.568   3.167
 9492SOL     OW29374   4.587   2.655   4.707
 9492SOL    HW129375   4.591   2.737   4.651
 9492SOL    HW229376   4.669   2.649   4.764
 9493SOL     OW29377   4.418   6.687   3.270
 9493SOL    HW129378   4.470   6.736   3.340
 9493SOL    HW229379   4.472   6.681   3.186
 9494SOL     OW29380   5.270   2.435   1.905
 9494SOL    HW129381   5.266   2.519   1.852
 9494SOL    HW229382   5.334   2.371   1.861
 9495SOL     OW29383   0.659   0.960   2.410
 9495SOL    HW129384   0.710   1.013   2.342
 9495SOL    HW229385   0.723   0.920   2.476
 9496SOL     OW29386   4.060   2.202   2.487
 9496SOL    HW129387   4.138   2.216   2.426
 9496SOL    HW229388   4.022   2.111   2.470
 9497SOL     OW29389   5.979   4.812   4.402
 9497SOL    HW129390   5.889   4.797   4.442
 9497SOL    HW229391   6.043   4.743   4.438
 9498SOL     OW29392   6.453   5.009   4.281
 9498SOL    HW129393   6.454   5.014   4.381
 9498SOL    HW229394   6.362   5.034   4.248
 9499SOL     OW29395   5.497   6.042   5.561
 9499SOL    HW129396   5.418   6.001   5.515
 9499SOL    HW229397   5.581   6.011   5.516
 9500SOL     OW29398   4.297   0.750   0.779
 9500SOL    HW129399   4.274   0.846   0.761
 9500SOL    HW229400   4.384   0.728   0.735
 9501SOL     OW29401   1.707   2.529   4.939
 9501SOL    HW129402   1.648   2.453   4.966
 9501SOL    HW229403   1.700   2.544   4.840
 9502SOL     OW29404   6.145   4.493   5.434
 9502SOL    HW129405   6.088   4.411   5.432
 9502SOL    HW229406   6.230   4.473   5.484
 9503SOL     OW29407   0.511   2.431   6.762
 9503SOL    HW129408   0.607   2.427   6.790
 9503SOL    HW229409   0.464   2.348   6.792
 9504SOL     OW29410   6.134   5.030   1.983
 9504SOL    HW129411   6.200   5.102   2.006
 9504SOL    HW229412   6.183   4.948   1.956
 9505SOL     OW29413   4.282   4.768   5.330
 9505SOL    HW129414   4.319   4.861   5.323
 9505SOL    HW229415   4.183   4.772   5.338
 9506SOL     OW29416   3.278   2.309   1.293
 9506SOL    HW129417   3.258   2.383   1.356
 9506SOL    HW229418   3.199   2.247   1.288
 9507SOL     OW29419   6.018   0.128   1.801
 9507SOL    HW129420   5.991   0.033   1.785
 9507SOL    HW229421   6.090   0.130   1.871
 9508SOL     OW29422   4.952   1.401   3.373
 9508SOL    HW129423   4.877   1.430   3.313
 9508SOL    HW229424   5.020   1.474   3.378
 9509SOL     OW29425   6.366   0.203   2.377
 9509SOL    HW129426   6.421   0.123   2.353
 9509SOL    HW229427   6.296   0.177   2.443
 9510SOL     OW29428   0.583   2.877   3.453
 9510SOL    HW129429   0.638   2.959   3.468
 9510SOL    HW229430   0.585   2.853   3.356
 9511SOL     OW29431   1.496   1.060   0.423
 9511SOL    HW129432   1.413   1.113   0.409
 9511SOL    HW229433   1.482   0.996   0.499
 9512SOL     OW29434   6.362   2.262   1.376
 9512SOL    HW129435   6.432   2.332   1.366
 9512SOL    HW229436   6.272   2.305   1.378
 9513SOL     OW29437   3.893   5.015   6.924
 9513SOL    HW129438   3.874   5.111   6.903
 9513SOL    HW229439   3.946   4.974   6.849
 9514SOL     OW29440   3.464   3.237   6.671
 9514SOL    HW129441   3.510   3.322   6.648
 9514SOL    HW229442   3.372   3.236   6.632
 9515SOL     OW29443   2.422   4.813   3.692
 9515SOL    HW129444   2.326   4.811   3.720
 9515SOL    HW229445   2.428   4.841   3.596
 9516SOL     OW29446   6.653   3.955   0.364
 9516SOL    HW129447   6.606   3.882   0.315
 9516SOL    HW229448   6.732   3.917   0.413
 9517SOL     OW29449   0.342   4.662   1.197
 9517SOL    HW129450   0.352   4.700   1.105
 9517SOL    HW229451   0.432   4.659   1.241
 9518SOL     OW29452   2.437   1.291   0.439
 9518SOL    HW129453   2.495   1.262   0.363
 9518SOL    HW229454   2.345   1.253   0.428
 9519SOL     OW29455   0.783   3.032   5.293
 9519SOL    HW129456   0.810   3.019   5.198
 9519SOL    HW229457   0.857   3.002   5.353
 9520SOL     OW29458   2.286   6.784   2.792
 9520SOL    HW129459   2.251   6.828   2.875
 9520SOL    HW229460   2.366   6.834   2.759
 9521SOL     OW29461   5.418   5.544   4.370
 9521SOL    HW129462   5.325   5.566   4.341
 9521SOL    HW229463   5.483   5.605   4.325
 9522SOL     OW29464   3.338   6.153   1.042
 9522SOL    HW129465   3.389   6.115   0.965
 9522SOL    HW229466   3.398   6.211   1.096
 9523SOL     OW29467   3.534   5.028   5.056
 9523SOL    HW129468   3.458   5.092   5.071
 9523SOL    HW229469   3.528   4.954   5.123
 9524SOL     OW29470   4.170   3.366   1.163
 9524SOL    HW129471   4.244   3.420   1.122
 9524SOL    HW229472   4.099   3.428   1.196
 9525SOL     OW29473   2.553   0.845   6.085
 9525SOL    HW129474   2.613   0.906   6.138
 9525SOL    HW229475   2.468   0.893   6.063
 9526SOL     OW29476   5.111   5.734   2.925
 9526SOL    HW129477   5.128   5.829   2.953
 9526SOL    HW229478   5.197   5.683   2.927
 9527SOL     OW29479   1.131   1.291   2.197
 9527SOL    HW129480   1.136   1.367   2.262
 9527SOL    HW229481   1.046   1.240   2.212
 9528SOL     OW29482   6.554   0.679   2.262
 9528SOL    HW129483   6.654   0.679   2.264
 9528SOL    HW229484   6.521   0.772   2.245
 9529SOL     OW29485   0.924   2.844   6.086
 9529SOL    HW129486   0.838   2.871   6.130
 9529SOL    HW229487   0.987   2.809   6.156
 9530SOL     OW29488   1.315   2.425   3.194
 9530SOL    HW129489   1.304   2.326   3.187
 9530SOL    HW229490   1.280   2.456   3.283
 9531SOL     OW29491   3.592   0.077   3.225
 9531SOL    HW129492   3.624   7.006   3.250
 9531SOL    HW229493   3.669   0.133   3.193
 9532SOL     OW29494   2.002   6.843   1.995
 9532SOL    HW129495   2.029   6.939   1.987
 9532SOL    HW229496   1.931   6.834   2.065
 9533SOL     OW29497   1.356   0.931   5.716
 9533SOL    HW129498   1.426   0.987   5.670
 9533SOL    HW229499   1.267   0.976   5.706
 9534SOL     OW29500   5.699   2.191   5.054
 9534SOL    HW129501   5.720   2.100   5.017
 9534SOL    HW229502   5.616   2.226   5.013
 9535SOL     OW29503   2.618   1.108   5.512
 9535SOL    HW129504   2.581   1.120   5.604
 9535SOL    HW229505   2.668   1.190   5.485
 9536SOL     OW29506   1.569   5.701   5.389
 9536SOL    HW129507   1.600   5.701   5.484
 9536SOL    HW229508   1.648   5.709   5.328
 9537SOL     OW29509   2.984   0.325   1.767
 9537SOL    HW129510   3.015   0.233   1.745
 9537SOL    HW229511   2.903   0.319   1.826
 9538SOL     OW29512   6.692   2.486   4.810
 9538SOL    HW129513   6.718   2.581   4.827
 9538SOL    HW229514   6.773   2.428   4.817
 9539SOL     OW29515   0.857   5.735   0.422
 9539SOL    HW129516   0.957   5.735   0.425
 9539SOL    HW229517   0.825   5.693   0.337
 9540SOL     OW29518   4.850   5.059   4.568
 9540SOL    HW129519   4.783   4.986   4.583
 9540SOL    HW229520   4.853   5.082   4.471
 9541SOL     OW29521   2.027   2.700   4.325
 9541SOL    HW129522   2.010   2.799   4.328
 9541SOL    HW229523   2.065   2.670   4.413
 9542SOL     OW29524   5.026   3.399   4.765
 9542SOL    HW129525   4.958   3.347   4.818
 9542SOL    HW229526   4.984   3.483   4.731
 9543SOL     OW29527   5.455   1.482   3.365
 9543SOL    HW129528   5.456   1.574   3.405
 9543SOL    HW229529   5.546   1.442   3.370
 9544SOL     OW29530   4.823   1.406   2.762
 9544SOL    HW129531   4.903   1.416   2.702
 9544SOL    HW229532   4.851   1.366   2.849
 9545SOL     OW29533   6.573   1.193   3.854
 9545SOL    HW129534   6.516   1.210   3.774
 9545SOL    HW229535   6.566   1.097   3.881
 9546SOL     OW29536   2.559   5.395   0.293
 9546SOL    HW129537   2.548   5.327   0.219
 9546SOL    HW229538   2.650   5.435   0.287
 9547SOL     OW29539   0.767   6.659   4.127
 9547SOL    HW129540   0.727   6.717   4.198
 9547SOL    HW229541   0.711   6.578   4.115
 9548SOL     OW29542   4.965   5.838   4.031
 9548SOL    HW129543   4.878   5.833   3.982
 9548SOL    HW229544   4.999   5.933   4.029
 9549SOL     OW29545   2.358   6.131   1.048
 9549SOL    HW129546   2.293   6.127   1.124
 9549SOL    HW229547   2.338   6.210   0.991
 9550SOL     OW29548   1.460   1.703   0.153
 9550SOL    HW129549   1.538   1.716   0.092
 9550SOL    HW229550   1.408   1.789   0.160
 9551SOL     OW29551   1.012   6.572   4.959
 9551SOL    HW129552   0.926   6.622   4.960
 9551SOL    HW229553   1.070   6.603   5.034
 9552SOL     OW29554   1.666   6.059   3.064
 9552SOL    HW129555   1.655   6.065   3.163
 9552SOL    HW229556   1.763   6.068   3.041
 9553SOL     OW29557   6.037   4.146   5.777
 9553SOL    HW129558   6.113   4.083   5.794
 9553SOL    HW229559   5.950   4.098   5.793
 9554SOL     OW29560   2.544   1.491   1.854
 9554SOL    HW129561   2.607   1.562   1.886
 9554SOL    HW229562   2.476   1.472   1.925
 9555SOL     OW29563   6.782   2.401   0.524
 9555SOL    HW129564   6.778   2.386   0.623
 9555SOL    HW229565   6.859   2.352   0.485
 9556SOL     OW29566   2.106   1.623   1.601
 9556SOL    HW129567   2.170   1.560   1.645
 9556SOL    HW229568   2.114   1.615   1.502
 9557SOL     OW29569   5.222   0.301   2.057
 9557SOL    HW129570   5.236   0.400   2.054
 9557SOL    HW229571   5.281   0.261   2.128
 9558SOL     OW29572   6.457   4.917   2.772
 9558SOL    HW129573   6.532   4.898   2.836
 9558SOL    HW229574   6.483   4.885   2.680
 9559SOL     OW29575   6.709   3.210   1.483
 9559SOL    HW129576   6.678   3.283   1.544
 9559SOL    HW229577   6.807   3.220   1.466
 9560SOL     OW29578   3.248   1.501   3.731
 9560SOL    HW129579   3.173   1.523   3.669
 9560SOL    HW229580   3.216   1.510   3.826
 9561SOL     OW29581   4.239   6.618   0.789
 9561SOL    HW129582   4.328   6.660   0.777
 9561SOL    HW229583   4.224   6.550   0.717
 9562SOL     OW29584   5.324   4.695   2.849
 9562SOL    HW129585   5.348   4.713   2.944
 9562SOL    HW229586   5.241   4.746   2.825
 9563SOL     OW29587   6.286   5.629   6.853
 9563SOL    HW129588   6.269   5.673   6.941
 9563SOL    HW229589   6.248   5.536   6.855
 9564SOL     OW29590   2.743   6.656   0.327
 9564SOL    HW129591   2.785   6.737   0.367
 9564SOL    HW229592   2.812   6.606   0.274
 9565SOL     OW29593   3.700   5.730   4.503
 9565SOL    HW129594   3.687   5.707   4.600
 9565SOL    HW229595   3.650   5.665   4.446
 9566SOL     OW29596   2.691   4.485   5.303
 9566SOL    HW129597   2.712   4.389   5.321
 9566SOL    HW229598   2.769   4.528   5.257
 9567SOL     OW29599   5.910   5.355   5.787
 9567SOL    HW129600   5.915   5.257   5.804
 9567SOL    HW229601   5.910   5.372   5.689
 9568SOL     OW29602   4.793   3.576   6.265
 9568SOL    HW129603   4.803   3.579   6.364
 9568SOL    HW229604   4.837   3.493   6.230
 9569SOL     OW29605   5.954   1.061   0.088
 9569SOL    HW129606   6.020   1.090   0.019
 9569SOL    HW229607   5.909   1.141   0.128
 9570SOL     OW29608   1.105   1.019   0.201
 9570SOL    HW129609   1.078   1.115   0.208
 9570SOL    HW229610   1.166   1.006   0.123
 9571SOL     OW29611   2.088   3.874   0.033
 9571SOL    HW129612   2.023   3.798   0.038
 9571SOL    HW229613   2.075   3.924   6.967
 9572SOL     OW29614   1.428   4.347   1.559
 9572SOL    HW129615   1.509   4.329   1.505
 9572SOL    HW229616   1.359   4.392   1.503
 9573SOL     OW29617   1.918   1.547   0.556
 9573SOL    HW129618   1.886   1.453   0.565
 9573SOL    HW229619   2.010   1.547   0.517
 9574SOL     OW29620   2.779   2.645   5.881
 9574SOL    HW129621   2.771   2.559   5.829
 9574SOL    HW229622   2.839   2.708   5.831
 9575SOL     OW29623   5.477   0.773   2.529
 9575SOL    HW129624   5.544   0.733   2.591
 9575SOL    HW229625   5.442   0.703   2.467
 9576SOL     OW29626   3.285   1.426   5.267
 9576SOL    HW129627   3.225   1.409   5.189
 9576SOL    HW229628   3.232   1.422   5.351
 9577SOL     OW29629   0.898   6.371   3.446
 9577SOL    HW129630   0.857   6.340   3.532
 9577SOL    HW229631   0.862   6.315   3.371
 9578SOL     OW29632   6.178   2.773   2.558
 9578SOL    HW129633   6.226   2.718   2.627
 9578SOL    HW229634   6.188   2.870   2.581
 9579SOL     OW29635   0.825   6.475   2.502
 9579SOL    HW129636   0.784   6.510   2.418
 9579SOL    HW229637   0.883   6.397   2.481
 9580SOL     OW29638   4.428   3.368   5.938
 9580SOL    HW129639   4.502   3.434   5.924
 9580SOL    HW229640   4.352   3.390   5.875
 9581SOL     OW29641   0.947   4.281   5.905
 9581SOL    HW129642   1.026   4.293   5.965
 9581SOL    HW229643   0.868   4.326   5.945
 9582SOL     OW29644   4.163   4.843   4.753
 9582SOL    HW129645   4.212   4.790   4.684
 9582SOL    HW229646   4.200   4.825   4.844
 9583SOL     OW29647   1.908   4.413   1.908
 9583SOL    HW129648   1.990   4.367   1.876
 9583SOL    HW229649   1.839   4.414   1.836
 9584SOL     OW29650   6.154   6.014   6.071
 9584SOL    HW129651   6.096   5.943   6.032
 9584SOL    HW229652   6.243   5.975   6.094
 9585SOL     OW29653   6.039   0.266   4.777
 9585SOL    HW129654   6.068   0.311   4.692
 9585SOL    HW229655   6.080   0.314   4.855
 9586SOL     OW29656   5.769   3.406   3.193
 9586SOL    HW129657   5.777   3.461   3.110
 9586SOL    HW229658   5.745   3.312   3.169
 9587SOL     OW29659   4.900   6.881   2.572
 9587SOL    HW129660   4.874   6.824   2.494
 9587SOL    HW229661   4.909   6.976   2.542
 9588SOL     OW29662   0.709   0.745   2.060
 9588SOL    HW129663   0.621   0.784   2.031
 9588SOL    HW229664   0.701   0.645   2.064
 9589SOL     OW29665   2.559   1.413   6.605
 9589SOL    HW129666   2.626   1.423   6.678
 9589SOL    HW229667   2.472   1.383   6.643
 9590SOL     OW29668   6.277   4.237   4.298
 9590SOL    HW129669   6.291   4.307   4.228
 9590SOL    HW229670   6.338   4.160   4.280
 9591SOL     OW29671   1.423   5.211   1.425
 9591SOL    HW129672   1.417   5.249   1.333
 9591SOL    HW229673   1.358   5.258   1.485
 9592SOL     OW29674   4.676   5.142   1.698
 9592SOL    HW129675   4.683   5.185   1.608
 9592SOL    HW229676   4.707   5.047   1.691
 9593SOL     OW29677   0.693   2.937   4.317
 9593SOL    HW129678   0.681   2.888   4.403
 9593SOL    HW229679   0.776   2.992   4.321
 9594SOL     OW29680   6.154   7.006   2.303
 9594SOL    HW129681   6.068   0.034   2.323
 9594SOL    HW229682   6.161   6.989   2.205
 9595SOL     OW29683   1.024   5.256   3.904
 9595SOL    HW129684   1.013   5.265   4.003
 9595SOL    HW229685   1.111   5.296   3.877
 9596SOL     OW29686   5.574   6.299   5.085
 9596SOL    HW129687   5.597   6.234   5.012
 9596SOL    HW229688   5.605   6.390   5.060
 9597SOL     OW29689   2.167   3.700   1.076
 9597SOL    HW129690   2.103   3.776   1.073
 9597SOL    HW229691   2.258   3.731   1.048
 9598SOL     OW29692   0.089   5.507   5.763
 9598SOL    HW129693   0.094   5.550   5.853
 9598SOL    HW229694   0.181   5.500   5.724
 9599SOL     OW29695   4.775   1.662   4.853
 9599SOL    HW129696   4.791   1.609   4.770
 9599SOL    HW229697   4.862   1.699   4.887
 9600SOL     OW29698   1.378   0.034   6.682
 9600SOL    HW129699   1.391   0.116   6.737
 9600SOL    HW229700   1.368   6.975   6.743
 9601SOL     OW29701   0.342   5.361   5.264
 9601SOL    HW129702   0.244   5.345   5.254
 9601SOL    HW229703   0.370   5.438   5.207
 9602SOL     OW29704   1.323   5.867   0.411
 9602SOL    HW129705   1.304   5.769   0.422
 9602SOL    HW229706   1.254   5.919   0.462
 9603SOL     OW29707   1.825   6.048   3.965
 9603SOL    HW129708   1.924   6.063   3.971
 9603SOL    HW229709   1.795   5.993   4.043
 9604SOL     OW29710   6.267   1.275   6.902
 9604SOL    HW129711   6.207   1.238   6.832
 9604SOL    HW229712   6.353   1.223   6.903
 9605SOL     OW29713   2.133   6.258   6.809
 9605SOL    HW129714   2.204   6.329   6.807
 9605SOL    HW229715   2.148   6.199   6.887
 9606SOL     OW29716   6.265   6.492   4.024
 9606SOL    HW129717   6.316   6.576   4.011
 9606SOL    HW229718   6.310   6.417   3.976
 9607SOL     OW29719   1.291   2.091   1.870
 9607SOL    HW129720   1.212   2.086   1.931
 9607SOL    HW229721   1.258   2.093   1.775
 9608SOL     OW29722   0.816   6.941   2.236
 9608SOL    HW129723   0.799   6.978   2.145
 9608SOL    HW229724   0.730   6.939   2.288
 9609SOL     OW29725   1.421   3.550   4.816
 9609SOL    HW129726   1.337   3.599   4.790
 9609SOL    HW229727   1.450   3.581   4.906
 9610SOL     OW29728   2.380   1.988   6.199
 9610SOL    HW129729   2.323   2.048   6.256
 9610SOL    HW229730   2.407   1.908   6.252
 9611SOL     OW29731   6.455   0.122   1.164
 9611SOL    HW129732   6.552   0.111   1.185
 9611SOL    HW229733   6.433   0.219   1.154
 9612SOL     OW29734   5.529   2.613   1.563
 9612SOL    HW129735   5.564   2.543   1.624
 9612SOL    HW229736   5.595   2.687   1.555
 9613SOL     OW29737   5.903   6.363   5.594
 9613SOL    HW129738   5.814   6.395   5.560
 9613SOL    HW229739   5.892   6.323   5.685
 9614SOL     OW29740   3.833   3.251   2.402
 9614SOL    HW129741   3.891   3.214   2.475
 9614SOL    HW229742   3.788   3.176   2.354
 9615SOL     OW29743   0.852   6.170   3.259
 9615SOL    HW129744   0.797   6.146   3.179
 9615SOL    HW229745   0.895   6.087   3.295
 9616SOL     OW29746   3.069   3.256   0.704
 9616SOL    HW129747   3.154   3.283   0.659
 9616SOL    HW229748   3.037   3.331   0.763
 9617SOL     OW29749   0.325   4.155   3.857
 9617SOL    HW129750   0.317   4.072   3.802
 9617SOL    HW229751   0.289   4.138   3.949
 9618SOL     OW29752   4.319   6.159   6.951
 9618SOL    HW129753   4.341   6.246   6.907
 9618SOL    HW229754   4.402   6.104   6.959
 9619SOL     OW29755   2.445   6.632   0.306
 9619SOL    HW129756   2.543   6.638   0.325
 9619SOL    HW229757   2.394   6.678   0.379
 9620SOL     OW29758   3.488   1.052   6.279
 9620SOL    HW129759   3.429   1.116   6.329
 9620SOL    HW229760   3.507   0.972   6.336
 9621SOL     OW29761   0.972   1.149   1.043
 9621SOL    HW129762   1.040   1.091   1.089
 9621SOL    HW229763   0.976   1.241   1.081
 9622SOL     OW29764   6.344   0.294   5.985
 9622SOL    HW129765   6.359   0.360   5.911
 9622SOL    HW229766   6.289   0.337   6.057
 9623SOL     OW29767   4.015   6.185   6.690
 9623SOL    HW129768   4.079   6.113   6.716
 9623SOL    HW229769   3.993   6.240   6.771
 9624SOL     OW29770   4.089   5.139   4.887
 9624SOL    HW129771   4.122   5.089   4.807
 9624SOL    HW229772   4.066   5.073   4.959
 9625SOL     OW29773   5.007   3.989   6.041
 9625SOL    HW129774   5.057   4.069   6.074
 9625SOL    HW229775   4.917   3.986   6.083
 9626SOL     OW29776   2.286   3.885   6.266
 9626SOL    HW129777   2.295   3.861   6.169
 9626SOL    HW229778   2.317   3.979   6.280
 9627SOL     OW29779   1.107   5.443   6.890
 9627SOL    HW129780   1.137   5.495   6.810
 9627SOL    HW229781   1.143   5.487   6.973
 9628SOL     OW29782   5.779   2.237   6.508
 9628SOL    HW129783   5.838   2.300   6.458
 9628SOL    HW229784   5.797   2.245   6.606
 9629SOL     OW29785   0.057   5.676   3.511
 9629SOL    HW129786   0.087   5.629   3.428
 9629SOL    HW229787   7.006   5.622   3.557
 9630SOL     OW29788   6.220   6.008   6.395
 9630SOL    HW129789   6.186   6.036   6.306
 9630SOL    HW229790   6.244   6.089   6.449
 9631SOL     OW29791   4.392   0.752   0.359
 9631SOL    HW129792   4.390   0.653   0.346
 9631SOL    HW229793   4.487   0.784   0.359
 9632SOL     OW29794   3.511   6.077   1.927
 9632SOL    HW129795   3.596   6.123   1.952
 9632SOL    HW229796   3.436   6.143   1.928
 9633SOL     OW29797   3.207   3.097   1.948
 9633SOL    HW129798   3.187   3.080   2.045
 9633SOL    HW229799   3.257   3.019   1.911
 9634SOL     OW29800   5.241   4.628   2.469
 9634SOL    HW129801   5.201   4.710   2.510
 9634SOL    HW229802   5.303   4.586   2.535
 9635SOL     OW29803   0.405   4.466   4.189
 9635SOL    HW129804   0.428   4.518   4.271
 9635SOL    HW229805   0.386   4.371   4.214
 9636SOL     OW29806   4.747   2.798   4.970
 9636SOL    HW129807   4.720   2.888   4.937
 9636SOL    HW229808   4.688   2.772   5.047
 9637SOL     OW29809   2.361   2.689   0.475
 9637SOL    HW129810   2.287   2.734   0.425
 9637SOL    HW229811   2.333   2.674   0.570
 9638SOL     OW29812   6.664   4.789   5.401
 9638SOL    HW129813   6.726   4.823   5.472
 9638SOL    HW229814   6.705   4.804   5.311
 9639SOL     OW29815   3.879   1.332   2.975
 9639SOL    HW129816   3.829   1.396   2.916
 9639SOL    HW229817   3.978   1.348   2.965
 9640SOL     OW29818   3.974   0.525   3.359
 9640SOL    HW129819   3.963   0.622   3.382
 9640SOL    HW229820   3.996   0.515   3.262
 9641SOL     OW29821   6.103   3.959   2.594
 9641SOL    HW129822   6.038   4.025   2.555
 9641SOL    HW229823   6.104   3.877   2.538
 9642SOL     OW29824   1.517   0.352   3.880
 9642SOL    HW129825   1.479   0.301   3.957
 9642SOL    HW229826   1.603   0.310   3.852
 9643SOL     OW29827   5.121   4.943   4.078
 9643SOL    HW129828   5.032   4.902   4.095
 9643SOL    HW229829   5.188   4.870   4.063
 9644SOL     OW29830   1.476   5.993   4.835
 9644SOL    HW129831   1.516   5.904   4.857
 9644SOL    HW229832   1.513   6.062   4.897
 9645SOL     OW29833   0.656   5.267   0.046
 9645SOL    HW129834   0.722   5.211   7.016
 9645SOL    HW229835   0.650   5.358   0.005
 9646SOL     OW29836   3.648   6.062   6.236
 9646SOL    HW129837   3.619   5.967   6.230
 9646SOL    HW229838   3.654   6.089   6.333
 9647SOL     OW29839   6.259   0.032   3.277
 9647SOL    HW129840   6.253   0.090   3.195
 9647SOL    HW229841   6.353   7.019   3.288
 9648SOL     OW29842   4.131   2.499   1.213
 9648SOL    HW129843   4.125   2.403   1.184
 9648SOL    HW229844   4.211   2.511   1.272
 9649SOL     OW29845   1.406   5.108   6.892
 9649SOL    HW129846   1.324   5.157   6.862
 9649SOL    HW229847   1.443   5.152   6.974
 9650SOL     OW29848   6.847   5.321   4.860
 9650SOL    HW129849   6.759   5.277   4.841
 9650SOL    HW229850   6.914   5.290   4.793
 9651SOL     OW29851   3.946   1.168   0.308
 9651SOL    HW129852   3.946   1.260   0.346
 9651SOL    HW229853   4.040   1.137   0.296
 9652SOL     OW29854   6.863   3.815   0.495
 9652SOL    HW129855   6.847   3.723   0.530
 9652SOL    HW229856   6.950   3.816   0.445
 9653SOL     OW29857   4.086   4.177   6.230
 9653SOL    HW129858   4.110   4.271   6.252
 9653SOL    HW229859   4.098   4.160   6.133
 9654SOL     OW29860   3.839   3.438   3.209
 9654SOL    HW129861   3.824   3.437   3.110
 9654SOL    HW229862   3.804   3.524   3.247
 9655SOL     OW29863   4.116   1.364   1.880
 9655SOL    HW129864   4.033   1.416   1.903
 9655SOL    HW229865   4.150   1.393   1.791
 9656SOL     OW29866   5.636   4.084   0.970
 9656SOL    HW129867   5.657   4.012   0.904
 9656SOL    HW229868   5.648   4.049   1.062
 9657SOL     OW29869   5.745   3.538   3.582
 9657SOL    HW129870   5.754   3.616   3.519
 9657SOL    HW229871   5.810   3.548   3.657
 9658SOL     OW29872   5.202   1.919   2.394
 9658SOL    HW129873   5.273   1.849   2.384
 9658SOL    HW229874   5.112   1.878   2.375
 9659SOL     OW29875   2.938   3.010   0.673
 9659SOL    HW129876   2.955   2.952   0.593
 9659SOL    HW229877   2.999   3.089   0.670
 9660SOL     OW29878   0.433   5.959   1.121
 9660SOL    HW129879   0.497   6.018   1.169
 9660SOL    HW229880   0.465   5.864   1.127
 9661SOL     OW29881   5.333   4.938   0.660
 9661SOL    HW129882   5.245   4.941   0.706
 9661SOL    HW229883   5.406   4.951   0.727
 9662SOL     OW29884   5.292   4.960   6.429
 9662SOL    HW129885   5.227   5.032   6.452
 9662SOL    HW229886   5.247   4.892   6.372
 9663SOL     OW29887   0.862   5.040   3.177
 9663SOL    HW129888   0.885   5.089   3.093
 9663SOL    HW229889   0.924   5.069   3.251
 9664SOL     OW29890   5.134   3.830   3.020
 9664SOL    HW129891   5.039   3.809   2.999
 9664SOL    HW229892   5.194   3.776   2.961
 9665SOL     OW29893   5.573   5.502   6.061
 9665SOL    HW129894   5.612   5.497   5.969
 9665SOL    HW229895   5.630   5.562   6.118
 9666SOL     OW29896   5.618   3.600   0.340
 9666SOL    HW129897   5.658   3.602   0.248
 9666SOL    HW229898   5.524   3.634   0.337
 9667SOL     OW29899   6.051   5.864   0.105
 9667SOL    HW129900   6.054   5.952   0.057
 9667SOL    HW229901   5.960   5.824   0.096
 9668SOL     OW29902   0.351   0.096   5.662
 9668SOL    HW129903   0.343   0.170   5.728
 9668SOL    HW229904   0.425   0.034   5.691
 9669SOL     OW29905   3.584   0.323   0.204
 9669SOL    HW129906   3.571   0.296   0.300
 9669SOL    HW229907   3.499   0.363   0.169
 9670SOL     OW29908   0.500   0.096   6.457
 9670SOL    HW129909   0.589   0.083   6.501
 9670SOL    HW229910   0.461   0.008   6.433
 9671SOL     OW29911   1.072   5.261   5.891
 9671SOL    HW129912   1.140   5.299   5.954
 9671SOL    HW229913   1.100   5.280   5.796
 9672SOL     OW29914   0.368   3.317   4.596
 9672SOL    HW129915   0.370   3.373   4.678
 9672SOL    HW229916   0.281   3.330   4.548
 9673SOL     OW29917   2.449   4.136   1.357
 9673SOL    HW129918   2.523   4.083   1.399
 9673SOL    HW229919   2.401   4.079   1.290
 9674SOL     OW29920   2.799   6.622   4.234
 9674SOL    HW129921   2.741   6.611   4.153
 9674SOL    HW229922   2.839   6.533   4.259
 9675SOL     OW29923   4.555   3.997   1.445
 9675SOL    HW129924   4.575   4.066   1.514
 9675SOL    HW229925   4.639   3.976   1.394
 9676SOL     OW29926   1.248   3.018   5.988
 9676SOL    HW129927   1.201   3.021   5.900
 9676SOL    HW229928   1.347   3.015   5.972
 9677SOL     OW29929   6.646   5.466   0.931
 9677SOL    HW129930   6.599   5.468   1.019
 9677SOL    HW229931   6.579   5.462   0.857
 9678SOL     OW29932   3.632   3.416   4.948
 9678SOL    HW129933   3.611   3.400   4.852
 9678SOL    HW229934   3.732   3.416   4.960
 9679SOL     OW29935   1.860   1.427   4.955
 9679SOL    HW129936   1.918   1.407   5.034
 9679SOL    HW229937   1.878   1.360   4.882
 9680SOL     OW29938   4.435   5.695   2.878
 9680SOL    HW129939   4.417   5.661   2.970
 9680SOL    HW229940   4.476   5.786   2.882
 9681SOL     OW29941   1.672   1.754   2.532
 9681SOL    HW129942   1.710   1.836   2.490
 9681SOL    HW229943   1.595   1.779   2.591
 9682SOL     OW29944   5.004   5.368   5.152
 9682SOL    HW129945   4.975   5.463   5.166
 9682SOL    HW229946   5.031   5.355   5.057
 9683SOL     OW29947   3.060   6.261   1.596
 9683SOL    HW129948   2.973   6.311   1.598
 9683SOL    HW229949   3.108   6.281   1.510
 9684SOL     OW29950   1.005   4.330   5.646
 9684SOL    HW129951   1.002   4.232   5.630
 9684SOL    HW229952   0.961   4.351   5.733
 9685SOL     OW29953   3.892   4.915   1.641
 9685SOL    HW129954   3.869   4.890   1.546
 9685SOL    HW229955   3.979   4.964   1.642
 9686SOL     OW29956   0.378   1.899   5.955
 9686SOL    HW129957   0.370   1.979   5.895
 9686SOL    HW229958   0.377   1.929   6.050
 9687SOL     OW29959   5.730   0.750   1.914
 9687SOL    HW129960   5.726   0.789   2.006
 9687SOL    HW229961   5.709   0.820   1.846
 9688SOL     OW29962   0.291   4.395   1.308
 9688SOL    HW129963   0.276   4.405   1.406
 9688SOL    HW229964   0.313   4.484   1.268
 9689SOL     OW29965   1.087   6.771   1.144
 9689SOL    HW129966   1.175   6.818   1.137
 9689SOL    HW229967   1.038   6.777   1.057
 9690SOL     OW29968   5.535   5.486   5.195
 9690SOL    HW129969   5.467   5.413   5.191
 9690SOL    HW229970   5.569   5.505   5.102
 9691SOL     OW29971   3.044   3.788   1.699
 9691SOL    HW129972   3.029   3.697   1.737
 9691SOL    HW229973   3.064   3.853   1.773
 9692SOL     OW29974   4.897   5.088   0.631
 9692SOL    HW129975   4.877   5.183   0.654
 9692SOL    HW229976   4.907   5.034   0.715
 9693SOL     OW29977   5.178   3.873   4.202
 9693SOL    HW129978   5.125   3.808   4.147
 9693SOL    HW229979   5.242   3.922   4.143
 9694SOL     OW29980   3.289   6.481   2.297
 9694SOL    HW129981   3.359   6.424   2.253
 9694SOL    HW229982   3.274   6.563   2.242
 9695SOL     OW29983   0.918   2.682   3.770
 9695SOL    HW129984   0.867   2.755   3.725
 9695SOL    HW229985   0.990   2.649   3.709
 9696SOL     OW29986   5.350   1.683   2.390
 9696SOL    HW129987   5.353   1.620   2.312
 9696SOL    HW229988   5.338   1.631   2.474
 9697SOL     OW29989   0.255   6.060   0.102
 9697SOL    HW129990   0.166   6.107   0.103
 9697SOL    HW229991   0.302   6.075   0.189
 9698SOL     OW29992   6.055   3.844   0.225
 9698SOL    HW129993   6.069   3.942   0.240
 9698SOL    HW229994   5.984   3.830   0.156
 9699SOL     OW29995   0.833   4.942   0.767
 9699SOL    HW129996   0.812   5.033   0.804
 9699SOL    HW229997   0.751   4.904   0.725
 9700SOL     OW29998   5.551   6.610   5.167
 9700SOL    HW129999   5.639   6.602   5.121
 9700SOL    HW230000   5.563   6.657   5.254
 9701SOL     OW30001   4.725   3.123   6.262
 9701SOL    HW130002   4.648   3.097   6.203
 9701SOL    HW230003   4.692   3.135   6.356
 9702SOL     OW30004   3.691   3.249   1.235
 9702SOL    HW130005   3.689   3.344   1.205
 9702SOL    HW230006   3.786   3.222   1.252
 9703SOL     OW30007   6.216   4.049   5.172
 9703SOL    HW130008   6.142   3.983   5.162
 9703SOL    HW230009   6.295   4.021   5.118
 9704SOL     OW30010   2.291   4.182   3.040
 9704SOL    HW130011   2.279   4.093   2.996
 9704SOL    HW230012   2.300   4.168   3.139
 9705SOL     OW30013   6.035   3.732   5.703
 9705SOL    HW130014   5.973   3.803   5.736
 9705SOL    HW230015   6.130   3.762   5.716
 9706SOL     OW30016   1.608   1.709   2.255
 9706SOL    HW130017   1.656   1.704   2.342
 9706SOL    HW230018   1.656   1.654   2.186
 9707SOL     OW30019   6.592   5.128   2.494
 9707SOL    HW130020   6.564   5.213   2.450
 9707SOL    HW230021   6.619   5.147   2.589
 9708SOL     OW30022   2.125   0.594   2.194
 9708SOL    HW130023   2.207   0.622   2.143
 9708SOL    HW230024   2.127   0.635   2.285
 9709SOL     OW30025   5.553   1.895   2.461
 9709SOL    HW130026   5.481   1.829   2.442
 9709SOL    HW230027   5.533   1.981   2.415
 9710SOL     OW30028   5.912   5.259   4.579
 9710SOL    HW130029   5.935   5.204   4.498
 9710SOL    HW230030   5.838   5.323   4.555
 9711SOL     OW30031   3.821   7.001   6.861
 9711SOL    HW130032   3.734   7.011   6.813
 9711SOL    HW230033   3.841   0.064   6.912
 9712SOL     OW30034   5.939   2.231   0.120
 9712SOL    HW130035   5.940   2.131   0.112
 9712SOL    HW230036   5.891   2.258   0.203
 9713SOL     OW30037   1.367   6.321   3.928
 9713SOL    HW130038   1.408   6.409   3.907
 9713SOL    HW230039   1.296   6.300   3.861
 9714SOL     OW30040   3.249   4.876   4.980
 9714SOL    HW130041   3.154   4.848   4.969
 9714SOL    HW230042   3.299   4.863   4.895
 9715SOL     OW30043   6.235   4.087   0.487
 9715SOL    HW130044   6.332   4.110   0.473
 9715SOL    HW230045   6.192   4.159   0.541
 9716SOL     OW30046   2.750   4.974   6.862
 9716SOL    HW130047   2.707   4.885   6.845
 9716SOL    HW230048   2.801   4.970   6.948
 9717SOL     OW30049   4.386   0.853   5.612
 9717SOL    HW130050   4.408   0.901   5.697
 9717SOL    HW230051   4.361   0.758   5.633
 9718SOL     OW30052   2.732   1.675   0.607
 9718SOL    HW130053   2.829   1.701   0.611
 9718SOL    HW230054   2.720   1.602   0.539
 9719SOL     OW30055   4.378   6.462   5.210
 9719SOL    HW130056   4.348   6.554   5.234
 9719SOL    HW230057   4.331   6.433   5.126
 9720SOL     OW30058   2.125   3.715   3.207
 9720SOL    HW130059   2.109   3.632   3.154
 9720SOL    HW230060   2.168   3.784   3.150
 9721SOL     OW30061   0.787   2.069   0.742
 9721SOL    HW130062   0.801   2.096   0.646
 9721SOL    HW230063   0.844   1.988   0.761
 9722SOL     OW30064   3.895   3.129   4.822
 9722SOL    HW130065   3.882   3.080   4.736
 9722SOL    HW230066   3.910   3.063   4.896
 9723SOL     OW30067   6.504   5.645   4.211
 9723SOL    HW130068   6.520   5.677   4.305
 9723SOL    HW230069   6.566   5.570   4.190
 9724SOL     OW30070   0.861   5.557   0.204
 9724SOL    HW130071   0.905   5.608   0.129
 9724SOL    HW230072   0.917   5.478   0.228
 9725SOL     OW30073   3.224   5.377   5.686
 9725SOL    HW130074   3.308   5.340   5.725
 9725SOL    HW230075   3.150   5.367   5.751
 9726SOL     OW30076   5.806   1.201   4.603
 9726SOL    HW130077   5.805   1.122   4.665
 9726SOL    HW230078   5.735   1.189   4.533
 9727SOL     OW30079   1.329   1.365   6.853
 9727SOL    HW130080   1.254   1.309   6.817
 9727SOL    HW230081   1.381   1.311   6.920
 9728SOL     OW30082   5.317   6.792   6.144
 9728SOL    HW130083   5.280   6.827   6.230
 9728SOL    HW230084   5.274   6.704   6.123
 9729SOL     OW30085   0.449   4.882   3.135
 9729SOL    HW130086   0.466   4.980   3.122
 9729SOL    HW230087   0.495   4.830   3.063
 9730SOL     OW30088   0.191   4.369   3.411
 9730SOL    HW130089   0.245   4.285   3.402
 9730SOL    HW230090   0.094   4.345   3.415
 9731SOL     OW30091   5.195   3.513   2.670
 9731SOL    HW130092   5.116   3.483   2.724
 9731SOL    HW230093   5.167   3.586   2.608
 9732SOL     OW30094   1.229   3.355   2.612
 9732SOL    HW130095   1.251   3.263   2.580
 9732SOL    HW230096   1.313   3.409   2.617
 9733SOL     OW30097   6.331   5.132   2.579
 9733SOL    HW130098   6.422   5.120   2.540
 9733SOL    HW230099   6.263   5.138   2.505
 9734SOL     OW30100   6.313   6.692   6.189
 9734SOL    HW130101   6.281   6.783   6.162
 9734SOL    HW230102   6.411   6.685   6.170
 9735SOL     OW30103   1.646   2.210   2.234
 9735SOL    HW130104   1.599   2.297   2.244
 9735SOL    HW230105   1.743   2.221   2.257
 9736SOL     OW30106   4.876   2.592   5.362
 9736SOL    HW130107   4.944   2.519   5.359
 9736SOL    HW230108   4.786   2.555   5.339
 9737SOL     OW30109   5.978   2.066   2.477
 9737SOL    HW130110   5.919   1.987   2.488
 9737SOL    HW230111   5.971   2.100   2.383
 9738SOL     OW30112   1.623   6.092   1.731
 9738SOL    HW130113   1.639   6.003   1.688
 9738SOL    HW230114   1.627   6.164   1.662
 9739SOL     OW30115   5.609   0.031   0.140
 9739SOL    HW130116   5.521   7.006   0.126
 9739SOL    HW230117   5.634   0.027   0.236
 9740SOL     OW30118   6.858   0.811   2.923
 9740SOL    HW130119   6.946   0.833   2.964
 9740SOL    HW230120   6.784   0.841   2.984
 9741SOL     OW30121   3.223   1.180   4.549
 9741SOL    HW130122   3.301   1.216   4.599
 9741SOL    HW230123   3.236   1.196   4.451
 9742SOL     OW30124   4.103   2.319   6.099
 9742SOL    HW130125   4.096   2.229   6.055
 9742SOL    HW230126   4.116   2.389   6.029
 9743SOL     OW30127   6.197   3.136   3.611
 9743SOL    HW130128   6.170   3.054   3.561
 9743SOL    HW230129   6.116   3.184   3.643
 9744SOL     OW30130   1.763   0.261   3.763
 9744SOL    HW130131   1.861   0.282   3.765
 9744SOL    HW230132   1.728   0.273   3.670
 9745SOL     OW30133   6.475   0.816   5.656
 9745SOL    HW130134   6.546   0.764   5.702
 9745SOL    HW230135   6.517   0.876   5.587
 9746SOL     OW30136   4.547   5.341   6.181
 9746SOL    HW130137   4.451   5.319   6.168
 9746SOL    HW230138   4.589   5.275   6.243
 9747SOL     OW30139   2.391   2.651   2.141
 9747SOL    HW130140   2.378   2.554   2.161
 9747SOL    HW230141   2.488   2.673   2.146
 9748SOL     OW30142   1.217   0.659   3.299
 9748SOL    HW130143   1.197   0.627   3.207
 9748SOL    HW230144   1.282   0.596   3.343
 9749SOL     OW30145   6.852   1.895   2.447
 9749SOL    HW130146   6.842   1.802   2.412
 9749SOL    HW230147   6.941   1.904   2.492
 9750SOL     OW30148   6.149   4.349   3.767
 9750SOL    HW130149   6.145   4.281   3.841
 9750SOL    HW230150   6.245   4.367   3.743
 9751SOL     OW30151   2.583   1.240   1.744
 9751SOL    HW130152   2.643   1.238   1.664
 9751SOL    HW230153   2.588   1.330   1.787
 9752SOL     OW30154   3.731   2.925   0.395
 9752SOL    HW130155   3.644   2.882   0.419
 9752SOL    HW230156   3.802   2.894   0.459
 9753SOL     OW30157   5.979   6.265   5.294
 9753SOL    HW130158   5.879   6.259   5.297
 9753SOL    HW230159   6.017   6.231   5.380
 9754SOL     OW30160   3.679   0.214   1.316
 9754SOL    HW130161   3.663   0.306   1.353
 9754SOL    HW230162   3.592   0.167   1.306
 9755SOL     OW30163   3.516   4.083   6.211
 9755SOL    HW130164   3.592   4.046   6.265
 9755SOL    HW230165   3.430   4.072   6.262
 9756SOL     OW30166   5.985   0.790   6.404
 9756SOL    HW130167   5.887   0.794   6.425
 9756SOL    HW230168   6.027   0.877   6.427
 9757SOL     OW30169   4.915   3.913   3.839
 9757SOL    HW130170   4.946   3.856   3.763
 9757SOL    HW230171   4.886   4.002   3.805
 9758SOL     OW30172   2.033   0.438   1.125
 9758SOL    HW130173   2.131   0.418   1.128
 9758SOL    HW230174   2.018   0.535   1.143
 9759SOL     OW30175   1.410   1.515   0.390
 9759SOL    HW130176   1.462   1.586   0.344
 9759SOL    HW230177   1.439   1.509   0.486
 9760SOL     OW30178   4.480   1.660   0.806
 9760SOL    HW130179   4.512   1.751   0.836
 9760SOL    HW230180   4.554   1.594   0.818
 9761SOL     OW30181   1.662   1.351   1.721
 9761SOL    HW130182   1.678   1.442   1.681
 9761SOL    HW230183   1.615   1.361   1.808
 9762SOL     OW30184   2.750   1.975   5.881
 9762SOL    HW130185   2.700   2.021   5.955
 9762SOL    HW230186   2.834   2.027   5.861
 9763SOL     OW30187   6.549   1.549   1.471
 9763SOL    HW130188   6.574   1.643   1.448
 9763SOL    HW230189   6.458   1.547   1.512
 9764SOL     OW30190   5.610   1.452   2.394
 9764SOL    HW130191   5.510   1.456   2.396
 9764SOL    HW230192   5.641   1.366   2.435
 9765SOL     OW30193   6.791   1.500   1.966
 9765SOL    HW130194   6.874   1.556   1.968
 9765SOL    HW230195   6.807   1.416   2.017
 9766SOL     OW30196   2.034   0.890   4.244
 9766SOL    HW130197   1.987   0.818   4.293
 9766SOL    HW230198   1.981   0.916   4.163
 9767SOL     OW30199   1.978   3.247   5.593
 9767SOL    HW130200   1.880   3.259   5.613
 9767SOL    HW230201   2.032   3.284   5.668
 9768SOL     OW30202   5.890   2.473   1.016
 9768SOL    HW130203   5.985   2.452   1.037
 9768SOL    HW230204   5.886   2.528   0.933
 9769SOL     OW30205   2.821   1.738   5.163
 9769SOL    HW130206   2.814   1.750   5.064
 9769SOL    HW230207   2.904   1.784   5.196
 9770SOL     OW30208   3.003   2.221   6.494
 9770SOL    HW130209   3.005   2.240   6.593
 9770SOL    HW230210   3.050   2.134   6.476
 9771SOL     OW30211   2.496   5.968   2.790
 9771SOL    HW130212   2.514   5.889   2.731
 9771SOL    HW230213   2.402   5.999   2.777
 9772SOL     OW30214   0.885   6.472   1.798
 9772SOL    HW130215   0.978   6.506   1.784
 9772SOL    HW230216   0.881   6.374   1.781
 9773SOL     OW30217   4.879   5.447   2.188
 9773SOL    HW130218   4.791   5.476   2.151
 9773SOL    HW230219   4.921   5.380   2.126
 9774SOL     OW30220   0.975   5.566   4.450
 9774SOL    HW130221   0.966   5.579   4.352
 9774SOL    HW230222   0.952   5.651   4.498
 9775SOL     OW30223   2.499   0.984   3.832
 9775SOL    HW130224   2.412   0.935   3.833
 9775SOL    HW230225   2.499   1.052   3.759
 9776SOL     OW30226   1.681   5.769   6.295
 9776SOL    HW130227   1.728   5.843   6.247
 9776SOL    HW230228   1.729   5.749   6.381
 9777SOL     OW30229   5.326   6.887   6.434
 9777SOL    HW130230   5.394   6.860   6.503
 9777SOL    HW230231   5.349   6.978   6.399
 9778SOL     OW30232   0.536   1.947   4.307
 9778SOL    HW130233   0.623   1.916   4.267
 9778SOL    HW230234   0.535   1.926   4.405
 9779SOL     OW30235   0.972   1.934   3.866
 9779SOL    HW130236   0.884   1.978   3.884
 9779SOL    HW230237   0.956   1.838   3.843
 9780SOL     OW30238   1.688   1.647   1.131
 9780SOL    HW130239   1.660   1.597   1.050
 9780SOL    HW230240   1.724   1.584   1.200
 9781SOL     OW30241   1.166   2.992   3.538
 9781SOL    HW130242   1.109   2.920   3.499
 9781SOL    HW230243   1.111   3.046   3.603
 9782SOL     OW30244   0.169   2.421   1.083
 9782SOL    HW130245   0.097   2.444   1.018
 9782SOL    HW230246   0.254   2.466   1.056
 9783SOL     OW30247   3.781   1.388   3.531
 9783SOL    HW130248   3.805   1.458   3.597
 9783SOL    HW230249   3.709   1.421   3.471
 9784SOL     OW30250   2.177   1.592   0.503
 9784SOL    HW130251   2.220   1.682   0.493
 9784SOL    HW230252   2.242   1.521   0.477
 9785SOL     OW30253   6.973   2.199   4.669
 9785SOL    HW130254   6.980   2.201   4.570
 9785SOL    HW230255   6.964   2.292   4.704
 9786SOL     OW30256   2.116   4.293   1.133
 9786SOL    HW130257   2.124   4.308   1.035
 9786SOL    HW230258   2.078   4.202   1.150
 9787SOL     OW30259   3.433   2.858   2.755
 9787SOL    HW130260   3.428   2.792   2.830
 9787SOL    HW230261   3.483   2.818   2.679
 9788SOL     OW30262   0.276   6.549   1.982
 9788SOL    HW130263   0.316   6.526   2.071
 9788SOL    HW230264   0.348   6.549   1.912
 9789SOL     OW30265   3.199   6.919   6.630
 9789SOL    HW130266   3.196   6.840   6.691
 9789SOL    HW230267   3.109   6.962   6.628
 9790SOL     OW30268   6.656   4.146   4.421
 9790SOL    HW130269   6.587   4.142   4.493
 9790SOL    HW230270   6.681   4.242   4.405
 9791SOL     OW30271   1.014   6.381   0.772
 9791SOL    HW130272   0.941   6.315   0.756
 9791SOL    HW230273   0.986   6.446   0.842
 9792SOL     OW30274   4.004   5.921   0.800
 9792SOL    HW130275   4.042   5.850   0.741
 9792SOL    HW230276   4.072   5.946   0.869
 9793SOL     OW30277   4.486   1.672   2.528
 9793SOL    HW130278   4.531   1.756   2.559
 9793SOL    HW230279   4.554   1.605   2.502
 9794SOL     OW30280   4.851   4.471   4.945
 9794SOL    HW130281   4.829   4.544   4.880
 9794SOL    HW230282   4.767   4.422   4.970
 9795SOL     OW30283   0.833   3.466   3.727
 9795SOL    HW130284   0.880   3.502   3.646
 9795SOL    HW230285   0.884   3.493   3.809
 9796SOL     OW30286   3.168   3.951   3.559
 9796SOL    HW130287   3.222   3.869   3.575
 9796SOL    HW230288   3.205   4.001   3.480
 9797SOL     OW30289   2.846   6.365   6.965
 9797SOL    HW130290   2.793   6.326   0.020
 9797SOL    HW230291   2.896   6.445   6.998
 9798SOL     OW30292   1.218   3.260   1.031
 9798SOL    HW130293   1.192   3.213   0.947
 9798SOL    HW230294   1.234   3.193   1.104
 9799SOL     OW30295   2.872   6.177   6.783
 9799SOL    HW130296   2.859   6.255   6.845
 9799SOL    HW230297   2.969   6.156   6.775
 9800SOL     OW30298   5.703   3.201   4.175
 9800SOL    HW130299   5.612   3.175   4.144
 9800SOL    HW230300   5.764   3.209   4.096
 9801SOL     OW30301   6.062   4.973   6.171
 9801SOL    HW130302   6.102   4.882   6.176
 9801SOL    HW230303   6.121   5.038   6.219
 9802SOL     OW30304   4.230   5.120   1.378
 9802SOL    HW130305   4.177   5.036   1.366
 9802SOL    HW230306   4.319   5.109   1.333
 9803SOL     OW30307   0.912   3.933   6.077
 9803SOL    HW130308   0.977   3.991   6.126
 9803SOL    HW230309   0.842   3.901   6.142
 9804SOL     OW30310   6.356   5.829   3.197
 9804SOL    HW130311   6.330   5.744   3.242
 9804SOL    HW230312   6.274   5.883   3.179
 9805SOL     OW30313   0.080   6.817   3.730
 9805SOL    HW130314   0.013   6.808   3.656
 9805SOL    HW230315   0.158   6.758   3.710
 9806SOL     OW30316   3.519   2.687   6.182
 9806SOL    HW130317   3.524   2.786   6.170
 9806SOL    HW230318   3.441   2.664   6.240
 9807SOL     OW30319   2.827   3.288   2.050
 9807SOL    HW130320   2.810   3.255   1.957
 9807SOL    HW230321   2.774   3.234   2.115
 9808SOL     OW30322   4.448   6.502   3.964
 9808SOL    HW130323   4.539   6.540   3.981
 9808SOL    HW230324   4.455   6.402   3.957
 9809SOL     OW30325   0.292   2.686   0.549
 9809SOL    HW130326   0.297   2.786   0.543
 9809SOL    HW230327   0.240   2.660   0.630
 9810SOL     OW30328   2.265   1.610   5.982
 9810SOL    HW130329   2.257   1.707   6.005
 9810SOL    HW230330   2.351   1.575   6.017
 9811SOL     OW30331   6.238   3.928   4.043
 9811SOL    HW130332   6.318   3.870   4.031
 9811SOL    HW230333   6.192   3.904   4.129
 9812SOL     OW30334   2.438   0.039   4.413
 9812SOL    HW130335   2.345   0.074   4.404
 9812SOL    HW230336   2.454   0.011   4.508
 9813SOL     OW30337   5.111   2.433   0.469
 9813SOL    HW130338   5.017   2.456   0.492
 9813SOL    HW230339   5.113   2.348   0.418
 9814SOL     OW30340   5.923   1.892   0.111
 9814SOL    HW130341   5.867   1.812   0.129
 9814SOL    HW230342   6.005   1.889   0.168
 9815SOL     OW30343   4.762   2.906   4.672
 9815SOL    HW130344   4.851   2.861   4.680
 9815SOL    HW230345   4.752   2.973   4.745
 9816SOL     OW30346   1.420   0.431   0.420
 9816SOL    HW130347   1.499   0.454   0.477
 9816SOL    HW230348   1.417   0.332   0.405
 9817SOL     OW30349   0.320   0.314   3.371
 9817SOL    HW130350   0.371   0.398   3.392
 9817SOL    HW230351   0.273   0.325   3.283
 9818SOL     OW30352   6.190   2.207   4.798
 9818SOL    HW130353   6.283   2.176   4.777
 9818SOL    HW230354   6.129   2.127   4.804
 9819SOL     OW30355   3.780   1.898   3.456
 9819SOL    HW130356   3.743   1.807   3.472
 9819SOL    HW230357   3.716   1.951   3.400
 9820SOL     OW30358   3.437   4.381   5.775
 9820SOL    HW130359   3.429   4.391   5.676
 9820SOL    HW230360   3.520   4.331   5.797
 9821SOL     OW30361   5.329   5.739   6.898
 9821SOL    HW130362   5.356   5.834   6.880
 9821SOL    HW230363   5.354   5.682   6.820
 9822SOL     OW30364   0.592   0.015   2.666
 9822SOL    HW130365   0.568   0.092   2.606
 9822SOL    HW230366   0.561   0.035   2.759
 9823SOL     OW30367   3.687   0.775   2.734
 9823SOL    HW130368   3.612   0.768   2.669
 9823SOL    HW230369   3.766   0.818   2.689
 9824SOL     OW30370   0.724   4.479   5.366
 9824SOL    HW130371   0.669   4.398   5.347
 9824SOL    HW230372   0.811   4.473   5.316
 9825SOL     OW30373   3.762   4.862   5.701
 9825SOL    HW130374   3.728   4.929   5.635
 9825SOL    HW230375   3.703   4.781   5.701
 9826SOL     OW30376   4.389   5.954   6.322
 9826SOL    HW130377   4.326   5.894   6.272
 9826SOL    HW230378   4.397   6.041   6.274
 9827SOL     OW30379   1.853   4.238   4.744
 9827SOL    HW130380   1.931   4.226   4.806
 9827SOL    HW230381   1.771   4.202   4.787
 9828SOL     OW30382   3.918   2.736   6.575
 9828SOL    HW130383   3.831   2.710   6.618
 9828SOL    HW230384   3.935   2.833   6.589
 9829SOL     OW30385   3.013   6.492   0.623
 9829SOL    HW130386   3.014   6.590   0.605
 9829SOL    HW230387   2.957   6.445   0.554
 9830SOL     OW30388   5.512   1.906   0.909
 9830SOL    HW130389   5.444   1.970   0.873
 9830SOL    HW230390   5.486   1.879   1.002
 9831SOL     OW30391   1.108   6.483   1.271
 9831SOL    HW130392   1.018   6.515   1.242
 9831SOL    HW230393   1.179   6.544   1.237
 9832SOL     OW30394   4.363   5.457   2.486
 9832SOL    HW130395   4.340   5.512   2.567
 9832SOL    HW230396   4.438   5.500   2.437
 9833SOL     OW30397   3.415   3.554   4.689
 9833SOL    HW130398   3.427   3.591   4.781
 9833SOL    HW230399   3.318   3.560   4.663
 9834SOL     OW30400   2.629   3.929   5.625
 9834SOL    HW130401   2.717   3.917   5.673
 9834SOL    HW230402   2.599   3.840   5.590
 9835SOL     OW30403   4.948   1.719   4.260
 9835SOL    HW130404   4.998   1.795   4.302
 9835SOL    HW230405   4.983   1.705   4.167
 9836SOL     OW30406   5.566   3.703   3.145
 9836SOL    HW130407   5.470   3.675   3.156
 9836SOL    HW230408   5.599   3.741   3.232
 9837SOL     OW30409   2.235   0.421   3.825
 9837SOL    HW130410   2.138   0.434   3.806
 9837SOL    HW230411   2.254   0.323   3.836
 9838SOL     OW30412   1.330   6.691   5.929
 9838SOL    HW130413   1.376   6.645   6.005
 9838SOL    HW230414   1.377   6.671   5.843
 9839SOL     OW30415   6.967   2.021   1.853
 9839SOL    HW130416   6.994   2.091   1.919
 9839SOL    HW230417   0.017   2.013   1.782
 9840SOL     OW30418   0.048   0.747   0.635
 9840SOL    HW130419   0.029   0.800   0.718
 9840SOL    HW230420   7.011   0.665   0.634
 9841SOL     OW30421   1.352   4.208   4.745
 9841SOL    HW130422   1.267   4.191   4.796
 9841SOL    HW230423   1.377   4.126   4.693
 9842SOL     OW30424   3.448   3.218   3.504
 9842SOL    HW130425   3.435   3.317   3.493
 9842SOL    HW230426   3.488   3.180   3.421
 9843SOL     OW30427   6.354   1.995   1.289
 9843SOL    HW130428   6.342   2.093   1.302
 9843SOL    HW230429   6.271   1.947   1.316
 9844SOL     OW30430   4.470   0.145   2.930
 9844SOL    HW130431   4.552   0.201   2.948
 9844SOL    HW230432   4.426   0.121   3.016
 9845SOL     OW30433   2.455   1.842   4.933
 9845SOL    HW130434   2.364   1.854   4.973
 9845SOL    HW230435   2.521   1.825   5.006
 9846SOL     OW30436   2.976   3.665   3.192
 9846SOL    HW130437   2.930   3.711   3.116
 9846SOL    HW230438   3.006   3.575   3.163
 9847SOL     OW30439   2.892   3.036   6.132
 9847SOL    HW130440   2.823   2.984   6.182
 9847SOL    HW230441   2.889   3.012   6.035
 9848SOL     OW30442   4.294   2.637   6.307
 9848SOL    HW130443   4.303   2.547   6.265
 9848SOL    HW230444   4.338   2.638   6.397
 9849SOL     OW30445   6.220   0.561   6.748
 9849SOL    HW130446   6.285   0.619   6.700
 9849SOL    HW230447   6.129   0.602   6.743
 9850SOL     OW30448   4.426   6.359   2.400
 9850SOL    HW130449   4.399   6.341   2.494
 9850SOL    HW230450   4.484   6.285   2.366
 9851SOL     OW30451   4.350   1.844   5.192
 9851SOL    HW130452   4.435   1.891   5.168
 9851SOL    HW230453   4.353   1.750   5.159
 9852SOL     OW30454   4.410   1.729   3.473
 9852SOL    HW130455   4.463   1.646   3.459
 9852SOL    HW230456   4.425   1.792   3.396
 9853SOL     OW30457   5.125   3.650   2.450
 9853SOL    HW130458   5.136   3.748   2.467
 9853SOL    HW230459   5.044   3.635   2.393
 9854SOL     OW30460   6.120   5.156   4.930
 9854SOL    HW130461   6.151   5.065   4.955
 9854SOL    HW230462   6.026   5.169   4.961
 9855SOL     OW30463   0.626   4.265   1.449
 9855SOL    HW130464   0.637   4.364   1.434
 9855SOL    HW230465   0.716   4.221   1.448
 9856SOL     OW30466   4.069   4.415   0.246
 9856SOL    HW130467   3.990   4.354   0.253
 9856SOL    HW230468   4.142   4.380   0.305
 9857SOL     OW30469   5.085   1.609   2.956
 9857SOL    HW130470   5.044   1.521   2.979
 9857SOL    HW230471   5.179   1.612   2.991
 9858SOL     OW30472   5.300   0.346   1.764
 9858SOL    HW130473   5.375   0.336   1.698
 9858SOL    HW230474   5.226   0.282   1.741
 9859SOL     OW30475   6.494   0.034   1.604
 9859SOL    HW130476   6.576   0.069   1.651
 9859SOL    HW230477   6.519   6.976   1.547
 9860SOL     OW30478   0.493   1.266   1.912
 9860SOL    HW130479   0.436   1.206   1.856
 9860SOL    HW230480   0.459   1.360   1.905
 9861SOL     OW30481   3.474   6.777   4.883
 9861SOL    HW130482   3.376   6.796   4.871
 9861SOL    HW230483   3.527   6.857   4.857
 9862SOL     OW30484   2.597   3.408   0.442
 9862SOL    HW130485   2.684   3.368   0.473
 9862SOL    HW230486   2.575   3.372   0.352
 9863SOL     OW30487   2.715   0.064   2.875
 9863SOL    HW130488   2.684   0.147   2.921
 9863SOL    HW230489   2.812   0.048   2.895
 9864SOL     OW30490   4.264   6.357   3.484
 9864SOL    HW130491   4.207   6.298   3.427
 9864SOL    HW230492   4.229   6.451   3.482
 9865SOL     OW30493   0.877   1.043   3.293
 9865SOL    HW130494   0.951   1.102   3.259
 9865SOL    HW230495   0.914   0.954   3.319
 9866SOL     OW30496   4.951   4.404   4.579
 9866SOL    HW130497   4.977   4.416   4.674
 9866SOL    HW230498   4.852   4.406   4.571
 9867SOL     OW30499   4.187   0.995   0.770
 9867SOL    HW130500   4.147   1.087   0.775
 9867SOL    HW230501   4.137   0.935   0.832
 9868SOL     OW30502   1.288   4.914   6.393
 9868SOL    HW130503   1.206   4.957   6.430
 9868SOL    HW230504   1.366   4.933   6.452
 9869SOL     OW30505   2.045   4.298   3.398
 9869SOL    HW130506   2.102   4.228   3.356
 9869SOL    HW230507   2.102   4.367   3.441
 9870SOL     OW30508   4.432   5.885   2.104
 9870SOL    HW130509   4.526   5.918   2.110
 9870SOL    HW230510   4.422   5.803   2.160
 9871SOL     OW30511   1.097   6.834   6.201
 9871SOL    HW130512   1.016   6.888   6.223
 9871SOL    HW230513   1.104   6.824   6.101
 9872SOL     OW30514   2.561   5.210   3.001
 9872SOL    HW130515   2.549   5.150   2.922
 9872SOL    HW230516   2.565   5.154   3.084
 9873SOL     OW30517   2.320   2.591   1.068
 9873SOL    HW130518   2.393   2.527   1.090
 9873SOL    HW230519   2.243   2.542   1.028
 9874SOL     OW30520   0.826   1.828   4.566
 9874SOL    HW130521   0.830   1.926   4.586
 9874SOL    HW230522   0.918   1.790   4.570
 9875SOL     OW30523   0.082   0.567   2.319
 9875SOL    HW130524   0.085   0.473   2.287
 9875SOL    HW230525   0.120   0.572   2.412
 9876SOL     OW30526   6.750   0.760   2.648
 9876SOL    HW130527   6.824   0.694   2.636
 9876SOL    HW230528   6.778   0.830   2.713
 9877SOL     OW30529   1.507   5.795   2.483
 9877SOL    HW130530   1.496   5.752   2.393
 9877SOL    HW230531   1.566   5.737   2.540
 9878SOL     OW30532   2.460   5.419   5.679
 9878SOL    HW130533   2.418   5.437   5.768
 9878SOL    HW230534   2.437   5.492   5.616
 9879SOL     OW30535   5.676   5.389   4.534
 9879SOL    HW130536   5.615   5.310   4.524
 9879SOL    HW230537   5.629   5.460   4.587
 9880SOL     OW30538   1.746   3.070   5.089
 9880SOL    HW130539   1.791   3.058   5.177
 9880SOL    HW230540   1.664   3.126   5.101
 9881SOL     OW30541   1.890   2.372   5.057
 9881SOL    HW130542   1.977   2.422   5.060
 9881SOL    HW230543   1.820   2.429   5.013
 9882SOL     OW30544   1.641   2.118   3.559
 9882SOL    HW130545   1.647   2.164   3.470
 9882SOL    HW230546   1.732   2.114   3.601
 9883SOL     OW30547   0.711   6.306   0.967
 9883SOL    HW130548   0.679   6.250   1.043
 9883SOL    HW230549   0.651   6.384   0.954
 9884SOL     OW30550   4.133   1.741   3.462
 9884SOL    HW130551   4.232   1.731   3.448
 9884SOL    HW230552   4.084   1.689   3.392
 9885SOL     OW30553   0.526   3.443   5.400
 9885SOL    HW130554   0.590   3.397   5.338
 9885SOL    HW230555   0.438   3.396   5.395
 9886SOL     OW30556   0.438   4.747   2.290
 9886SOL    HW130557   0.515   4.799   2.327
 9886SOL    HW230558   0.369   4.734   2.361
 9887SOL     OW30559   4.094   1.396   5.968
 9887SOL    HW130560   4.036   1.315   5.968
 9887SOL    HW230561   4.086   1.443   6.056
 9888SOL     OW30562   0.413   4.207   1.076
 9888SOL    HW130563   0.408   4.292   1.128
 9888SOL    HW230564   0.351   4.212   0.998
 9889SOL     OW30565   6.604   5.108   1.031
 9889SOL    HW130566   6.603   5.115   0.931
 9889SOL    HW230567   6.674   5.043   1.060
 9890SOL     OW30568   1.711   2.027   0.456
 9890SOL    HW130569   1.693   1.980   0.542
 9890SOL    HW230570   1.794   1.989   0.414
 9891SOL     OW30571   6.000   3.089   0.521
 9891SOL    HW130572   6.055   3.150   0.578
 9891SOL    HW230573   6.038   2.997   0.525
 9892SOL     OW30574   6.592   6.104   0.132
 9892SOL    HW130575   6.548   6.139   0.050
 9892SOL    HW230576   6.553   6.014   0.155
 9893SOL     OW30577   1.497   0.447   0.944
 9893SOL    HW130578   1.414   0.416   0.898
 9893SOL    HW230579   1.569   0.463   0.877
 9894SOL     OW30580   2.065   2.016   1.207
 9894SOL    HW130581   2.073   2.112   1.235
 9894SOL    HW230582   1.968   1.992   1.201
 9895SOL     OW30583   5.232   3.237   5.173
 9895SOL    HW130584   5.278   3.324   5.190
 9895SOL    HW230585   5.298   3.162   5.179
 9896SOL     OW30586   6.013   7.009   6.328
 9896SOL    HW130587   6.106   0.012   6.300
 9896SOL    HW230588   5.978   0.060   6.389
 9897SOL     OW30589   5.726   5.655   3.080
 9897SOL    HW130590   5.662   5.582   3.104
 9897SOL    HW230591   5.674   5.736   3.052
 9898SOL     OW30592   2.648   5.781   6.388
 9898SOL    HW130593   2.737   5.747   6.420
 9898SOL    HW230594   2.652   5.880   6.378
 9899SOL     OW30595   6.928   5.908   0.577
 9899SOL    HW130596   6.875   5.840   0.527
 9899SOL    HW230597   6.869   5.984   0.602
 9900SOL     OW30598   1.500   4.127   3.844
 9900SOL    HW130599   1.542   4.054   3.791
 9900SOL    HW230600   1.475   4.202   3.783
 9901SOL     OW30601   2.930   1.548   6.054
 9901SOL    HW130602   2.900   1.456   6.078
 9901SOL    HW230603   2.851   1.607   6.040
 9902SOL     OW30604   2.649   5.124   0.250
 9902SOL    HW130605   2.742   5.096   0.274
 9902SOL    HW230606   2.646   5.151   0.154
 9903SOL     OW30607   5.165   1.153   1.985
 9903SOL    HW130608   5.124   1.078   1.934
 9903SOL    HW230609   5.095   1.223   2.004
 9904SOL     OW30610   1.059   3.093   6.871
 9904SOL    HW130611   1.060   3.005   6.824
 9904SOL    HW230612   1.059   3.167   6.804
 9905SOL     OW30613   3.593   0.864   0.154
 9905SOL    HW130614   3.577   0.767   0.135
 9905SOL    HW230615   3.690   0.879   0.172
 9906SOL     OW30616   3.201   3.429   1.556
 9906SOL    HW130617   3.150   3.464   1.635
 9906SOL    HW230618   3.262   3.356   1.586
 9907SOL     OW30619   6.515   1.091   0.346
 9907SOL    HW130620   6.439   1.156   0.342
 9907SOL    HW230621   6.529   1.050   0.255
 9908SOL     OW30622   5.452   1.894   3.734
 9908SOL    HW130623   5.475   1.805   3.773
 9908SOL    HW230624   5.528   1.928   3.679
 9909SOL     OW30625   3.841   6.936   3.953
 9909SOL    HW130626   3.929   6.962   3.993
 9909SOL    HW230627   3.826   6.989   3.869
 9910SOL     OW30628   0.609   3.647   2.246
 9910SOL    HW130629   0.643   3.611   2.160
 9910SOL    HW230630   0.512   3.670   2.237
 9911SOL     OW30631   3.215   6.730   2.187
 9911SOL    HW130632   3.135   6.728   2.128
 9911SOL    HW230633   3.215   6.815   2.241
 9912SOL     OW30634   3.858   1.724   2.008
 9912SOL    HW130635   3.854   1.662   2.087
 9912SOL    HW230636   3.774   1.778   2.004
 9913SOL     OW30637   6.280   4.344   0.327
 9913SOL    HW130638   6.315   4.436   0.347
 9913SOL    HW230639   6.339   4.276   0.371
 9914SOL     OW30640   5.546   2.764   5.225
 9914SOL    HW130641   5.490   2.738   5.304
 9914SOL    HW230642   5.555   2.685   5.164
 9915SOL     OW30643   4.998   0.827   3.436
 9915SOL    HW130644   4.961   0.783   3.518
 9915SOL    HW230645   4.936   0.900   3.407
 9916SOL     OW30646   2.165   3.235   2.942
 9916SOL    HW130647   2.111   3.202   2.864
 9916SOL    HW230648   2.209   3.157   2.986
 9917SOL     OW30649   5.833   3.924   6.965
 9917SOL    HW130650   5.777   4.007   6.967
 9917SOL    HW230651   5.778   3.847   6.935
 9918SOL     OW30652   3.341   1.538   3.179
 9918SOL    HW130653   3.366   1.532   3.276
 9918SOL    HW230654   3.242   1.538   3.170
 9919SOL     OW30655   5.835   5.361   1.329
 9919SOL    HW130656   5.799   5.427   1.263
 9919SOL    HW230657   5.902   5.302   1.283
 9920SOL     OW30658   4.742   2.064   1.744
 9920SOL    HW130659   4.690   1.998   1.798
 9920SOL    HW230660   4.728   2.156   1.781
 9921SOL     OW30661   4.868   5.917   6.539
 9921SOL    HW130662   4.932   5.920   6.462
 9921SOL    HW230663   4.900   5.979   6.610
 9922SOL     OW30664   1.654   4.908   0.600
 9922SOL    HW130665   1.640   5.004   0.576
 9922SOL    HW230666   1.566   4.861   0.602
 9923SOL     OW30667   4.822   4.492   0.028
 9923SOL    HW130668   4.908   4.496   0.080
 9923SOL    HW230669   4.748   4.530   0.083
 9924SOL     OW30670   6.950   2.383   4.863
 9924SOL    HW130671   7.004   2.468   4.864
 9924SOL    HW230672   6.996   2.314   4.918
 9925SOL     OW30673   6.472   3.802   4.126
 9925SOL    HW130674   6.475   3.775   4.223
 9925SOL    HW230675   6.563   3.790   4.086
 9926SOL     OW30676   3.010   3.154   0.388
 9926SOL    HW130677   3.046   3.245   0.411
 9926SOL    HW230678   3.060   3.085   0.440
 9927SOL     OW30679   0.010   0.217   1.076
 9927SOL    HW130680   0.063   0.175   1.149
 9927SOL    HW230681   0.069   0.236   0.998
 9928SOL     OW30682   4.982   6.337   1.831
 9928SOL    HW130683   5.051   6.266   1.813
 9928SOL    HW230684   4.898   6.315   1.783
 9929SOL     OW30685   2.256   5.231   4.779
 9929SOL    HW130686   2.235   5.136   4.754
 9929SOL    HW230687   2.197   5.259   4.855
 9930SOL     OW30688   6.240   0.083   5.124
 9930SOL    HW130689   6.242   7.019   5.070
 9930SOL    HW230690   6.322   0.136   5.107
 9931SOL     OW30691   0.856   4.775   4.747
 9931SOL    HW130692   0.925   4.809   4.812
 9931SOL    HW230693   0.793   4.714   4.794
 9932SOL     OW30694   1.824   5.159   6.921
 9932SOL    HW130695   1.768   5.097   6.976
 9932SOL    HW230696   1.917   5.123   6.914
 9933SOL     OW30697   1.374   5.152   2.719
 9933SOL    HW130698   1.462   5.151   2.672
 9933SOL    HW230699   1.364   5.069   2.773
 9934SOL     OW30700   5.950   1.342   5.400
 9934SOL    HW130701   5.873   1.291   5.362
 9934SOL    HW230702   5.916   1.411   5.464
 9935SOL     OW30703   3.216   0.212   6.889
 9935SOL    HW130704   3.121   0.195   6.914
 9935SOL    HW230705   3.275   0.147   6.936
 9936SOL     OW30706   6.932   5.052   5.825
 9936SOL    HW130707   0.010   5.035   5.831
 9936SOL    HW230708   6.883   4.988   5.884
 9937SOL     OW30709   6.829   1.878   6.201
 9937SOL    HW130710   6.779   1.919   6.278
 9937SOL    HW230711   6.770   1.812   6.155
 9938SOL     OW30712   6.563   5.452   3.065
 9938SOL    HW130713   6.634   5.428   3.132
 9938SOL    HW230714   6.599   5.521   3.002
 9939SOL     OW30715   3.716   2.037   0.224
 9939SOL    HW130716   3.788   2.075   0.282
 9939SOL    HW230717   3.653   2.110   0.196
 9940SOL     OW30718   1.064   1.020   0.822
 9940SOL    HW130719   1.037   1.055   0.733
 9940SOL    HW230720   1.010   1.064   0.894
 9941SOL     OW30721   3.049   3.664   5.018
 9941SOL    HW130722   3.014   3.650   5.111
 9941SOL    HW230723   3.130   3.723   5.022
 9942SOL     OW30724   2.136   5.022   2.679
 9942SOL    HW130725   2.206   5.032   2.749
 9942SOL    HW230726   2.176   4.979   2.598
 9943SOL     OW30727   6.908   5.853   5.288
 9943SOL    HW130728   6.981   5.842   5.220
 9943SOL    HW230729   6.930   5.800   5.370
 9944SOL     OW30730   1.836   4.743   6.130
 9944SOL    HW130731   1.930   4.747   6.096
 9944SOL    HW230732   1.773   4.748   6.053
 9945SOL     OW30733   6.208   5.357   6.927
 9945SOL    HW130734   6.275   5.284   6.912
 9945SOL    HW230735   6.199   5.375   0.005
 9946SOL     OW30736   5.030   0.990   4.607
 9946SOL    HW130737   5.014   1.059   4.677
 9946SOL    HW230738   4.946   0.939   4.590
 9947SOL     OW30739   1.282   3.837   5.377
 9947SOL    HW130740   1.286   3.765   5.308
 9947SOL    HW230741   1.204   3.897   5.358
 9948SOL     OW30742   5.307   4.684   4.060
 9948SOL    HW130743   5.338   4.651   3.971
 9948SOL    HW230744   5.276   4.607   4.116
 9949SOL     OW30745   5.165   5.242   3.335
 9949SOL    HW130746   5.236   5.273   3.272
 9949SOL    HW230747   5.137   5.319   3.393
 9950SOL     OW30748   5.723   5.941   5.351
 9950SOL    HW130749   5.740   6.037   5.327
 9950SOL    HW230750   5.801   5.905   5.402
 9951SOL     OW30751   5.794   1.748   4.446
 9951SOL    HW130752   5.768   1.654   4.423
 9951SOL    HW230753   5.855   1.784   4.376
 9952SOL     OW30754   0.266   3.398   0.810
 9952SOL    HW130755   0.176   3.431   0.839
 9952SOL    HW230756   0.324   3.476   0.786
 9953SOL     OW30757   6.343   2.663   3.910
 9953SOL    HW130758   6.257   2.709   3.887
 9953SOL    HW230759   6.353   2.658   4.010
 9954SOL     OW30760   5.642   6.203   6.170
 9954SOL    HW130761   5.632   6.226   6.073
 9954SOL    HW230762   5.647   6.287   6.223
 9955SOL     OW30763   6.235   3.346   4.852
 9955SOL    HW130764   6.179   3.264   4.852
 9955SOL    HW230765   6.189   3.418   4.904
 9956SOL     OW30766   2.292   0.139   1.539
 9956SOL    HW130767   2.324   0.217   1.593
 9956SOL    HW230768   2.194   0.126   1.555
 9957SOL     OW30769   5.391   5.197   2.514
 9957SOL    HW130770   5.375   5.113   2.463
 9957SOL    HW230771   5.350   5.274   2.466
 9958SOL     OW30772   3.065   5.322   0.303
 9958SOL    HW130773   3.003   5.264   0.355
 9958SOL    HW230774   3.057   5.302   0.206
 9959SOL     OW30775   4.082   3.629   5.562
 9959SOL    HW130776   4.136   3.693   5.617
 9959SOL    HW230777   4.097   3.648   5.465
 9960SOL     OW30778   6.940   0.434   2.046
 9960SOL    HW130779   0.004   0.405   2.091
 9960SOL    HW230780   6.880   0.477   2.114
 9961SOL     OW30781   1.989   6.307   4.100
 9961SOL    HW130782   2.011   6.292   4.196
 9961SOL    HW230783   1.915   6.375   4.093
 9962SOL     OW30784   6.749   6.821   2.875
 9962SOL    HW130785   6.840   6.809   2.915
 9962SOL    HW230786   6.751   6.793   2.779
 9963SOL     OW30787   3.147   3.259   6.639
 9963SOL    HW130788   3.112   3.187   6.580
 9963SOL    HW230789   3.091   3.341   6.628
 9964SOL     OW30790   4.461   5.187   4.712
 9964SOL    HW130791   4.443   5.185   4.810
 9964SOL    HW230792   4.382   5.149   4.663
 9965SOL     OW30793   3.474   6.738   6.688
 9965SOL    HW130794   3.519   6.723   6.776
 9965SOL    HW230795   3.376   6.724   6.697
 9966SOL     OW30796   1.035   5.142   1.668
 9966SOL    HW130797   1.001   5.055   1.632
 9966SOL    HW230798   0.965   5.184   1.727
 9967SOL     OW30799   0.176   5.811   2.599
 9967SOL    HW130800   0.177   5.762   2.512
 9967SOL    HW230801   0.188   5.746   2.674
 9968SOL     OW30802   3.599   4.144   1.799
 9968SOL    HW130803   3.615   4.242   1.802
 9968SOL    HW230804   3.614   4.110   1.706
 9969SOL     OW30805   2.150   3.853   2.309
 9969SOL    HW130806   2.165   3.892   2.218
 9969SOL    HW230807   2.160   3.754   2.304
 9970SOL     OW30808   5.237   4.460   2.009
 9970SOL    HW130809   5.227   4.365   2.039
 9970SOL    HW230810   5.186   4.475   1.925
 9971SOL     OW30811   1.794   4.957   1.240
 9971SOL    HW130812   1.777   4.914   1.329
 9971SOL    HW230813   1.879   4.920   1.201
 9972SOL     OW30814   5.642   4.692   1.025
 9972SOL    HW130815   5.736   4.695   0.990
 9972SOL    HW230816   5.644   4.693   1.125
 9973SOL     OW30817   5.691   1.769   3.319
 9973SOL    HW130818   5.722   1.698   3.257
 9973SOL    HW230819   5.754   1.777   3.396
 9974SOL     OW30820   0.817   2.296   2.466
 9974SOL    HW130821   0.901   2.257   2.502
 9974SOL    HW230822   0.805   2.389   2.501
 9975SOL     OW30823   6.172   3.450   0.449
 9975SOL    HW130824   6.176   3.394   0.367
 9975SOL    HW230825   6.082   3.491   0.458
 9976SOL     OW30826   1.115   5.952   5.263
 9976SOL    HW130827   1.036   5.906   5.304
 9976SOL    HW230828   1.193   5.889   5.261
 9977SOL     OW30829   5.961   5.890   5.498
 9977SOL    HW130830   5.984   5.820   5.566
 9977SOL    HW230831   6.022   5.882   5.420
 9978SOL     OW30832   0.956   2.662   4.824
 9978SOL    HW130833   0.867   2.617   4.833
 9978SOL    HW230834   0.965   2.702   4.733
 9979SOL     OW30835   6.150   4.378   5.153
 9979SOL    HW130836   6.115   4.332   5.235
 9979SOL    HW230837   6.080   4.439   5.116
 9980SOL     OW30838   2.573   6.606   0.023
 9980SOL    HW130839   2.492   6.600   6.985
 9980SOL    HW230840   2.561   6.679   0.090
 9981SOL     OW30841   2.762   1.930   3.415
 9981SOL    HW130842   2.844   1.884   3.447
 9981SOL    HW230843   2.730   1.994   3.485
 9982SOL     OW30844   6.143   5.287   3.797
 9982SOL    HW130845   6.224   5.231   3.784
 9982SOL    HW230846   6.093   5.294   3.711
 9983SOL     OW30847   0.023   1.692   2.972
 9983SOL    HW130848   0.122   1.707   2.971
 9983SOL    HW230849   0.002   1.603   2.932
 9984SOL     OW30850   2.524   1.810   0.052
 9984SOL    HW130851   2.439   1.855   0.023
 9984SOL    HW230852   2.557   1.749   7.000
 9985SOL     OW30853   2.189   0.695   0.903
 9985SOL    HW130854   2.138   0.650   0.830
 9985SOL    HW230855   2.133   0.699   0.986
 9986SOL     OW30856   6.375   3.786   5.742
 9986SOL    HW130857   6.378   3.802   5.644
 9986SOL    HW230858   6.467   3.766   5.776
 9987SOL     OW30859   5.656   3.182   5.611
 9987SOL    HW130860   5.653   3.170   5.710
 9987SOL    HW230861   5.568   3.217   5.578
 9988SOL     OW30862   0.119   6.489   4.957
 9988SOL    HW130863   0.095   6.506   5.052
 9988SOL    HW230864   0.117   6.391   4.939
 9989SOL     OW30865   6.696   3.053   3.709
 9989SOL    HW130866   6.609   3.034   3.663
 9989SOL    HW230867   6.761   2.979   3.690
 9990SOL     OW30868   1.199   5.629   3.803
 9990SOL    HW130869   1.217   5.675   3.716
 9990SOL    HW230870   1.199   5.697   3.877
 9991SOL     OW30871   2.978   2.171   4.752
 9991SOL    HW130872   3.011   2.193   4.660
 9991SOL    HW230873   3.043   2.204   4.820
 9992SOL     OW30874   5.829   5.066   6.695
 9992SOL    HW130875   5.778   4.980   6.697
 9992SOL    HW230876   5.816   5.114   6.782
 9993SOL     OW30877   2.846   1.300   1.026
 9993SOL    HW130878   2.797   1.289   0.940
 9993SOL    HW230879   2.927   1.358   1.011
 9994SOL     OW30880   6.047   4.236   3.035
 9994SOL    HW130881   6.005   4.291   3.107
 9994SOL    HW230882   5.976   4.192   2.980
 9995SOL     OW30883   4.743   1.453   3.719
 9995SOL    HW130884   4.812   1.524   3.729
 9995SOL    HW230885   4.686   1.449   3.801
 9996SOL     OW30886   2.887   4.417   0.232
 9996SOL    HW130887   2.926   4.370   0.152
 9996SOL    HW230888   2.878   4.352   0.307
 9997SOL     OW30889   3.473   1.365   6.115
 9997SOL    HW130890   3.427   1.428   6.177
 9997SOL    HW230891   3.405   1.302   6.075
 9998SOL     OW30892   5.872   5.224   5.026
 9998SOL    HW130893   5.874   5.319   4.996
 9998SOL    HW230894   5.818   5.217   5.111
 9999SOL     OW30895   6.177   2.751   5.643
 9999SOL    HW130896   6.089   2.736   5.598
 9999SOL    HW230897   6.161   2.792   5.734
10000SOL     OW30898   6.446   3.141   0.141
10000SOL    HW130899   6.484   3.153   0.232
10000SOL    HW230900   6.481   3.056   0.101
10001SOL     OW30901   4.697   0.491   2.059
10001SOL    HW130902   4.775   0.499   1.997
10001SOL    HW230903   4.617   0.532   2.016
10002SOL     OW30904   1.444   6.526   2.047
10002SOL    HW130905   1.408   6.435   2.029
10002SOL    HW230906   1.372   6.594   2.030
10003SOL     OW30907   3.213   2.150   3.894
10003SOL    HW130908   3.280   2.169   3.822
10003SOL    HW230909   3.261   2.121   3.977
10004SOL     OW30910   6.609   2.538   4.120
10004SOL    HW130911   6.539   2.554   4.051
10004SOL    HW230912   6.611   2.614   4.185
10005SOL     OW30913   5.284   0.498   3.600
10005SOL    HW130914   5.378   0.506   3.567
10005SOL    HW230915   5.262   0.576   3.658
10006SOL     OW30916   4.047   0.009   4.112
10006SOL    HW130917   4.107   7.007   4.035
10006SOL    HW230918   4.029   6.947   4.165
10007SOL     OW30919   0.036   3.920   4.892
10007SOL    HW130920   0.118   3.946   4.943
10007SOL    HW230921   0.004   3.998   4.838
10008SOL     OW30922   3.665   0.813   4.602
10008SOL    HW130923   3.655   0.793   4.505
10008SOL    HW230924   3.729   0.748   4.643
10009SOL     OW30925   1.647   4.335   2.370
10009SOL    HW130926   1.698   4.274   2.309
10009SOL    HW230927   1.708   4.366   2.444
10010SOL     OW30928   2.297   1.070   6.841
10010SOL    HW130929   2.239   1.151   6.841
10010SOL    HW230930   2.389   1.094   6.873
10011SOL     OW30931   6.906   0.641   5.289
10011SOL    HW130932   6.809   0.628   5.306
10011SOL    HW230933   6.923   0.642   5.190
10012SOL     OW30934   6.477   1.023   3.253
10012SOL    HW130935   6.452   0.954   3.320
10012SOL    HW230936   6.395   1.062   3.211
10013SOL     OW30937   0.489   1.119   2.808
10013SOL    HW130938   0.535   1.141   2.722
10013SOL    HW230939   0.536   1.165   2.884
10014SOL     OW30940   0.776   4.210   6.369
10014SOL    HW130941   0.698   4.176   6.421
10014SOL    HW230942   0.815   4.135   6.315
10015SOL     OW30943   1.783   5.116   0.806
10015SOL    HW130944   1.708   5.141   0.745
10015SOL    HW230945   1.801   5.018   0.798
10016SOL     OW30946   1.810   1.072   6.142
10016SOL    HW130947   1.806   0.989   6.196
10016SOL    HW230948   1.723   1.087   6.096
10017SOL     OW30949   2.777   2.322   4.684
10017SOL    HW130950   2.750   2.387   4.754
10017SOL    HW230951   2.859   2.273   4.713
10018SOL     OW30952   5.532   0.076   6.457
10018SOL    HW130953   5.493   0.158   6.416
10018SOL    HW230954   5.530   0.085   6.556
10019SOL     OW30955   1.043   1.253   3.223
10019SOL    HW130956   1.048   1.353   3.218
10019SOL    HW230957   1.077   1.214   3.138
10020SOL     OW30958   1.429   2.761   1.746
10020SOL    HW130959   1.375   2.686   1.784
10020SOL    HW230960   1.522   2.729   1.728
10021SOL     OW30961   6.909   3.540   0.544
10021SOL    HW130962   7.007   3.520   0.544
10021SOL    HW230963   6.863   3.482   0.612
10022SOL     OW30964   2.041   1.151   6.252
10022SOL    HW130965   1.957   1.133   6.201
10022SOL    HW230966   2.070   1.069   6.300
10023SOL     OW30967   6.409   4.195   0.728
10023SOL    HW130968   6.420   4.104   0.767
10023SOL    HW230969   6.449   4.198   0.637
10024SOL     OW30970   1.260   5.369   3.840
10024SOL    HW130971   1.315   5.385   3.922
10024SOL    HW230972   1.227   5.457   3.805
10025SOL     OW30973   2.422   0.598   1.308
10025SOL    HW130974   2.372   0.553   1.235
10025SOL    HW230975   2.503   0.643   1.270
10026SOL     OW30976   5.889   0.340   3.412
10026SOL    HW130977   5.914   0.392   3.330
10026SOL    HW230978   5.959   0.353   3.483
10027SOL     OW30979   5.577   3.576   4.129
10027SOL    HW130980   5.652   3.544   4.186
10027SOL    HW230981   5.510   3.624   4.185
10028SOL     OW30982   2.036   0.740   0.399
10028SOL    HW130983   2.017   0.643   0.418
10028SOL    HW230984   2.017   0.794   0.480
10029SOL     OW30985   5.391   1.725   3.477
10029SOL    HW130986   5.468   1.680   3.523
10029SOL    HW230987   5.405   1.824   3.480
10030SOL     OW30988   2.257   0.864   3.867
10030SOL    HW130989   2.286   0.825   3.779
10030SOL    HW230990   2.168   0.826   3.893
10031SOL     OW30991   4.979   4.464   3.104
10031SOL    HW130992   5.044   4.414   3.047
10031SOL    HW230993   4.910   4.508   3.046
10032SOL     OW30994   2.567   2.170   5.224
10032SOL    HW130995   2.561   2.191   5.321
10032SOL    HW230996   2.646   2.217   5.184
10033SOL     OW30997   6.016   2.986   4.154
10033SOL    HW130998   5.948   3.034   4.099
10033SOL    HW230999   6.095   3.045   4.169
10034SOL     OW31000   3.858   0.260   5.061
10034SOL    HW131001   3.852   0.359   5.075
10034SOL    HW231002   3.768   0.218   5.072
10035SOL     OW31003   6.628   4.787   1.901
10035SOL    HW131004   6.633   4.687   1.901
10035SOL    HW231005   6.719   4.824   1.921
10036SOL     OW31006   6.796   1.694   6.857
10036SOL    HW131007   6.778   1.614   6.800
10036SOL    HW231008   6.889   1.727   6.839
10037SOL     OW31009   6.907   0.232   6.377
10037SOL    HW131010   6.879   0.214   6.471
10037SOL    HW231011   6.988   0.179   6.355
10038SOL     OW31012   6.601   6.794   1.486
10038SOL    HW131013   6.600   6.797   1.386
10038SOL    HW231014   6.654   6.715   1.516
10039SOL     OW31015   2.940   0.857   3.832
10039SOL    HW131016   2.854   0.859   3.781
10039SOL    HW231017   3.016   0.874   3.769
10040SOL     OW31018   6.597   3.526   0.721
10040SOL    HW131019   6.654   3.607   0.733
10040SOL    HW231020   6.520   3.549   0.661
10041SOL     OW31021   3.053   6.736   0.399
10041SOL    HW131022   3.132   6.689   0.436
10041SOL    HW231023   2.991   6.762   0.473
10042SOL     OW31024   6.729   2.375   2.660
10042SOL    HW131025   6.725   2.300   2.594
10042SOL    HW231026   6.657   2.363   2.728
10043SOL     OW31027   0.225   1.659   6.032
10043SOL    HW131028   0.174   1.606   5.965
10043SOL    HW231029   0.274   1.732   5.985
10044SOL     OW31030   2.641   2.364   5.473
10044SOL    HW131031   2.558   2.367   5.528
10044SOL    HW231032   2.708   2.304   5.517
10045SOL     OW31033   4.266   0.959   0.475
10045SOL    HW131034   4.189   0.931   0.532
10045SOL    HW231035   4.318   0.878   0.447
10046SOL     OW31036   1.036   4.864   1.182
10046SOL    HW131037   1.020   4.953   1.225
10046SOL    HW231038   1.066   4.799   1.251
10047SOL     OW31039   0.529   3.302   6.781
10047SOL    HW131040   0.553   3.208   6.806
10047SOL    HW231041   0.603   3.363   6.808
10048SOL     OW31042   6.135   6.696   2.606
10048SOL    HW131043   6.142   6.633   2.528
10048SOL    HW231044   6.144   6.645   2.691
10049SOL     OW31045   6.902   1.843   5.399
10049SOL    HW131046   6.845   1.808   5.473
10049SOL    HW231047   6.919   1.770   5.332
10050SOL     OW31048   5.767   3.498   5.551
10050SOL    HW131049   5.857   3.470   5.583
10050SOL    HW231050   5.703   3.494   5.628
10051SOL     OW31051   0.584   4.067   4.048
10051SOL    HW131052   0.652   4.139   4.035
10051SOL    HW231053   0.607   3.989   3.990
10052SOL     OW31054   1.018   0.483   3.452
10052SOL    HW131055   1.046   0.466   3.547
10052SOL    HW231056   1.097   0.514   3.399
10053SOL     OW31057   4.942   5.473   4.885
10053SOL    HW131058   4.843   5.486   4.894
10053SOL    HW231059   4.988   5.561   4.895
10054SOL     OW31060   5.161   3.915   4.464
10054SOL    HW131061   5.180   3.887   4.369
10054SOL    HW231062   5.125   4.009   4.464
10055SOL     OW31063   0.059   1.734   6.771
10055SOL    HW131064   0.039   1.793   6.849
10055SOL    HW231065   0.093   1.790   6.695
10056SOL     OW31066   5.218   3.140   3.159
10056SOL    HW131067   5.198   3.233   3.127
10056SOL    HW231068   5.284   3.144   3.234
10057SOL     OW31069   5.804   4.881   6.228
10057SOL    HW131070   5.889   4.929   6.250
10057SOL    HW231071   5.726   4.935   6.260
10058SOL     OW31072   6.103   3.545   4.963
10058SOL    HW131073   6.120   3.611   4.889
10058SOL    HW231074   6.099   3.593   5.050
10059SOL     OW31075   0.005   0.807   6.609
10059SOL    HW131076   0.032   0.849   6.523
10059SOL    HW231077   0.084   0.802   6.670
10060SOL     OW31078   2.571   2.056   2.909
10060SOL    HW131079   2.629   2.096   2.838
10060SOL    HW231080   2.620   2.058   2.996
10061SOL     OW31081   3.764   0.246   3.111
10061SOL    HW131082   3.854   0.204   3.099
10061SOL    HW231083   3.717   0.251   3.022
10062SOL     OW31084   0.002   0.154   4.076
10062SOL    HW131085   6.993   0.058   4.066
10062SOL    HW231086   6.992   0.189   4.164
10063SOL     OW31087   1.655   3.144   4.764
10063SOL    HW131088   1.604   3.090   4.830
10063SOL    HW231089   1.648   3.241   4.787
10064SOL     OW31090   2.590   6.385   0.655
10064SOL    HW131091   2.656   6.373   0.729
10064SOL    HW231092   2.558   6.480   0.654
10065SOL     OW31093   0.631   1.876   2.130
10065SOL    HW131094   0.600   1.871   2.224
10065SOL    HW231095   0.701   1.806   2.114
10066SOL     OW31096   6.685   3.723   4.326
10066SOL    HW131097   6.693   3.744   4.228
10066SOL    HW231098   6.607   3.661   4.340
10067SOL     OW31099   6.776   2.126   4.833
10067SOL    HW131100   6.860   2.151   4.786
10067SOL    HW231101   6.729   2.054   4.781
10068SOL     OW31102   2.370   2.311   2.865
10068SOL    HW131103   2.449   2.353   2.821
10068SOL    HW231104   2.401   2.249   2.937
10069SOL     OW31105   3.231   5.423   1.447
10069SOL    HW131106   3.314   5.478   1.432
10069SOL    HW231107   3.239   5.337   1.396
10070SOL     OW31108   3.594   5.760   5.605
10070SOL    HW131109   3.611   5.779   5.508
10070SOL    HW231110   3.515   5.699   5.613
10071SOL     OW31111   6.384   0.143   3.506
10071SOL    HW131112   6.451   0.084   3.460
10071SOL    HW231113   6.309   0.087   3.542
10072SOL     OW31114   6.743   2.251   2.232
10072SOL    HW131115   6.795   2.178   2.188
10072SOL    HW231116   6.667   2.279   2.173
10073SOL     OW31117   6.422   4.301   4.860
10073SOL    HW131118   6.520   4.284   4.871
10073SOL    HW231119   6.393   4.372   4.925
10074SOL     OW31120   0.961   4.757   0.435
10074SOL    HW131121   1.048   4.749   0.484
10074SOL    HW231122   0.889   4.784   0.500
10075SOL     OW31123   1.754   3.368   1.657
10075SOL    HW131124   1.820   3.437   1.687
10075SOL    HW231125   1.662   3.407   1.657
10076SOL     OW31126   5.215   5.682   4.070
10076SOL    HW131127   5.192   5.638   4.157
10076SOL    HW231128   5.132   5.723   4.032
10077SOL     OW31129   6.209   2.827   5.910
10077SOL    HW131130   6.131   2.851   5.967
10077SOL    HW231131   6.290   2.877   5.942
10078SOL     OW31132   6.565   6.349   5.056
10078SOL    HW131133   6.506   6.405   4.997
10078SOL    HW231134   6.655   6.338   5.013
10079SOL     OW31135   4.639   2.440   2.738
10079SOL    HW131136   4.703   2.364   2.748
10079SOL    HW231137   4.687   2.519   2.699
10080SOL     OW31138   5.328   0.238   6.299
10080SOL    HW131139   5.239   0.221   6.257
10080SOL    HW231140   5.361   0.329   6.273
10081SOL     OW31141   2.208   2.865   0.890
10081SOL    HW131142   2.253   2.910   0.966
10081SOL    HW231143   2.184   2.932   0.820
10082SOL     OW31144   1.297   4.262   1.099
10082SOL    HW131145   1.261   4.176   1.134
10082SOL    HW231146   1.248   4.339   1.141
10083SOL     OW31147   3.202   4.941   3.630
10083SOL    HW131148   3.204   5.029   3.678
10083SOL    HW231149   3.122   4.889   3.660
10084SOL     OW31150   1.017   0.725   4.869
10084SOL    HW131151   1.042   0.755   4.961
10084SOL    HW231152   1.100   0.712   4.815
10085SOL     OW31153   4.759   6.937   0.605
10085SOL    HW131154   4.704   7.001   0.659
10085SOL    HW231155   4.823   6.988   0.548
10086SOL     OW31156   0.292   6.867   2.756
10086SOL    HW131157   0.246   6.951   2.786
10086SOL    HW231158   0.299   6.868   2.656
10087SOL     OW31159   1.539   6.627   5.129
10087SOL    HW131160   1.611   6.566   5.161
10087SOL    HW231161   1.577   6.718   5.115
10088SOL     OW31162   0.079   2.323   6.931
10088SOL    HW131163   0.035   2.409   6.905
10088SOL    HW231164   0.162   2.310   6.877
10089SOL     OW31165   3.868   1.512   2.204
10089SOL    HW131166   3.821   1.428   2.177
10089SOL    HW231167   3.862   1.522   2.304
10090SOL     OW31168   2.183   6.197   2.304
10090SOL    HW131169   2.282   6.190   2.290
10090SOL    HW231170   2.165   6.245   2.390
10091SOL     OW31171   6.540   4.060   5.473
10091SOL    HW131172   6.605   4.077   5.398
10091SOL    HW231173   6.539   3.962   5.494
10092SOL     OW31174   0.648   1.621   4.498
10092SOL    HW131175   0.716   1.693   4.509
10092SOL    HW231176   0.659   1.553   4.571
10093SOL     OW31177   5.332   3.902   5.746
10093SOL    HW131178   5.321   3.994   5.785
10093SOL    HW231179   5.262   3.888   5.676
10094SOL     OW31180   3.284   0.930   0.801
10094SOL    HW131181   3.384   0.936   0.801
10094SOL    HW231182   3.250   0.934   0.895
10095SOL     OW31183   5.133   2.579   5.185
10095SOL    HW131184   5.095   2.502   5.133
10095SOL    HW231185   5.078   2.661   5.169
10096SOL     OW31186   5.296   1.635   3.178
10096SOL    HW131187   5.322   1.563   3.242
10096SOL    HW231188   5.256   1.711   3.228
10097SOL     OW31189   0.856   1.891   7.010
10097SOL    HW131190   0.935   1.934   6.965
10097SOL    HW231191   0.786   1.960   0.008
10098SOL     OW31192   3.347   6.070   3.828
10098SOL    HW131193   3.283   6.036   3.758
10098SOL    HW231194   3.439   6.074   3.789
10099SOL     OW31195   6.819   4.710   1.208
10099SOL    HW131196   6.721   4.693   1.222
10099SOL    HW231197   6.862   4.627   1.171
10100SOL     OW31198   4.623   4.891   4.539
10100SOL    HW131199   4.661   4.812   4.491
10100SOL    HW231200   4.580   4.952   4.474
10101SOL     OW31201   1.097   1.908   1.742
10101SOL    HW131202   1.139   1.822   1.714
10101SOL    HW231203   0.998   1.904   1.727
10102SOL     OW31204   6.790   6.635   2.253
10102SOL    HW131205   6.767   6.656   2.158
10102SOL    HW231206   6.867   6.692   2.282
10103SOL     OW31207   6.620   6.040   6.279
10103SOL    HW131208   6.582   6.077   6.364
10103SOL    HW231209   6.716   6.066   6.271
10104SOL     OW31210   2.034   0.181   5.055
10104SOL    HW131211   1.955   0.240   5.039
10104SOL    HW231212   2.096   0.226   5.119
10105SOL     OW31213   3.068   0.719   6.249
10105SOL    HW131214   3.028   0.808   6.230
10105SOL    HW231215   3.008   0.668   6.310
10106SOL     OW31216   5.234   5.847   1.737
10106SOL    HW131217   5.202   5.840   1.831
10106SOL    HW231218   5.157   5.840   1.675
10107SOL     OW31219   4.853   4.600   6.801
10107SOL    HW131220   4.850   4.566   6.895
10107SOL    HW231221   4.948   4.606   6.770
10108SOL     OW31222   1.963   2.670   6.849
10108SOL    HW131223   1.915   2.585   6.825
10108SOL    HW231224   1.913   2.748   6.812
10109SOL     OW31225   1.377   2.206   1.170
10109SOL    HW131226   1.323   2.279   1.211
10109SOL    HW231227   1.363   2.206   1.071
10110SOL     OW31228   4.996   6.161   2.447
10110SOL    HW131229   4.929   6.236   2.448
10110SOL    HW231230   5.020   6.137   2.541
10111SOL     OW31231   1.960   1.609   1.968
10111SOL    HW131232   2.038   1.550   1.947
10111SOL    HW231233   1.930   1.655   1.885
10112SOL     OW31234   6.979   2.323   3.450
10112SOL    HW131235   6.957   2.410   3.494
10112SOL    HW231236   0.001   2.262   3.517
10113SOL     OW31237   6.778   0.895   5.975
10113SOL    HW131238   6.800   0.834   6.051
10113SOL    HW231239   6.735   0.842   5.902
10114SOL     OW31240   4.745   1.705   2.034
10114SOL    HW131241   4.683   1.627   2.028
10114SOL    HW231242   4.702   1.784   1.990
10115SOL     OW31243   3.672   2.438   6.204
10115SOL    HW131244   3.636   2.530   6.188
10115SOL    HW231245   3.708   2.432   6.297
10116SOL     OW31246   6.360   0.743   4.851
10116SOL    HW131247   6.397   0.652   4.869
10116SOL    HW231248   6.262   0.744   4.873
10117SOL     OW31249   5.860   4.148   4.058
10117SOL    HW131250   5.880   4.143   3.960
10117SOL    HW231251   5.916   4.219   4.100
10118SOL     OW31252   4.193   5.558   4.426
10118SOL    HW131253   4.105   5.591   4.390
10118SOL    HW231254   4.267   5.592   4.368
10119SOL     OW31255   0.067   5.395   5.228
10119SOL    HW131256   0.041   5.315   5.283
10119SOL    HW231257   7.008   5.425   5.174
10120SOL     OW31258   2.087   3.275   2.424
10120SOL    HW131259   2.129   3.286   2.514
10120SOL    HW231260   2.132   3.335   2.358
10121SOL     OW31261   6.816   3.966   0.927
10121SOL    HW131262   6.896   3.989   0.872
10121SOL    HW231263   6.828   3.999   1.020
10122SOL     OW31264   0.889   0.306   3.695
10122SOL    HW131265   0.805   0.334   3.742
10122SOL    HW231266   0.866   0.255   3.612
10123SOL     OW31267   6.667   5.019   6.774
10123SOL    HW131268   6.651   5.027   6.676
10123SOL    HW231269   6.686   5.109   6.813
10124SOL     OW31270   0.893   5.175   2.920
10124SOL    HW131271   0.955   5.186   2.843
10124SOL    HW231272   0.806   5.220   2.901
10125SOL     OW31273   1.964   1.274   5.576
10125SOL    HW131274   1.891   1.228   5.627
10125SOL    HW231275   2.016   1.206   5.524
10126SOL     OW31276   6.380   0.034   0.116
10126SOL    HW131277   6.424   0.017   0.204
10126SOL    HW231278   6.366   6.967   0.068
10127SOL     OW31279   2.089   5.855   6.220
10127SOL    HW131280   2.117   5.783   6.156
10127SOL    HW231281   2.157   5.865   6.292
10128SOL     OW31282   2.610   1.759   6.661
10128SOL    HW131283   2.526   1.807   6.636
10128SOL    HW231284   2.689   1.809   6.626
10129SOL     OW31285   5.981   1.387   4.652
10129SOL    HW131286   5.957   1.483   4.662
10129SOL    HW231287   5.897   1.333   4.642
10130SOL     OW31288   1.379   1.785   2.742
10130SOL    HW131289   1.404   1.879   2.718
10130SOL    HW231290   1.283   1.781   2.767
10131SOL     OW31291   1.723   6.386   4.054
10131SOL    HW131292   1.740   6.385   3.955
10131SOL    HW231293   1.679   6.300   4.081
10132SOL     OW31294   6.830   1.138   1.444
10132SOL    HW131295   6.808   1.080   1.523
10132SOL    HW231296   6.756   1.131   1.377
10133SOL     OW31297   6.099   6.178   0.326
10133SOL    HW131298   6.105   6.276   0.346
10133SOL    HW231299   6.164   6.156   0.253
10134SOL     OW31300   6.194   6.687   2.198
10134SOL    HW131301   6.157   6.661   2.109
10134SOL    HW231302   6.119   6.713   2.259
10135SOL     OW31303   6.226   0.312   2.685
10135SOL    HW131304   6.195   0.385   2.625
10135SOL    HW231305   6.156   0.292   2.754
10136SOL     OW31306   5.339   1.050   2.373
10136SOL    HW131307   5.361   1.109   2.451
10136SOL    HW231308   5.242   1.025   2.376
10137SOL     OW31309   6.308   5.562   5.445
10137SOL    HW131310   6.234   5.628   5.435
10137SOL    HW231311   6.273   5.478   5.486
10138SOL     OW31312   0.497   1.882   0.525
10138SOL    HW131313   0.528   1.835   0.608
10138SOL    HW231314   0.423   1.945   0.548
10139SOL     OW31315   3.502   2.954   6.440
10139SOL    HW131316   3.421   2.979   6.494
10139SOL    HW231317   3.473   2.918   6.352
10140SOL     OW31318   0.954   6.464   5.591
10140SOL    HW131319   0.957   6.367   5.566
10140SOL    HW231320   0.907   6.515   5.519
10141SOL     OW31321   2.089   2.599   4.569
10141SOL    HW131322   2.165   2.552   4.525
10141SOL    HW231323   2.042   2.535   4.630
10142SOL     OW31324   4.166   6.447   4.135
10142SOL    HW131325   4.169   6.348   4.122
10142SOL    HW231326   4.079   6.483   4.100
10143SOL     OW31327   5.349   2.893   6.533
10143SOL    HW131328   5.397   2.895   6.446
10143SOL    HW231329   5.254   2.863   6.519
10144SOL     OW31330   3.571   6.899   6.325
10144SOL    HW131331   3.533   6.807   6.333
10144SOL    HW231332   3.555   6.950   6.410
10145SOL     OW31333   5.704   6.096   6.464
10145SOL    HW131334   5.799   6.065   6.469
10145SOL    HW231335   5.665   6.066   6.377
10146SOL     OW31336   0.255   2.537   4.414
10146SOL    HW131337   0.287   2.629   4.392
10146SOL    HW231338   0.157   2.531   4.398
10147SOL     OW31339   4.546   4.685   6.197
10147SOL    HW131340   4.623   4.650   6.252
10147SOL    HW231341   4.511   4.769   6.239
10148SOL     OW31342   0.536   4.672   0.986
10148SOL    HW131343   0.520   4.609   0.911
10148SOL    HW231344   0.612   4.733   0.963
10149SOL     OW31345   3.366   4.660   0.200
10149SOL    HW131346   3.418   4.728   0.252
10149SOL    HW231347   3.313   4.603   0.262
10150SOL     OW31348   4.051   4.563   0.905
10150SOL    HW131349   4.119   4.621   0.948
10150SOL    HW231350   4.012   4.610   0.826
10151SOL     OW31351   6.049   6.724   5.902
10151SOL    HW131352   6.045   6.797   5.833
10151SOL    HW231353   6.025   6.761   5.991
10152SOL     OW31354   4.374   6.717   2.639
10152SOL    HW131355   4.326   6.764   2.565
10152SOL    HW231356   4.468   6.752   2.645
10153SOL     OW31357   4.618   4.337   2.735
10153SOL    HW131358   4.664   4.278   2.801
10153SOL    HW231359   4.620   4.294   2.644
10154SOL     OW31360   4.743   5.108   5.450
10154SOL    HW131361   4.683   5.107   5.371
10154SOL    HW231362   4.761   5.202   5.478
10155SOL     OW31363   4.089   1.682   4.747
10155SOL    HW131364   4.065   1.585   4.740
10155SOL    HW231365   4.164   1.693   4.812
10156SOL     OW31366   4.977   1.910   0.027
10156SOL    HW131367   4.932   1.961   6.974
10156SOL    HW231368   5.071   1.943   0.038
10157SOL     OW31369   0.210   3.144   1.481
10157SOL    HW131370   0.299   3.141   1.528
10157SOL    HW231371   0.138   3.165   1.547
10158SOL     OW31372   6.306   5.045   0.372
10158SOL    HW131373   6.224   5.008   0.328
10158SOL    HW231374   6.371   5.074   0.303
10159SOL     OW31375   3.061   3.151   1.722
10159SOL    HW131376   3.134   3.150   1.654
10159SOL    HW231377   3.094   3.108   1.806
10160SOL     OW31378   1.089   4.888   2.641
10160SOL    HW131379   1.166   4.839   2.600
10160SOL    HW231380   1.087   4.982   2.606
10161SOL     OW31381   5.339   3.017   5.414
10161SOL    HW131382   5.367   3.105   5.450
10161SOL    HW231383   5.360   3.012   5.316
10162SOL     OW31384   1.234   3.064   2.513
10162SOL    HW131385   1.296   3.027   2.582
10162SOL    HW231386   1.264   3.033   2.423
10163SOL     OW31387   1.846   6.334   5.534
10163SOL    HW131388   1.903   6.304   5.611
10163SOL    HW231389   1.851   6.266   5.461
10164SOL     OW31390   1.476   2.750   2.999
10164SOL    HW131391   1.555   2.734   3.058
10164SOL    HW231392   1.429   2.664   2.981
10165SOL     OW31393   6.931   3.494   4.164
10165SOL    HW131394   6.832   3.503   4.154
10165SOL    HW231395   6.953   3.400   4.191
10166SOL     OW31396   2.701   0.539   2.026
10166SOL    HW131397   2.660   0.448   2.026
10166SOL    HW231398   2.729   0.563   1.933
10167SOL     OW31399   2.684   0.513   6.632
10167SOL    HW131400   2.774   0.483   6.664
10167SOL    HW231401   2.635   0.435   6.593
10168SOL     OW31402   7.012   1.038   6.825
10168SOL    HW131403   0.016   1.010   6.918
10168SOL    HW231404   6.977   0.960   6.775
10169SOL     OW31405   5.856   3.033   3.365
10169SOL    HW131406   5.844   3.123   3.407
10169SOL    HW231407   5.931   3.037   3.298
10170SOL     OW31408   5.809   5.451   6.480
10170SOL    HW131409   5.739   5.466   6.550
10170SOL    HW231410   5.899   5.472   6.519
10171SOL     OW31411   2.141   3.610   5.885
10171SOL    HW131412   2.125   3.589   5.981
10171SOL    HW231413   2.089   3.691   5.859
10172SOL     OW31414   6.345   0.356   3.100
10172SOL    HW131415   6.409   0.390   3.032
10172SOL    HW231416   6.278   0.296   3.055
10173SOL     OW31417   3.243   3.876   5.097
10173SOL    HW131418   3.244   3.947   5.167
10173SOL    HW231419   3.337   3.860   5.064
10174SOL     OW31420   4.178   5.591   3.230
10174SOL    HW131421   4.264   5.542   3.215
10174SOL    HW231422   4.102   5.540   3.190
10175SOL     OW31423   0.088   1.609   3.347
10175SOL    HW131424   0.059   1.545   3.276
10175SOL    HW231425   0.099   1.561   3.434
10176SOL     OW31426   6.762   1.367   5.991
10176SOL    HW131427   6.719   1.277   5.980
10176SOL    HW231428   6.753   1.418   5.906
10177SOL     OW31429   2.704   1.147   3.966
10177SOL    HW131430   2.623   1.108   3.922
10177SOL    HW231431   2.683   1.239   3.999
10178SOL     OW31432   1.611   2.333   0.828
10178SOL    HW131433   1.704   2.297   0.830
10178SOL    HW231434   1.551   2.269   0.778
10179SOL     OW31435   6.992   4.443   1.261
10179SOL    HW131436   0.025   4.361   1.279
10179SOL    HW231437   6.938   4.431   1.178
10180SOL     OW31438   4.573   0.004   5.591
10180SOL    HW131439   4.622   0.089   5.612
10180SOL    HW231440   4.506   0.022   5.519
10181SOL     OW31441   6.428   3.238   2.302
10181SOL    HW131442   6.524   3.251   2.328
10181SOL    HW231443   6.415   3.147   2.263
10182SOL     OW31444   5.828   2.253   0.358
10182SOL    HW131445   5.803   2.349   0.365
10182SOL    HW231446   5.761   2.197   0.408
10183SOL     OW31447   5.631   1.765   6.624
10183SOL    HW131448   5.649   1.809   6.712
10183SOL    HW231449   5.607   1.669   6.638
10184SOL     OW31450   5.967   2.552   5.889
10184SOL    HW131451   5.871   2.563   5.863
10184SOL    HW231452   6.019   2.520   5.810
10185SOL     OW31453   3.641   5.819   1.812
10185SOL    HW131454   3.565   5.786   1.757
10185SOL    HW231455   3.623   5.914   1.840
10186SOL     OW31456   3.637   3.562   5.804
10186SOL    HW131457   3.610   3.655   5.826
10186SOL    HW231458   3.556   3.504   5.796
10187SOL     OW31459   1.947   4.715   6.562
10187SOL    HW131460   1.889   4.643   6.600
10187SOL    HW231461   1.927   4.801   6.607
10188SOL     OW31462   3.399   0.427   6.498
10188SOL    HW131463   3.359   0.513   6.469
10188SOL    HW231464   3.406   0.425   6.598
10189SOL     OW31465   1.070   2.092   6.491
10189SOL    HW131466   1.108   2.026   6.427
10189SOL    HW231467   1.009   2.155   6.442
10190SOL     OW31468   4.027   5.525   2.027
10190SOL    HW131469   4.097   5.481   1.971
10190SOL    HW231470   3.970   5.455   2.070
10191SOL     OW31471   6.071   6.296   6.778
10191SOL    HW131472   6.017   6.379   6.790
10191SOL    HW231473   6.051   6.232   6.853
10192SOL     OW31474   1.911   1.625   4.387
10192SOL    HW131475   1.849   1.687   4.434
10192SOL    HW231476   2.006   1.656   4.399
10193SOL     OW31477   3.411   3.491   3.454
10193SOL    HW131478   3.497   3.513   3.501
10193SOL    HW231479   3.335   3.501   3.518
10194SOL     OW31480   2.936   0.560   3.089
10194SOL    HW131481   3.017   0.589   3.039
10194SOL    HW231482   2.854   0.590   3.040
10195SOL     OW31483   3.777   6.413   2.040
10195SOL    HW131484   3.713   6.451   2.107
10195SOL    HW231485   3.733   6.407   1.951
10196SOL     OW31486   6.081   2.096   3.521
10196SOL    HW131487   6.081   2.098   3.421
10196SOL    HW231488   5.987   2.103   3.554
10197SOL     OW31489   5.907   0.262   1.506
10197SOL    HW131490   5.991   0.222   1.543
10197SOL    HW231491   5.885   0.345   1.556
10198SOL     OW31492   2.697   0.202   0.890
10198SOL    HW131493   2.732   0.125   0.945
10198SOL    HW231494   2.751   0.284   0.910
10199SOL     OW31495   1.279   1.248   0.385
10199SOL    HW131496   1.327   1.333   0.405
10199SOL    HW231497   1.188   1.251   0.426
10200SOL     OW31498   4.756   4.188   4.363
10200SOL    HW131499   4.697   4.253   4.412
10200SOL    HW231500   4.774   4.109   4.422
10201SOL     OW31501   1.471   4.633   2.769
10201SOL    HW131502   1.493   4.566   2.698
10201SOL    HW231503   1.550   4.693   2.782
10202SOL     OW31504   0.956   3.400   2.541
10202SOL    HW131505   1.010   3.376   2.459
10202SOL    HW231506   1.018   3.430   2.613
10203SOL     OW31507   1.813   3.280   2.447
10203SOL    HW131508   1.799   3.373   2.481
10203SOL    HW231509   1.911   3.262   2.441
10204SOL     OW31510   3.203   4.883   5.282
10204SOL    HW131511   3.127   4.826   5.313
10204SOL    HW231512   3.219   4.867   5.184
10205SOL     OW31513   4.686   1.284   3.025
10205SOL    HW131514   4.624   1.328   2.959
10205SOL    HW231515   4.641   1.205   3.065
10206SOL     OW31516   5.232   6.757   6.806
10206SOL    HW131517   5.175   6.682   6.840
10206SOL    HW231518   5.174   6.835   6.784
10207SOL     OW31519   4.182   0.871   2.987
10207SOL    HW131520   4.195   0.970   2.984
10207SOL    HW231521   4.178   0.835   2.894
10208SOL     OW31522   6.022   3.869   5.167
10208SOL    HW131523   5.995   3.860   5.262
10208SOL    HW231524   5.941   3.881   5.110
10209SOL     OW31525   5.905   0.363   6.259
10209SOL    HW131526   5.980   0.429   6.255
10209SOL    HW231527   5.903   0.319   6.349
10210SOL     OW31528   4.944   5.677   2.021
10210SOL    HW131529   4.968   5.604   2.084
10210SOL    HW231530   4.994   5.761   2.045
10211SOL     OW31531   4.112   5.482   5.532
10211SOL    HW131532   4.090   5.411   5.465
10211SOL    HW231533   4.066   5.567   5.507
10212SOL     OW31534   0.073   0.356   5.454
10212SOL    HW131535   0.096   0.434   5.395
10212SOL    HW231536   7.008   0.376   5.503
10213SOL     OW31537   6.407   1.412   2.763
10213SOL    HW131538   6.498   1.372   2.753
10213SOL    HW231539   6.349   1.385   2.686
10214SOL     OW31540   0.053   0.966   1.851
10214SOL    HW131541   0.152   0.970   1.836
10214SOL    HW231542   0.022   0.871   1.847
10215SOL     OW31543   4.056   3.981   6.709
10215SOL    HW131544   4.038   4.031   6.793
10215SOL    HW231545   3.986   4.004   6.641
10216SOL     OW31546   5.364   0.126   1.489
10216SOL    HW131547   5.436   0.112   1.557
10216SOL    HW231548   5.276   0.134   1.536
10217SOL     OW31549   2.393   2.015   4.663
10217SOL    HW131550   2.463   2.082   4.640
10217SOL    HW231551   2.423   1.962   4.743
10218SOL     OW31552   2.483   1.219   0.852
10218SOL    HW131553   2.513   1.304   0.810
10218SOL    HW231554   2.486   1.228   0.952
10219SOL     OW31555   1.151   3.528   0.421
10219SOL    HW131556   1.147   3.483   0.511
10219SOL    HW231557   1.126   3.624   0.431
10220SOL     OW31558   4.525   1.953   0.944
10220SOL    HW131559   4.548   2.017   1.017
10220SOL    HW231560   4.432   1.971   0.912
10221SOL     OW31561   2.999   0.021   5.269
10221SOL    HW131562   3.092   7.007   5.256
10221SOL    HW231563   2.997   0.085   5.346
10222SOL     OW31564   1.732   5.636   5.661
10222SOL    HW131565   1.820   5.621   5.615
10222SOL    HW231566   1.679   5.552   5.660
10223SOL     OW31567   0.643   4.311   0.506
10223SOL    HW131568   0.730   4.318   0.456
10223SOL    HW231569   0.633   4.219   0.543
10224SOL     OW31570   1.461   0.133   4.072
10224SOL    HW131571   1.391   0.064   4.052
10224SOL    HW231572   1.474   0.140   4.171
10225SOL     OW31573   6.578   5.741   4.495
10225SOL    HW131574   6.553   5.768   4.588
10225SOL    HW231575   6.618   5.818   4.446
10226SOL     OW31576   1.751   1.662   0.057
10226SOL    HW131577   1.753   1.591   0.127
10226SOL    HW231578   1.785   1.625   6.991
10227SOL     OW31579   5.419   4.729   6.857
10227SOL    HW131580   5.430   4.729   6.956
10227SOL    HW231581   5.447   4.641   6.820
10228SOL     OW31582   0.633   5.378   2.934
10228SOL    HW131583   0.699   5.448   2.960
10228SOL    HW231584   0.587   5.405   2.849
10229SOL     OW31585   1.406   0.283   2.774
10229SOL    HW131586   1.408   0.227   2.690
10229SOL    HW231587   1.364   0.371   2.754
10230SOL     OW31588   6.319   0.832   3.751
10230SOL    HW131589   6.387   0.878   3.808
10230SOL    HW231590   6.296   0.744   3.791
10231SOL     OW31591   5.378   6.490   4.957
10231SOL    HW131592   5.371   6.579   4.912
10231SOL    HW231593   5.397   6.503   5.054
10232SOL     OW31594   3.263   2.049   5.025
10232SOL    HW131595   3.307   2.033   4.937
10232SOL    HW231596   3.231   2.143   5.031
10233SOL     OW31597   4.946   1.536   5.793
10233SOL    HW131598   5.007   1.581   5.858
10233SOL    HW231599   4.857   1.582   5.794
10234SOL     OW31600   4.977   6.606   1.995
10234SOL    HW131601   4.916   6.572   2.065
10234SOL    HW231602   5.004   6.530   1.934
10235SOL     OW31603   5.968   1.192   6.774
10235SOL    HW131604   5.931   1.239   6.853
10235SOL    HW231605   5.980   1.095   6.795
10236SOL     OW31606   2.429   5.619   1.929
10236SOL    HW131607   2.337   5.657   1.921
10236SOL    HW231608   2.428   5.522   1.907
10237SOL     OW31609   5.861   3.268   2.293
10237SOL    HW131610   5.779   3.218   2.266
10237SOL    HW231611   5.925   3.204   2.337
10238SOL     OW31612   4.937   4.749   4.613
10238SOL    HW131613   5.036   4.748   4.624
10238SOL    HW231614   4.894   4.742   4.703
10239SOL     OW31615   0.197   4.008   4.515
10239SOL    HW131616   0.228   3.918   4.484
10239SOL    HW231617   0.276   4.065   4.538
10240SOL     OW31618   6.853   4.446   3.972
10240SOL    HW131619   6.861   4.403   4.062
10240SOL    HW231620   6.859   4.545   3.981
10241SOL     OW31621   1.811   0.927   2.296
10241SOL    HW131622   1.850   0.878   2.374
10241SOL    HW231623   1.879   0.992   2.261
10242SOL     OW31624   7.009   6.918   6.158
10242SOL    HW131625   6.916   6.888   6.178
10242SOL    HW231626   0.013   6.994   6.218
10243SOL     OW31627   1.422   5.688   1.322
10243SOL    HW131628   1.446   5.785   1.316
10243SOL    HW231629   1.390   5.656   1.233
10244SOL     OW31630   2.033   5.987   0.046
10244SOL    HW131631   2.029   5.917   6.995
10244SOL    HW231632   1.990   6.071   0.013
10245SOL     OW31633   2.654   2.328   6.856
10245SOL    HW131634   2.642   2.427   6.866
10245SOL    HW231635   2.708   2.294   6.933
10246SOL     OW31636   3.103   4.001   4.409
10246SOL    HW131637   3.043   4.077   4.386
10246SOL    HW231638   3.078   3.964   4.498
10247SOL     OW31639   0.474   3.961   5.471
10247SOL    HW131640   0.407   4.018   5.520
10247SOL    HW231641   0.566   3.985   5.501
10248SOL     OW31642   3.675   0.374   1.747
10248SOL    HW131643   3.594   0.426   1.775
10248SOL    HW231644   3.662   0.277   1.768
10249SOL     OW31645   5.278   0.955   6.065
10249SOL    HW131646   5.353   0.910   6.114
10249SOL    HW231647   5.223   1.008   6.130
10250SOL     OW31648   6.280   0.993   0.125
10250SOL    HW131649   6.261   0.895   0.135
10250SOL    HW231650   6.311   1.011   0.031
10251SOL     OW31651   2.542   3.841   6.747
10251SOL    HW131652   2.607   3.832   6.671
10251SOL    HW231653   2.454   3.872   6.712
10252SOL     OW31654   6.693   5.405   1.896
10252SOL    HW131655   6.652   5.348   1.825
10252SOL    HW231656   6.624   5.422   1.968
10253SOL     OW31657   4.216   5.406   6.855
10253SOL    HW131658   4.155   5.482   6.832
10253SOL    HW231659   4.311   5.438   6.852
10254SOL     OW31660   2.261   2.290   5.126
10254SOL    HW131661   2.264   2.310   5.224
10254SOL    HW231662   2.293   2.369   5.075
10255SOL     OW31663   3.042   6.045   2.659
10255SOL    HW131664   3.068   6.138   2.687
10255SOL    HW231665   3.079   5.979   2.725
10256SOL     OW31666   5.893   0.009   6.714
10256SOL    HW131667   5.956   0.064   6.768
10256SOL    HW231668   5.809   7.013   6.766
10257SOL     OW31669   1.132   5.328   5.646
10257SOL    HW131670   1.209   5.392   5.654
10257SOL    HW231671   1.140   5.275   5.561
10258SOL     OW31672   3.984   6.984   3.271
10258SOL    HW131673   4.066   6.933   3.245
10258SOL    HW231674   4.011   0.051   3.312
10259SOL     OW31675   6.764   3.904   3.428
10259SOL    HW131676   6.668   3.929   3.441
10259SOL    HW231677   6.778   3.811   3.461
10260SOL     OW31678   0.988   0.309   2.026
10260SOL    HW131679   1.045   0.232   2.052
10260SOL    HW231680   1.016   0.344   1.936
10261SOL     OW31681   0.939   5.408   2.359
10261SOL    HW131682   1.035   5.434   2.370
10261SOL    HW231683   0.883   5.461   2.423
10262SOL     OW31684   2.064   4.529   4.782
10262SOL    HW131685   2.050   4.473   4.863
10262SOL    HW231686   2.135   4.487   4.724
10263SOL     OW31687   6.143   1.594   5.469
10263SOL    HW131688   6.159   1.599   5.568
10263SOL    HW231689   6.046   1.575   5.452
10264SOL     OW31690   0.036   0.458   6.099
10264SOL    HW131691   7.016   0.459   6.190
10264SOL    HW231692   0.100   0.535   6.090
10265SOL     OW31693   3.736   1.496   2.486
10265SOL    HW131694   3.811   1.457   2.540
10265SOL    HW231695   3.650   1.451   2.510
10266SOL     OW31696   3.029   4.019   6.331
10266SOL    HW131697   3.082   4.066   6.259
10266SOL    HW231698   3.035   3.920   6.317
10267SOL     OW31699   0.091   1.828   6.481
10267SOL    HW131700   0.107   1.730   6.469
10267SOL    HW231701   0.171   1.879   6.450
10268SOL     OW31702   5.210   6.181   1.834
10268SOL    HW131703   5.277   6.195   1.761
10268SOL    HW231704   5.181   6.085   1.835
10269SOL     OW31705   2.678   2.626   6.396
10269SOL    HW131706   2.615   2.557   6.358
10269SOL    HW231707   2.628   2.710   6.414
10270SOL     OW31708   1.587   5.927   0.403
10270SOL    HW131709   1.492   5.901   0.385
10270SOL    HW231710   1.591   5.986   0.483
10271SOL     OW31711   4.557   4.542   1.574
10271SOL    HW131712   4.641   4.533   1.520
10271SOL    HW231713   4.502   4.617   1.539
10272SOL     OW31714   0.818   1.315   5.799
10272SOL    HW131715   0.895   1.337   5.860
10272SOL    HW231716   0.740   1.286   5.854
10273SOL     OW31717   4.196   5.391   4.980
10273SOL    HW131718   4.220   5.488   4.975
10273SOL    HW231719   4.127   5.369   4.911
10274SOL     OW31720   0.771   5.061   5.433
10274SOL    HW131721   0.720   5.135   5.389
10274SOL    HW231722   0.798   5.090   5.525
10275SOL     OW31723   1.270   6.326   2.698
10275SOL    HW131724   1.194   6.355   2.641
10275SOL    HW231725   1.340   6.398   2.700
10276SOL     OW31726   6.268   5.602   5.876
10276SOL    HW131727   6.340   5.637   5.815
10276SOL    HW231728   6.247   5.670   5.945
10277SOL     OW31729   2.748   6.518   4.560
10277SOL    HW131730   2.773   6.596   4.617
10277SOL    HW231731   2.826   6.489   4.506
10278SOL     OW31732   6.342   0.653   5.944
10278SOL    HW131733   6.407   0.649   6.020
10278SOL    HW231734   6.332   0.748   5.913
10279SOL     OW31735   3.426   6.708   4.075
10279SOL    HW131736   3.445   6.689   3.978
10279SOL    HW231737   3.343   6.764   4.082
10280SOL     OW31738   1.920   4.466   0.139
10280SOL    HW131739   1.911   4.511   0.228
10280SOL    HW231740   1.937   4.369   0.152
10281SOL     OW31741   4.562   0.752   3.624
10281SOL    HW131742   4.551   0.851   3.613
10281SOL    HW231743   4.477   0.712   3.658
10282SOL     OW31744   1.201   1.993   4.436
10282SOL    HW131745   1.258   2.014   4.357
10282SOL    HW231746   1.160   2.077   4.471
10283SOL     OW31747   1.548   3.850   0.194
10283SOL    HW131748   1.497   3.822   0.275
10283SOL    HW231749   1.486   3.854   0.116
10284SOL     OW31750   5.756   2.783   5.498
10284SOL    HW131751   5.656   2.787   5.493
10284SOL    HW231752   5.790   2.711   5.437
10285SOL     OW31753   5.848   0.154   0.711
10285SOL    HW131754   5.789   0.073   0.702
10285SOL    HW231755   5.888   0.155   0.803
10286SOL     OW31756   4.063   0.173   3.514
10286SOL    HW131757   3.987   0.231   3.485
10286SOL    HW231758   4.029   0.100   3.572
10287SOL     OW31759   1.748   6.598   1.897
10287SOL    HW131760   1.727   6.604   1.994
10287SOL    HW231761   1.739   6.688   1.855
10288SOL     OW31762   6.216   6.425   3.512
10288SOL    HW131763   6.156   6.503   3.500
10288SOL    HW231764   6.311   6.455   3.516
10289SOL     OW31765   3.511   1.301   1.749
10289SOL    HW131766   3.563   1.295   1.834
10289SOL    HW231767   3.568   1.266   1.674
10290SOL     OW31768   4.100   3.404   2.655
10290SOL    HW131769   4.148   3.322   2.622
10290SOL    HW231770   4.035   3.379   2.726
10291SOL     OW31771   3.085   0.871   5.159
10291SOL    HW131772   3.142   0.789   5.156
10291SOL    HW231773   3.134   0.945   5.205
10292SOL     OW31774   0.870   1.095   4.438
10292SOL    HW131775   0.801   1.094   4.366
10292SOL    HW231776   0.931   1.173   4.425
10293SOL     OW31777   2.211   6.290   3.197
10293SOL    HW131778   2.289   6.265   3.140
10293SOL    HW231779   2.243   6.341   3.277
10294SOL     OW31780   5.603   1.623   3.621
10294SOL    HW131781   5.610   1.624   3.721
10294SOL    HW231782   5.695   1.612   3.582
10295SOL     OW31783   0.633   5.615   6.323
10295SOL    HW131784   0.611   5.518   6.316
10295SOL    HW231785   0.706   5.629   6.390
10296SOL     OW31786   6.802   3.049   0.282
10296SOL    HW131787   6.762   2.971   0.234
10296SOL    HW231788   6.772   3.048   0.378
10297SOL     OW31789   1.461   5.106   4.731
10297SOL    HW131790   1.362   5.103   4.736
10297SOL    HW231791   1.500   5.070   4.816
10298SOL     OW31792   4.975   3.512   3.758
10298SOL    HW131793   4.956   3.490   3.662
10298SOL    HW231794   4.930   3.446   3.817
10299SOL     OW31795   4.834   4.249   2.917
10299SOL    HW131796   4.921   4.226   2.875
10299SOL    HW231797   4.834   4.346   2.945
10300SOL     OW31798   0.844   4.179   2.827
10300SOL    HW131799   0.939   4.147   2.827
10300SOL    HW231800   0.839   4.266   2.877
10301SOL     OW31801   5.458   1.796   1.169
10301SOL    HW131802   5.433   1.810   1.265
10301SOL    HW231803   5.396   1.729   1.128
10302SOL     OW31804   1.217   5.812   2.901
10302SOL    HW131805   1.279   5.858   2.838
10302SOL    HW231806   1.251   5.720   2.920
10303SOL     OW31807   3.786   3.763   1.611
10303SOL    HW131808   3.838   3.844   1.640
10303SOL    HW231809   3.796   3.691   1.679
10304SOL     OW31810   0.119   6.994   2.371
10304SOL    HW131811   0.092   6.993   2.275
10304SOL    HW231812   0.044   0.007   2.427
10305SOL     OW31813   1.020   5.641   0.894
10305SOL    HW131814   1.039   5.602   0.984
10305SOL    HW231815   1.059   5.583   0.823
10306SOL     OW31816   4.471   6.354   0.863
10306SOL    HW131817   4.480   6.347   0.962
10306SOL    HW231818   4.532   6.287   0.820
10307SOL     OW31819   1.926   1.137   5.879
10307SOL    HW131820   1.973   1.218   5.914
10307SOL    HW231821   1.828   1.147   5.892
10308SOL     OW31822   3.123   6.056   3.261
10308SOL    HW131823   3.043   5.997   3.262
10308SOL    HW231824   3.096   6.150   3.282
10309SOL     OW31825   6.794   6.362   2.897
10309SOL    HW131826   6.819   6.280   2.947
10309SOL    HW231827   6.793   6.440   2.960
10310SOL     OW31828   3.260   4.094   3.334
10310SOL    HW131829   3.177   4.097   3.278
10310SOL    HW231830   3.340   4.106   3.275
10311SOL     OW31831   6.931   5.492   0.454
10311SOL    HW131832   7.018   5.526   0.490
10311SOL    HW231833   6.938   5.484   0.354
10312SOL     OW31834   2.283   4.429   0.697
10312SOL    HW131835   2.248   4.425   0.604
10312SOL    HW231836   2.370   4.381   0.703
10313SOL     OW31837   5.637   0.117   3.103
10313SOL    HW131838   5.640   0.053   3.180
10313SOL    HW231839   5.542   0.136   3.079
10314SOL     OW31840   6.582   6.548   1.235
10314SOL    HW131841   6.588   6.648   1.241
10314SOL    HW231842   6.630   6.517   1.153
10315SOL     OW31843   6.735   5.235   4.442
10315SOL    HW131844   6.784   5.193   4.365
10315SOL    HW231845   6.801   5.258   4.514
10316SOL     OW31846   6.987   4.533   3.739
10316SOL    HW131847   6.957   4.475   3.815
10316SOL    HW231848   0.066   4.536   3.737
10317SOL     OW31849   3.968   5.144   0.471
10317SOL    HW131850   4.037   5.155   0.401
10317SOL    HW231851   3.925   5.233   0.489
10318SOL     OW31852   5.716   5.514   2.005
10318SOL    HW131853   5.695   5.607   1.975
10318SOL    HW231854   5.695   5.450   1.931
10319SOL     OW31855   5.626   6.254   3.317
10319SOL    HW131856   5.575   6.340   3.311
10319SOL    HW231857   5.723   6.273   3.332
10320SOL     OW31858   6.929   6.690   1.397
10320SOL    HW131859   6.920   6.729   1.306
10320SOL    HW231860   6.849   6.635   1.418
10321SOL     OW31861   4.431   5.340   4.023
10321SOL    HW131862   4.454   5.249   3.987
10321SOL    HW231863   4.515   5.390   4.044
10322SOL     OW31864   6.473   3.885   0.612
10322SOL    HW131865   6.551   3.931   0.570
10322SOL    HW231866   6.465   3.914   0.707
10323SOL     OW31867   5.250   2.609   5.605
10323SOL    HW131868   5.152   2.621   5.621
10323SOL    HW231869   5.272   2.512   5.599
10324SOL     OW31870   3.226   3.051   3.448
10324SOL    HW131871   3.168   3.062   3.528
10324SOL    HW231872   3.308   3.108   3.458
10325SOL     OW31873   0.646   2.902   2.729
10325SOL    HW131874   0.582   2.978   2.743
10325SOL    HW231875   0.594   2.818   2.714
10326SOL     OW31876   5.791   1.926   0.939
10326SOL    HW131877   5.813   1.992   0.867
10326SOL    HW231878   5.717   1.866   0.907
10327SOL     OW31879   0.340   1.156   3.127
10327SOL    HW131880   0.427   1.112   3.107
10327SOL    HW231881   0.355   1.252   3.148
10328SOL     OW31882   5.805   2.853   1.962
10328SOL    HW131883   5.846   2.887   2.047
10328SOL    HW231884   5.869   2.867   1.887
10329SOL     OW31885   3.047   6.843   2.704
10329SOL    HW131886   3.111   6.811   2.634
10329SOL    HW231887   3.034   6.771   2.772
10330SOL     OW31888   3.794   5.211   1.747
10330SOL    HW131889   3.737   5.132   1.725
10330SOL    HW231890   3.888   5.180   1.763
10331SOL     OW31891   6.103   0.525   3.436
10331SOL    HW131892   6.166   0.457   3.398
10331SOL    HW231893   6.143   0.566   3.517
10332SOL     OW31894   6.812   2.545   5.887
10332SOL    HW131895   6.880   2.567   5.956
10332SOL    HW231896   6.801   2.622   5.824
10333SOL     OW31897   5.306   5.060   4.371
10333SOL    HW131898   5.302   5.150   4.329
10333SOL    HW231899   5.375   5.004   4.325
10334SOL     OW31900   1.839   4.901   4.215
10334SOL    HW131901   1.935   4.883   4.240
10334SOL    HW231902   1.828   4.998   4.194
10335SOL     OW31903   1.641   5.144   1.565
10335SOL    HW131904   1.554   5.163   1.518
10335SOL    HW231905   1.658   5.216   1.632
10336SOL     OW31906   3.907   6.540   2.734
10336SOL    HW131907   3.957   6.616   2.775
10336SOL    HW231908   3.948   6.517   2.646
10337SOL     OW31909   0.818   4.334   4.881
10337SOL    HW131910   0.849   4.324   4.976
10337SOL    HW231911   0.889   4.379   4.827
10338SOL     OW31912   2.817   6.087   3.098
10338SOL    HW131913   2.791   6.108   3.192
10338SOL    HW231914   2.739   6.047   3.050
10339SOL     OW31915   2.647   5.924   1.264
10339SOL    HW131916   2.592   5.956   1.186
10339SOL    HW231917   2.733   5.976   1.267
10340SOL     OW31918   2.024   0.159   0.680
10340SOL    HW131919   2.064   0.197   0.764
10340SOL    HW231920   1.947   0.216   0.650
10341SOL     OW31921   2.127   1.841   2.841
10341SOL    HW131922   2.225   1.858   2.831
10341SOL    HW231923   2.103   1.755   2.796
10342SOL     OW31924   2.706   6.883   4.973
10342SOL    HW131925   2.665   6.903   5.062
10342SOL    HW231926   2.710   6.967   4.919
10343SOL     OW31927   2.185   3.464   5.184
10343SOL    HW131928   2.116   3.434   5.250
10343SOL    HW231929   2.162   3.427   5.094
10344SOL     OW31930   3.717   4.385   5.360
10344SOL    HW131931   3.684   4.301   5.318
10344SOL    HW231932   3.814   4.398   5.337
10345SOL     OW31933   2.261   1.235   6.384
10345SOL    HW131934   2.216   1.273   6.464
10345SOL    HW231935   2.193   1.216   6.313
10346SOL     OW31936   5.366   5.650   0.131
10346SOL    HW131937   5.357   5.681   0.037
10346SOL    HW231938   5.359   5.728   0.193
10347SOL     OW31939   5.461   1.566   1.993
10347SOL    HW131940   5.500   1.482   1.955
10347SOL    HW231941   5.418   1.546   2.082
10348SOL     OW31942   0.597   6.433   5.434
10348SOL    HW131943   0.591   6.533   5.427
10348SOL    HW231944   0.675   6.400   5.381
10349SOL     OW31945   0.065   1.839   0.778
10349SOL    HW131946   0.031   1.920   0.729
10349SOL    HW231947   7.011   1.772   0.788
10350SOL     OW31948   2.484   5.200   4.940
10350SOL    HW131949   2.431   5.128   4.984
10350SOL    HW231950   2.476   5.192   4.841
10351SOL     OW31951   5.112   4.356   4.836
10351SOL    HW131952   5.189   4.419   4.843
10351SOL    HW231953   5.094   4.315   4.925
10352SOL     OW31954   6.065   2.094   0.383
10352SOL    HW131955   5.984   2.145   0.357
10352SOL    HW231956   6.147   2.146   0.359
10353SOL     OW31957   6.758   2.944   3.961
10353SOL    HW131958   6.757   3.016   3.891
10353SOL    HW231959   6.830   2.878   3.939
10354SOL     OW31960   0.538   3.255   0.648
10354SOL    HW131961   0.507   3.216   0.561
10354SOL    HW231962   0.535   3.184   0.718
10355SOL     OW31963   1.308   0.864   0.834
10355SOL    HW131964   1.370   0.914   0.894
10355SOL    HW231965   1.220   0.911   0.829
10356SOL     OW31966   6.282   3.812   6.382
10356SOL    HW131967   6.367   3.842   6.426
10356SOL    HW231968   6.207   3.816   6.448
10357SOL     OW31969   1.230   2.699   6.086
10357SOL    HW131970   1.229   2.665   5.992
10357SOL    HW231971   1.269   2.791   6.088
10358SOL     OW31972   0.756   2.506   2.193
10358SOL    HW131973   0.789   2.412   2.186
10358SOL    HW231974   0.832   2.567   2.216
10359SOL     OW31975   5.855   1.553   2.282
10359SOL    HW131976   5.797   1.477   2.313
10359SOL    HW231977   5.840   1.632   2.341
10360SOL     OW31978   5.934   4.093   1.810
10360SOL    HW131979   5.880   4.029   1.865
10360SOL    HW231980   5.982   4.043   1.738
10361SOL     OW31981   0.585   1.684   1.518
10361SOL    HW131982   0.523   1.638   1.581
10361SOL    HW231983   0.680   1.659   1.541
10362SOL     OW31984   1.282   4.887   2.133
10362SOL    HW131985   1.281   4.787   2.129
10362SOL    HW231986   1.327   4.923   2.052
10363SOL     OW31987   5.085   4.565   0.174
10363SOL    HW131988   5.159   4.565   0.241
10363SOL    HW231989   5.100   4.492   0.108
10364SOL     OW31990   5.985   4.526   2.415
10364SOL    HW131991   5.992   4.547   2.512
10364SOL    HW231992   6.039   4.592   2.363
10365SOL     OW31993   6.507   5.938   0.518
10365SOL    HW131994   6.440   5.929   0.591
10365SOL    HW231995   6.524   6.035   0.500
10366SOL     OW31996   2.603   6.311   3.377
10366SOL    HW131997   2.553   6.273   3.455
10366SOL    HW231998   2.558   6.286   3.292
10367SOL     OW31999   5.850   1.573   1.018
10367SOL    HW132000   5.857   1.605   0.924
10367SOL    HW232001   5.765   1.521   1.030
10368SOL     OW32002   1.850   5.931   2.280
10368SOL    HW132003   1.829   5.836   2.303
10368SOL    HW232004   1.886   5.936   2.187
10369SOL     OW32005   3.410   0.205   5.846
10369SOL    HW132006   3.489   0.150   5.818
10369SOL    HW232007   3.430   0.302   5.832
10370SOL     OW32008   0.821   1.298   5.425
10370SOL    HW132009   0.799   1.213   5.474
10370SOL    HW232010   0.739   1.354   5.417
10371SOL     OW32011   3.578   5.176   3.399
10371SOL    HW132012   3.592   5.268   3.363
10371SOL    HW232013   3.607   5.172   3.494
10372SOL     OW32014   2.802   6.409   1.627
10372SOL    HW132015   2.760   6.398   1.717
10372SOL    HW232016   2.745   6.363   1.558
10373SOL     OW32017   0.633   1.901   5.392
10373SOL    HW132018   0.715   1.846   5.378
10373SOL    HW232019   0.633   1.979   5.328
10374SOL     OW32020   3.380   6.348   4.720
10374SOL    HW132021   3.331   6.411   4.779
10374SOL    HW232022   3.315   6.299   4.661
10375SOL     OW32023   2.594   3.762   0.458
10375SOL    HW132024   2.631   3.681   0.412
10375SOL    HW232025   2.505   3.786   0.418
10376SOL     OW32026   2.037   4.652   2.939
10376SOL    HW132027   2.029   4.696   2.850
10376SOL    HW232028   1.952   4.664   2.990
10377SOL     OW32029   1.298   0.914   3.220
10377SOL    HW132030   1.261   0.831   3.261
10377SOL    HW232031   1.311   0.984   3.290
10378SOL     OW32032   0.109   4.423   4.470
10378SOL    HW132033   0.095   4.328   4.497
10378SOL    HW232034   0.044   4.447   4.397
10379SOL     OW32035   1.733   6.204   4.574
10379SOL    HW132036   1.718   6.169   4.481
10379SOL    HW232037   1.659   6.268   4.597
10380SOL     OW32038   2.103   2.869   4.678
10380SOL    HW132039   2.069   2.790   4.626
10380SOL    HW232040   2.025   2.918   4.718
10381SOL     OW32041   4.113   4.761   2.220
10381SOL    HW132042   4.108   4.661   2.227
10381SOL    HW232043   4.072   4.802   2.301
10382SOL     OW32044   3.439   5.721   1.656
10382SOL    HW132045   3.400   5.710   1.565
10382SOL    HW232046   3.440   5.633   1.703
10383SOL     OW32047   2.145   4.332   0.471
10383SOL    HW132048   2.078   4.287   0.530
10383SOL    HW232049   2.204   4.263   0.429
10384SOL     OW32050   6.000   6.088   1.825
10384SOL    HW132051   6.027   6.120   1.916
10384SOL    HW232052   5.936   6.153   1.784
10385SOL     OW32053   3.712   4.465   6.883
10385SOL    HW132054   3.649   4.389   6.866
10385SOL    HW232055   3.797   4.449   6.831
10386SOL     OW32056   0.164   0.671   0.373
10386SOL    HW132057   0.124   0.707   0.289
10386SOL    HW232058   0.113   0.706   0.452
10387SOL     OW32059   4.877   3.116   2.346
10387SOL    HW132060   4.795   3.093   2.293
10387SOL    HW232061   4.882   3.215   2.358
10388SOL     OW32062   2.938   0.404   5.949
10388SOL    HW132063   3.027   0.446   5.971
10388SOL    HW232064   2.866   0.449   6.003
10389SOL     OW32065   1.098   3.130   0.828
10389SOL    HW132066   1.067   3.047   0.784
10389SOL    HW232067   1.138   3.192   0.760
10390SOL     OW32068   3.340   2.748   1.312
10390SOL    HW132069   3.352   2.825   1.250
10390SOL    HW232070   3.413   2.681   1.296
10391SOL     OW32071   6.015   6.230   4.231
10391SOL    HW132072   6.078   6.154   4.218
10391SOL    HW232073   6.066   6.315   4.240
10392SOL     OW32074   6.519   4.958   4.009
10392SOL    HW132075   6.488   4.864   3.996
10392SOL    HW232076   6.518   4.980   4.107
10393SOL     OW32077   1.885   3.947   4.027
10393SOL    HW132078   1.885   4.047   4.029
10393SOL    HW232079   1.811   3.913   4.085
10394SOL     OW32080   2.974   5.745   4.396
10394SOL    HW132081   2.997   5.752   4.299
10394SOL    HW232082   2.904   5.675   4.409
10395SOL     OW32083   0.078   0.026   0.432
10395SOL    HW132084   0.142   6.971   0.448
10395SOL    HW232085   0.037   0.055   0.518
10396SOL     OW32086   2.804   1.439   4.709
10396SOL    HW132087   2.810   1.374   4.633
10396SOL    HW232088   2.843   1.399   4.791
10397SOL     OW32089   3.206   2.061   2.779
10397SOL    HW132090   3.118   2.109   2.778
10397SOL    HW232091   3.213   2.004   2.697
10398SOL     OW32092   0.194   3.125   1.840
10398SOL    HW132093   0.104   3.157   1.811
10398SOL    HW232094   0.188   3.029   1.867
10399SOL     OW32095   6.642   3.009   2.005
10399SOL    HW132096   6.585   2.981   1.927
10399SOL    HW232097   6.597   2.984   2.090
10400SOL     OW32098   4.280   6.821   0.470
10400SOL    HW132099   4.376   6.821   0.496
10400SOL    HW232100   4.260   6.740   0.416
10401SOL     OW32101   6.649   0.648   4.429
10401SOL    HW132102   6.731   0.612   4.475
10401SOL    HW232103   6.677   0.704   4.351
10402SOL     OW32104   6.577   2.728   4.320
10402SOL    HW132105   6.639   2.767   4.389
10402SOL    HW232106   6.489   2.707   4.363
10403SOL     OW32107   2.818   0.878   3.571
10403SOL    HW132108   2.879   0.875   3.492
10403SOL    HW232109   2.793   0.784   3.596
10404SOL     OW32110   6.709   0.025   6.129
10404SOL    HW132111   6.738   0.120   6.133
10404SOL    HW232112   6.610   0.021   6.111
10405SOL     OW32113   0.775   1.707   5.743
10405SOL    HW132114   0.787   1.730   5.646
10405SOL    HW232115   0.860   1.667   5.778
10406SOL     OW32116   3.119   5.068   1.608
10406SOL    HW132117   3.161   4.985   1.646
10406SOL    HW232118   3.076   5.046   1.520
10407SOL     OW32119   3.447   6.282   6.355
10407SOL    HW132120   3.524   6.256   6.413
10407SOL    HW232121   3.384   6.204   6.346
10408SOL     OW32122   5.090   0.820   0.409
10408SOL    HW132123   5.071   0.791   0.315
10408SOL    HW232124   5.189   0.819   0.425
10409SOL     OW32125   6.713   4.961   0.485
10409SOL    HW132126   6.718   5.056   0.452
10409SOL    HW232127   6.732   4.960   0.583
10410SOL     OW32128   5.488   1.688   7.009
10410SOL    HW132129   5.487   1.638   6.922
10410SOL    HW232130   5.408   1.748   7.013
10411SOL     OW32131   2.987   5.509   2.984
10411SOL    HW132132   3.052   5.497   3.059
10411SOL    HW232133   2.945   5.420   2.963
10412SOL     OW32134   6.019   1.209   0.440
10412SOL    HW132135   6.051   1.122   0.402
10412SOL    HW232136   6.097   1.270   0.454
10413SOL     OW32137   0.021   2.079   1.410
10413SOL    HW132138   0.069   2.079   1.497
10413SOL    HW232139   0.035   1.991   1.364
10414SOL     OW32140   4.608   3.580   5.867
10414SOL    HW132141   4.640   3.524   5.790
10414SOL    HW232142   4.685   3.626   5.910
10415SOL     OW32143   0.494   5.510   6.111
10415SOL    HW132144   0.541   5.562   6.182
10415SOL    HW232145   0.552   5.505   6.029
10416SOL     OW32146   5.765   1.856   3.805
10416SOL    HW132147   5.864   1.842   3.809
10416SOL    HW232148   5.731   1.836   3.713
10417SOL     OW32149   3.026   5.030   4.292
10417SOL    HW132150   3.062   5.013   4.384
10417SOL    HW232151   2.957   4.961   4.271
10418SOL     OW32152   6.990   4.768   5.695
10418SOL    HW132153   6.909   4.799   5.645
10418SOL    HW232154   0.040   4.839   5.692
10419SOL     OW32155   1.200   0.708   6.723
10419SOL    HW132156   1.202   0.807   6.733
10419SOL    HW232157   1.259   0.680   6.647
10420SOL     OW32158   0.423   3.362   2.599
10420SOL    HW132159   0.407   3.364   2.500
10420SOL    HW232160   0.515   3.396   2.619
10421SOL     OW32161   1.413   1.419   3.645
10421SOL    HW132162   1.393   1.515   3.663
10421SOL    HW232163   1.381   1.395   3.554
10422SOL     OW32164   6.637   2.247   5.559
10422SOL    HW132165   6.721   2.212   5.517
10422SOL    HW232166   6.559   2.197   5.522
10423SOL     OW32167   5.137   5.135   4.575
10423SOL    HW132168   5.039   5.122   4.558
10423SOL    HW232169   5.189   5.097   4.500
10424SOL     OW32170   5.156   1.952   6.783
10424SOL    HW132171   5.175   1.875   6.721
10424SOL    HW232172   5.239   1.976   6.833
10425SOL     OW32173   1.821   6.806   2.466
10425SOL    HW132174   1.762   6.735   2.505
10425SOL    HW232175   1.911   6.801   2.509
10426SOL     OW32176   0.185   3.986   0.731
10426SOL    HW132177   0.089   4.002   0.707
10426SOL    HW232178   0.204   3.888   0.732
10427SOL     OW32179   4.469   1.908   0.103
10427SOL    HW132180   4.560   1.874   0.124
10427SOL    HW232181   4.430   1.855   0.027
10428SOL     OW32182   3.407   1.200   4.758
10428SOL    HW132183   3.492   1.158   4.788
10428SOL    HW232184   3.396   1.289   4.801
10429SOL     OW32185   6.812   5.639   1.467
10429SOL    HW132186   6.797   5.627   1.369
10429SOL    HW232187   6.773   5.560   1.516
10430SOL     OW32188   4.641   0.458   3.453
10430SOL    HW132189   4.563   0.419   3.405
10430SOL    HW232190   4.611   0.539   3.504
10431SOL     OW32191   3.168   0.288   5.716
10431SOL    HW132192   3.141   0.223   5.645
10431SOL    HW232193   3.219   0.240   5.787
10432SOL     OW32194   5.997   1.026   4.013
10432SOL    HW132195   6.060   1.102   4.000
10432SOL    HW232196   5.961   0.996   3.924
10433SOL     OW32197   1.923   6.423   1.625
10433SOL    HW132198   1.898   6.520   1.627
10433SOL    HW232199   1.895   6.379   1.710
10434SOL     OW32200   3.409   0.301   3.260
10434SOL    HW132201   3.480   0.233   3.241
10434SOL    HW232202   3.320   0.266   3.232
10435SOL     OW32203   6.260   6.785   5.054
10435SOL    HW132204   6.350   6.788   5.097
10435SOL    HW232205   6.223   6.692   5.061
10436SOL     OW32206   0.335   4.993   4.757
10436SOL    HW132207   0.421   4.941   4.759
10436SOL    HW232208   0.308   5.016   4.851
10437SOL     OW32209   6.187   5.079   5.478
10437SOL    HW132210   6.191   5.019   5.558
10437SOL    HW232211   6.251   5.046   5.409
10438SOL     OW32212   5.263   6.460   0.142
10438SOL    HW132213   5.361   6.478   0.143
10438SOL    HW232214   5.237   6.410   0.224
10439SOL     OW32215   3.529   1.116   5.789
10439SOL    HW132216   3.598   1.186   5.807
10439SOL    HW232217   3.543   1.078   5.697
10440SOL     OW32218   0.575   6.510   1.123
10440SOL    HW132219   0.515   6.551   1.055
10440SOL    HW232220   0.524   6.443   1.177
10441SOL     OW32221   5.312   1.445   6.720
10441SOL    HW132222   5.323   1.532   6.671
10441SOL    HW232223   5.245   1.456   6.793
10442SOL     OW32224   3.476   5.272   5.880
10442SOL    HW132225   3.412   5.213   5.929
10442SOL    HW232226   3.540   5.314   5.945
10443SOL     OW32227   5.346   3.588   4.529
10443SOL    HW132228   5.364   3.635   4.442
10443SOL    HW232229   5.278   3.639   4.581
10444SOL     OW32230   3.845   5.246   4.802
10444SOL    HW132231   3.937   5.218   4.829
10444SOL    HW232232   3.807   5.179   4.738
10445SOL     OW32233   0.264   4.881   4.037
10445SOL    HW132234   0.274   4.783   4.018
10445SOL    HW232235   0.257   4.931   3.951
10446SOL     OW32236   0.732   4.219   6.725
10446SOL    HW132237   0.643   4.262   6.738
10446SOL    HW232238   0.789   4.277   6.666
10447SOL     OW32239   0.058   1.616   1.980
10447SOL    HW132240   0.034   1.633   1.885
10447SOL    HW232241   0.125   1.542   1.985
10448SOL     OW32242   4.396   3.512   1.078
10448SOL    HW132243   4.390   3.585   1.146
10448SOL    HW232244   4.490   3.480   1.071
10449SOL     OW32245   2.559   5.394   4.323
10449SOL    HW132246   2.657   5.394   4.345
10449SOL    HW232247   2.547   5.410   4.225
10450SOL     OW32248   0.030   2.684   6.719
10450SOL    HW132249   7.004   2.701   6.632
10450SOL    HW232250   0.108   2.623   6.703
10451SOL     OW32251   2.470   4.523   2.528
10451SOL    HW132252   2.523   4.440   2.548
10451SOL    HW232253   2.428   4.556   2.612
10452SOL     OW32254   0.311   3.384   3.439
10452SOL    HW132255   0.305   3.294   3.396
10452SOL    HW232256   0.292   3.375   3.537
10453SOL     OW32257   5.643   5.948   1.763
10453SOL    HW132258   5.626   5.948   1.664
10453SOL    HW232259   5.609   6.033   1.803
10454SOL     OW32260   5.207   3.195   1.782
10454SOL    HW132261   5.295   3.167   1.743
10454SOL    HW232262   5.153   3.241   1.712
10455SOL     OW32263   0.525   5.256   3.750
10455SOL    HW132264   0.473   5.171   3.743
10455SOL    HW232265   0.463   5.334   3.745
10456SOL     OW32266   2.900   6.054   1.299
10456SOL    HW132267   2.950   6.093   1.222
10456SOL    HW232268   2.940   5.966   1.324
10457SOL     OW32269   3.680   3.960   3.709
10457SOL    HW132270   3.704   3.941   3.614
10457SOL    HW232271   3.759   3.943   3.768
10458SOL     OW32272   0.799   0.279   0.121
10458SOL    HW132273   0.760   0.353   0.176
10458SOL    HW232274   0.727   0.235   0.068
10459SOL     OW32275   5.548   5.294   2.227
10459SOL    HW132276   5.640   5.283   2.189
10459SOL    HW232277   5.527   5.391   2.238
10460SOL     OW32278   2.735   5.885   1.972
10460SOL    HW132279   2.788   5.847   1.895
10460SOL    HW232280   2.793   5.948   2.024
10461SOL     OW32281   2.155   6.662   6.656
10461SOL    HW132282   2.219   6.639   6.729
10461SOL    HW232283   2.204   6.706   6.581
10462SOL     OW32284   5.790   0.677   1.166
10462SOL    HW132285   5.751   0.756   1.118
10462SOL    HW232286   5.814   0.705   1.260
10463SOL     OW32287   2.775   4.466   6.471
10463SOL    HW132288   2.680   4.495   6.482
10463SOL    HW232289   2.836   4.535   6.510
10464SOL     OW32290   4.433   0.350   1.260
10464SOL    HW132291   4.499   0.408   1.309
10464SOL    HW232292   4.348   0.344   1.313
10465SOL     OW32293   0.347   6.488   5.912
10465SOL    HW132294   0.370   6.398   5.951
10465SOL    HW232295   0.395   6.499   5.825
10466SOL     OW32296   4.770   5.227   5.035
10466SOL    HW132297   4.864   5.193   5.041
10466SOL    HW232298   4.746   5.239   4.938
10467SOL     OW32299   1.952   1.484   5.750
10467SOL    HW132300   2.034   1.541   5.756
10467SOL    HW232301   1.967   1.411   5.682
10468SOL     OW32302   3.594   6.437   4.203
10468SOL    HW132303   3.532   6.427   4.125
10468SOL    HW232304   3.546   6.480   4.279
10469SOL     OW32305   2.377   3.826   0.936
10469SOL    HW132306   2.303   3.770   0.898
10469SOL    HW232307   2.457   3.822   0.876
10470SOL     OW32308   2.375   1.510   4.411
10470SOL    HW132309   2.414   1.435   4.464
10470SOL    HW232310   2.315   1.473   4.340
10471SOL     OW32311   2.703   4.024   1.655
10471SOL    HW132312   2.778   4.083   1.687
10471SOL    HW232313   2.617   4.056   1.694
10472SOL     OW32314   3.847   6.935   2.617
10472SOL    HW132315   3.773   6.869   2.632
10472SOL    HW232316   3.897   6.911   2.534
10473SOL     OW32317   5.933   6.390   0.072
10473SOL    HW132318   5.971   6.461   0.012
10473SOL    HW232319   5.919   6.428   0.164
10474SOL     OW32320   3.898   0.897   4.355
10474SOL    HW132321   3.808   0.855   4.348
10474SOL    HW232322   3.968   0.826   4.361
10475SOL     OW32323   4.079   6.751   1.333
10475SOL    HW132324   4.149   6.688   1.367
10475SOL    HW232325   4.042   6.716   1.246
10476SOL     OW32326   6.601   5.388   6.533
10476SOL    HW132327   6.598   5.486   6.552
10476SOL    HW232328   6.509   5.349   6.543
10477SOL     OW32329   5.494   3.701   4.793
10477SOL    HW132330   5.426   3.630   4.808
10477SOL    HW232331   5.565   3.667   4.731
10478SOL     OW32332   0.622   6.690   0.310
10478SOL    HW132333   0.573   6.714   0.394
10478SOL    HW232334   0.684   6.765   0.286
10479SOL     OW32335   1.819   3.580   2.198
10479SOL    HW132336   1.845   3.608   2.106
10479SOL    HW232337   1.719   3.580   2.207
10480SOL     OW32338   5.485   6.914   2.049
10480SOL    HW132339   5.419   6.966   2.103
10480SOL    HW232340   5.442   6.832   2.013
10481SOL     OW32341   2.633   0.997   5.241
10481SOL    HW132342   2.695   0.918   5.242
10481SOL    HW232343   2.669   1.068   5.301
10482SOL     OW32344   0.855   6.082   4.686
10482SOL    HW132345   0.761   6.089   4.717
10482SOL    HW232346   0.883   6.168   4.644
10483SOL     OW32347   6.364   5.889   6.785
10483SOL    HW132348   6.358   5.789   6.784
10483SOL    HW232349   6.456   5.917   6.812
10484SOL     OW32350   0.230   1.123   1.419
10484SOL    HW132351   0.194   1.039   1.379
10484SOL    HW232352   0.329   1.127   1.403
10485SOL     OW32353   3.223   3.661   2.906
10485SOL    HW132354   3.318   3.663   2.938
10485SOL    HW232355   3.202   3.570   2.870
10486SOL     OW32356   0.064   6.539   5.571
10486SOL    HW132357   0.162   6.558   5.560
10486SOL    HW232358   0.022   6.611   5.626
10487SOL     OW32359   4.595   1.909   1.919
10487SOL    HW132360   4.515   1.859   1.886
10487SOL    HW232361   4.579   1.938   2.014
10488SOL     OW32362   0.357   2.143   5.832
10488SOL    HW132363   0.345   2.238   5.862
10488SOL    HW232364   0.409   2.143   5.746
10489SOL     OW32365   5.762   4.803   3.749
10489SOL    HW132366   5.747   4.732   3.680
10489SOL    HW232367   5.679   4.859   3.758
10490SOL     OW32368   5.998   0.274   0.516
10490SOL    HW132369   5.967   0.358   0.471
10490SOL    HW232370   5.934   0.249   0.588
10491SOL     OW32371   1.157   3.282   6.367
10491SOL    HW132372   1.217   3.360   6.349
10491SOL    HW232373   1.177   3.209   6.301
10492SOL     OW32374   4.708   0.466   0.693
10492SOL    HW132375   4.615   0.446   0.663
10492SOL    HW232376   4.728   0.415   0.776
10493SOL     OW32377   4.537   5.681   1.236
10493SOL    HW132378   4.607   5.751   1.251
10493SOL    HW232379   4.579   5.600   1.196
10494SOL     OW32380   0.557   4.445   5.784
10494SOL    HW132381   0.530   4.351   5.766
10494SOL    HW232382   0.481   4.495   5.826
10495SOL     OW32383   1.173   6.283   5.859
10495SOL    HW132384   1.220   6.348   5.800
10495SOL    HW232385   1.102   6.330   5.912
10496SOL     OW32386   6.843   3.856   5.366
10496SOL    HW132387   6.848   3.768   5.318
10496SOL    HW232388   6.767   3.910   5.329
10497SOL     OW32389   2.427   0.357   1.651
10497SOL    HW132390   2.527   0.347   1.643
10497SOL    HW232391   2.403   0.454   1.642
10498SOL     OW32392   4.956   5.396   0.865
10498SOL    HW132393   4.980   5.474   0.923
10498SOL    HW232394   4.911   5.326   0.920
10499SOL     OW32395   5.386   5.409   1.791
10499SOL    HW132396   5.425   5.488   1.743
10499SOL    HW232397   5.434   5.326   1.761
10500SOL     OW32398   6.597   3.762   5.223
10500SOL    HW132399   6.652   3.789   5.144
10500SOL    HW232400   6.540   3.684   5.198
10501SOL     OW32401   2.523   5.751   2.621
10501SOL    HW132402   2.562   5.659   2.617
10501SOL    HW232403   2.571   5.810   2.556
10502SOL     OW32404   3.033   3.338   2.688
10502SOL    HW132405   2.996   3.411   2.631
10502SOL    HW232406   3.032   3.252   2.637
10503SOL     OW32407   6.580   3.116   6.181
10503SOL    HW132408   6.599   3.213   6.166
10503SOL    HW232409   6.660   3.062   6.154
10504SOL     OW32410   1.751   2.687   6.460
10504SOL    HW132411   1.819   2.615   6.444
10504SOL    HW232412   1.771   2.733   6.546
10505SOL     OW32413   6.097   6.081   1.539
10505SOL    HW132414   6.191   6.050   1.532
10505SOL    HW232415   6.082   6.124   1.628
10506SOL     OW32416   1.127   2.641   6.979
10506SOL    HW132417   1.080   2.671   0.042
10506SOL    HW232418   1.199   2.576   7.003
10507SOL     OW32419   1.735   5.044   0.227
10507SOL    HW132420   1.684   5.003   0.151
10507SOL    HW232421   1.824   4.999   0.235
10508SOL     OW32422   1.273   5.037   4.911
10508SOL    HW132423   1.228   5.051   4.999
10508SOL    HW232424   1.218   5.078   4.838
10509SOL     OW32425   5.144   3.234   3.540
10509SOL    HW132426   5.217   3.248   3.607
10509SOL    HW232427   5.137   3.137   3.517
10510SOL     OW32428   4.687   5.577   4.888
10510SOL    HW132429   4.604   5.584   4.944
10510SOL    HW232430   4.662   5.572   4.792
10511SOL     OW32431   3.311   2.098   2.336
10511SOL    HW132432   3.368   2.048   2.271
10511SOL    HW232433   3.363   2.113   2.421
10512SOL     OW32434   4.610   0.769   4.995
10512SOL    HW132435   4.581   0.864   4.982
10512SOL    HW232436   4.638   0.731   4.907
10513SOL     OW32437   5.327   3.552   1.764
10513SOL    HW132438   5.253   3.617   1.782
10513SOL    HW232439   5.296   3.459   1.787
10514SOL     OW32440   1.123   3.149   1.746
10514SOL    HW132441   1.110   3.091   1.665
10514SOL    HW232442   1.221   3.171   1.756
10515SOL     OW32443   2.085   3.164   4.520
10515SOL    HW132444   2.006   3.225   4.534
10515SOL    HW232445   2.146   3.171   4.599
10516SOL     OW32446   3.828   2.561   0.476
10516SOL    HW132447   3.887   2.639   0.461
10516SOL    HW232448   3.767   2.579   0.553
10517SOL     OW32449   1.034   3.127   3.103
10517SOL    HW132450   0.978   3.142   3.185
10517SOL    HW232451   0.979   3.081   3.033
10518SOL     OW32452   0.603   5.055   2.185
10518SOL    HW132453   0.695   5.091   2.205
10518SOL    HW232454   0.556   5.119   2.124
10519SOL     OW32455   2.326   6.595   1.064
10519SOL    HW132456   2.267   6.514   1.067
10519SOL    HW232457   2.422   6.567   1.056
10520SOL     OW32458   7.017   1.776   5.724
10520SOL    HW132459   0.055   1.852   5.751
10520SOL    HW232460   0.027   1.693   5.770
10521SOL     OW32461   6.226   3.631   0.805
10521SOL    HW132462   6.304   3.645   0.743
10521SOL    HW232463   6.221   3.708   0.869
10522SOL     OW32464   5.355   2.580   3.252
10522SOL    HW132465   5.319   2.644   3.320
10522SOL    HW232466   5.304   2.590   3.166
10523SOL     OW32467   0.012   4.819   3.649
10523SOL    HW132468   6.938   4.809   3.615
10523SOL    HW232469   0.030   4.749   3.719
10524SOL     OW32470   6.412   6.343   3.809
10524SOL    HW132471   6.477   6.270   3.791
10524SOL    HW232472   6.441   6.426   3.761
10525SOL     OW32473   4.682   1.487   5.078
10525SOL    HW132474   4.712   1.506   5.172
10525SOL    HW232475   4.743   1.534   5.014
10526SOL     OW32476   1.024   5.312   0.277
10526SOL    HW132477   0.970   5.249   0.333
10526SOL    HW232478   1.073   5.260   0.207
10527SOL     OW32479   0.698   0.855   5.045
10527SOL    HW132480   0.778   0.807   5.080
10527SOL    HW232481   0.641   0.885   5.121
10528SOL     OW32482   0.470   4.481   6.405
10528SOL    HW132483   0.480   4.577   6.377
10528SOL    HW232484   0.432   4.477   6.497
10529SOL     OW32485   1.354   6.459   6.497
10529SOL    HW132486   1.426   6.513   6.541
10529SOL    HW232487   1.307   6.516   6.429
10530SOL     OW32488   0.844   6.571   0.046
10530SOL    HW132489   0.939   6.543   0.034
10530SOL    HW232490   0.835   6.620   0.133
10531SOL     OW32491   2.902   2.848   5.493
10531SOL    HW132492   2.818   2.901   5.481
10531SOL    HW232493   2.894   2.761   5.444
10532SOL     OW32494   5.954   5.974   6.557
10532SOL    HW132495   5.923   5.986   6.652
10532SOL    HW232496   6.054   5.976   6.554
10533SOL     OW32497   3.249   5.663   3.331
10533SOL    HW132498   3.207   5.578   3.299
10533SOL    HW232499   3.179   5.721   3.373
10534SOL     OW32500   1.256   5.996   2.467
10534SOL    HW132501   1.192   6.015   2.541
10534SOL    HW232502   1.341   5.959   2.505
10535SOL     OW32503   3.030   1.879   3.528
10535SOL    HW132504   3.000   1.823   3.604
10535SOL    HW232505   3.025   1.976   3.553
10536SOL     OW32506   5.602   1.113   4.160
10536SOL    HW132507   5.566   1.023   4.187
10536SOL    HW232508   5.526   1.175   4.143
10537SOL     OW32509   4.861   6.790   2.834
10537SOL    HW132510   4.893   6.832   2.750
10537SOL    HW232511   4.766   6.816   2.851
10538SOL     OW32512   6.230   3.024   2.638
10538SOL    HW132513   6.167   3.085   2.591
10538SOL    HW232514   6.306   3.077   2.677
10539SOL     OW32515   6.267   6.978   2.836
10539SOL    HW132516   6.348   6.972   2.893
10539SOL    HW232517   6.291   6.958   2.741
10540SOL     OW32518   2.318   3.809   6.000
10540SOL    HW132519   2.416   3.813   5.981
10540SOL    HW232520   2.275   3.741   5.940
10541SOL     OW32521   2.917   3.252   4.986
10541SOL    HW132522   2.953   3.192   5.057
10541SOL    HW232523   2.820   3.230   4.971
10542SOL     OW32524   5.812   7.013   4.226
10542SOL    HW132525   5.825   6.919   4.196
10542SOL    HW232526   5.714   0.014   4.230
10543SOL     OW32527   6.866   2.838   5.425
10543SOL    HW132528   6.914   2.764   5.472
10543SOL    HW232529   6.921   2.921   5.429
10544SOL     OW32530   1.350   1.262   3.875
10544SOL    HW132531   1.349   1.328   3.800
10544SOL    HW232532   1.378   1.173   3.840
10545SOL     OW32533   2.249   2.420   2.536
10545SOL    HW132534   2.315   2.351   2.565
10545SOL    HW232535   2.289   2.475   2.462
10546SOL     OW32536   3.088   6.912   1.297
10546SOL    HW132537   3.128   6.981   1.357
10546SOL    HW232538   3.072   6.950   1.207
10547SOL     OW32539   4.325   6.668   4.837
10547SOL    HW132540   4.294   6.753   4.880
10547SOL    HW232541   4.310   6.674   4.738
10548SOL     OW32542   1.192   4.406   4.176
10548SOL    HW132543   1.220   4.398   4.080
10548SOL    HW232544   1.228   4.329   4.228
10549SOL     OW32545   7.005   1.243   0.802
10549SOL    HW132546   6.990   1.282   0.893
10549SOL    HW232547   6.964   1.303   0.733
10550SOL     OW32548   3.541   6.098   3.121
10550SOL    HW132549   3.475   6.074   3.192
10550SOL    HW232550   3.605   6.022   3.107
10551SOL     OW32551   3.274   2.305   6.108
10551SOL    HW132552   3.295   2.207   6.111
10551SOL    HW232553   3.177   2.319   6.125
10552SOL     OW32554   3.419   0.947   4.550
10552SOL    HW132555   3.469   0.879   4.604
10552SOL    HW232556   3.425   1.036   4.595
10553SOL     OW32557   0.045   4.998   0.661
10553SOL    HW132558   0.132   4.950   0.650
10553SOL    HW232559   0.028   5.054   0.580
10554SOL     OW32560   6.083   5.009   2.808
10554SOL    HW132561   6.081   4.925   2.754
10554SOL    HW232562   6.052   4.989   2.901
10555SOL     OW32563   3.432   2.202   0.357
10555SOL    HW132564   3.509   2.252   0.396
10555SOL    HW232565   3.466   2.132   0.294
10556SOL     OW32566   2.064   2.302   2.986
10556SOL    HW132567   2.066   2.209   2.949
10556SOL    HW232568   2.058   2.367   2.910
10557SOL     OW32569   2.185   4.489   3.569
10557SOL    HW132570   2.207   4.572   3.620
10557SOL    HW232571   2.210   4.502   3.473
10558SOL     OW32572   3.002   5.488   5.972
10558SOL    HW132573   3.025   5.557   5.904
10558SOL    HW232574   2.968   5.534   6.055
10559SOL     OW32575   3.903   0.067   6.182
10559SOL    HW132576   3.925   0.164   6.171
10559SOL    HW232577   3.804   0.054   6.178
10560SOL     OW32578   5.211   6.573   1.734
10560SOL    HW132579   5.202   6.511   1.656
10560SOL    HW232580   5.122   6.617   1.752
10561SOL     OW32581   6.115   4.126   0.195
10561SOL    HW132582   6.195   4.153   0.141
10561SOL    HW232583   6.133   4.143   0.292
10562SOL     OW32584   3.283   6.174   1.366
10562SOL    HW132585   3.319   6.236   1.436
10562SOL    HW232586   3.215   6.221   1.310
10563SOL     OW32587   0.589   0.834   0.510
10563SOL    HW132588   0.569   0.866   0.603
10563SOL    HW232589   0.587   0.911   0.447
10564SOL     OW32590   5.846   5.736   3.727
10564SOL    HW132591   5.910   5.778   3.791
10564SOL    HW232592   5.897   5.690   3.654
10565SOL     OW32593   6.748   6.962   5.109
10565SOL    HW132594   6.784   6.934   5.020
10565SOL    HW232595   6.817   7.016   5.157
10566SOL     OW32596   2.591   2.981   0.065
10566SOL    HW132597   2.613   2.884   0.079
10566SOL    HW232598   2.644   3.037   0.129
10567SOL     OW32599   1.159   1.942   6.235
10567SOL    HW132600   1.201   1.853   6.254
10567SOL    HW232601   1.087   1.931   6.167
10568SOL     OW32602   5.345   2.290   6.098
10568SOL    HW132603   5.366   2.240   6.182
10568SOL    HW232604   5.249   2.318   6.100
10569SOL     OW32605   5.361   6.685   1.471
10569SOL    HW132606   5.385   6.752   1.401
10569SOL    HW232607   5.355   6.731   1.560
10570SOL     OW32608   0.844   5.112   4.189
10570SOL    HW132609   0.921   5.168   4.219
10570SOL    HW232610   0.851   5.021   4.230
10571SOL     OW32611   0.207   4.379   5.738
10571SOL    HW132612   0.196   4.385   5.639
10571SOL    HW232613   0.268   4.302   5.760
10572SOL     OW32614   6.170   4.552   1.278
10572SOL    HW132615   6.084   4.516   1.315
10572SOL    HW232616   6.202   4.492   1.204
10573SOL     OW32617   5.739   0.948   3.471
10573SOL    HW132618   5.789   0.869   3.507
10573SOL    HW232619   5.784   1.032   3.499
10574SOL     OW32620   0.117   1.692   3.756
10574SOL    HW132621   0.186   1.690   3.829
10574SOL    HW232622   0.106   1.786   3.723
10575SOL     OW32623   6.358   0.941   1.590
10575SOL    HW132624   6.288   0.975   1.527
10575SOL    HW232625   6.410   1.018   1.627
10576SOL     OW32626   2.040   5.124   3.492
10576SOL    HW132627   1.976   5.190   3.453
10576SOL    HW232628   2.077   5.159   3.577
10577SOL     OW32629   4.031   6.408   0.668
10577SOL    HW132630   4.092   6.388   0.744
10577SOL    HW232631   4.014   6.323   0.616
10578SOL     OW32632   6.882   2.494   3.915
10578SOL    HW132633   6.801   2.493   3.975
10578SOL    HW232634   6.954   2.439   3.956
10579SOL     OW32635   2.105   3.458   1.199
10579SOL    HW132636   2.015   3.473   1.239
10579SOL    HW232637   2.141   3.544   1.164
10580SOL     OW32638   6.518   6.837   6.384
10580SOL    HW132639   6.543   6.790   6.300
10580SOL    HW232640   6.420   6.857   6.383
10581SOL     OW32641   5.540   0.071   2.675
10581SOL    HW132642   5.534   0.028   2.765
10581SOL    HW232643   5.496   0.012   2.607
10582SOL     OW32644   5.704   4.494   6.522
10582SOL    HW132645   5.782   4.434   6.536
10582SOL    HW232646   5.736   4.587   6.500
10583SOL     OW32647   2.492   0.602   4.332
10583SOL    HW132648   2.519   0.507   4.343
10583SOL    HW232649   2.472   0.620   4.236
10584SOL     OW32650   6.969   0.035   5.251
10584SOL    HW132651   7.017   0.088   5.322
10584SOL    HW232652   6.944   6.966   5.287
10585SOL     OW32653   0.624   0.770   5.842
10585SOL    HW132654   0.527   0.779   5.821
10585SOL    HW232655   0.674   0.848   5.804
10586SOL     OW32656   4.636   4.240   5.569
10586SOL    HW132657   4.545   4.257   5.608
10586SOL    HW232658   4.659   4.143   5.581
10587SOL     OW32659   0.992   5.619   5.577
10587SOL    HW132660   1.044   5.680   5.637
10587SOL    HW232661   1.055   5.559   5.528
10588SOL     OW32662   1.220   4.439   4.505
10588SOL    HW132663   1.228   4.521   4.448
10588SOL    HW232664   1.256   4.458   4.596
10589SOL     OW32665   5.615   6.647   3.544
10589SOL    HW132666   5.556   6.577   3.502
10589SOL    HW232667   5.709   6.613   3.546
10590SOL     OW32668   0.288   5.490   2.551
10590SOL    HW132669   0.236   5.556   2.497
10590SOL    HW232670   0.290   5.518   2.647
10591SOL     OW32671   1.516   1.757   1.677
10591SOL    HW132672   1.468   1.745   1.764
10591SOL    HW232673   1.594   1.818   1.690
10592SOL     OW32674   6.165   2.090   5.387
10592SOL    HW132675   6.245   2.033   5.371
10592SOL    HW232676   6.111   2.097   5.303
10593SOL     OW32677   3.064   6.296   1.892
10593SOL    HW132678   3.046   6.257   1.802
10593SOL    HW232679   3.076   6.395   1.885
10594SOL     OW32680   3.139   0.578   3.555
10594SOL    HW132681   3.079   0.513   3.508
10594SOL    HW232682   3.162   0.653   3.493
10595SOL     OW32683   5.964   0.154   0.950
10595SOL    HW132684   5.917   0.096   1.017
10595SOL    HW232685   6.046   0.193   0.991
10596SOL     OW32686   4.868   1.549   6.782
10596SOL    HW132687   4.867   1.456   6.746
10596SOL    HW232688   4.907   1.611   6.713
10597SOL     OW32689   2.445   0.469   6.063
10597SOL    HW132690   2.454   0.403   5.989
10597SOL    HW232691   2.411   0.556   6.027
10598SOL     OW32692   2.519   1.510   6.087
10598SOL    HW132693   2.568   1.596   6.070
10598SOL    HW232694   2.510   1.495   6.185
10599SOL     OW32695   6.896   3.584   6.185
10599SOL    HW132696   6.886   3.486   6.205
10599SOL    HW232697   6.845   3.606   6.102
10600SOL     OW32698   2.837   2.046   1.595
10600SOL    HW132699   2.847   1.954   1.632
10600SOL    HW232700   2.814   2.109   1.669
10601SOL     OW32701   0.252   6.782   5.737
10601SOL    HW132702   0.304   6.737   5.665
10601SOL    HW232703   0.311   6.847   5.785
10602SOL     OW32704   0.668   0.478   0.253
10602SOL    HW132705   0.589   0.539   0.257
10602SOL    HW232706   0.718   0.480   0.339
10603SOL     OW32707   4.595   6.830   1.892
10603SOL    HW132708   4.540   6.913   1.894
10603SOL    HW232709   4.687   6.850   1.927
10604SOL     OW32710   0.210   6.894   4.596
10604SOL    HW132711   0.150   6.822   4.631
10604SOL    HW232712   0.264   6.932   4.671
10605SOL     OW32713   2.517   1.263   1.131
10605SOL    HW132714   2.596   1.324   1.127
10605SOL    HW232715   2.544   1.176   1.172
10606SOL     OW32716   6.520   0.850   1.101
10606SOL    HW132717   6.532   0.925   1.036
10606SOL    HW232718   6.584   0.776   1.077
10607SOL     OW32719   3.875   4.592   6.241
10607SOL    HW132720   3.889   4.686   6.208
10607SOL    HW232721   3.777   4.575   6.250
10608SOL     OW32722   6.196   3.247   2.862
10608SOL    HW132723   6.102   3.217   2.879
10608SOL    HW232724   6.198   3.303   2.779
10609SOL     OW32725   4.778   0.888   6.915
10609SOL    HW132726   4.764   0.837   6.830
10609SOL    HW232727   4.730   0.842   6.989
10610SOL     OW32728   0.785   1.356   4.326
10610SOL    HW132729   0.797   1.352   4.425
10610SOL    HW232730   0.697   1.400   4.305
10611SOL     OW32731   2.836   5.596   5.438
10611SOL    HW132732   2.922   5.553   5.411
10611SOL    HW232733   2.797   5.545   5.515
10612SOL     OW32734   5.346   1.463   3.918
10612SOL    HW132735   5.251   1.437   3.902
10612SOL    HW232736   5.402   1.438   3.839
10613SOL     OW32737   6.024   6.735   4.312
10613SOL    HW132738   5.937   6.746   4.263
10613SOL    HW232739   6.025   6.797   4.391
10614SOL     OW32740   5.128   0.156   6.580
10614SOL    HW132741   5.100   0.244   6.619
10614SOL    HW232742   5.127   0.162   6.480
10615SOL     OW32743   2.225   2.329   6.697
10615SOL    HW132744   2.230   2.429   6.699
10615SOL    HW232745   2.142   2.299   6.745
10616SOL     OW32746   2.296   6.482   6.402
10616SOL    HW132747   2.318   6.573   6.437
10616SOL    HW232748   2.208   6.486   6.354
10617SOL     OW32749   2.393   3.326   1.271
10617SOL    HW132750   2.408   3.425   1.282
10617SOL    HW232751   2.349   3.308   1.183
10618SOL     OW32752   0.530   5.379   4.943
10618SOL    HW132753   0.588   5.437   4.884
10618SOL    HW232754   0.562   5.285   4.938
10619SOL     OW32755   1.239   1.873   3.270
10619SOL    HW132756   1.228   1.892   3.367
10619SOL    HW232757   1.172   1.804   3.242
10620SOL     OW32758   2.917   0.391   6.739
10620SOL    HW132759   2.957   0.482   6.745
10620SOL    HW232760   2.981   0.330   6.692
10621SOL     OW32761   1.053   3.626   3.272
10621SOL    HW132762   1.015   3.556   3.211
10621SOL    HW232763   1.030   3.717   3.237
10622SOL     OW32764   4.350   3.469   0.607
10622SOL    HW132765   4.327   3.507   0.518
10622SOL    HW232766   4.321   3.374   0.611
10623SOL     OW32767   5.827   5.973   6.814
10623SOL    HW132768   5.795   6.043   6.877
10623SOL    HW232769   5.800   5.883   6.848
10624SOL     OW32770   0.343   2.195   5.150
10624SOL    HW132771   0.363   2.218   5.245
10624SOL    HW232772   0.353   2.096   5.137
10625SOL     OW32773   6.413   4.259   6.344
10625SOL    HW132774   6.370   4.205   6.271
10625SOL    HW232775   6.483   4.204   6.389
10626SOL     OW32776   4.676   3.438   1.055
10626SOL    HW132777   4.667   3.364   0.989
10626SOL    HW232778   4.718   3.403   1.139
10627SOL     OW32779   5.631   6.303   5.882
10627SOL    HW132780   5.725   6.273   5.866
10627SOL    HW232781   5.568   6.233   5.847
10628SOL     OW32782   4.649   0.417   0.401
10628SOL    HW132783   4.574   0.383   0.458
10628SOL    HW232784   4.714   0.468   0.457
10629SOL     OW32785   3.687   5.480   4.737
10629SOL    HW132786   3.643   5.425   4.666
10629SOL    HW232787   3.759   5.427   4.781
10630SOL     OW32788   4.434   0.421   3.134
10630SOL    HW132789   4.385   0.479   3.199
10630SOL    HW232790   4.468   0.476   3.058
10631SOL     OW32791   4.694   5.919   0.208
10631SOL    HW132792   4.646   5.933   0.294
10631SOL    HW232793   4.702   5.821   0.189
10632SOL     OW32794   4.726   5.673   3.290
10632SOL    HW132795   4.721   5.622   3.204
10632SOL    HW232796   4.769   5.616   3.360
10633SOL     OW32797   1.735   2.943   2.102
10633SOL    HW132798   1.733   2.940   2.202
10633SOL    HW232799   1.796   3.017   2.073
10634SOL     OW32800   0.504   4.690   6.991
10634SOL    HW132801   0.572   4.679   6.918
10634SOL    HW232802   0.445   4.768   6.970
10635SOL     OW32803   2.269   3.661   0.030
10635SOL    HW132804   2.274   3.607   0.114
10635SOL    HW232805   2.218   3.745   0.048
10636SOL     OW32806   6.439   2.027   6.257
10636SOL    HW132807   6.515   2.029   6.321
10636SOL    HW232808   6.470   2.058   6.167
10637SOL     OW32809   3.182   6.705   6.795
10637SOL    HW132810   3.090   6.668   6.811
10637SOL    HW232811   3.218   6.744   6.879
10638SOL     OW32812   0.358   5.279   1.747
10638SOL    HW132813   0.418   5.222   1.692
10638SOL    HW232814   0.364   5.374   1.716
10639SOL     OW32815   2.057   3.859   1.662
10639SOL    HW132816   1.971   3.812   1.642
10639SOL    HW232817   2.104   3.881   1.576
10640SOL     OW32818   4.498   6.866   3.493
10640SOL    HW132819   4.489   6.815   3.579
10640SOL    HW232820   4.591   6.858   3.460
10641SOL     OW32821   0.693   0.321   3.252
10641SOL    HW132822   0.749   0.293   3.329
10641SOL    HW232823   0.617   0.257   3.241
10642SOL     OW32824   5.274   2.213   6.680
10642SOL    HW132825   5.196   2.198   6.620
10642SOL    HW232826   5.342   2.141   6.664
10643SOL     OW32827   2.056   4.949   5.288
10643SOL    HW132828   2.067   4.866   5.233
10643SOL    HW232829   1.969   4.991   5.267
10644SOL     OW32830   6.998   2.563   2.588
10644SOL    HW132831   6.973   2.641   2.530
10644SOL    HW232832   6.916   2.520   2.624
10645SOL     OW32833   2.122   2.914   2.657
10645SOL    HW132834   2.081   2.979   2.721
10645SOL    HW232835   2.189   2.858   2.705
10646SOL     OW32836   4.997   1.145   4.357
10646SOL    HW132837   5.021   1.106   4.445
10646SOL    HW232838   4.936   1.083   4.308
10647SOL     OW32839   3.799   5.079   5.003
10647SOL    HW132840   3.701   5.075   5.019
10647SOL    HW232841   3.817   5.119   4.913
10648SOL     OW32842   5.591   4.658   5.035
10648SOL    HW132843   5.567   4.697   5.123
10648SOL    HW232844   5.671   4.704   4.998
10649SOL     OW32845   0.371   3.165   3.004
10649SOL    HW132846   0.298   3.101   3.029
10649SOL    HW232847   0.368   3.243   3.066
10650SOL     OW32848   6.765   0.327   4.270
10650SOL    HW132849   6.757   0.318   4.171
10650SOL    HW232850   6.821   0.252   4.305
10651SOL     OW32851   4.942   6.099   5.772
10651SOL    HW132852   4.990   6.176   5.730
10651SOL    HW232853   4.985   6.014   5.742
10652SOL     OW32854   1.776   6.691   6.297
10652SOL    HW132855   1.760   6.593   6.284
10652SOL    HW232856   1.741   6.741   6.218
10653SOL     OW32857   3.740   6.210   4.153
10653SOL    HW132858   3.678   6.132   4.160
10653SOL    HW232859   3.694   6.292   4.188
10654SOL     OW32860   5.330   1.239   4.820
10654SOL    HW132861   5.264   1.264   4.749
10654SOL    HW232862   5.317   1.143   4.846
10655SOL     OW32863   1.200   4.531   1.487
10655SOL    HW132864   1.105   4.526   1.517
10655SOL    HW232865   1.206   4.508   1.390
10656SOL     OW32866   6.956   1.640   1.720
10656SOL    HW132867   6.900   1.572   1.674
10656SOL    HW232868   6.900   1.721   1.739
10657SOL     OW32869   5.853   0.868   3.864
10657SOL    HW132870   5.775   0.879   3.926
10657SOL    HW232871   5.918   0.803   3.903
10658SOL     OW32872   5.947   3.822   4.611
10658SOL    HW132873   5.907   3.905   4.649
10658SOL    HW232874   5.927   3.816   4.514
10659SOL     OW32875   0.711   5.006   1.206
10659SOL    HW132876   0.756   4.959   1.130
10659SOL    HW232877   0.642   5.069   1.171
10660SOL     OW32878   6.482   3.314   5.478
10660SOL    HW132879   6.452   3.222   5.456
10660SOL    HW232880   6.404   3.368   5.509
10661SOL     OW32881   1.108   4.045   6.837
10661SOL    HW132882   1.073   4.076   6.926
10661SOL    HW232883   1.208   4.043   6.840
10662SOL     OW32884   2.759   1.550   3.501
10662SOL    HW132885   2.755   1.548   3.601
10662SOL    HW232886   2.683   1.605   3.466
10663SOL     OW32887   1.963   1.044   3.710
10663SOL    HW132888   1.866   1.068   3.717
10663SOL    HW232889   1.972   0.945   3.696
10664SOL     OW32890   1.289   5.456   4.540
10664SOL    HW132891   1.212   5.437   4.602
10664SOL    HW232892   1.256   5.504   4.459
10665SOL     OW32893   1.847   3.642   6.378
10665SOL    HW132894   1.843   3.581   6.457
10665SOL    HW232895   1.921   3.707   6.390
10666SOL     OW32896   3.890   3.325   1.973
10666SOL    HW132897   3.970   3.265   1.969
10666SOL    HW232898   3.824   3.297   1.904
10667SOL     OW32899   5.590   1.867   2.743
10667SOL    HW132900   5.681   1.908   2.749
10667SOL    HW232901   5.570   1.843   2.648
10668SOL     OW32902   3.012   2.215   5.338
10668SOL    HW132903   2.928   2.198   5.286
10668SOL    HW232904   3.078   2.264   5.281
10669SOL     OW32905   5.528   1.092   1.027
10669SOL    HW132906   5.460   1.021   1.047
10669SOL    HW232907   5.491   1.154   0.957
10670SOL     OW32908   4.896   3.820   4.092
10670SOL    HW132909   4.860   3.854   4.005
10670SOL    HW232910   4.884   3.720   4.095
10671SOL     OW32911   0.878   1.911   4.234
10671SOL    HW132912   0.894   2.001   4.194
10671SOL    HW232913   0.870   1.919   4.334
10672SOL     OW32914   6.275   3.847   1.441
10672SOL    HW132915   6.230   3.848   1.351
10672SOL    HW232916   6.256   3.934   1.487
10673SOL     OW32917   1.720   0.676   1.210
10673SOL    HW132918   1.761   0.590   1.243
10673SOL    HW232919   1.632   0.656   1.167
10674SOL     OW32920   3.976   3.245   4.370
10674SOL    HW132921   4.024   3.267   4.455
10674SOL    HW232922   4.026   3.285   4.293
10675SOL     OW32923   3.688   1.209   6.123
10675SOL    HW132924   3.619   1.280   6.108
10675SOL    HW232925   3.660   1.150   6.198
10676SOL     OW32926   0.904   5.830   5.394
10676SOL    HW132927   0.806   5.814   5.382
10676SOL    HW232928   0.942   5.762   5.457
10677SOL     OW32929   0.906   1.962   0.317
10677SOL    HW132930   0.950   1.903   0.384
10677SOL    HW232931   0.818   1.993   0.352
10678SOL     OW32932   4.211   5.127   3.789
10678SOL    HW132933   4.305   5.104   3.813
10678SOL    HW232934   4.194   5.103   3.693
10679SOL     OW32935   4.156   4.877   0.402
10679SOL    HW132936   4.135   4.909   0.310
10679SOL    HW232937   4.100   4.927   0.468
10680SOL     OW32938   3.421   1.588   4.293
10680SOL    HW132939   3.490   1.519   4.314
10680SOL    HW232940   3.399   1.640   4.375
10681SOL     OW32941   6.304   3.355   6.591
10681SOL    HW132942   6.381   3.301   6.626
10681SOL    HW232943   6.281   3.324   6.498
10682SOL     OW32944   5.886   3.064   4.697
10682SOL    HW132945   5.912   3.130   4.626
10682SOL    HW232946   5.805   3.097   4.745
10683SOL     OW32947   4.365   0.106   3.456
10683SOL    HW132948   4.301   0.144   3.523
10683SOL    HW232949   4.424   0.039   3.501
10684SOL     OW32950   5.179   4.536   1.318
10684SOL    HW132951   5.249   4.464   1.321
10684SOL    HW232952   5.218   4.621   1.354
10685SOL     OW32953   0.076   5.342   1.754
10685SOL    HW132954   7.020   5.362   1.816
10685SOL    HW232955   0.153   5.306   1.807
10686SOL     OW32956   2.330   3.990   6.638
10686SOL    HW132957   2.318   4.063   6.571
10686SOL    HW232958   2.245   3.976   6.688
10687SOL     OW32959   6.350   4.576   2.783
10687SOL    HW132960   6.412   4.590   2.706
10687SOL    HW232961   6.323   4.480   2.788
10688SOL     OW32962   5.613   1.338   1.910
10688SOL    HW132963   5.535   1.308   1.965
10688SOL    HW232964   5.662   1.258   1.876
10689SOL     OW32965   0.266   0.501   1.884
10689SOL    HW132966   0.328   0.575   1.856
10689SOL    HW232967   0.208   0.534   1.959
10690SOL     OW32968   6.590   5.336   3.365
10690SOL    HW132969   6.543   5.363   3.449
10690SOL    HW232970   6.679   5.380   3.361
10691SOL     OW32971   2.981   1.906   2.322
10691SOL    HW132972   3.002   1.989   2.374
10691SOL    HW232973   2.883   1.903   2.301
10692SOL     OW32974   2.919   0.603   4.586
10692SOL    HW132975   3.015   0.586   4.563
10692SOL    HW232976   2.907   0.592   4.685
10693SOL     OW32977   0.820   6.210   1.451
10693SOL    HW132978   0.895   6.227   1.388
10693SOL    HW232979   0.850   6.146   1.522
10694SOL     OW32980   4.678   5.979   5.849
10694SOL    HW132981   4.600   6.039   5.867
10694SOL    HW232982   4.708   5.991   5.754
10695SOL     OW32983   1.291   3.033   1.160
10695SOL    HW132984   1.390   3.029   1.175
10695SOL    HW232985   1.247   2.954   1.202
10696SOL     OW32986   6.161   3.788   4.838
10696SOL    HW132987   6.070   3.810   4.803
10696SOL    HW232988   6.217   3.871   4.842
10697SOL     OW32989   0.833   6.211   5.287
10697SOL    HW132990   0.876   6.134   5.240
10697SOL    HW232991   0.873   6.222   5.377
10698SOL     OW32992   4.665   4.273   6.905
10698SOL    HW132993   4.621   4.279   6.815
10698SOL    HW232994   4.698   4.363   6.932
10699SOL     OW32995   3.902   4.845   0.969
10699SOL    HW132996   3.869   4.758   1.005
10699SOL    HW232997   3.961   4.829   0.890
10700SOL     OW32998   6.285   6.682   0.702
10700SOL    HW132999   6.287   6.771   0.657
10700SOL    HW233000   6.267   6.694   0.800
10701SOL     OW33001   3.105   0.222   6.625
10701SOL    HW133002   3.183   0.236   6.687
10701SOL    HW233003   3.118   0.277   6.543
10702SOL     OW33004   5.165   3.143   2.794
10702SOL    HW133005   5.082   3.088   2.788
10702SOL    HW233006   5.146   3.228   2.843
10703SOL     OW33007   2.208   3.119   5.477
10703SOL    HW133008   2.169   3.124   5.385
10703SOL    HW233009   2.155   3.176   5.539
10704SOL     OW33010   6.601   5.451   2.741
10704SOL    HW133011   6.626   5.354   2.743
10704SOL    HW233012   6.684   5.507   2.739
10705SOL     OW33013   5.880   4.732   0.902
10705SOL    HW133014   5.900   4.825   0.873
10705SOL    HW233015   5.958   4.694   0.951
10706SOL     OW33016   4.865   6.960   1.764
10706SOL    HW133017   4.803   6.929   1.692
10706SOL    HW233018   4.951   6.908   1.759
10707SOL     OW33019   6.855   6.629   4.239
10707SOL    HW133020   6.899   6.650   4.152
10707SOL    HW233021   6.802   6.708   4.270
10708SOL     OW33022   4.931   1.300   2.020
10708SOL    HW133023   4.899   1.231   1.956
10708SOL    HW233024   4.871   1.303   2.100
10709SOL     OW33025   5.783   5.502   3.887
10709SOL    HW133026   5.814   5.573   3.824
10709SOL    HW233027   5.685   5.487   3.875
10710SOL     OW33028   5.758   0.496   3.704
10710SOL    HW133029   5.714   0.409   3.686
10710SOL    HW233030   5.724   0.535   3.789
10711SOL     OW33031   2.440   0.105   3.486
10711SOL    HW133032   2.464   0.020   3.532
10711SOL    HW233033   2.492   0.113   3.401
10712SOL     OW33034   4.055   0.429   3.107
10712SOL    HW133035   3.999   0.480   3.042
10712SOL    HW233036   4.073   0.337   3.071
10713SOL     OW33037   1.215   2.423   0.229
10713SOL    HW133038   1.124   2.445   0.267
10713SOL    HW233039   1.266   2.369   0.296
10714SOL     OW33040   4.399   3.235   5.398
10714SOL    HW133041   4.389   3.232   5.497
10714SOL    HW233042   4.375   3.326   5.364
10715SOL     OW33043   4.398   0.226   2.337
10715SOL    HW133044   4.463   0.151   2.331
10715SOL    HW233045   4.426   0.289   2.410
10716SOL     OW33046   6.392   2.718   3.061
10716SOL    HW133047   6.469   2.675   3.108
10716SOL    HW233048   6.369   2.803   3.107
10717SOL     OW33049   1.726   2.906   1.144
10717SOL    HW133050   1.761   2.998   1.164
10717SOL    HW233051   1.791   2.838   1.177
10718SOL     OW33052   0.935   4.395   6.541
10718SOL    HW133053   0.900   4.326   6.478
10718SOL    HW233054   1.030   4.417   6.518
10719SOL     OW33055   6.167   6.023   3.281
10719SOL    HW133056   6.078   5.977   3.281
10719SOL    HW233057   6.185   6.060   3.372
10720SOL     OW33058   6.011   5.091   4.367
10720SOL    HW133059   6.008   4.991   4.365
10720SOL    HW233060   6.072   5.124   4.295
10721SOL     OW33061   5.151   4.066   5.176
10721SOL    HW133062   5.241   4.062   5.131
10721SOL    HW233063   5.088   4.120   5.121
10722SOL     OW33064   6.295   4.357   0.055
10722SOL    HW133065   6.385   4.388   0.025
10722SOL    HW233066   6.285   4.373   0.153
10723SOL     OW33067   6.865   1.542   6.635
10723SOL    HW133068   6.902   1.462   6.588
10723SOL    HW233069   6.940   1.599   6.668
10724SOL     OW33070   6.924   6.527   6.196
10724SOL    HW133071   6.932   6.553   6.293
10724SOL    HW233072   6.999   6.465   6.173
10725SOL     OW33073   2.327   6.079   5.347
10725SOL    HW133074   2.262   6.148   5.378
10725SOL    HW233075   2.286   5.988   5.357
10726SOL     OW33076   4.735   0.493   4.378
10726SOL    HW133077   4.645   0.536   4.368
10726SOL    HW233078   4.730   0.420   4.446
10727SOL     OW33079   0.323   5.416   5.903
10727SOL    HW133080   0.378   5.333   5.913
10727SOL    HW233081   0.358   5.488   5.964
10728SOL     OW33082   0.761   5.108   6.652
10728SOL    HW133083   0.701   5.081   6.727
10728SOL    HW233084   0.801   5.198   6.672
10729SOL     OW33085   6.454   1.326   2.315
10729SOL    HW133086   6.474   1.229   2.330
10729SOL    HW233087   6.438   1.341   2.218
10730SOL     OW33088   3.158   0.044   1.070
10730SOL    HW133089   3.202   0.120   1.022
10730SOL    HW233090   3.192   6.977   1.032
10731SOL     OW33091   3.597   0.482   0.811
10731SOL    HW133092   3.509   0.471   0.764
10731SOL    HW233093   3.586   0.459   0.908
10732SOL     OW33094   0.612   4.907   5.613
10732SOL    HW133095   0.698   4.941   5.574
10732SOL    HW233096   0.608   4.808   5.603
10733SOL     OW33097   5.993   1.667   6.639
10733SOL    HW133098   6.090   1.666   6.617
10733SOL    HW233099   5.981   1.657   6.738
10734SOL     OW33100   1.706   1.211   0.308
10734SOL    HW133101   1.626   1.159   0.336
10734SOL    HW233102   1.704   1.224   0.209
10735SOL     OW33103   0.803   2.902   2.254
10735SOL    HW133104   0.703   2.899   2.246
10735SOL    HW233105   0.836   2.814   2.289
10736SOL     OW33106   1.336   0.458   3.404
10736SOL    HW133107   1.397   0.496   3.473
10736SOL    HW233108   1.386   0.394   3.346
10737SOL     OW33109   1.250   2.227   0.888
10737SOL    HW133110   1.202   2.313   0.873
10737SOL    HW233111   1.188   2.161   0.931
10738SOL     OW33112   2.928   6.374   2.152
10738SOL    HW133113   2.966   6.324   2.074
10738SOL    HW233114   2.922   6.471   2.130
10739SOL     OW33115   1.937   1.126   1.272
10739SOL    HW133116   2.031   1.098   1.288
10739SOL    HW233117   1.932   1.226   1.271
10740SOL     OW33118   0.007   5.163   5.389
10740SOL    HW133119   0.064   5.086   5.360
10740SOL    HW233120   0.026   5.185   5.484
10741SOL     OW33121   4.308   1.167   1.462
10741SOL    HW133122   4.234   1.147   1.526
10741SOL    HW233123   4.280   1.141   1.370
10742SOL     OW33124   6.047   0.077   1.328
10742SOL    HW133125   6.017   0.160   1.374
10742SOL    HW233126   6.048   0.000   1.392
10743SOL     OW33127   1.294   2.546   5.863
10743SOL    HW133128   1.352   2.563   5.784
10743SOL    HW233129   1.211   2.499   5.834
10744SOL     OW33130   3.540   1.062   0.629
10744SOL    HW133131   3.637   1.046   0.614
10744SOL    HW233132   3.487   1.005   0.566
10745SOL     OW33133   6.933   5.775   5.762
10745SOL    HW133134   6.951   5.731   5.674
10745SOL    HW233135   7.012   5.764   5.822
10746SOL     OW33136   1.431   4.181   0.664
10746SOL    HW133137   1.494   4.257   0.682
10746SOL    HW233138   1.339   4.218   0.647
10747SOL     OW33139   3.788   1.526   4.819
10747SOL    HW133140   3.876   1.483   4.800
10747SOL    HW233141   3.777   1.536   4.918
10748SOL     OW33142   5.446   0.729   1.204
10748SOL    HW133143   5.514   0.802   1.218
10748SOL    HW233144   5.481   0.644   1.242
10749SOL     OW33145   0.027   5.805   3.967
10749SOL    HW133146   0.075   5.878   3.917
10749SOL    HW233147   6.964   5.780   3.917
10750SOL     OW33148   4.008   6.779   4.746
10750SOL    HW133149   4.035   6.709   4.680
10750SOL    HW233150   3.956   6.851   4.701
10751SOL     OW33151   1.533   4.742   3.904
10751SOL    HW133152   1.514   4.650   3.939
10751SOL    HW233153   1.605   4.737   3.835
10752SOL     OW33154   5.840   4.803   5.101
10752SOL    HW133155   5.893   4.738   5.154
10752SOL    HW233156   5.890   4.828   5.018
10753SOL     OW33157   6.303   4.799   4.203
10753SOL    HW133158   6.379   4.853   4.240
10753SOL    HW233159   6.259   4.849   4.129
10754SOL     OW33160   0.828   6.872   3.320
10754SOL    HW133161   0.869   6.781   3.318
10754SOL    HW233162   0.823   6.905   3.415
10755SOL     OW33163   6.821   0.261   0.779
10755SOL    HW133164   6.917   0.290   0.776
10755SOL    HW233165   6.785   0.276   0.872
10756SOL     OW33166   6.839   5.438   5.733
10756SOL    HW133167   6.933   5.445   5.768
10756SOL    HW233168   6.843   5.416   5.635
10757SOL     OW33169   1.738   2.389   0.039
10757SOL    HW133170   1.696   2.312   0.086
10757SOL    HW233171   1.828   2.407   0.079
10758SOL     OW33172   1.060   6.338   4.171
10758SOL    HW133173   1.132   6.354   4.238
10758SOL    HW233174   0.989   6.281   4.211
10759SOL     OW33175   2.187   3.753   0.685
10759SOL    HW133176   2.125   3.724   0.611
10759SOL    HW233177   2.191   3.853   0.687
10760SOL     OW33178   5.931   0.519   3.221
10760SOL    HW133179   5.994   0.521   3.144
10760SOL    HW233180   5.970   0.571   3.297
10761SOL     OW33181   0.216   5.725   5.616
10761SOL    HW133182   0.235   5.799   5.551
10761SOL    HW233183   0.273   5.646   5.593
10762SOL     OW33184   3.017   1.173   4.725
10762SOL    HW133185   3.093   1.169   4.660
10762SOL    HW233186   3.030   1.103   4.796
10763SOL     OW33187   3.644   6.774   2.702
10763SOL    HW133188   3.646   6.732   2.792
10763SOL    HW233189   3.557   6.824   2.690
10764SOL     OW33190   5.280   1.842   5.347
10764SOL    HW133191   5.348   1.793   5.291
10764SOL    HW233192   5.226   1.776   5.398
10765SOL     OW33193   4.741   3.012   0.397
10765SOL    HW133194   4.740   2.956   0.314
10765SOL    HW233195   4.736   2.952   0.478
10766SOL     OW33196   4.480   4.778   0.863
10766SOL    HW133197   4.525   4.739   0.783
10766SOL    HW233198   4.544   4.780   0.939
10767SOL     OW33199   2.850   0.794   1.449
10767SOL    HW133200   2.771   0.849   1.479
10767SOL    HW233201   2.934   0.843   1.470
10768SOL     OW33202   5.179   5.208   1.252
10768SOL    HW133203   5.223   5.137   1.307
10768SOL    HW233204   5.240   5.288   1.246
10769SOL     OW33205   1.856   4.165   5.983
10769SOL    HW133206   1.853   4.255   5.940
10769SOL    HW233207   1.947   4.150   6.022
10770SOL     OW33208   4.762   6.436   3.860
10770SOL    HW133209   4.713   6.455   3.775
10770SOL    HW233210   4.860   6.442   3.844
10771SOL     OW33211   4.227   0.294   3.993
10771SOL    HW133212   4.215   0.240   4.076
10771SOL    HW233213   4.139   0.329   3.962
10772SOL     OW33214   6.039   6.657   4.812
10772SOL    HW133215   5.995   6.707   4.886
10772SOL    HW233216   5.974   6.592   4.772
10773SOL     OW33217   5.678   4.836   6.675
10773SOL    HW133218   5.676   4.741   6.706
10773SOL    HW233219   5.597   4.854   6.619
10774SOL     OW33220   2.060   1.088   5.408
10774SOL    HW133221   2.086   0.992   5.398
10774SOL    HW233222   1.990   1.111   5.341
10775SOL     OW33223   0.276   4.714   2.518
10775SOL    HW133224   0.357   4.756   2.561
10775SOL    HW233225   0.272   4.617   2.543
10776SOL     OW33226   0.910   1.250   6.938
10776SOL    HW133227   0.947   1.231   0.009
10776SOL    HW233228   0.886   1.346   6.931
10777SOL     OW33229   3.757   5.527   1.418
10777SOL    HW133230   3.678   5.586   1.407
10777SOL    HW233231   3.786   5.493   1.328
10778SOL     OW33232   5.068   0.013   3.739
10778SOL    HW133233   4.989   6.979   3.767
10778SOL    HW233234   5.041   0.108   3.728
10779SOL     OW33235   5.506   2.881   3.092
10779SOL    HW133236   5.579   2.823   3.056
10779SOL    HW233237   5.424   2.870   3.037
10780SOL     OW33238   1.285   0.475   4.144
10780SOL    HW133239   1.249   0.433   4.227
10780SOL    HW233240   1.382   0.455   4.135
10781SOL     OW33241   3.899   0.882   3.866
10781SOL    HW133242   3.808   0.876   3.908
10781SOL    HW233243   3.942   0.968   3.892
10782SOL     OW33244   0.035   0.864   3.074
10782SOL    HW133245   0.133   0.845   3.068
10782SOL    HW233246   0.020   0.940   3.137
10783SOL     OW33247   0.529   2.543   2.855
10783SOL    HW133248   0.475   2.482   2.913
10783SOL    HW233249   0.626   2.528   2.872
10784SOL     OW33250   3.659   0.898   4.022
10784SOL    HW133251   3.665   0.991   4.057
10784SOL    HW233252   3.570   0.858   4.048
10785SOL     OW33253   0.970   3.940   0.921
10785SOL    HW133254   0.999   3.970   0.830
10785SOL    HW233255   0.958   4.020   0.980
10786SOL     OW33256   6.027   4.993   3.117
10786SOL    HW133257   6.013   5.092   3.107
10786SOL    HW233258   5.941   4.949   3.144
10787SOL     OW33259   0.841   0.842   5.605
10787SOL    HW133260   0.910   0.820   5.536
10787SOL    HW233261   0.824   0.762   5.663
10788SOL     OW33262   0.686   4.034   0.573
10788SOL    HW133263   0.671   3.947   0.619
10788SOL    HW233264   0.758   4.024   0.504
10789SOL     OW33265   6.476   3.737   6.757
10789SOL    HW133266   6.520   3.649   6.743
10789SOL    HW233267   6.499   3.799   6.682
10790SOL     OW33268   0.800   0.007   1.971
10790SOL    HW133269   0.733   6.987   1.908
10790SOL    HW233270   0.826   0.097   1.938
10791SOL     OW33271   0.361   5.922   2.256
10791SOL    HW133272   0.438   5.971   2.215
10791SOL    HW233273   0.329   5.850   2.193
10792SOL     OW33274   3.223   3.048   4.933
10792SOL    HW133275   3.297   3.113   4.953
10792SOL    HW233276   3.142   3.072   4.988
10793SOL     OW33277   6.277   4.014   5.851
10793SOL    HW133278   6.248   3.976   5.939
10793SOL    HW233279   6.331   3.946   5.802
10794SOL     OW33280   3.942   3.830   4.155
10794SOL    HW133281   3.998   3.850   4.235
10794SOL    HW233282   3.891   3.912   4.129
10795SOL     OW33283   6.931   5.404   2.735
10795SOL    HW133284   6.976   5.488   2.763
10795SOL    HW233285   6.995   5.347   2.683
10796SOL     OW33286   6.491   0.220   5.067
10796SOL    HW133287   6.476   0.165   4.984
10796SOL    HW233288   6.587   0.249   5.070
10797SOL     OW33289   3.707   2.922   1.400
10797SOL    HW133290   3.715   2.865   1.482
10797SOL    HW233291   3.630   2.985   1.410
10798SOL     OW33292   2.612   1.219   0.196
10798SOL    HW133293   2.670   1.150   0.241
10798SOL    HW233294   2.659   1.307   0.197
10799SOL     OW33295   4.220   0.730   2.176
10799SOL    HW133296   4.237   0.820   2.215
10799SOL    HW233297   4.122   0.721   2.154
10800SOL     OW33298   1.113   6.017   5.885
10800SOL    HW133299   1.126   6.110   5.850
10800SOL    HW233300   1.113   6.019   5.985
10801SOL     OW33301   1.160   0.221   7.007
10801SOL    HW133302   1.142   0.318   6.991
10801SOL    HW233303   1.083   0.166   6.975
10802SOL     OW33304   0.228   0.176   2.741
10802SOL    HW133305   0.164   0.201   2.668
10802SOL    HW233306   0.312   0.231   2.731
10803SOL     OW33307   1.534   5.266   5.868
10803SOL    HW133308   1.541   5.302   5.776
10803SOL    HW233309   1.612   5.299   5.922
10804SOL     OW33310   6.576   2.789   3.281
10804SOL    HW133311   6.675   2.786   3.274
10804SOL    HW233312   6.545   2.726   3.352
10805SOL     OW33313   5.275   0.514   5.209
10805SOL    HW133314   5.246   0.519   5.113
10805SOL    HW233315   5.354   0.453   5.216
10806SOL     OW33316   3.829   4.702   6.509
10806SOL    HW133317   3.918   4.670   6.476
10806SOL    HW233318   3.785   4.757   6.438
10807SOL     OW33319   1.101   5.969   3.639
10807SOL    HW133320   1.113   5.951   3.541
10807SOL    HW233321   1.015   5.929   3.669
10808SOL     OW33322   0.080   2.421   6.140
10808SOL    HW133323   0.030   2.342   6.175
10808SOL    HW233324   0.176   2.416   6.169
10809SOL     OW33325   2.390   4.472   4.180
10809SOL    HW133326   2.326   4.548   4.192
10809SOL    HW233327   2.377   4.433   4.089
10810SOL     OW33328   6.928   0.281   3.787
10810SOL    HW133329   6.986   0.343   3.734
10810SOL    HW233330   6.984   0.209   3.827
10811SOL     OW33331   4.429   5.006   5.382
10811SOL    HW133332   4.516   5.034   5.341
10811SOL    HW233333   4.372   5.086   5.398
10812SOL     OW33334   6.749   4.001   6.256
10812SOL    HW133335   6.818   3.944   6.300
10812SOL    HW233336   6.692   3.945   6.197
10813SOL     OW33337   0.668   3.361   5.994
10813SOL    HW133338   0.757   3.348   6.037
10813SOL    HW233339   0.595   3.329   6.055
10814SOL     OW33340   2.238   6.942   0.138
10814SOL    HW133341   2.332   6.920   0.112
10814SOL    HW233342   2.225   6.921   0.235
10815SOL     OW33343   5.125   2.300   2.694
10815SOL    HW133344   5.201   2.278   2.755
10815SOL    HW233345   5.155   2.292   2.599
10816SOL     OW33346   3.603   3.626   2.695
10816SOL    HW133347   3.600   3.526   2.703
10816SOL    HW233348   3.683   3.660   2.744
10817SOL     OW33349   3.212   0.784   3.421
10817SOL    HW133350   3.119   0.805   3.389
10817SOL    HW233351   3.275   0.855   3.389
10818SOL     OW33352   4.766   4.940   5.668
10818SOL    HW133353   4.862   4.930   5.695
10818SOL    HW233354   4.761   4.970   5.573
10819SOL     OW33355   5.967   5.116   5.943
10819SOL    HW133356   6.023   5.046   5.988
10819SOL    HW233357   5.922   5.075   5.863
10820SOL     OW33358   0.309   5.553   4.379
10820SOL    HW133359   0.225   5.594   4.415
10820SOL    HW233360   0.388   5.602   4.415
10821SOL     OW33361   4.495   6.463   2.874
10821SOL    HW133362   4.467   6.450   2.779
10821SOL    HW233363   4.467   6.383   2.928
10822SOL     OW33364   6.130   1.894   1.395
10822SOL    HW133365   6.075   1.830   1.447
10822SOL    HW233366   6.113   1.987   1.428
10823SOL     OW33367   0.520   0.545   3.464
10823SOL    HW133368   0.548   0.538   3.560
10823SOL    HW233369   0.434   0.596   3.457
10824SOL     OW33370   1.024   1.741   2.313
10824SOL    HW133371   1.058   1.692   2.393
10824SOL    HW233372   1.079   1.717   2.233
10825SOL     OW33373   1.420   2.312   0.428
10825SOL    HW133374   1.431   2.409   0.450
10825SOL    HW233375   1.484   2.287   0.355
10826SOL     OW33376   0.829   2.229   2.195
10826SOL    HW133377   0.752   2.189   2.145
10826SOL    HW233378   0.807   2.234   2.292
10827SOL     OW33379   6.680   3.166   4.666
10827SOL    HW133380   6.622   3.092   4.700
10827SOL    HW233381   6.772   3.157   4.705
10828SOL     OW33382   0.160   4.020   0.292
10828SOL    HW133383   0.121   4.032   0.200
10828SOL    HW233384   0.199   4.106   0.323
10829SOL     OW33385   4.199   3.942   0.109
10829SOL    HW133386   4.249   3.856   0.116
10829SOL    HW233387   4.253   4.009   0.058
10830SOL     OW33388   4.788   1.746   3.929
10830SOL    HW133389   4.880   1.717   3.955
10830SOL    HW233390   4.794   1.814   3.857
10831SOL     OW33391   3.296   0.041   1.930
10831SOL    HW133392   3.275   0.136   1.909
10831SOL    HW233393   3.239   7.000   1.875
10832SOL     OW33394   6.239   3.586   6.738
10832SOL    HW133395   6.300   3.662   6.758
10832SOL    HW233396   6.290   3.514   6.691
10833SOL     OW33397   0.520   2.567   0.762
10833SOL    HW133398   0.603   2.546   0.814
10833SOL    HW233399   0.500   2.493   0.698
10834SOL     OW33400   6.875   1.398   0.291
10834SOL    HW133401   6.781   1.410   0.260
10834SOL    HW233402   6.899   1.473   0.353
10835SOL     OW33403   5.176   3.381   0.021
10835SOL    HW133404   5.102   3.387   6.974
10835SOL    HW233405   5.244   3.316   7.009
10836SOL     OW33406   1.018   1.216   2.871
10836SOL    HW133407   1.067   1.231   2.785
10836SOL    HW233408   1.061   1.142   2.922
10837SOL     OW33409   6.242   4.779   2.188
10837SOL    HW133410   6.266   4.692   2.232
10837SOL    HW233411   6.324   4.836   2.179
10838SOL     OW33412   5.744   6.467   4.020
10838SOL    HW133413   5.718   6.456   4.116
10838SOL    HW233414   5.705   6.392   3.967
10839SOL     OW33415   4.804   3.331   0.720
10839SOL    HW133416   4.761   3.279   0.794
10839SOL    HW233417   4.754   3.416   0.705
10840SOL     OW33418   3.669   0.272   2.871
10840SOL    HW133419   3.743   0.232   2.817
10840SOL    HW233420   3.687   0.370   2.885
10841SOL     OW33421   6.176   4.854   5.153
10841SOL    HW133422   6.243   4.927   5.158
10841SOL    HW233423   6.120   4.865   5.070
10842SOL     OW33424   4.563   2.512   1.252
10842SOL    HW133425   4.502   2.590   1.238
10842SOL    HW233426   4.571   2.493   1.350
10843SOL     OW33427   1.713   1.313   0.897
10843SOL    HW133428   1.809   1.334   0.915
10843SOL    HW233429   1.707   1.224   0.852
10844SOL     OW33430   0.201   4.979   3.499
10844SOL    HW133431   0.292   4.964   3.538
10844SOL    HW233432   0.138   4.910   3.532
10845SOL     OW33433   4.324   5.987   4.897
10845SOL    HW133434   4.415   5.969   4.935
10845SOL    HW233435   4.258   5.923   4.936
10846SOL     OW33436   5.693   6.745   6.938
10846SOL    HW133437   5.611   6.781   6.894
10846SOL    HW233438   5.750   6.698   6.870
10847SOL     OW33439   2.820   2.181   0.056
10847SOL    HW133440   2.879   2.212   0.131
10847SOL    HW233441   2.843   2.086   0.034
10848SOL     OW33442   0.491   3.961   0.839
10848SOL    HW133443   0.496   4.044   0.896
10848SOL    HW233444   0.479   3.881   0.898
10849SOL     OW33445   2.596   4.661   4.122
10849SOL    HW133446   2.520   4.597   4.132
10849SOL    HW233447   2.602   4.718   4.204
10850SOL     OW33448   4.041   6.352   0.157
10850SOL    HW133449   4.108   6.335   0.230
10850SOL    HW233450   4.013   6.448   0.160
10851SOL     OW33451   3.002   4.080   1.185
10851SOL    HW133452   2.970   4.064   1.279
10851SOL    HW233453   2.945   4.151   1.143
10852SOL     OW33454   2.124   1.501   6.888
10852SOL    HW133455   2.074   1.433   6.833
10852SOL    HW233456   2.071   1.522   6.970
10853SOL     OW33457   2.548   3.517   6.017
10853SOL    HW133458   2.527   3.613   5.998
10853SOL    HW233459   2.580   3.473   5.933
10854SOL     OW33460   4.617   5.093   5.213
10854SOL    HW133461   4.559   5.049   5.145
10854SOL    HW233462   4.689   5.145   5.167
10855SOL     OW33463   3.874   0.445   0.839
10855SOL    HW133464   3.786   0.470   0.799
10855SOL    HW233465   3.943   0.513   0.813
10856SOL     OW33466   0.179   1.138   6.593
10856SOL    HW133467   0.261   1.080   6.590
10856SOL    HW233468   0.129   1.119   6.678
10857SOL     OW33469   0.328   1.860   2.717
10857SOL    HW133470   0.320   1.847   2.619
10857SOL    HW233471   0.399   1.799   2.754
10858SOL     OW33472   2.120   0.260   0.914
10858SOL    HW133473   2.051   0.266   0.986
10858SOL    HW233474   2.209   0.237   0.955
10859SOL     OW33475   6.913   4.620   4.498
10859SOL    HW133476   6.960   4.696   4.453
10859SOL    HW233477   6.949   4.608   4.590
10860SOL     OW33478   7.018   3.487   3.890
10860SOL    HW133479   6.970   3.477   3.803
10860SOL    HW233480   6.952   3.503   3.963
10861SOL     OW33481   2.991   3.114   2.904
10861SOL    HW133482   2.919   3.183   2.896
10861SOL    HW233483   3.024   3.090   2.813
10862SOL     OW33484   2.502   0.666   5.664
10862SOL    HW133485   2.534   0.600   5.596
10862SOL    HW233486   2.435   0.728   5.622
10863SOL     OW33487   2.233   0.398   4.669
10863SOL    HW133488   2.226   0.496   4.648
10863SOL    HW233489   2.141   0.360   4.678
10864SOL     OW33490   2.610   6.554   0.994
10864SOL    HW133491   2.702   6.521   1.015
10864SOL    HW233492   2.614   6.615   0.915
10865SOL     OW33493   6.609   1.478   0.199
10865SOL    HW133494   6.652   1.562   0.169
10865SOL    HW233495   6.566   1.492   0.289
10866SOL     OW33496   5.651   5.147   0.274
10866SOL    HW133497   5.576   5.121   0.213
10866SOL    HW233498   5.735   5.158   0.220
10867SOL     OW33499   3.114   4.091   0.563
10867SOL    HW133500   3.049   4.042   0.622
10867SOL    HW233501   3.207   4.057   0.581
10868SOL     OW33502   5.151   1.876   3.690
10868SOL    HW133503   5.115   1.784   3.676
10868SOL    HW233504   5.249   1.870   3.712
10869NA      NA33505   6.492   2.442   5.551
10870NA      NA33506   4.415   4.577   5.247
10871NA      NA33507   1.758   3.137   1.592
10872NA      NA33508   5.154   3.878   5.333
10873NA      NA33509   4.105   2.230   4.965
10874NA      NA33510   3.751   4.862   1.827
10875NA      NA33511   6.704   5.284   5.878
10876NA      NA33512   3.409   3.335   4.578
10877NA      NA33513   4.694   6.132   0.087
10878NA      NA33514   3.810   6.448   5.322
10879NA      NA33515   6.308   5.113   2.808
10880NA      NA33516   2.614   0.525   3.733
10881NA      NA33517   3.801   5.391   1.606
10882NA      NA33518   3.897   3.432   2.204
   7.02016   7.02016   7.02016
